Membrane in water
40155
    1TCq1    O1    1   4.537   4.498  11.685 -0.1046  0.0800  0.1901
    1TCq1    C1    2   4.615   4.383  11.685  0.1791 -0.8344 -0.4726
    1TCq1    O2    3   4.657   4.337  11.790  0.0526  0.9099 -0.7433
    1TCq1    C2    4   4.602   4.308  11.564 -0.0570  0.2224 -0.5662
    1TCq1    C3    5   4.578   4.371  11.443 -0.1744  0.0802 -0.1495
    1TCq1    C4    6   4.602   4.294  11.330  0.1506  0.0076  0.3411
    1TCq1    C5    7   4.647   4.162  11.339  0.2542  0.9388  0.2910
    1TCq1    C6    8   4.679   4.106  11.462 -0.8012  0.1239  0.0237
    1TCq1    C7    9   4.648   4.179  11.574 -0.1275  0.4238 -0.6051
    1TCq1    C8   10   4.641   3.972  11.470  0.3960  0.2426 -0.2441
    1TCq1    O4   11   4.593   3.934  11.578  0.0084 -0.4375  0.1678
    1TCq1    C9   12   4.597   4.351  11.192  0.0018  0.1390 -0.8825
    1TCq1    O5   13   4.627   4.271  11.098 -0.2352 -0.6930 -0.4217
    1TCq1    O6   14   4.523   4.453  11.173 -0.4807  0.6151  0.5272
    1TCq1    H1   15   4.514   4.527  11.594 -3.2408 -1.3520  0.5058
    1TCq1    H2   16   4.560   4.477  11.433  0.2906  0.3003  1.4733
    1TCq1    H3   17   4.658   4.107  11.247 -1.1804 -2.4992  2.1906
    1TCq1    H4   18   4.670   4.138  11.672 -0.8257  0.5354 -0.3969
    2MPD2     C   19   4.643   3.491  11.287 -0.0080  0.4656  0.6232
    2MPD2    C1   20   4.547   3.551  11.368 -0.8061 -0.7312  0.5606
    2MPD2    C2   21   4.566   3.686  11.398  0.2401  0.3439 -0.0659
    2MPD2    C3   22   4.666   3.758  11.341  0.1110 -0.0113  0.2575
    2MPD2    C4   23   0.021   3.701  11.244 -0.7052  1.3065  0.1570
    2MPD2    C5   24   0.007   3.567  11.219  0.9648 -0.4651  0.8894
    2MPD2     H   25   4.501   3.743  11.464  0.8746 -0.2966  1.1154
    2MPD2    H1   26   0.098   3.760  11.195 -1.5192  2.6223  0.4697
    2MPD2    H2   27   4.642   3.384  11.270 -1.8171  0.7260 -0.8705
    2MPD2    H3   28   0.074   3.520  11.149  0.0739  1.0820 -0.9862
    2MPD2     N   29   4.682   3.898  11.360 -0.5042 -0.0355 -0.3566
    2MPD2    H5   30   0.020   3.949  11.301  0.3274 -0.2874  0.3400
    2MPD2    N1   31   4.437   3.489  11.427  0.4176 -0.8930  0.0535
    2MPD2    H7   32   4.382   3.544  11.493  0.7974 -1.9396  1.2313
    3TCq1    O1   33   3.759   4.293  10.339 -0.7696 -0.4802 -0.4192
    3TCq1    C1   34   3.713   4.219  10.444 -0.1791 -0.6614  0.0273
    3TCq1    O2   35   3.781   4.141  10.512 -0.4011  0.3676  0.1720
    3TCq1    C2   36   3.616   4.314  10.503  0.1064 -0.1488 -0.1924
    3TCq1    C3   37   3.610   4.449  10.458 -0.2556  0.5901 -0.2794
    3TCq1    C4   38   3.514   4.532  10.517 -0.6087 -0.5274  1.0467
    3TCq1    C5   39   3.421   4.480  10.610  0.0182 -0.1216 -0.5677
    3TCq1    C6   40   3.437   4.349  10.649 -0.3172  0.0057  0.2646
    3TCq1    C7   41   3.536   4.267  10.598  0.4799 -0.3475  0.1325
    3TCq1    C8   42   3.350   4.292  10.749 -0.1886  0.2867 -0.0681
    3TCq1    O4   43   3.347   4.172  10.763 -0.5921  0.0010  0.2569
    3TCq1    C9   44   3.521   4.670  10.490 -0.0904  0.5878 -0.3020
    3TCq1    O5   45   3.592   4.710  10.394 -0.1574  0.5744  0.1586
    3TCq1    O6   46   3.453   0.020  10.571  0.4486 -0.0736  0.1073
    3TCq1    H1   47   3.692   4.355  10.303  0.1209  1.4146  1.2266
    3TCq1    H2   48   3.680   4.502  10.394 -0.0547  1.8006  0.9272
    3TCq1    H3   49   3.353   4.544  10.665 -1.0574 -1.7101 -0.0404
    3TCq1    H4   50   3.545   4.164  10.628 -0.4608 -0.3501  0.4019
    4MPD2     C   51   3.010   4.345  11.128 -0.0458 -0.0269  0.3303
    4MPD2    C1   52   3.087   4.463  11.129  0.3275  0.2684 -0.1496
    4MPD2    C2   53   3.178   4.478  11.020  0.9241 -0.1661  0.3697
    4MPD2    C3   54   3.203   4.371  10.930  0.7163  0.1141 -0.7351
    4MPD2    C4   55   3.133   4.255  10.949  0.1933 -0.3803 -0.0030
    4MPD2    C5   56   3.030   4.249  11.037 -0.5085  0.2398  0.1187
    4MPD2     H   57   3.234   4.570  11.011 -1.3373  1.3449  1.6239
    4MPD2    H1   58   3.150   4.169  10.884  0.9596 -0.7191  0.6420
    4MPD2    H2   59   2.935   4.319  11.202 -0.9955  2.2172  0.1851
    4MPD2    H3   60   2.968   4.160  11.040  1.3091 -1.2540 -4.9777
    4MPD2     N   61   3.298   4.390  10.833 -0.0510  0.3971  0.3058
    4MPD2    H5   62   3.331   4.486  10.831  2.0284 -0.3259  0.3913
    4MPD2    N1   63   3.063   4.574  11.215  0.0573 -0.2627  0.0420
    4MPD2    H7   64   3.113   4.661  11.199  1.0079 -0.9171 -0.4861
    5TCq1    O1   65   2.821   0.712  11.016  0.9481  0.0579  0.8912
    5TCq1    C1   66   2.805   0.701  10.883 -0.2498 -0.2070  0.2576
    5TCq1    O2   67   2.852   0.615  10.809  0.1085  0.2752  0.4975
    5TCq1    C2   68   2.797   0.840  10.853 -0.2844  0.6936  0.0150
    5TCq1    C3   69   2.704   0.916  10.923  0.6812 -1.1796 -0.7299
    5TCq1    C4   70   2.692   1.046  10.883  0.3499  0.6587 -0.6584
    5TCq1    C5   71   2.785   1.096  10.791  1.0197 -0.4531  0.0204
    5TCq1    C6   72   2.881   1.014  10.734 -0.1918 -0.1061  0.0254
    5TCq1    C7   73   2.879   0.883  10.755 -0.6334  0.2154 -0.5112
    5TCq1    C8   74   3.012   1.057  10.711 -0.2038 -0.4480  0.5959
    5TCq1    O4   75   3.094   0.971  10.692 -0.7086  0.9752  0.0639
    5TCq1    C9   76   2.597   1.137  10.945 -0.4522 -0.1911  0.1170
    5TCq1    O5   77   2.554   1.104  11.057 -0.0208  0.2636 -0.4356
    5TCq1    O6   78   2.591   1.247  10.894 -0.4295  0.3649 -0.0666
    5TCq1    H1   79   2.808   0.801  11.053 -0.9411 -1.3034  3.4982
    5TCq1    H2   80   2.639   0.881  11.002 -0.3599  0.1043 -1.0251
    5TCq1    H3   81   2.780   1.199  10.759  1.1622 -0.2833  0.5361
    5TCq1    H4   82   2.940   0.814  10.698  0.3948  2.3738 -2.0178
    6MPD2     C   83   3.164   1.371  10.790 -0.0750  0.7839 -0.3372
    6MPD2    C1   84   3.151   1.252  10.721  0.4306  0.4347  0.1409
    6MPD2    C2   85   3.258   1.195  10.652  0.1301  0.4749 -0.0997
    6MPD2    C3   86   3.379   1.254  10.656 -0.5102  0.3723 -0.1722
    6MPD2    C4   87   3.396   1.371  10.728 -0.0852  0.1550  0.6582
    6MPD2    C5   88   3.286   1.431  10.788  0.3742  0.0252  0.3707
    6MPD2     H   89   3.248   1.108  10.589  1.0061 -0.4922  1.0841
    6MPD2    H1   90   3.493   1.419  10.731 -0.3487  0.6778  0.8800
    6MPD2    H2   91   3.080   1.423  10.835  1.2861  1.3229  1.5274
    6MPD2    H3   92   3.305   1.520  10.846  2.6901 -0.4078  0.2943
    6MPD2     N   93   3.484   1.178  10.593  0.3478  0.0509 -0.1494
    6MPD2    H5   94   3.466   1.108  10.521 -0.4132 -0.9944  1.0501
    6MPD2    N1   95   3.030   1.191  10.728 -0.3924 -0.0497  0.1467
    6MPD2    H7   96   2.958   1.244  10.775 -0.5350 -1.3674  1.4034
    7TCq1    O1   97   1.627   4.372  12.037  0.0648  0.3046 -0.2223
    7TCq1    C1   98   1.760   4.335  12.027  0.1586  0.4693  1.0350
    7TCq1    O2   99   1.801   4.271  11.932 -0.2576  0.3993 -0.2381
    7TCq1    C2  100   1.833   4.444  12.095 -0.1916  0.1908  0.3286
    7TCq1    C3  101   1.900   4.530  12.014 -0.1748  0.0361  0.1837
    7TCq1    C4  102   1.916   4.657  12.062  0.1420 -0.4388  0.3096
    7TCq1    C5  103   1.866   4.695  12.188 -0.3562  0.2278 -0.3676
    7TCq1    C6  104   1.806   4.603  12.268 -0.3141 -0.6709  0.0343
    7TCq1    C7  105   1.785   4.478  12.217  0.4040  0.0535  0.4409
    7TCq1    C8  106   1.751   4.635  12.400 -0.2943 -0.2136 -0.5147
    7TCq1    O4  107   1.713   4.539  12.465  0.0254  0.6201  0.4846
    7TCq1    C9  108   1.982   0.029  11.981  0.2746 -0.3970  0.5939
    7TCq1    O5  109   1.974   0.150  12.021 -0.4471  0.1521 -0.2183
    7TCq1    O6  110   2.035   4.712  11.872 -0.0767 -0.0787  0.1385
    7TCq1    H1  111   1.611   4.446  12.099 -0.4509  0.5460 -0.6377
    7TCq1    H2  112   1.931   4.498  11.915 -1.2415  1.4341 -0.5914
    7TCq1    H3  113   1.890   0.067  12.229  2.5685 -0.5219 -0.3140
    7TCq1    H4  114   1.719   4.408  12.266 -1.6813  0.6214 -1.5734
    8MPD2     C  115   1.583   0.223  12.765  0.2870 -0.0892 -0.0397
    8MPD2    C1  116   1.610   0.090  12.767 -0.5084 -0.0430  0.3189
    8MPD2    C2  117   1.659   0.025  12.655 -0.0929 -0.2303 -0.0631
    8MPD2    C3  118   1.698   0.100  12.542 -0.2483  0.3450 -1.0794
    8MPD2    C4  119   1.691   0.235  12.552 -0.0393  0.8293  0.0328
    8MPD2    C5  120   1.632   0.295  12.663 -0.8465 -0.3566  0.6375
    8MPD2     H  121   1.660   4.643  12.653 -0.7936 -0.2278 -0.6632
    8MPD2    H1  122   1.734   0.293  12.471  0.7644  0.5383  0.2521
    8MPD2    H2  123   1.539   0.276  12.847 -0.0297  0.1557 -0.3708
    8MPD2    H3  124   1.607   0.400  12.662 -1.6577 -0.5618 -1.0538
    8MPD2     N  125   1.743   0.047  12.421  0.0167 -0.5714 -0.7927
    8MPD2    H5  126   1.774   0.111  12.349  0.4512 -0.2213 -0.2850
    8MPD2    N1  127   1.585   0.006  12.874 -0.2030 -0.6024  0.3006
    8MPD2    H7  128   1.592   4.631  12.870 -1.2556 -0.6509 -0.4033
    9TCq1    O1  129   4.026   4.167  10.298  0.0377  0.0268 -0.0578
    9TCq1    C1  130   4.077   4.054  10.344 -0.8151  0.3732 -0.2498
    9TCq1    O2  131   4.079   3.943  10.285 -0.2788  0.2912 -0.2015
    9TCq1    C2  132   4.181   4.090  10.431  0.0411  0.7123  0.9861
    9TCq1    C3  133   4.300   4.031  10.407 -0.0336  0.1157  1.2230
    9TCq1    C4  134   4.406   4.078  10.481 -0.0388  0.3370 -0.3802
    9TCq1    C5  135   4.396   4.164  10.587 -0.5694  0.6291  0.0742
    9TCq1    C6  136   4.268   4.218  10.600 -0.7097  0.5423 -0.1389
    9TCq1    C7  137   4.155   4.193  10.520  0.5721 -0.1254  0.2545
    9TCq1    C8  138   4.258   4.327  10.695 -0.2744 -0.3169 -0.7630
    9TCq1    O4  139   4.355   4.400  10.713  0.1817 -0.6966 -0.3546
    9TCq1    C9  140   4.534   4.014  10.472  0.2800  0.3722 -0.4407
    9TCq1    O5  141   4.614   4.048  10.560 -0.0794  0.4050  0.1291
    9TCq1    O6  142   4.550   3.938  10.381  0.1098  0.4882 -0.2777
    9TCq1    H1  143   4.045   4.244  10.355  1.0243 -0.2499 -0.0165
    9TCq1    H2  144   4.311   3.957  10.328  1.5060  1.3120  0.3147
    9TCq1    H3  145   4.477   4.193  10.653 -2.4886  1.3461  2.1369
    9TCq1    H4  146   4.053   4.225  10.538 -0.3306 -1.4506 -2.5059
   10MPD2     C  147   4.162   4.557  10.849 -0.2143  0.2022  0.3334
   10MPD2    C1  148   4.111   4.426  10.863 -0.3713  0.5031  0.6231
   10MPD2    C2  149   4.039   4.399  10.974  0.1348 -0.0516 -0.3014
   10MPD2    C3  150   4.022   4.492  11.076  0.8358  0.4840 -0.2941
   10MPD2    C4  151   4.058   4.625  11.052  0.6802 -0.0042  0.3701
   10MPD2    C5  152   4.123   4.651  10.937 -0.3160 -0.0244  0.5643
   10MPD2     H  153   4.008   4.296  10.980  3.0624 -0.9350 -0.5024
   10MPD2    H1  154   4.025   4.702  11.120 -1.7912  0.0168 -0.8471
   10MPD2    H2  155   4.199   4.596  10.755 -3.7363  2.1115 -0.2785
   10MPD2    H3  156   4.149   0.029  10.919  0.7216 -0.2633  0.6811
   10MPD2     N  157   3.964   4.466  11.198  0.5907  0.0213  0.4280
   10MPD2    H5  158   3.959   4.528  11.278  1.2110 -1.0277  1.2880
   10MPD2    N1  159   4.138   4.330  10.764  0.3828 -0.6674 -0.4628
   10MPD2    H7  160   4.089   4.241  10.765  1.8714 -1.4790  0.6057
   11TCq1    O1  161   0.361   3.951  14.454 -0.8678  0.5143 -0.4095
   11TCq1    C1  162   0.501   3.944  14.442 -0.5137  0.2731 -0.0964
   11TCq1    O2  163   0.579   3.898  14.528 -0.2419  0.1175 -0.1823
   11TCq1    C2  164   0.546   4.038  14.336 -0.1288 -0.3695  0.0893
   11TCq1    C3  165   0.665   4.094  14.357  0.6083  0.4323 -0.0741
   11TCq1    C4  166   0.695   4.204  14.282  0.0111  0.0539  0.1918
   11TCq1    C5  167   0.620   4.246  14.176  0.3980  0.5422 -0.6590
   11TCq1    C6  168   0.505   4.176  14.158  0.5304 -0.0061  0.4864
   11TCq1    C7  169   0.460   4.083  14.235 -0.4870 -0.3904  0.8709
   11TCq1    C8  170   0.411   4.241  14.054  0.2672  0.2125  1.4780
   11TCq1    O4  171   0.449   4.348  14.010 -0.0209 -0.3747 -0.4616
   11TCq1    C9  172   0.820   4.263  14.315 -0.3239 -0.2870  0.5267
   11TCq1    O5  173   0.895   4.197  14.390 -0.0266 -0.1107  0.4092
   11TCq1    O6  174   0.853   4.360  14.251 -0.0651 -0.0241  0.0179
   11TCq1    H1  175   0.324   4.019  14.393 -2.4322 -1.2430 -1.4148
   11TCq1    H2  176   0.730   4.048  14.431 -3.2256 -0.8649  2.4663
   11TCq1    H3  177   0.652   4.333  14.120  0.0921  0.6075 -0.7329
   11TCq1    H4  178   0.371   4.027  14.208 -0.9900  0.6477  0.3853
   12MPD2     C  179   0.166   4.313  13.914 -0.0901  0.5908 -0.5467
   12MPD2    C1  180   0.200   4.182  13.942  0.5505 -0.2432  0.4967
   12MPD2    C2  181   0.117   4.068  13.907 -0.1072 -0.4169  0.8647
   12MPD2    C3  182   4.722   4.099  13.849 -0.4181  1.0519  0.4513
   12MPD2    C4  183   4.690   4.230  13.816 -0.3155  0.0615  0.0973
   12MPD2    C5  184   0.047   4.336  13.844 -0.8191  0.0816  0.1515
   12MPD2     H  185   0.143   3.966  13.934 -0.0492 -0.6396 -0.0389
   12MPD2    H1  186   4.601   4.252  13.759  0.0801 -0.0139 -0.5534
   12MPD2    H2  187   0.215   4.405  13.944  1.1433  0.2003 -1.3565
   12MPD2    H3  188   0.020   4.436  13.813 -0.5544  1.0167  2.9241
   12MPD2     N  189   4.625   4.003  13.812 -0.4496 -0.9062  0.1096
   12MPD2    H5  190   4.539   4.041  13.774 -0.3636 -2.3495 -1.5566
   12MPD2    N1  191   0.311   4.153  14.020 -0.3292 -0.7981  0.4377
   12MPD2    H7  192   0.334   4.057  14.043  0.8041 -0.1292  2.2023
   13TCq1    O1  193   4.374   3.452  10.939 -0.1952 -0.1510  0.4239
   13TCq1    C1  194   4.449   3.564  10.893  0.0479 -0.0271 -0.4024
   13TCq1    O2  195   4.570   3.579  10.909  0.1138 -0.3644 -0.1164
   13TCq1    C2  196   4.384   3.605  10.776  0.1294 -0.5335 -0.5491
   13TCq1    C3  197   4.430   3.606  10.646 -0.7005  0.6763  0.0337
   13TCq1    C4  198   4.360   3.643  10.535 -0.6835  0.6164 -0.1234
   13TCq1    C5  199   4.239   3.697  10.554  0.5662  0.2859  0.1443
   13TCq1    C6  200   4.186   3.702  10.682 -0.4109 -0.0875  0.2273
   13TCq1    C7  201   4.254   3.652  10.795 -0.2141 -0.0985  0.3003
   13TCq1    C8  202   4.045   3.739  10.697  0.1333 -0.2923 -0.5370
   13TCq1    O4  203   4.013   3.752  10.812  0.4949  0.4311  0.3018
   13TCq1    C9  204   4.412   3.618  10.404 -0.1020  0.3846  0.3647
   13TCq1    O5  205   4.532   3.584  10.392  0.1916 -0.2277  0.2278
   13TCq1    O6  206   4.337   3.642  10.308 -0.1438  0.5616 -0.2817
   13TCq1    H1  207   4.278   3.449  10.917 -0.5505  1.4522  1.7220
   13TCq1    H2  208   4.529   3.566  10.630 -0.7498  0.5206  0.1168
   13TCq1    H3  209   4.185   3.738  10.469  3.5656  1.0674 -1.3754
   13TCq1    H4  210   4.218   3.672  10.895 -0.3823 -2.1283  0.6433
   14MPD2     C  211   3.750   3.710  10.472 -0.3145  0.4764  0.3409
   14MPD2    C1  212   3.828   3.740  10.585 -0.4782 -1.0694 -0.0237
   14MPD2    C2  213   3.757   3.784  10.697 -0.0452  0.1580 -0.2188
   14MPD2    C3  214   3.614   3.802  10.688 -0.0466 -1.0311  0.6047
   14MPD2    C4  215   3.548   3.777  10.565  0.2397 -0.1703  0.1365
   14MPD2    C5  216   3.618   3.729  10.462  0.1097 -0.0604  0.3579
   14MPD2     H  217   3.801   3.814  10.791  1.5119 -1.1990 -0.5117
   14MPD2    H1  218   3.445   3.803  10.548  1.1606  1.6433 -2.5752
   14MPD2    H2  219   3.801   3.681  10.381  1.2042  1.7892  0.7673
   14MPD2    H3  220   3.568   3.711  10.368 -0.2287 -1.3079  0.7780
   14MPD2     N  221   3.554   3.861  10.802  0.2063 -0.7435  0.2097
   14MPD2    H5  222   3.620   3.895  10.871  0.1264 -1.8707  0.8495
   14MPD2    N1  223   3.965   3.716  10.585 -0.6414 -0.6846  0.3300
   14MPD2    H7  224   4.000   3.684  10.495  1.0589 -1.0443  1.1330
   15TCq1    O1  225   1.409   2.818   2.361 -0.1630 -0.2847 -0.7766
   15TCq1    C1  226   1.371   2.730   2.271  0.1609 -0.8214 -0.2325
   15TCq1    O2  227   1.278   2.728   2.194  0.6817 -0.2970  0.1634
   15TCq1    C2  228   1.493   2.657   2.249  0.5440  0.3593 -0.2748
   15TCq1    C3  229   1.555   2.605   2.354  0.1436 -0.3261  0.5621
   15TCq1    C4  230   1.647   2.511   2.332 -0.0783  0.0577 -0.2750
   15TCq1    C5  231   1.693   2.489   2.207 -0.3261  1.1410  0.3953
   15TCq1    C6  232   1.631   2.548   2.100  0.1458 -0.1775 -0.2026
   15TCq1    C7  233   1.520   2.630   2.121 -0.1231  0.1950 -0.1454
   15TCq1    C8  234   1.693   2.556   1.970  0.4191 -0.1102  0.3654
   15TCq1    O4  235   1.813   2.552   1.960 -0.0866  0.4896 -0.4907
   15TCq1    C9  236   1.704   2.445   2.441  0.3785 -0.4145 -0.2740
   15TCq1    O5  237   1.666   2.487   2.554  0.1297  0.2272  0.1903
   15TCq1    O6  238   1.779   2.342   2.414 -0.0469 -0.2909  0.1809
   15TCq1    H1  239   1.500   2.804   2.395 -1.3346 -0.8871  2.1833
   15TCq1    H2  240   1.526   2.627   2.456 -0.7516 -1.2814  0.5041
   15TCq1    H3  241   1.774   2.420   2.184 -2.1960 -1.1344  0.6909
   15TCq1    H4  242   1.469   2.679   2.039  0.9909  0.4739 -0.6725
   16MPD2     C  243   1.504   2.499   1.647 -0.0340  0.5321  0.0471
   16MPD2    C1  244   1.612   2.520   1.729  0.3185  0.6357 -0.7012
   16MPD2    C2  245   1.730   2.525   1.664 -0.2848 -0.5844  0.4913
   16MPD2    C3  246   1.738   2.511   1.531 -0.7497 -0.5218  0.4872
   16MPD2    C4  247   1.631   2.496   1.452 -0.1653 -0.3974  0.2654
   16MPD2    C5  248   1.510   2.495   1.516  0.3678  0.1603 -0.2370
   16MPD2     H  249   1.820   2.524   1.725  1.8558 -2.0493 -2.7059
   16MPD2    H1  250   1.634   2.499   1.344  0.8357 -0.9397  0.2836
   16MPD2    H2  251   1.407   2.482   1.692  0.6581  0.7491  1.5943
   16MPD2    H3  252   1.412   2.484   1.471  0.0998  1.8844 -0.0784
   16MPD2     N  253   1.867   2.521   1.471  0.1591 -0.9108  0.0141
   16MPD2    H5  254   1.938   2.545   1.539  0.7841  0.9538 -1.2854
   16MPD2    N1  255   1.597   2.528   1.872  0.8193 -0.2188 -0.5466
   16MPD2    H7  256   1.501   2.523   1.906  1.0582 -0.7027  0.0645
   17TCq1    O1  257   3.455   2.659   9.319 -0.0647  0.1981 -0.3097
   17TCq1    C1  258   3.440   2.679   9.452  0.1218  0.8017  0.0313
   17TCq1    O2  259   3.365   2.621   9.530 -0.5781  0.0515 -0.0995
   17TCq1    C2  260   3.558   2.758   9.492  0.5874 -0.3853 -1.1222
   17TCq1    C3  261   3.613   2.856   9.410  0.2679 -0.3085  0.4210
   17TCq1    C4  262   3.714   2.944   9.456  0.0588 -0.3187  0.4740
   17TCq1    C5  263   3.759   2.925   9.580  1.3417 -0.5326  0.4166
   17TCq1    C6  264   3.715   2.818   9.661  0.6924 -0.6314 -0.6655
   17TCq1    C7  265   3.615   2.740   9.614 -0.0752 -0.0011  0.0675
   17TCq1    C8  266   3.752   2.816   9.801 -0.3949 -0.2239 -0.5369
   17TCq1    O4  267   3.677   2.770   9.884 -0.5645  0.1453  0.2767
   17TCq1    C9  268   3.749   3.059   9.376  0.2977  0.3791 -0.3454
   17TCq1    O5  269   3.855   3.120   9.412  0.1322  0.3736 -0.2651
   17TCq1    O6  270   3.682   3.079   9.271  0.3545 -0.3419  0.3459
   17TCq1    H1  271   3.534   2.706   9.285 -0.4746  1.4023  0.4150
   17TCq1    H2  272   3.574   2.876   9.310  0.2138  1.2172  0.7489
   17TCq1    H3  273   3.823   3.000   9.624  1.6152 -0.4230 -0.1656
   17TCq1    H4  274   3.551   2.690   9.686 -1.4132  1.4328 -0.1372
   18MPD2     C  275   3.863   2.900  10.075  0.0142 -0.5963 -0.3687
   18MPD2    C1  276   3.937   2.883   9.954 -0.1465  0.0264  0.5521
   18MPD2    C2  277   4.072   2.897   9.958  0.0327 -0.0814 -0.1073
   18MPD2    C3  278   4.132   2.916  10.081  0.3050  0.1363 -0.3074
   18MPD2    C4  279   4.053   2.937  10.196 -0.1157 -0.0783 -0.2317
   18MPD2    C5  280   3.923   2.948  10.190  0.3486 -1.1374  0.5381
   18MPD2     H  281   4.132   2.883   9.868  0.5587 -0.3308  0.2829
   18MPD2    H1  282   4.102   2.961  10.289 -1.4430 -1.4926  0.8283
   18MPD2    H2  283   3.755   2.891  10.074 -0.1333  1.1594  1.4334
   18MPD2    H3  284   3.875   2.987  10.279 -0.5524  0.4852 -0.6598
   18MPD2     N  285   4.272   2.932  10.097  0.1387 -0.3527  0.1465
   18MPD2    H5  286   4.311   2.950  10.189 -0.6627 -1.8207  0.7846
   18MPD2    N1  287   3.878   2.866   9.827 -0.4667 -0.2501  0.4397
   18MPD2    H7  288   3.939   2.868   9.746  0.7577 -1.0402  1.3543
   19TMC2    C1  289   0.959   3.520  13.985  0.2595  0.0017  0.6279
   19TMC2    C2  290   0.925   3.606  13.884 -0.0259  1.0289  0.4201
   19TMC2    C3  291   0.804   3.582  13.833 -0.0021 -0.5357 -0.7700
   19TMC2    C4  292   0.869   3.435  14.047 -0.0459 -0.6690  0.3227
   19TMC2    C5  293   0.751   3.414  13.986  0.4723 -0.3346 -0.6188
   19TMC2    C6  294   0.714   3.486  13.873  0.2287  0.1993 -0.0103
   19TMC2     C  295   1.092   3.543  14.040  0.3370 -0.3270  0.2740
   19TMC2     O  296   1.156   3.639  13.987  0.0429 -0.6293 -0.0784
   19TMC2     H  297   1.000   3.653  13.821  1.6240 -0.0583  1.5680
   19TMC2    H1  298   0.904   3.378  14.132  1.2386 -1.2120 -0.5622
   19TMC2    H2  299   0.618   3.463  13.829  0.7273 -2.1853  0.1575
   19TMC2    C7  300   0.649   3.327  14.046  0.3301 -0.0161 -0.3719
   19TMC2    C8  301   0.775   3.658  13.710 -0.5210  0.1296 -0.8974
   19TMC2    O1  302   0.550   3.309  13.974 -0.1859  0.5019 -0.2206
   19TMC2    O2  303   0.832   3.761  13.677  0.2785  0.1000 -0.1753
   19TMC2    O5  304   0.725   3.567  13.621 -0.8983 -0.6312 -0.4592
   19TMC2    H5  305   0.696   3.477  13.648 -0.0626 -1.5581 -2.5523
   20MPD2     C  306   1.359   3.555  14.173  0.8620  0.0371 -0.0400
   20MPD2    C1  307   1.251   3.483  14.220 -0.2485 -0.4496 -0.9018
   20MPD2    C2  308   1.277   3.416  14.343  0.4394 -0.3215  0.1167
   20MPD2    C3  309   1.396   3.432  14.415 -0.3280  0.9503  0.3237
   20MPD2    C4  310   1.494   3.515  14.364 -0.2902 -0.0083 -0.0575
   20MPD2    C5  311   1.476   3.567  14.240  0.6496 -0.4686 -0.7073
   20MPD2     H  312   1.197   3.353  14.381 -0.2487  0.3951 -0.1347
   20MPD2    H1  313   1.591   3.532  14.410  0.7950  0.2803 -2.4728
   20MPD2    H2  314   1.361   3.582  14.068 -1.7126  0.5028  0.0176
   20MPD2    H3  315   1.560   3.623  14.202  2.1658 -1.5541  1.0572
   20MPD2     N  316   1.431   3.371  14.544  0.4994  0.0244 -0.0824
   20MPD2    H5  317   1.521   3.393  14.585  0.6080  0.1482 -0.3872
   20MPD2    N1  318   1.125   3.470  14.149  0.0414  0.0760 -0.1781
   20MPD2    H7  319   1.055   3.417  14.199  0.0120 -0.0897 -0.3953
   21MPD2     C  320   3.678   4.375  13.996  0.1466  0.3852  0.7370
   21MPD2    C1  321   3.664   4.237  13.986  0.5303 -0.7087 -1.3428
   21MPD2    C2  322   3.578   4.162  14.063 -0.5440 -0.1148 -0.0176
   21MPD2    C3  323   3.495   4.226  14.158  0.0807 -0.6090 -0.4989
   21MPD2    C4  324   3.511   4.369  14.173 -0.1058 -0.6742  0.0388
   21MPD2    C5  325   3.611   4.436  14.103 -0.1862 -0.7109 -0.4855
   21MPD2     H  326   3.582   4.055  14.048  1.7262  0.0480 -0.6053
   21MPD2    H1  327   3.447   4.423  14.242  2.3291  2.0644  0.1707
   21MPD2    H2  328   3.744   4.436  13.935 -1.8424  2.0796  0.2637
   21MPD2    H3  329   3.618   4.542  14.121  2.2821 -0.9286 -0.1309
   21MPD2     N  330   3.397   4.162  14.241 -0.3518 -0.1263  0.0380
   21MPD2    H5  331   3.349   4.227  14.302 -0.8062  1.9399 -2.5026
   21MPD2    N1  332   3.727   4.158  13.892 -0.2751 -0.2643  0.3489
   21MPD2    H7  333   3.700   4.061  13.878 -0.4206 -0.0505 -0.8886
   22TCq2    C1  334   3.376   4.027  14.245  0.4771  0.5244 -0.4431
   22TCq2    O2  335   3.441   3.940  14.193  0.3353  0.1002  0.2819
   22TCq2    C2  336   3.260   3.984  14.324 -0.9110 -0.1091 -0.5791
   22TCq2    C3  337   3.268   3.855  14.373  0.6091  0.4500 -0.6966
   22TCq2    C4  338   3.190   3.836  14.487  0.5014 -0.2995  0.1278
   22TCq2    C5  339   3.095   3.926  14.527  0.8127 -0.0782  0.9990
   22TCq2    C6  340   3.080   4.042  14.457  0.5129 -0.2330  0.3710
   22TCq2    C7  341   3.169   4.076  14.369 -0.1213  0.0805  0.7464
   22TCq2    C8  342   2.967   4.130  14.496  0.5506  0.1978  0.0828
   22TCq2    O4  343   2.925   4.106  14.607 -0.1873  0.6403 -0.8148
   22TCq2    C9  344   3.199   3.713  14.568  0.4075 -0.0248  0.3506
   22TCq2    O5  345   3.147   3.721  14.677  0.2151  0.4507  0.1247
   22TCq2    O6  346   3.269   3.614  14.527  0.0110 -0.3616 -0.4606
   22TCq2    H2  347   3.345   3.785  14.344 -1.3250 -2.5497  1.4594
   22TCq2    H3  348   3.025   3.904  14.607 -0.3917  1.3055  0.3313
   22TCq2    H4  349   3.157   4.173  14.322  1.7591 -0.2709 -0.4697
   23MPD2     C  350   0.017   0.581  14.694  0.0494  0.4784 -0.7753
   23MPD2    C1  351   4.651   0.483  14.740 -0.1593  0.0025 -0.0107
   23MPD2    C2  352   4.522   0.489  14.691 -0.3239  0.1288  0.6325
   23MPD2    C3  353   4.484   0.595  14.613  0.9906  0.6963 -0.7964
   23MPD2    C4  354   4.576   0.693  14.575  0.2629 -0.0590  0.6645
   23MPD2    C5  355   4.703   0.680  14.614  0.4710 -0.2974 -0.2725
   23MPD2     H  356   4.448   0.416  14.722 -1.6053  0.1762 -2.3039
   23MPD2    H1  357   4.557   0.769  14.500 -0.8883  0.2629  1.2821
   23MPD2    H2  358   0.123   0.578  14.719 -0.7126 -1.5966  2.2575
   23MPD2    H3  359   0.054   0.750  14.582 -0.1780  1.3451  1.6917
   23MPD2     N  360   4.348   0.611  14.573  0.3172 -0.3181 -0.1729
   23MPD2    H5  361   4.320   0.703  14.540 -2.2686 -1.3968 -1.0035
   23MPD2    N1  362   4.690   0.390  14.839  0.5627  0.3627 -0.6859
   23MPD2    H7  363   4.619   0.341  14.893  1.5811 -0.5837 -0.2000
   24TCq2    C1  364   4.251   0.507  14.581 -0.0098 -0.4377  0.5061
   24TCq2    O2  365   4.262   0.386  14.604  0.5958 -0.2180  0.0883
   24TCq2    C2  366   4.125   0.556  14.542 -0.0269  0.7444  0.4714
   24TCq2    C3  367   4.105   0.688  14.552  0.5061  1.2926  0.2606
   24TCq2    C4  368   3.987   0.742  14.498 -0.4059  0.5722 -0.4969
   24TCq2    C5  369   3.896   0.658  14.435  0.5160 -0.6019  1.3421
   24TCq2    C6  370   3.926   0.522  14.427 -0.0797 -0.1238  0.6373
   24TCq2    C7  371   4.039   0.470  14.485 -0.3838  0.2236 -0.4045
   24TCq2    C8  372   3.819   0.420  14.428  0.1374 -0.0357 -0.4178
   24TCq2    O4  373   3.842   0.306  14.459  0.1316 -0.2387  0.2072
   24TCq2    C9  374   3.970   0.884  14.507  0.3791 -0.1526  0.8948
   24TCq2    O5  375   4.073   0.956  14.508 -0.7209  0.2633  0.6437
   24TCq2    O6  376   3.859   0.932  14.480  0.1855  0.4236  0.5527
   24TCq2    H2  377   4.169   0.744  14.619 -0.3063 -0.4081  2.4311
   24TCq2    H3  378   3.798   0.701  14.416  0.8636 -0.7522 -0.7962
   24TCq2    H4  379   4.047   0.365  14.512  0.2178  0.1812 -0.7429
   25TMC2    C1  380   3.743   2.795  11.173  0.5455  0.0859 -0.1263
   25TMC2    C2  381   3.813   2.899  11.117 -0.6200 -0.5636 -0.4504
   25TMC2    C3  382   3.755   3.018  11.138 -0.5134 -0.8663 -0.3540
   25TMC2    C4  383   3.620   2.793  11.230 -0.1778 -0.0224 -0.5697
   25TMC2    C5  384   3.568   2.913  11.250 -0.0500  0.2585  0.2585
   25TMC2    C6  385   3.635   3.025  11.207  0.4097 -0.0181 -0.1861
   25TMC2     C  386   3.788   2.668  11.122 -0.0787  0.0151  0.0862
   25TMC2     O  387   3.908   2.666  11.102 -0.3568 -0.0084 -0.0863
   25TMC2     H  388   3.888   2.877  11.042  0.8191 -1.6760  1.3241
   25TMC2    H1  389   3.575   2.707  11.278  2.3804 -0.4344  1.1074
   25TMC2    H2  390   3.591   3.123  11.222 -0.3130 -0.2194 -1.0171
   25TMC2    C7  391   3.496   2.922  11.374  0.6975 -0.1405  0.4814
   25TMC2    C8  392   3.775   3.123  11.049 -0.2911  0.8892  0.2871
   25TMC2    O1  393   3.452   2.818  11.421  0.6644 -0.4695  0.0701
   25TMC2    O2  394   3.685   3.204  11.025 -0.4612  0.5423  0.7622
   25TMC2    O5  395   3.874   3.098  10.967  0.0456  0.0441  0.0499
   25TMC2    H5  396   3.931   3.024  10.998  0.0604 -0.3543 -0.9050
   26MPD2     C  397   3.749   2.165  11.108 -0.6310  0.5558 -0.3277
   26MPD2    C1  398   3.621   2.223  11.100 -0.1580  0.0848 -0.1817
   26MPD2    C2  399   3.606   2.356  11.105  0.8522  0.0103  0.6443
   26MPD2    C3  400   3.716   2.439  11.110 -0.2871  0.1412  0.7476
   26MPD2    C4  401   3.845   2.384  11.102 -0.2427  0.5001  0.3152
   26MPD2    C5  402   3.859   2.249  11.108 -0.9565  0.4747 -0.3604
   26MPD2     H  403   3.513   2.412  11.112  0.6041 -0.3063 -0.0742
   26MPD2    H1  404   3.929   2.452  11.112  1.7771 -1.6795 -1.8368
   26MPD2    H2  405   3.765   2.058  11.113 -0.5119  0.6183  0.6211
   26MPD2    H3  406   3.960   2.208  11.102 -0.5993  1.3453 -0.3447
   26MPD2     N  407   3.691   2.580  11.126 -0.7146  0.2020  0.2516
   26MPD2    H5  408   3.595   2.612  11.129 -1.1986 -0.8856 -3.6629
   26MPD2    N1  409   3.519   2.138  11.060  0.4561  0.2403  0.3557
   26MPD2    H7  410   3.549   2.043  11.043  0.2367  0.3207 -0.5226
   27TMC2    C1  411   2.370   4.663  11.817  0.3483  0.2335  0.6615
   27TMC2    C2  412   2.289   0.027  11.757  0.3383  0.2298  1.1941
   27TMC2    C3  413   2.297   0.155  11.808  0.4128  0.0037 -0.0232
   27TMC2    C4  414   2.460   4.694  11.916 -0.3309 -0.1867  0.3334
   27TMC2    C5  415   2.479   0.098  11.951  0.0338 -0.4598 -0.3732
   27TMC2    C6  416   2.404   0.202  11.889  0.7988  0.6431 -0.8851
   27TMC2     C  417   2.325   4.520  11.806  0.2477 -0.1071 -0.0456
   27TMC2     O  418   2.295   4.488  11.690  0.1762 -0.2518 -0.2132
   27TMC2     H  419   2.199   4.718  11.708  1.8579 -1.4341 -0.3628
   27TMC2    H1  420   2.506   4.612  11.970  2.3050  1.5712  0.7424
   27TMC2    H2  421   2.409   0.304  11.925  0.6552 -0.3150  1.8783
   27TMC2    C7  422   2.486   0.106  12.094  1.2886  0.0132  0.0052
   27TMC2    C8  423   2.196   0.253  11.777 -0.3083  0.5137 -0.1055
   27TMC2    O1  424   2.451   0.007  12.158 -0.6347 -0.1682  0.4165
   27TMC2    O2  425   2.208   0.373  11.792 -0.2113  0.6591  0.4674
   27TMC2    O5  426   2.089   0.198  11.740 -0.2715 -0.2002 -0.1282
   27TMC2    H5  427   2.085   0.105  11.771 -0.7871 -0.2970 -0.4880
   28MPD2     C  428   2.135   4.077  11.973  0.7337  0.2933 -0.7015
   28MPD2    C1  429   2.150   4.162  12.086  0.0244  0.1417  0.8498
   28MPD2    C2  430   2.212   4.285  12.072 -0.1337  0.0695  0.1448
   28MPD2    C3  431   2.264   4.327  11.947 -0.3570  0.5817 -0.0351
   28MPD2    C4  432   2.251   4.239  11.835 -0.1417 -0.0874  0.1628
   28MPD2    C5  433   2.180   4.123  11.853 -0.3067 -0.6514  0.0992
   28MPD2     H  434   2.217   4.359  12.150 -1.0799 -1.0606  1.2757
   28MPD2    H1  435   2.288   4.252  11.734 -2.4608  3.0966 -0.2934
   28MPD2    H2  436   2.080   3.984  11.981  0.1769  0.7104  0.2496
   28MPD2    H3  437   2.180   4.046  11.777 -4.3384  1.1846 -1.7675
   28MPD2     N  438   2.311   4.456  11.928  0.7136 -0.5983 -0.0430
   28MPD2    H5  439   2.313   4.523  12.004  1.1443  0.0691 -0.6507
   28MPD2    N1  440   2.103   4.111  12.210  0.2992 -0.2222 -0.0439
   28MPD2    H7  441   2.051   4.025  12.223 -1.0501  1.2790  4.3788
   29MPD2     C  442   1.902   2.167  13.918 -0.6210 -0.1187  0.2360
   29MPD2    C1  443   1.935   2.085  14.027 -0.3042 -0.0133  0.6511
   29MPD2    C2  444   1.922   2.137  14.157  0.5749 -0.3563 -0.3306
   29MPD2    C3  445   1.897   2.271  14.162  0.2929  0.1130 -0.0879
   29MPD2    C4  446   1.872   2.350  14.054 -0.1976 -0.4365 -0.7840
   29MPD2    C5  447   1.877   2.298  13.930 -0.4638  0.4417  0.2613
   29MPD2     H  448   1.911   2.081  14.249 -2.0163  0.1420 -0.3505
   29MPD2    H1  449   1.855   2.456  14.068 -0.4444 -0.5380 -0.3270
   29MPD2    H2  450   1.905   2.139  13.813 -0.2275 -0.7518  0.4112
   29MPD2    H3  451   1.873   2.363  13.843 -0.6023 -0.4826 -0.4219
   29MPD2     N  452   1.890   2.339  14.282 -0.0221 -0.4008 -0.2595
   29MPD2    H5  453   1.876   2.439  14.270  1.4080 -0.4055 -2.0446
   29MPD2    N1  454   1.956   1.946  14.020 -0.6147 -0.3854  0.1580
   29MPD2    H7  455   1.987   1.891  14.099  2.6300  1.6765  0.3236
   30TCq2    C1  456   1.925   2.293  14.409 -0.3691  0.0785 -0.8004
   30TCq2    O2  457   1.930   2.176  14.444 -0.2216  0.1738  0.2184
   30TCq2    C2  458   1.937   2.395  14.507 -0.2250  0.2096  0.6843
   30TCq2    C3  459   2.020   2.366  14.616  0.2306 -0.1265 -0.3582
   30TCq2    C4  460   2.046   2.461  14.716  0.0975  0.0223 -0.0766
   30TCq2    C5  461   1.989   2.588  14.706  0.4606 -0.2689 -0.3262
   30TCq2    C6  462   1.906   2.606  14.604  0.1547 -0.1096 -0.5012
   30TCq2    C7  463   1.888   2.524  14.494 -0.3636 -0.2823 -0.2222
   30TCq2    C8  464   1.885   2.744  14.559  0.5670 -0.1154 -0.6156
   30TCq2    O4  465   1.789   2.773  14.488 -0.0826  0.2249  0.1485
   30TCq2    C9  466   2.122   2.423  14.834  0.3287 -0.2548  0.1953
   30TCq2    O5  467   2.165   2.306  14.842 -0.0984 -0.2616  0.2684
   30TCq2    O6  468   2.158   2.523  14.900 -0.2345 -0.1178  0.6444
   30TCq2    H2  469   2.060   2.267  14.633  0.3162  0.0148  0.2546
   30TCq2    H3  470   1.995   2.667  14.781 -0.4794  0.8940 -1.4647
   30TCq2    H4  471   1.818   2.551  14.415  0.3047  0.5715 -0.5290
   31MPD2     C  472   4.613   0.900  14.887  0.6655  0.8048  0.2860
   31MPD2    C1  473   4.495   0.959  14.869  0.1405  0.7689 -0.3970
   31MPD2    C2  474   4.399   0.941  14.969 -0.1327 -0.4974 -0.9100
   31MPD2    C3  475   4.427   0.874  15.089 -0.0745  0.3749  0.7789
   31MPD2    C4  476   4.551   0.812  15.099 -0.2709 -0.2802  0.4891
   31MPD2    C5  477   4.644   0.824  14.997 -0.5471  0.9473 -0.5934
   31MPD2     H  478   4.304   0.991  14.956 -0.7276 -1.5941 -0.7854
   31MPD2    H1  479   4.577   0.746  15.181  0.4466 -0.2612  0.2772
   31MPD2    H2  480   4.683   0.903  14.805 -1.0748 -0.4001 -1.2357
   31MPD2    H3  481   0.020   0.790  15.008 -0.5116  0.9555 -0.9005
   31MPD2     N  482   4.330   0.846  15.189  0.1982 -0.7313 -0.8007
   31MPD2    H5  483   4.359   0.783  15.263 -2.3948 -0.9736  0.0049
   31MPD2    N1  484   4.487   1.037  14.755  0.5017  0.5172 -0.1179
   31MPD2    H7  485   4.560   1.026  14.685 -0.7705 -0.0010 -1.3736
   32TCq2    C1  486   4.208   0.907  15.200  0.2875 -0.1402  0.4647
   32TCq2    O2  487   4.159   0.992  15.128 -0.6185  0.0759 -0.3361
   32TCq2    C2  488   4.145   0.865  15.328  0.4770 -0.5981 -0.2075
   32TCq2    C3  489   4.011   0.907  15.354 -0.2340 -0.4403  0.5903
   32TCq2    C4  490   3.965   0.923  15.481  0.2342  0.5043  0.0559
   32TCq2    C5  491   4.050   0.914  15.583 -0.6310 -0.6211  0.0769
   32TCq2    C6  492   4.181   0.891  15.561  0.9431  0.2570  0.0251
   32TCq2    C7  493   4.232   0.860  15.437 -0.4465 -0.2145 -0.6944
   32TCq2    C8  494   4.269   0.886  15.676  0.5451 -0.7588  0.7694
   32TCq2    O4  495   4.362   0.805  15.677 -0.4122 -1.1795 -0.0275
   32TCq2    C9  496   3.832   0.967  15.503 -0.4969 -0.1575 -0.2173
   32TCq2    O5  497   3.799   0.988  15.624 -0.4741  0.2743  0.2361
   32TCq2    O6  498   3.756   0.966  15.405  0.3071 -0.4442 -0.0544
   32TCq2    H2  499   3.941   0.917  15.271 -0.4592 -2.0011  0.5795
   32TCq2    H3  500   4.015   0.940  15.682 -0.2998  0.3110 -0.0541
   32TCq2    H4  501   4.339   0.858  15.423 -0.4538  2.5081 -1.0022
   33MPD2     C  502   0.157   3.546   9.940 -0.0044 -0.1125 -0.8476
   33MPD2    C1  503   0.031   3.494   9.941 -0.3208  0.2252  0.4535
   33MPD2    C2  504   4.651   3.579   9.900  0.0488 -0.2492  0.2981
   33MPD2    C3  505   4.667   3.707   9.854  1.1956 -0.9993 -0.1935
   33MPD2    C4  506   0.072   3.750   9.836  0.2455  0.5932 -0.0858
   33MPD2    C5  507   0.171   3.674   9.891  0.4375 -0.6424 -0.7314
   33MPD2     H  508   4.546   3.555   9.902 -0.1903  0.7248 -0.5429
   33MPD2    H1  509   0.090   3.849   9.795 -1.9665  1.4271  0.9530
   33MPD2    H2  510   0.249   3.491   9.954  0.4612  0.5270 -1.4143
   33MPD2    H3  511   0.271   3.715   9.898  0.5587 -1.2917  1.1378
   33MPD2     N  512   4.561   3.796   9.810  0.0692 -0.6560 -0.2324
   33MPD2    H5  513   4.597   3.871   9.752 -0.9931 -0.2639 -0.3907
   33MPD2    N1  514   0.007   3.364   9.987  0.0021  0.1820  0.1370
   33MPD2    H7  515   0.091   3.316  10.019 -1.6829 -0.3940  3.7013
   34TCq2    C1  516   4.426   3.771   9.802  0.0226  0.5133  0.3952
   34TCq2    O2  517   4.363   3.690   9.873 -0.4909  0.4194  0.0014
   34TCq2    C2  518   4.361   3.869   9.714 -0.0865  0.0343 -0.2173
   34TCq2    C3  519   4.223   3.850   9.700  0.2445  0.4029  0.1951
   34TCq2    C4  520   4.159   3.927   9.608 -0.3272  0.3679 -0.0620
   34TCq2    C5  521   4.235   4.017   9.534 -1.1052  0.8575 -0.2466
   34TCq2    C6  522   4.373   4.026   9.544 -0.1404  0.0130 -0.1451
   34TCq2    C7  523   4.436   3.951   9.628 -0.1028 -0.2876 -0.3578
   34TCq2    C8  524   4.450   4.131   9.488  0.0561 -0.6737 -0.5869
   34TCq2    O4  525   4.567   4.136   9.522 -0.5784 -0.2059  0.5398
   34TCq2    C9  526   4.019   3.908   9.582  0.2745  0.6983  0.1761
   34TCq2    O5  527   3.974   3.801   9.631  0.0950 -0.5780 -0.3624
   34TCq2    O6  528   3.979   3.971   9.481  0.0235 -0.0162  0.0678
   34TCq2    H2  529   4.158   3.790   9.761 -0.3237 -1.7071 -2.5045
   34TCq2    H3  530   4.186   4.074   9.456 -1.6795 -2.0335 -1.9993
   34TCq2    H4  531   4.544   3.951   9.640 -0.0160 -0.4918 -1.1128
   35MPD2     C  532   0.936   4.496  10.905  0.0369  0.1744  0.3011
   35MPD2    C1  533   0.854   4.441  11.002  0.3341  0.2654 -0.7509
   35MPD2    C2  534   0.720   4.426  10.980  0.3084  0.4880  0.2250
   35MPD2    C3  535   0.657   4.468  10.862 -0.2130 -0.3625  0.3615
   35MPD2    C4  536   0.742   4.540  10.778 -0.2878 -0.6254 -0.5882
   35MPD2    C5  537   0.875   4.542  10.790  0.6832  0.3569 -0.1487
   35MPD2     H  538   0.652   4.377  11.050  0.0203  0.5136 -0.0384
   35MPD2    H1  539   0.707   4.594  10.690 -0.2973  1.0732  0.4580
   35MPD2    H2  540   1.044   4.504  10.905  0.0006  0.6128  0.0374
   35MPD2    H3  541   0.934   4.579  10.708  0.0512 -1.0703 -1.2417
   35MPD2     N  542   0.513   4.466  10.861  0.4737 -0.2609  0.0180
   35MPD2    H5  543   0.464   4.424  10.939  1.2814 -1.9583 -0.3961
   35MPD2    N1  544   0.912   4.402  11.128 -0.1533  0.5769  0.1337
   35MPD2    H7  545   1.007   4.435  11.145  0.5637 -1.2703 -0.2620
   36TCq2    C1  546   0.434   4.525  10.768 -0.3724  0.4065  1.4198
   36TCq2    O2  547   0.459   4.555  10.648 -0.1429 -0.1562 -0.1995
   36TCq2    C2  548   0.298   4.551  10.821 -0.3753  0.2249  0.9267
   36TCq2    C3  549   0.200   4.593  10.745  0.5548  0.9078 -0.3003
   36TCq2    C4  550   0.092   4.662  10.807 -0.2861 -0.3023  0.3550
   36TCq2    C5  551   0.089   4.683  10.939 -0.0409  0.4678 -0.0424
   36TCq2    C6  552   0.196   4.645  11.021  0.0706 -1.0896 -0.0924
   36TCq2    C7  553   0.302   4.593  10.954  0.7902  0.3469 -0.3896
   36TCq2    C8  554   0.176   4.625  11.160  0.2239 -0.5576  0.1008
   36TCq2    O4  555   0.087   4.696  11.209  0.0789 -0.4251 -0.2143
   36TCq2    C9  556   4.713   4.707  10.718  0.2084 -0.2039 -0.1536
   36TCq2    O5  557   4.711   4.629  10.623 -0.3087 -0.2772 -0.5369
   36TCq2    O6  558   4.672   0.096  10.726  0.7363  0.3069 -0.7825
   36TCq2    H2  559   0.208   4.587  10.637 -2.6492 -1.4569 -0.4093
   36TCq2    H3  560   4.715   4.701  10.976  1.0078 -1.1607  3.5389
   36TCq2    H4  561   0.388   4.573  11.017  0.1247 -0.3364  0.3064
   37TMC2    C1  562   3.048   0.423  11.928  0.0560 -0.4365  0.3107
   37TMC2    C2  563   2.977   0.504  11.843  0.6112  0.4955  0.2897
   37TMC2    C3  564   3.041   0.553  11.733  0.1073  0.2950 -0.1165
   37TMC2    C4  565   3.183   0.400  11.917  0.5609  0.2170  0.0122
   37TMC2    C5  566   3.237   0.445  11.799 -0.3518 -0.0382 -0.1060
   37TMC2    C6  567   3.172   0.523  11.706  0.8570  0.1961  0.3382
   37TMC2     C  568   2.976   0.374  12.041 -0.8900  0.2684  0.0609
   37TMC2     O  569   2.868   0.416  12.058 -0.6075  0.2319 -0.1310
   37TMC2     H  570   2.874   0.533  11.859  1.1074  1.4001  1.8938
   37TMC2    H1  571   3.238   0.353  11.997  1.1975  1.3822  0.2554
   37TMC2    H2  572   3.229   0.578  11.632  1.6921  1.3996  1.8633
   37TMC2    C7  573   3.383   0.422  11.785 -0.1984  0.1208  0.1001
   37TMC2    C8  574   2.960   0.604  11.626 -0.0378  0.1333 -0.5263
   37TMC2    O1  575   3.438   0.393  11.889  0.1443 -0.0865 -0.3280
   37TMC2    O2  576   2.861   0.673  11.648 -0.0547 -0.2477  0.4069
   37TMC2    O5  577   2.965   0.500  11.541 -0.2319  0.3472 -0.1337
   37TMC2    H5  578   3.050   0.455  11.524 -0.4189 -0.1843  0.3208
   38MPD2     C  579   2.954   0.065  12.456  0.1028  0.9684 -0.0169
   38MPD2    C1  580   3.068   0.033  12.386  0.1297 -0.9032  0.2221
   38MPD2    C2  581   3.100   0.106  12.271 -0.2908 -0.9861 -0.4217
   38MPD2    C3  582   3.010   0.205  12.222  0.1713 -0.3701  0.5027
   38MPD2    C4  583   2.891   0.234  12.295 -0.4726 -0.5059 -0.2426
   38MPD2    C5  584   2.878   0.171  12.415  0.0345 -0.2255 -0.2287
   38MPD2     H  585   3.192   0.094  12.214 -0.0430  2.9439 -0.8744
   38MPD2    H1  586   2.829   0.321  12.279 -0.8157 -0.4391  1.4697
   38MPD2    H2  587   2.921   0.009  12.543  1.5926 -1.0720 -0.7525
   38MPD2    H3  588   2.790   0.196  12.474 -0.5025  0.4566 -1.3158
   38MPD2     N  589   3.045   0.274  12.101 -0.4304  0.0973 -0.4212
   38MPD2    H5  590   3.130   0.250  12.052  0.1367 -0.2498  0.7329
   38MPD2    N1  591   3.165   4.668  12.426 -0.3284 -0.4099  0.5982
   38MPD2    H7  592   3.247   4.670  12.367  0.2153  1.4210  1.4180
   39MPD2     C  593   2.403   2.244   1.392 -0.3637 -0.3866  0.4263
   39MPD2    C1  594   2.336   2.299   1.498  0.4304  0.1374 -0.3372
   39MPD2    C2  595   2.201   2.266   1.526 -0.3238  0.5039 -0.1374
   39MPD2    C3  596   2.133   2.183   1.440 -0.6995  0.5939 -0.3272
   39MPD2    C4  597   2.216   2.113   1.348  0.7297 -0.0236 -0.1325
   39MPD2    C5  598   2.344   2.144   1.319  0.2397 -0.2969 -0.1298
   39MPD2     H  599   2.153   2.322   1.605  0.2456 -0.8223  1.1541
   39MPD2    H1  600   2.168   2.045   1.278  0.4462 -2.3044  2.2468
   39MPD2    H2  601   2.507   2.267   1.370 -0.3806 -0.9590 -0.2540
   39MPD2    H3  602   2.393   2.087   1.241  1.2494  0.3280  0.0434
   39MPD2     N  603   1.991   2.143   1.455 -0.0116 -0.0291  0.0955
   39MPD2    H5  604   1.962   2.067   1.395  1.6651  0.0637 -0.8659
   39MPD2    N1  605   2.420   2.395   1.560 -0.0895 -0.5385 -0.1986
   39MPD2    H7  606   2.510   2.407   1.515 -0.0778  3.6250  0.9237
   40TCq2    C1  607   2.398   2.463   1.680  0.1628  0.0612 -0.1156
   40TCq2    O2  608   2.296   2.464   1.750 -0.2093  0.7645 -0.3549
   40TCq2    C2  609   2.490   2.575   1.695  0.3388 -0.6912  0.0246
   40TCq2    C3  610   2.446   2.677   1.778  0.2481  0.0603 -0.9455
   40TCq2    C4  611   2.549   2.760   1.820 -0.2547  0.5887  0.2723
   40TCq2    C5  612   2.674   2.762   1.762 -0.2201 -0.5174 -0.0470
   40TCq2    C6  613   2.709   2.655   1.686  0.0749  0.0756 -0.2877
   40TCq2    C7  614   2.618   2.560   1.656 -0.6491  0.0271 -0.0752
   40TCq2    C8  615   2.827   2.645   1.605  0.1576  1.1442  1.2739
   40TCq2    O4  616   2.853   2.544   1.547 -0.1361 -0.2148 -0.3251
   40TCq2    C9  617   2.526   2.860   1.920  0.0554 -0.1098 -0.4859
   40TCq2    O5  618   2.633   2.909   1.965 -0.2411 -1.0251  0.1509
   40TCq2    O6  619   2.411   2.853   1.980  0.2394 -0.0924  0.4082
   40TCq2    H2  620   2.345   2.675   1.819  0.4133 -0.2126 -0.5513
   40TCq2    H3  621   2.750   2.835   1.786 -1.1366  0.7809 -1.1386
   40TCq2    H4  622   2.644   2.462   1.617 -0.4031 -0.0995  0.4140
   41TMC2    C1  623   0.265   0.013  13.308  0.5182  0.5431 -0.5477
   41TMC2    C2  624   0.363   4.649  13.301 -0.1077  0.6456 -0.1502
   41TMC2    C3  625   0.414   4.599  13.186  0.0235 -0.0778  0.6267
   41TMC2    C4  626   0.197   0.042  13.195 -0.5036  0.3128  0.6342
   41TMC2    C5  627   0.236   4.715  13.075 -0.7416 -0.3231 -0.3140
   41TMC2    C6  628   0.346   4.629  13.067 -0.5051  0.1213  0.2425
   41TMC2     C  629   0.179   0.030  13.428  0.6837  0.2401 -0.9586
   41TMC2     O  630   0.063   0.065  13.411 -0.1730 -0.7750 -0.0601
   41TMC2     H  631   0.409   4.613  13.393  1.8452  3.6363  0.0248
   41TMC2    H1  632   0.108   0.103  13.201  0.4823  1.8990 -0.7548
   41TMC2    H2  633   0.380   4.590  12.972  0.1161 -0.5076  0.7226
   41TMC2    C7  634   0.185   0.054  12.948  0.2719  0.2275 -0.0374
   41TMC2    C8  635   0.543   4.545  13.191 -0.1031  0.2465 -0.2511
   41TMC2    O1  636   0.092   0.129  12.962 -0.3050  0.1208 -0.5166
   41TMC2    O2  637   0.623   4.559  13.282 -0.4810  0.1006  0.6501
   41TMC2    O5  638   0.546   4.446  13.096 -0.1810  0.1055 -0.7367
   41TMC2    H5  639   0.455   4.423  13.069 -0.0587  0.5478 -1.5030
   42MPD2     C  640   0.024   4.714  13.682 -0.4775 -0.3459 -0.9043
   42MPD2    C1  641   0.161   4.704  13.676 -0.7448 -0.9607 -0.2157
   42MPD2    C2  642   0.229   4.703  13.794  0.5018  0.3114 -0.2200
   42MPD2    C3  643   0.157   4.701  13.917  0.6282 -0.2712  0.0634
   42MPD2    C4  644   0.013   4.703  13.913  0.3310  0.0414  0.0553
   42MPD2    C5  645   4.680   4.717  13.798  0.0404 -0.0805 -0.8760
   42MPD2     H  646   0.337   4.694  13.798  0.5793  0.3826 -2.1469
   42MPD2    H1  647   4.682   4.669  13.999  2.5923 -1.4042  0.9948
   42MPD2    H2  648   4.691   4.718  13.591 -0.9689 -0.0756 -0.5665
   42MPD2    H3  649   4.572   4.709  13.798  0.0976 -1.0986  0.2714
   42MPD2     N  650   0.220   4.699  14.040 -0.8725  0.3102 -0.1298
   42MPD2    H5  651   0.172   4.699  14.129  0.1815  1.4749  0.4471
   42MPD2    N1  652   0.232   4.716  13.551  0.4402  0.6448 -0.2391
   42MPD2    H7  653   0.332   4.704  13.569  0.0437 -1.8145  0.3536
   43MPD2     C  654   2.737   3.803   0.628  0.2428  0.6524 -0.1961
   43MPD2    C1  655   2.808   3.683   0.605 -0.6988  0.2244 -0.7487
   43MPD2    C2  656   2.801   3.591   0.704 -0.1058 -0.5989  0.2617
   43MPD2    C3  657   2.715   3.594   0.810  0.5203 -0.7546  0.1144
   43MPD2    C4  658   2.640   3.710   0.832 -0.3122  0.1290 -0.6842
   43MPD2    C5  659   2.658   3.811   0.739 -0.7488 -0.4027  0.0985
   43MPD2     H  660   2.865   3.503   0.697  0.3792 -0.1412 -1.0506
   43MPD2    H1  661   2.558   3.722   0.902  1.6162  1.4128  1.3368
   43MPD2    H2  662   2.747   3.893   0.568 -0.5941  1.0936  0.3305
   43MPD2    H3  663   2.587   3.893   0.733 -1.0798 -0.8498 -2.3137
   43MPD2     N  664   2.704   3.497   0.904 -0.0787  0.3408  0.4345
   43MPD2    H5  665   2.650   3.521   0.987 -0.5955  0.7493 -0.0174
   43MPD2    N1  666   2.891   3.653   0.489 -0.2944  0.0224  0.2364
   43MPD2    H7  667   2.917   3.554   0.484 -0.2267 -0.0349  1.6381
   44TCq2    C1  668   2.464   3.046   1.031 -0.1285 -0.1269  0.7118
   44TCq2    O2  669   2.481   2.975   0.929  0.3213  0.5675  0.3876
   44TCq2    C2  670   2.566   3.134   1.073  0.8260  0.1794 -0.1459
   44TCq2    C3  671   2.574   3.185   1.202 -0.6417  0.7268 -0.6145
   44TCq2    C4  672   2.642   3.303   1.223  1.0973  0.2028  0.2759
   44TCq2    C5  673   2.716   3.357   1.121  0.1128  0.1420  0.3721
   44TCq2    C6  674   2.718   3.292   1.002  0.3032  0.4193  0.4206
   44TCq2    C7  675   2.642   3.182   0.970  0.3600  0.7193 -0.1934
   44TCq2    C8  676   2.754   3.369   0.883 -0.3079 -0.1168  0.3387
   44TCq2    O4  677   2.794   3.307   0.787  0.8708  0.4112 -0.3493
   44TCq2    C9  678   2.620   3.378   1.346 -0.1843 -0.3905  0.3922
   44TCq2    O5  679   2.707   3.469   1.370  0.0944 -0.6379 -0.1076
   44TCq2    O6  680   2.513   3.364   1.411  0.1492  0.3074  0.5549
   44TCq2    H2  681   2.516   3.154   1.289  1.5296 -3.5165 -0.6740
   44TCq2    H3  682   2.771   3.449   1.138 -0.7048  0.1864  2.6771
   44TCq2    H4  683   2.635   3.152   0.866 -3.7009 -0.6448  0.4677
   45TMC2    C1  684   2.811   0.032   9.772  0.1323  0.5154  0.0754
   45TMC2    C2  685   2.779   4.698   9.893  0.4654  0.2373 -0.5469
   45TMC2    C3  686   2.732   0.058   9.986  0.5898 -0.3467  0.2560
   45TMC2    C4  687   2.819   0.166   9.750 -0.1291 -0.5966 -0.2877
   45TMC2    C5  688   2.769   0.242   9.854  0.1209 -0.5983  0.4371
   45TMC2    C6  689   2.734   0.193   9.979 -0.5732 -0.4134 -0.2213
   45TMC2     C  690   2.801   4.672   9.650  0.7923 -0.0093  0.2834
   45TMC2     O  691   2.787   4.553   9.673  0.8890  0.5096  0.4106
   45TMC2     H  692   2.765   4.592   9.907  1.3524  0.0545 -1.0248
   45TMC2    H1  693   2.831   0.211   9.652 -1.2249 -0.3618 -0.3102
   45TMC2    H2  694   2.702   0.252  10.065 -0.3147  0.7458 -0.9108
   45TMC2    C7  695   2.785   0.385   9.855 -0.0448 -0.6800 -0.8223
   45TMC2    C8  696   2.736   4.723  10.116  0.2479 -0.4752  0.2765
   45TMC2    O1  697   2.742   0.442   9.954  0.7038  0.3474  0.2139
   45TMC2    O2  698   2.677   0.045  10.213  0.0722  0.0002  0.0510
   45TMC2    O5  699   2.859   4.668  10.116 -0.6750  0.3137 -0.1127
   45TMC2    H5  700   2.917   4.689  10.040  1.1385 -0.1962  1.1384
   46MPD2     C  701   2.730   4.538   9.401  0.2820 -0.0098 -0.6343
   46MPD2    C1  702   2.752   4.672   9.407 -0.1778 -0.4075  0.1203
   46MPD2    C2  703   2.738   0.021   9.295  0.1053  0.9403 -0.6038
   46MPD2    C3  704   2.694   4.690   9.173  0.6839 -0.3768 -0.3607
   46MPD2    C4  705   2.671   4.558   9.164 -0.4381 -0.3787  0.3786
   46MPD2    C5  706   2.688   4.481   9.281 -0.0382 -0.1561  0.2416
   46MPD2     H  707   2.728   0.129   9.297  0.8294  0.9751  1.0634
   46MPD2    H1  708   2.647   4.508   9.072  2.1175  0.3570 -0.6942
   46MPD2    H2  709   2.730   4.471   9.485  2.7219  0.8422  0.0388
   46MPD2    H3  710   2.678   4.374   9.273 -1.8295 -0.0630  1.2788
   46MPD2     N  711   2.666   0.050   9.064  0.3082  0.0905  0.6283
   46MPD2    H5  712   2.695   0.147   9.058  1.1527 -0.5320 -5.1725
   46MPD2    N1  713   2.786   0.011   9.527 -0.0473 -0.4206  0.2448
   46MPD2    H7  714   2.820   0.107   9.523  0.6298 -0.7116 -1.1288
   47TMC2    C1  715   0.283   1.702   9.233  0.3058 -0.1987  0.3280
   47TMC2    C2  716   0.275   1.627   9.125  0.6687  0.6705  0.2129
   47TMC2    C3  717   0.156   1.612   9.055  0.5609 -0.1551  0.8017
   47TMC2    C4  718   0.168   1.740   9.294 -0.3430 -0.0564  0.3726
   47TMC2    C5  719   0.055   1.715   9.232  0.9073 -0.0244 -0.0263
   47TMC2    C6  720   0.036   1.652   9.110 -0.2348  0.3217  0.6627
   47TMC2     C  721   0.407   1.698   9.318 -0.3409 -0.2838  0.9532
   47TMC2     O  722   0.413   1.776   9.415  0.3580 -0.1813  0.1672
   47TMC2     H  723   0.366   1.598   9.075  0.3420  0.3137 -0.1718
   47TMC2    H1  724   0.167   1.789   9.390 -0.3313  1.2121 -0.2647
   47TMC2    H2  725   4.670   1.628   9.059  0.6259 -0.5693 -0.4846
   47TMC2    C7  726   4.664   1.773   9.292 -0.3491 -0.2934 -0.0021
   47TMC2    C8  727   0.155   1.521   8.941 -0.0091 -0.0154  0.3864
   47TMC2    O1  728   4.681   1.874   9.356  0.0466 -0.1579  0.4950
   47TMC2    O2  729   0.253   1.450   8.924 -0.3574  0.1600 -0.0775
   47TMC2    O5  730   0.112   1.605   8.846 -0.1824  0.0982  0.2829
   47TMC2    H5  731   0.041   1.669   8.868 -1.7271 -0.9944 -1.5124
   48MPD2     C  732   0.632   1.599   9.492 -0.3246 -0.3034  0.0824
   48MPD2    C1  733   0.583   1.528   9.392  0.0465 -0.6492 -0.0692
   48MPD2    C2  734   0.628   1.402   9.365  0.2861  0.1685 -0.4216
   48MPD2    C3  735   0.717   1.335   9.451  0.4500 -0.9886  0.1134
   48MPD2    C4  736   0.776   1.412   9.551 -0.1214  0.6566 -0.3461
   48MPD2    C5  737   0.724   1.538   9.571 -0.5162  0.4364 -0.1354
   48MPD2     H  738   0.571   1.343   9.294 -0.8533  0.8604 -0.0855
   48MPD2    H1  739   0.855   1.385   9.621 -0.4631  1.0026  0.1727
   48MPD2    H2  740   0.609   1.703   9.511 -2.9192 -1.0715  1.1203
   48MPD2    H3  741   0.769   1.605   9.642  0.4506 -1.7560  1.3261
   48MPD2     N  742   0.746   1.193   9.433  0.3221  0.0548  0.4762
   48MPD2    H5  743   0.696   1.159   9.351 -0.4147  0.1098  0.9006
   48MPD2    N1  744   0.476   1.579   9.305 -0.4378  0.4545  0.0346
   48MPD2    H7  745   0.446   1.516   9.231  0.7843  0.6185 -0.6157
   49MPD2     C  746   3.881   3.216   9.914 -0.7972  0.2103 -0.3793
   49MPD2    C1  747   3.762   3.209   9.986 -0.4918  0.2568  0.3997
   49MPD2    C2  748   3.776   3.236  10.124  0.2341 -0.1049  0.1871
   49MPD2    C3  749   3.886   3.288  10.185 -0.3164 -0.4413 -0.0910
   49MPD2    C4  750   4.003   3.289  10.110 -0.1579  0.0079 -0.1810
   49MPD2    C5  751   3.999   3.252   9.982 -0.5925 -0.5965 -0.2423
   49MPD2     H  752   3.683   3.233  10.179 -0.9870 -1.5521 -1.9330
   49MPD2    H1  753   4.098   3.316  10.156  0.1876 -2.4104  0.5399
   49MPD2    H2  754   3.887   3.196   9.808 -1.4633 -2.3903  0.0787
   49MPD2    H3  755   4.088   3.263   9.922 -0.0771 -0.1190  0.6150
   49MPD2     N  756   3.888   3.335  10.318 -0.6151  0.1442 -0.4559
   49MPD2    H5  757   3.980   3.363  10.351  0.3097 -3.0207 -0.3176
   49MPD2    N1  758   3.634   3.165   9.941  0.8644  0.6216 -0.2620
   49MPD2    H7  759   3.561   3.139  10.006  0.8932 -0.2353 -0.5696
   50TCq2    C1  760   3.603   3.164   9.811 -0.3342  0.3093 -0.2757
   50TCq2    O2  761   3.666   3.206   9.716  0.7385  0.1185  0.7649
   50TCq2    C2  762   3.479   3.101   9.773 -0.2939  0.0988  0.1784
   50TCq2    C3  763   3.428   3.118   9.647 -0.0213  0.2623 -0.1729
   50TCq2    C4  764   3.306   3.061   9.622  0.7361 -0.1342 -0.5398
   50TCq2    C5  765   3.260   2.970   9.701 -0.2017  0.7209  0.1551
   50TCq2    C6  766   3.314   2.943   9.825  0.5580  0.3329  0.6506
   50TCq2    C7  767   3.433   3.008   9.854 -0.5511 -0.7910 -0.5117
   50TCq2    C8  768   3.280   2.822   9.900 -0.0031  0.1551 -0.4022
   50TCq2    O4  769   3.338   2.802  10.008  0.2661  0.2659 -0.1048
   50TCq2    C9  770   3.241   3.077   9.494  0.5102 -0.3138  0.0939
   50TCq2    O5  771   3.282   3.176   9.426  0.5852 -0.1625  0.0019
   50TCq2    O6  772   3.168   2.981   9.465 -0.4749  0.4325  0.1798
   50TCq2    H2  773   3.468   3.191   9.578  0.1461 -0.8362 -1.2367
   50TCq2    H3  774   3.163   2.930   9.675  0.6910 -1.7886  0.6971
   50TCq2    H4  775   3.498   2.965   9.929 -1.0116  0.8469  0.8209
   51MPD2     C  776   3.650   1.758   0.553 -0.2991 -0.1495 -0.1194
   51MPD2    C1  777   3.632   1.636   0.613  0.2771 -0.4870 -0.1316
   51MPD2    C2  778   3.637   1.621   0.752  0.1993  1.2420  0.0202
   51MPD2    C3  779   3.659   1.731   0.831 -0.4086  0.2152 -0.6057
   51MPD2    C4  780   3.680   1.858   0.770 -0.6583  0.8393 -0.1453
   51MPD2    C5  781   3.666   1.869   0.634  0.1752  0.1604  0.2913
   51MPD2     H  782   3.613   1.524   0.794  0.3746  1.2403  0.1186
   51MPD2    H1  783   3.711   1.947   0.824 -1.4073  1.7248 -1.1928
   51MPD2    H2  784   3.652   1.764   0.445  1.1080 -0.6222 -0.1166
   51MPD2    H3  785   3.695   1.962   0.586 -2.6103  0.6763 -0.3739
   51MPD2     N  786   3.667   1.729   0.974  0.0138  0.4091  0.2618
   51MPD2    H5  787   3.686   1.818   1.019 -1.2069  0.3060  0.9902
   51MPD2    N1  788   3.594   1.534   0.525 -0.0004  0.0402  0.0982
   51MPD2    H7  789   3.606   1.553   0.426  1.1448  1.7770  0.5660
   52TCq2    C1  790   3.639   1.620   1.046  0.5663 -0.4678 -0.1610
   52TCq2    O2  791   3.590   1.512   1.018 -0.3378 -0.0460 -0.3431
   52TCq2    C2  792   3.659   1.636   1.190  0.4752 -0.4364 -0.3326
   52TCq2    C3  793   3.624   1.519   1.264  0.2781 -0.0070 -0.3385
   52TCq2    C4  794   3.659   1.519   1.390 -0.4391  0.3515 -0.9866
   52TCq2    C5  795   3.708   1.629   1.455  0.7646 -0.4073  0.1702
   52TCq2    C6  796   3.751   1.735   1.375 -0.3401 -0.6642 -0.7358
   52TCq2    C7  797   3.724   1.747   1.241 -0.5458 -0.2236 -0.0295
   52TCq2    C8  798   3.838   1.824   1.441  0.2761  0.1857 -0.2042
   52TCq2    O4  799   3.889   1.781   1.541  0.0831  0.1726  0.2856
   52TCq2    C9  800   3.624   1.407   1.476  0.0366 -0.5714 -0.6711
   52TCq2    O5  801   3.612   1.431   1.598  0.2141 -0.1711  0.1220
   52TCq2    O6  802   3.583   1.301   1.418  0.1779 -0.1688  0.3047
   52TCq2    H2  803   3.585   1.427   1.222  0.5665  0.7777 -2.3429
   52TCq2    H3  804   3.743   1.615   1.556 -0.5920  0.4692  0.7662
   52TCq2    H4  805   3.778   1.813   1.174 -2.9377 -0.1605 -1.8961
   53TMC2    C1  806   4.093   0.504  11.901 -0.8732  0.2355 -0.9314
   53TMC2    C2  807   4.220   0.470  11.931 -0.0355 -0.9668 -0.0656
   53TMC2    C3  808   4.244   0.468  12.060 -0.2843 -0.2677 -0.1044
   53TMC2    C4  809   4.004   0.528  11.996 -0.3684 -0.6910  0.1680
   53TMC2    C5  810   4.028   0.504  12.129 -0.1195 -0.3973  0.2261
   53TMC2    C6  811   4.158   0.475  12.167  0.1858  0.3915  0.5154
   53TMC2     C  812   4.044   0.456  11.768  0.9371 -0.4388  0.5258
   53TMC2     O  813   4.118   0.477  11.674  0.0108  0.5604  0.3201
   53TMC2     H  814   4.294   0.460  11.852 -1.4756  3.4111 -1.9783
   53TMC2    H1  815   3.903   0.557  11.968 -1.0261 -2.4407  0.6995
   53TMC2    H2  816   4.189   0.476  12.271  0.7635 -1.2510  0.3510
   53TMC2    C7  817   3.922   0.448  12.212  0.3932 -0.2003  0.2710
   53TMC2    C8  818   4.377   0.488  12.100 -0.2532  0.3345 -0.4091
   53TMC2    O1  819   3.811   0.456  12.164 -0.2141  0.2640  0.3965
   53TMC2    O2  820   4.473   0.434  12.046 -0.2336 -0.5264  0.6923
   53TMC2    O5  821   4.370   0.621  12.120  0.0976  0.1321 -0.1491
   53TMC2    H5  822   4.279   0.657  12.127 -0.0465 -0.1581 -0.5010
   54MPD2     C  823   3.843   0.463  11.536 -0.2974  0.2390 -0.9554
   54MPD2    C1  824   3.817   0.435  11.665  0.5012  0.2817 -0.0853
   54MPD2    C2  825   3.686   0.422  11.710  0.4889  0.2849  1.2150
   54MPD2    C3  826   3.577   0.435  11.621 -0.2386  0.1359  0.1568
   54MPD2    C4  827   3.606   0.455  11.489 -0.5332  0.8187  1.2781
   54MPD2    C5  828   3.737   0.468  11.446  0.3901  0.7963  0.7689
   54MPD2     H  829   3.676   0.400  11.815 -0.0191  1.3207  1.3816
   54MPD2    H1  830   3.533   0.453  11.409  1.1142  1.5292 -0.2724
   54MPD2    H2  831   3.946   0.464  11.502 -0.8675 -3.0392 -2.7134
   54MPD2    H3  832   3.763   0.469  11.341  0.9533 -1.1160  0.8928
   54MPD2     N  833   3.438   0.438  11.656  0.7568  0.3069  0.1513
   54MPD2    H5  834   3.378   0.438  11.574 -0.4559  3.0256  1.0511
   54MPD2    N1  835   3.911   0.423  11.769  0.0153  0.8851 -0.0416
   54MPD2    H7  836   3.871   0.391  11.856  2.3269  0.4404  0.8788
   55MPD2     C  837   0.433   2.024   1.104 -0.2128  0.0597 -1.0816
   55MPD2    C1  838   0.304   1.970   1.093  0.4823  0.1667 -0.2435
   55MPD2    C2  839   0.193   2.044   1.053 -0.3767  0.6817 -0.9770
   55MPD2    C3  840   0.207   2.177   1.018  0.5397 -0.3180 -0.2845
   55MPD2    C4  841   0.335   2.233   1.026  0.3280  0.1775  0.5694
   55MPD2    C5  842   0.443   2.157   1.073  0.6031  0.1274  0.7080
   55MPD2     H  843   0.100   1.990   1.039 -0.5317  1.4183 -2.8199
   55MPD2    H1  844   0.351   2.332   0.984  1.1566 -0.1531  0.1188
   55MPD2    H2  845   0.523   1.971   1.137 -0.7668 -0.7942 -0.9406
   55MPD2    H3  846   0.542   2.201   1.080  1.0581 -0.4272 -2.3001
   55MPD2     N  847   0.089   2.244   0.968  0.1991  0.1729  0.6008
   55MPD2    H5  848   0.003   2.190   0.962  0.8505 -0.6754 -1.0868
   55MPD2    N1  849   0.289   1.831   1.128  0.3859  0.3502 -0.7019
   55MPD2    H7  850   0.376   1.781   1.140  1.4951  2.4197 -0.1068
   56TCq2    C1  851   0.179   1.754   1.091  0.4484  0.2949 -0.1871
   56TCq2    O2  852   0.065   1.782   1.057 -0.2722 -0.0620  0.2148
   56TCq2    C2  853   0.216   1.613   1.104 -0.1454 -0.2127 -1.0750
   56TCq2    C3  854   0.320   1.576   1.182  0.3275  0.3609  0.1041
   56TCq2    C4  855   0.367   1.445   1.179  0.1838 -0.1318  0.5114
   56TCq2    C5  856   0.301   1.347   1.113  0.1208  0.1752  0.2721
   56TCq2    C6  857   0.194   1.388   1.038  0.0286 -0.0994 -0.0287
   56TCq2    C7  858   0.149   1.520   1.030  1.0804 -0.0306 -0.3750
   56TCq2    C8  859   0.118   1.280   0.982 -0.8067 -0.0115 -0.7718
   56TCq2    O4  860   0.179   1.177   0.943  0.2484  1.0600  0.4265
   56TCq2    C9  861   0.474   1.413   1.265  0.2294 -0.1684 -0.0033
   56TCq2    O5  862   0.500   1.289   1.264 -0.6774  0.0473 -0.1687
   56TCq2    O6  863   0.513   1.493   1.358 -0.3597  0.0660  0.0265
   56TCq2    H2  864   0.372   1.642   1.250  0.8254  2.3793 -2.2123
   56TCq2    H3  865   0.328   1.242   1.122 -0.1105  0.1565  0.7317
   56TCq2    H4  866   0.070   1.547   0.960 -0.6377 -0.0879  1.5441
   57TMC2    C1  867   3.840   4.236  13.108 -0.3113 -0.0373 -0.6727
   57TMC2    C2  868   3.777   4.327  13.035 -0.4248  0.6590 -0.3865
   57TMC2    C3  869   3.853   4.425  12.985  0.5144  0.7427 -0.5552
   57TMC2    C4  870   3.973   4.217  13.124 -0.6754 -0.1641  0.4196
   57TMC2    C5  871   4.047   4.305  13.054 -0.4328 -0.0689 -0.3062
   57TMC2    C6  872   3.989   4.410  12.989 -0.3240 -0.4895  0.6869
   57TMC2     C  873   3.770   4.139  13.186 -0.3776 -0.1552 -0.3761
   57TMC2     O  874   3.826   4.081  13.279 -0.7281 -0.0681  0.0216
   57TMC2     H  875   3.669   4.333  13.035 -0.5200 -1.0656  0.2175
   57TMC2    H1  876   4.018   4.144  13.190 -0.3126 -0.4259 -0.1166
   57TMC2    H2  877   4.058   4.463  12.925 -0.0689 -2.8942 -1.0026
   57TMC2    C7  878   4.185   4.287  13.046 -0.1796 -0.3188  0.1763
   57TMC2    C8  879   3.801   4.516  12.885  0.6445 -0.0124  0.0346
   57TMC2    O1  880   4.258   4.382  13.040  0.1166 -0.6641  0.2672
   57TMC2    O2  881   3.850   4.629  12.866  0.5166  0.2232  0.2908
   57TMC2    O5  882   3.732   4.445  12.798 -0.0288 -0.7222 -0.1048
   57TMC2    H5  883   3.708   4.358  12.835 -0.8452 -0.6779 -0.5403
   58MPD2     C  884   3.332   3.871  13.184  0.0373 -0.4763  0.6061
   58MPD2    C1  885   3.409   3.904  13.289 -0.2872 -0.4822  0.2567
   58MPD2    C2  886   3.522   3.971  13.264  0.0234 -0.8663  0.3650
   58MPD2    C3  887   3.560   4.014  13.137  0.3725 -0.9421  0.2735
   58MPD2    C4  888   3.475   3.981  13.030 -0.3158 -0.4124 -0.2772
   58MPD2    C5  889   3.368   3.897  13.053  0.2531  0.1705  0.0411
   58MPD2     H  890   3.583   3.997  13.350 -0.7841  0.9949  0.3817
   58MPD2    H1  891   3.476   4.020  12.929  0.7141  2.9453  1.0173
   58MPD2    H2  892   3.243   3.810  13.196 -0.3966  0.1909  0.8458
   58MPD2    H3  893   3.305   3.866  12.970 -1.1789  2.3043  0.3292
   58MPD2     N  894   3.670   4.095  13.105 -0.4837  0.3609 -0.0135
   58MPD2    H5  895   3.665   4.125  13.008  2.8946 -0.9830 -0.6157
   58MPD2    N1  896   3.364   3.894  13.428  0.6808 -0.2261 -0.0014
   58MPD2    H7  897   3.422   3.932  13.502  0.5361 -0.5895  0.2970
   59MPD2     C  898   1.710   3.812  12.490 -0.2608 -0.7392 -0.0147
   59MPD2    C1  899   1.648   3.869  12.598 -0.5991  0.5416 -0.1696
   59MPD2    C2  900   1.726   3.894  12.709  0.0582  0.8126 -0.1989
   59MPD2    C3  901   1.862   3.864  12.716 -0.3606  0.4187 -0.1747
   59MPD2    C4  902   1.925   3.810  12.602  0.2940 -0.5266  0.3215
   59MPD2    C5  903   1.849   3.786  12.491 -0.3103  0.7714 -0.3377
   59MPD2     H  904   1.683   3.932  12.801 -1.0864 -0.7524 -0.0913
   59MPD2    H1  905   2.028   3.777  12.608  0.4882  0.0333  0.0958
   59MPD2    H2  906   1.660   3.779  12.400 -0.5974 -1.1141  0.3092
   59MPD2    H3  907   1.895   3.723  12.415  2.1341  2.1679 -0.0050
   59MPD2     N  908   1.942   3.854  12.834 -0.3961 -0.7042  0.1255
   59MPD2    H5  909   2.034   3.812  12.822  1.1970  2.1575  2.3844
   59MPD2    N1  910   1.510   3.908  12.598  0.2530 -0.4288  0.1271
   59MPD2    H7  911   1.473   3.947  12.684  0.4012 -1.0361  0.4586
   60TCq2    C1  912   1.426   3.894  12.493  0.2890  0.5573 -0.2336
   60TCq2    O2  913   1.444   3.834  12.388 -0.0929  0.1199  0.4737
   60TCq2    C2  914   1.294   3.942  12.513  0.1022  0.0913  0.4981
   60TCq2    C3  915   1.244   3.979  12.642  0.1318 -0.0319 -0.3188
   60TCq2    C4  916   1.106   3.983  12.656 -0.2737  0.0173 -0.4195
   60TCq2    C5  917   1.020   3.957  12.555  0.4838 -0.6256 -0.5786
   60TCq2    C6  918   1.071   3.923  12.438  0.1749 -0.4454  0.1084
   60TCq2    C7  919   1.207   3.923  12.411  0.5938 -0.0924 -0.2987
   60TCq2    C8  920   0.973   3.887  12.330  0.1620 -0.7652 -0.1088
   60TCq2    O4  921   0.878   3.820  12.368 -0.0687  0.4663 -1.0536
   60TCq2    C9  922   1.042   4.018  12.785  0.0295 -0.0329 -0.4004
   60TCq2    O5  923   1.120   4.075  12.870  0.5397  0.5006  0.0802
   60TCq2    O6  924   0.920   4.001  12.801  0.5146 -0.2206  0.4608
   60TCq2    H2  925   1.305   3.997  12.731  0.1304  0.8397 -0.4996
   60TCq2    H3  926   0.912   3.958  12.571  0.6524 -0.3532  0.5305
   60TCq2    H4  927   1.241   3.892  12.313 -0.9702  0.2347 -0.9508
   61MPD2     C  928   1.040   0.328  14.277 -0.1636  0.2819 -0.7728
   61MPD2    C1  929   1.084   0.458  14.293 -0.5001  0.5002 -0.1299
   61MPD2    C2  930   1.075   0.550  14.183  0.2290 -0.4894 -0.8076
   61MPD2    C3  931   1.004   0.515  14.069  0.2092 -0.1572 -0.3332
   61MPD2    C4  932   0.958   0.391  14.054 -1.0166 -0.0422 -0.0706
   61MPD2    C5  933   0.982   0.295  14.157 -0.2277 -0.5591  0.4118
   61MPD2     H  934   1.113   0.651  14.194  1.9344 -1.0156 -1.9013
   61MPD2    H1  935   0.912   0.355  13.963  0.1309 -1.6683 -0.0068
   61MPD2    H2  936   1.042   0.246  14.347 -0.9203 -0.8050 -2.0271
   61MPD2    H3  937   0.947   0.193  14.145 -0.2158 -0.7108  1.7174
   61MPD2     N  938   0.986   0.607  13.966 -0.2009  0.2856  0.3509
   61MPD2    H5  939   0.966   0.558  13.880 -0.7217  2.2440 -0.6424
   61MPD2    N1  940   1.148   0.501  14.410 -0.1643  0.2305 -0.0612
   61MPD2    H7  941   1.169   0.600  14.414  0.3093  0.0533  1.8881
   62TCq2    C1  942   1.171   0.429  14.530  0.2436 -0.3536 -0.5924
   62TCq2    O2  943   1.165   0.311  14.552  0.5637  0.1836 -0.2558
   62TCq2    C2  944   1.234   0.518  14.617  0.2264 -0.1641  0.0144
   62TCq2    C3  945   1.336   0.481  14.693 -0.4695  0.3344  0.0239
   62TCq2    C4  946   1.415   0.573  14.761 -0.8599  0.3451 -0.2512
   62TCq2    C5  947   1.381   0.708  14.762 -1.0335  0.0982  0.0315
   62TCq2    C6  948   1.264   0.739  14.688 -0.0596  0.4955 -0.5692
   62TCq2    C7  949   1.190   0.649  14.616 -0.5076 -0.0942 -0.2948
   62TCq2    C8  950   1.218   0.877  14.697 -0.2613 -0.5484  0.3312
   62TCq2    O4  951   1.310   0.957  14.693 -0.3948  0.2363  0.6039
   62TCq2    C9  952   1.534   0.531  14.826 -0.0024 -0.5169 -0.6875
   62TCq2    O5  953   1.634   0.605  14.826  0.0535  0.3210  0.0461
   62TCq2    O6  954   1.550   0.409  14.847 -0.1463  0.7934  0.9904
   62TCq2    H2  955   1.358   0.376  14.684 -0.9573  0.1484  0.9459
   62TCq2    H3  956   1.448   0.779  14.809 -1.2340  1.6276 -1.9980
   62TCq2    H4  957   1.099   0.676  14.564 -1.2001  1.8537  1.9347
   63TMC2    C1  958   0.920   0.710  10.565  0.5754  0.0020 -0.5878
   63TMC2    C2  959   0.980   0.801  10.646 -0.2941  0.7611  0.7989
   63TMC2    C3  960   1.017   0.914  10.590  0.3990 -0.8581 -0.4886
   63TMC2    C4  961   0.884   0.736  10.430  0.0832 -0.4423 -0.2853
   63TMC2    C5  962   0.929   0.854  10.383 -0.7570  0.0188 -0.0085
   63TMC2    C6  963   0.991   0.946  10.462  0.0595  0.0706 -0.1723
   63TMC2     C  964   0.823   0.639  10.639  0.0238 -0.4086  0.6679
   63TMC2     O  965   0.820   0.644  10.762 -0.3374 -0.1292 -0.1828
   63TMC2     H  966   1.003   0.789  10.751  1.4790  2.0821  0.5502
   63TMC2    H1  967   0.835   0.658  10.374  1.5771 -0.8316 -1.0422
   63TMC2    H2  968   1.020   1.045  10.429 -1.3650  0.9397  1.1941
   63TMC2    C7  969   0.859   0.905  10.269 -0.2826 -0.2083  0.2289
   63TMC2    C8  970   1.084   1.009  10.670 -0.0859 -0.5121  0.6660
   63TMC2    O1  971   0.783   0.823  10.220 -0.3937  0.2462 -0.1876
   63TMC2    O2  972   1.057   1.035  10.789  0.4154 -1.2569 -0.2499
   63TMC2    O5  973   1.209   1.002  10.618  0.7453  0.3493  0.0883
   63TMC2    H5  974   1.210   0.957  10.530 -2.4080 -0.0066  0.2542
   64MPD2     C  975   0.363   0.407  10.695  0.1260  0.2702 -0.0074
   64MPD2    C1  976   0.428   0.378  10.573  0.3440  0.7240  0.6327
   64MPD2    C2  977   0.542   0.446  10.530 -0.3465 -0.1526 -0.2733
   64MPD2    C3  978   0.606   0.527  10.611 -0.0485 -1.3324 -0.3746
   64MPD2    C4  979   0.553   0.554  10.730 -0.4209  0.0864 -0.2079
   64MPD2    C5  980   0.427   0.508  10.768 -0.3417 -0.1045  0.4269
   64MPD2     H  981   0.571   0.430  10.426 -0.4056 -1.7000 -0.0607
   64MPD2    H1  982   0.598   0.625  10.797 -1.2662 -0.0515  0.5037
   64MPD2    H2  983   0.273   0.355  10.727 -1.9318  1.9241 -3.1535
   64MPD2    H3  984   0.397   0.536  10.869  2.9143 -0.9020  1.6361
   64MPD2     N  985   0.731   0.578  10.568  0.2371 -0.3063  0.1361
   64MPD2    H5  986   0.738   0.579  10.467  0.2229 -1.6563  0.1114
   64MPD2    N1  987   0.384   0.278  10.476  0.8318 -0.3026 -0.3125
   64MPD2    H7  988   0.439   0.274  10.391  0.1406 -2.5934 -0.6464
   65MPD2     C  989   1.718   0.029  15.749  0.1907  0.0647  1.0947
   65MPD2    C1  990   1.735   0.019  15.612 -0.4254  0.1107 -0.0340
   65MPD2    C2  991   1.752   4.621  15.549 -0.2109  1.0714 -0.2179
   65MPD2    C3  992   1.760   4.504  15.629 -0.1696  0.1313 -0.1867
   65MPD2    C4  993   1.731   4.513  15.764  0.7472  0.2099 -0.0389
   65MPD2    C5  994   1.714   4.636  15.822  0.5541 -0.0923 -0.1276
   65MPD2     H  995   1.777   4.620  15.443 -3.0590  3.7142 -0.9030
   65MPD2    H1  996   1.724   4.426  15.828  2.1463 -0.5167 -0.8754
   65MPD2    H2  997   1.698   0.122  15.801 -0.9770 -0.0050  0.7763
   65MPD2    H3  998   1.707   4.635  15.930 -0.8530  1.6504 -0.1939
   65MPD2     N  999   1.765   4.371  15.580  0.6245 -0.0976  0.6069
   65MPD2    H5 1000   1.744   4.300  15.650 -1.1549 -1.0268 -0.8784
   65MPD2    N1 1001   1.724   0.128  15.526  0.5133  0.1116  0.3027
   65MPD2    H7 1002   1.738   0.109  15.428 -0.8472  0.7134 -0.0087
   66TCq2    C1 1003   1.689   0.257  15.556  0.6244  0.2647  0.0908
   66TCq2    O2 1004   1.656   0.305  15.663 -0.0093  0.0635  0.2841
   66TCq2    C2 1005   1.693   0.337  15.439 -0.5481 -0.5709  0.6154
   66TCq2    C3 1006   1.773   0.292  15.338  0.2255 -0.2756 -0.0735
   66TCq2    C4 1007   1.775   0.367  15.221 -0.2096  0.3160  0.3351
   66TCq2    C5 1008   1.674   0.464  15.202 -0.1227 -0.2407 -0.3263
   66TCq2    C6 1009   1.600   0.503  15.306 -0.1453  0.3071 -0.0290
   66TCq2    C7 1010   1.605   0.442  15.428  0.1132  0.3804  0.2320
   66TCq2    C8 1011   1.534   0.631  15.285  0.2536 -0.5848  0.1345
   66TCq2    O4 1012   1.504   0.655  15.168  0.2177  0.1462  0.3365
   66TCq2    C9 1013   1.866   0.332  15.117 -0.4179 -0.4514  0.1467
   66TCq2    O5 1014   1.868   0.413  15.019  0.2559 -0.2057 -0.6665
   66TCq2    O6 1015   1.929   0.225  15.129  0.2850  0.6225 -0.0596
   66TCq2    H2 1016   1.849   0.215  15.346  0.5267 -0.0196 -0.4893
   66TCq2    H3 1017   1.686   0.515  15.107 -0.2076 -1.0776 -0.7851
   66TCq2    H4 1018   1.548   0.471  15.516 -0.2655  0.6033 -0.0894
   67MPD2     C 1019   1.883   4.171  14.016 -0.4108  0.7671  0.4038
   67MPD2    C1 1020   1.831   4.295  14.049 -0.5421  0.2239 -0.5918
   67MPD2    C2 1021   1.718   4.329  13.986 -0.0860 -0.3661 -0.2764
   67MPD2    C3 1022   1.657   4.242  13.896  0.2652 -0.4267 -0.5535
   67MPD2    C4 1023   1.705   4.118  13.874  0.3017  0.3330 -0.6130
   67MPD2    C5 1024   1.822   4.080  13.935  0.2317  0.1956 -0.1051
   67MPD2     H 1025   1.672   4.423  14.013  0.2068 -0.4836  0.6049
   67MPD2    H1 1026   1.661   4.037  13.817 -0.3813  0.3237 -0.0657
   67MPD2    H2 1027   1.959   4.128  14.080 -1.7877  0.1989  1.6547
   67MPD2    H3 1028   1.856   3.977  13.932 -3.1903 -0.9664  1.1599
   67MPD2     N 1029   1.532   4.285  13.843 -0.6585  0.0506 -0.6318
   67MPD2    H5 1030   1.498   4.365  13.895  1.5043  0.7780 -0.3114
   67MPD2    N1 1031   1.899   4.384  14.140 -0.2258 -0.6391 -0.1702
   67MPD2    H7 1032   1.853   4.473  14.155  0.8293 -0.3147  1.2137
   68TCq2    C1 1033   2.023   4.371  14.193 -0.0410 -0.6791 -0.1368
   68TCq2    O2 1034   2.105   4.285  14.175 -0.5621  0.3146  0.4001
   68TCq2    C2 1035   2.050   4.467  14.299 -0.8440  0.3098 -0.5305
   68TCq2    C3 1036   1.952   4.560  14.344 -0.3176 -0.1653 -0.5122
   68TCq2    C4 1037   1.956   4.608  14.474 -0.2084  0.0141 -0.2362
   68TCq2    C5 1038   2.058   4.580  14.552  0.1131  0.7481 -0.1608
   68TCq2    C6 1039   2.160   4.505  14.502 -0.7217 -0.5072 -0.3282
   68TCq2    C7 1040   2.156   4.445  14.380 -0.5361  0.0249  0.3515
   68TCq2    C8 1041   2.259   4.455  14.593  0.1756 -0.2291  0.0393
   68TCq2    O4 1042   2.347   4.389  14.546  0.0618 -0.0992  0.0431
   68TCq2    C9 1043   1.844   4.697  14.518  0.0576 -0.1006  0.1070
   68TCq2    O5 1044   1.742   4.712  14.446 -0.3185 -0.4599  0.1067
   68TCq2    O6 1045   1.846   4.705  14.645 -0.1689  0.1944 -0.2554
   68TCq2    H2 1046   1.864   4.574  14.282 -0.3498 -0.6746 -0.5843
   68TCq2    H3 1047   2.064   4.624  14.651 -2.2423 -1.2544  0.8821
   68TCq2    H4 1048   2.237   4.384  14.340  0.3228  3.2923 -2.8374
   69TMC2    C1 1049   3.379   0.956  12.292  0.6253 -0.0622 -0.4468
   69TMC2    C2 1050   3.246   0.961  12.301 -0.7246 -0.5454 -0.5551
   69TMC2    C3 1051   3.171   0.998  12.198  0.0023 -0.4123 -0.1325
   69TMC2    C4 1052   3.442   0.993  12.180 -0.7557 -0.4821 -0.8364
   69TMC2    C5 1053   3.371   1.043  12.080 -0.0148  0.0548 -0.6944
   69TMC2    C6 1054   3.229   1.037  12.077 -0.9754 -0.4082  0.2450
   69TMC2     C 1055   3.445   0.863  12.383  0.3091  0.3830  0.1838
   69TMC2     O 1056   3.380   0.806  12.467  0.0838 -0.6894 -0.0382
   69TMC2     H 1057   3.192   0.937  12.392 -2.3985 -2.2527 -1.9997
   69TMC2    H1 1058   3.549   1.013  12.185 -1.0276  0.9770 -0.9558
   69TMC2    H2 1059   3.174   1.074  11.992  2.2404  2.9626 -0.3578
   69TMC2    C7 1060   3.448   1.083  11.961 -0.5895  0.1857 -0.6430
   69TMC2    C8 1061   3.032   1.014  12.221  0.0205 -0.3939  0.1722
   69TMC2    O1 1062   3.558   1.031  11.954  0.0316  0.6296 -0.1217
   69TMC2    O2 1063   2.984   1.018  12.334 -0.4633  0.3822  0.1717
   69TMC2    O5 1064   2.959   1.016  12.109 -0.0777  0.7751 -0.4960
   69TMC2    H5 1065   3.021   0.969  12.049 -2.7531 -0.3721 -2.3583
   70MPD2     C 1066   3.807   0.778  12.377 -0.2705  0.3366 -0.1240
   70MPD2    C1 1067   3.679   0.781  12.437  0.2572 -0.8331  0.4110
   70MPD2    C2 1068   3.650   0.710  12.551  0.4429 -0.3261  0.1999
   70MPD2    C3 1069   3.757   0.636  12.612 -0.4387 -0.0558 -0.2072
   70MPD2    C4 1070   3.880   0.636  12.556 -0.0349 -0.3333  0.3231
   70MPD2    C5 1071   3.904   0.706  12.441 -0.0907  0.2956  0.3346
   70MPD2     H 1072   3.551   0.705  12.595 -0.2463  1.1002 -1.1900
   70MPD2    H1 1073   3.962   0.583  12.602 -0.2326 -0.0157  1.0386
   70MPD2    H2 1074   3.828   0.829  12.284 -2.1270 -0.2068 -0.8225
   70MPD2    H3 1075   4.004   0.707  12.399 -0.0314 -4.0061  0.3693
   70MPD2     N 1076   3.740   0.559  12.732  0.1931 -0.4579 -0.4985
   70MPD2    H5 1077   3.821   0.507  12.763  1.5517  0.9619 -1.6430
   70MPD2    N1 1078   3.583   0.856  12.363  0.0102  0.4397 -0.2707
   70MPD2    H7 1079   3.625   0.907  12.286  2.4851 -0.3555  0.5571
   71TMC2    C1 1080   2.664   1.038   1.151  0.3732  0.6157 -0.6366
   71TMC2    C2 1081   2.766   0.944   1.179  0.4766  0.3810  0.1722
   71TMC2    C3 1082   2.836   0.953   1.297  0.1721 -0.7030  0.4259
   71TMC2    C4 1083   2.652   1.149   1.227 -0.3152  0.1539  0.5864
   71TMC2    C5 1084   2.721   1.152   1.346 -0.1491  0.3052 -0.7149
   71TMC2    C6 1085   2.800   1.044   1.391 -0.2770 -0.0694 -0.8152
   71TMC2     C 1086   2.636   1.044   1.009  0.9430 -0.3865 -0.4756
   71TMC2     O 1087   2.711   0.975   0.939  0.3222  0.3219 -0.4309
   71TMC2     H 1088   2.799   0.870   1.106 -0.7595 -0.3344  0.3418
   71TMC2    H1 1089   2.593   1.237   1.208 -0.1290  0.6938  2.5986
   71TMC2    H2 1090   2.832   1.034   1.494  0.4769 -0.7206 -1.1160
   71TMC2    C7 1091   2.698   1.254   1.445  0.2019  1.4678 -0.9658
   71TMC2    C8 1092   2.886   0.831   1.357 -0.0239 -0.1606  0.5474
   71TMC2    O1 1093   2.798   1.279   1.516 -0.1474 -0.4119 -0.3169
   71TMC2    O2 1094   2.843   0.717   1.349  0.4346  0.5016  0.0180
   71TMC2    O5 1095   2.984   0.867   1.437 -0.9968 -0.2038 -0.5681
   71TMC2    H5 1096   3.018   0.958   1.423  0.4304 -0.8710 -1.4043
   72MPD2     C 1097   2.484   1.278   0.598  0.4311 -1.0641 -0.7485
   72MPD2    C1 1098   2.436   1.354   0.698  0.3571 -0.3277  0.8802
   72MPD2    C2 1099   2.455   1.306   0.829 -0.1218  0.1523  0.3342
   72MPD2    C3 1100   2.534   1.190   0.845  0.0628 -0.4377  0.2808
   72MPD2    C4 1101   2.576   1.120   0.729 -0.3785  0.4165  0.1443
   72MPD2    C5 1102   2.557   1.173   0.605  0.3131 -0.5855 -0.7423
   72MPD2     H 1103   2.406   1.363   0.907  1.5310 -0.5845  1.9068
   72MPD2    H1 1104   2.639   1.032   0.725  0.6499  1.2090 -1.2564
   72MPD2    H2 1105   2.468   1.302   0.494  2.0428  1.2171 -0.4520
   72MPD2    H3 1106   2.602   1.130   0.516  2.2678  1.9298 -0.9576
   72MPD2     N 1107   2.560   1.150   0.977  0.4030 -0.2474 -0.4378
   72MPD2    H5 1108   2.514   1.191   1.058  0.6922  1.7651 -1.3034
   72MPD2    N1 1109   2.357   1.470   0.671 -0.3061  0.0442  0.2109
   72MPD2    H7 1110   2.335   1.528   0.751  1.4825 -1.1122  1.5344
   73TMC2    C1 1111   1.039   2.930  14.043  0.5650  0.0189 -0.4255
   73TMC2    C2 1112   0.965   2.967  14.153 -0.0995 -0.5901  0.1403
   73TMC2    C3 1113   1.031   3.033  14.246 -0.2253 -0.3319  0.5084
   73TMC2    C4 1114   1.172   2.967  14.043  0.1147  0.0033  0.6592
   73TMC2    C5 1115   1.243   3.028  14.143 -0.4338 -0.5477 -0.2272
   73TMC2    C6 1116   1.164   3.066  14.251  0.0967  0.1383 -1.0641
   73TMC2     C 1117   0.981   2.986  13.927 -0.0971  0.3388 -0.1746
   73TMC2     O 1118   1.020   3.099  13.909  0.1650  0.1901  0.1228
   73TMC2     H 1119   0.858   2.947  14.151 -0.0563 -0.7560 -0.6026
   73TMC2    H1 1120   1.218   2.950  13.946  1.3259  0.0767  1.2084
   73TMC2    H2 1121   1.205   3.125  14.333 -2.0929  1.0648 -0.6258
   73TMC2    C7 1122   1.336   3.123  14.096 -0.7779  0.2099 -0.1396
   73TMC2    C8 1123   0.960   3.127  14.327  0.2880  0.0699  0.6313
   73TMC2    O1 1124   1.422   3.160  14.174 -0.2424 -0.3167 -1.0673
   73TMC2    O2 1125   0.983   3.249  14.317 -0.0641  0.2014 -0.8184
   73TMC2    O5 1126   0.932   3.062  14.436 -0.6224 -0.2660 -0.3630
   73TMC2    H5 1127   0.916   2.966  14.419 -1.6676 -0.2001  0.2952
   74MPD2     C 1128   0.729   2.985  13.488  0.1339  0.3772 -0.5613
   74MPD2    C1 1129   0.814   3.081  13.537 -0.0056  0.0123  0.0840
   74MPD2    C2 1130   0.866   3.062  13.662 -0.1499  0.0318 -0.2844
   74MPD2    C3 1131   0.834   2.945  13.732 -0.8660 -0.3928  0.0921
   74MPD2    C4 1132   0.739   2.864  13.680 -0.8857 -0.0615  0.3671
   74MPD2    C5 1133   0.677   2.888  13.565  0.5830 -0.0623  0.0126
   74MPD2     H 1134   0.907   3.147  13.716 -0.5384  0.2344 -0.3135
   74MPD2    H1 1135   0.705   2.771  13.725  2.0830 -0.0807  2.5940
   74MPD2    H2 1136   0.683   2.993  13.390  0.6273  0.3570 -0.7913
   74MPD2    H3 1137   0.608   2.817  13.520  0.1836 -0.4642  1.2783
   74MPD2     N 1138   0.898   2.904  13.848  0.1913  0.0875  0.6237
   74MPD2    H5 1139   0.879   2.808  13.874 -0.7508 -0.1382 -0.8959
   74MPD2    N1 1140   0.853   3.188  13.449  0.0283  0.0230  0.1807
   74MPD2    H7 1141   0.803   3.190  13.361 -0.6584 -0.2033  0.5644
   75TCq2    C1 1142   1.464   4.216  13.743  0.2410 -0.0388  0.1612
   75TCq2    O2 1143   1.500   4.136  13.654  0.2374 -0.4343 -0.7292
   75TCq2    C2 1144   1.332   4.271  13.724  0.3480 -0.3644  0.4262
   75TCq2    C3 1145   1.273   4.350  13.822  0.0722  0.3462 -0.8485
   75TCq2    C4 1146   1.171   4.430  13.798 -0.0104  0.3090 -0.4144
   75TCq2    C5 1147   1.124   4.440  13.668  0.0683 -0.5322 -0.4385
   75TCq2    C6 1148   1.185   4.366  13.572 -0.3540 -0.3834  0.0164
   75TCq2    C7 1149   1.282   4.278  13.595  0.3506 -0.1692  0.3372
   75TCq2    C8 1150   1.167   4.399  13.434 -0.2988 -0.1362  0.8976
   75TCq2    O4 1151   1.185   4.305  13.356  0.5696  0.3814 -0.2019
   75TCq2    C9 1152   1.118   4.520  13.899 -0.0539 -0.0695  0.0308
   75TCq2    O5 1153   1.062   4.623  13.854  0.2014  0.4878 -0.6003
   75TCq2    O6 1154   1.107   4.468  14.015 -0.7252  0.2018  0.0837
   75TCq2    H2 1155   1.292   4.336  13.928  1.7539  0.2829 -1.1733
   75TCq2    H3 1156   1.046   4.513  13.652 -2.0526 -2.5998  0.4990
   75TCq2    H4 1157   1.326   4.215  13.519  2.6036  1.7057  0.0796
   76MPD2     C 1158   4.595   0.975  11.717  0.5976 -0.4406  0.0229
   76MPD2    C1 1159   4.547   0.919  11.591 -0.2014  0.0112  0.1954
   76MPD2    C2 1160   4.614   0.823  11.526  0.6768 -0.1574  0.2549
   76MPD2    C3 1161   0.007   0.775  11.572 -0.4410 -0.3499 -0.1801
   76MPD2    C4 1162   0.052   0.821  11.691 -0.0514 -0.1193  0.4976
   76MPD2    C5 1163   4.709   0.919  11.760  0.1125  0.3321 -0.7378
   76MPD2     H 1164   4.588   0.802  11.423 -1.7081  2.2055  0.3700
   76MPD2    H1 1165   0.140   0.779  11.737  0.2419  0.0368  0.0772
   76MPD2    H2 1166   4.536   1.030  11.789 -0.0642 -0.0414 -0.8330
   76MPD2    H3 1167   0.021   0.946  11.858  1.1334 -0.7673 -0.8347
   76MPD2     N 1168   0.079   0.675  11.508 -0.7307 -0.4966 -0.2728
   76MPD2    H5 1169   0.164   0.651  11.558 -0.4485  0.1718 -0.4265
   76MPD2    N1 1170   4.416   0.949  11.542 -0.1610 -0.0020 -0.3171
   76MPD2    H7 1171   4.391   0.912  11.451  0.8970  0.8480 -0.9544
   77TCq2    C1 1172   0.051   0.623  11.383  0.0025 -0.4785  0.0985
   77TCq2    O2 1173   4.672   0.634  11.320  0.6290 -0.0294  0.1378
   77TCq2    C2 1174   0.148   0.532  11.320  0.0167  0.0566  0.1696
   77TCq2    C3 1175   0.111   0.482  11.204 -0.1653 -0.5071  0.2935
   77TCq2    C4 1176   0.198   0.402  11.139  0.3635  0.5011 -0.4433
   77TCq2    C5 1177   0.318   0.362  11.194 -0.3157  0.1069 -0.1405
   77TCq2    C6 1178   0.347   0.405  11.325  0.5637 -0.0956  0.7788
   77TCq2    C7 1179   0.257   0.493  11.388  0.1831  0.3667 -0.9990
   77TCq2    C8 1180   0.495   0.405  11.350  0.2619  0.5538  0.0768
   77TCq2    O4 1181   0.571   0.413  11.259 -0.0582 -0.1509  0.0186
   77TCq2    C9 1182   0.159   0.348  11.012  0.1952 -0.1692 -0.7509
   77TCq2    O5 1183   0.051   0.379  10.961  0.2740 -0.2373 -0.9346
   77TCq2    O6 1184   0.239   0.276  10.949 -0.8783 -0.3857 -0.0911
   77TCq2    H2 1185   0.022   0.513  11.149  0.6638  2.7743  0.8375
   77TCq2    H3 1186   0.379   0.292  11.137 -1.1762 -1.9870  1.4988
   77TCq2    H4 1187   0.291   0.547  11.476 -1.4960  0.3570 -0.3535
   78MPD1     C 1188   2.184   1.892   2.910 -0.0072  0.2209 -0.1641
   78MPD1    C1 1189   2.210   1.776   2.842 -1.3890  0.1745 -0.1734
   78MPD1    C2 1190   2.119   1.714   2.767 -0.2869  0.9143 -0.8138
   78MPD1    C3 1191   1.993   1.774   2.755  0.4186  0.1738 -0.4745
   78MPD1    C4 1192   1.963   1.880   2.833  1.0522 -0.3496 -0.6712
   78MPD1    C5 1193   2.053   1.930   2.918 -0.0093  0.6923 -0.2718
   78MPD1     H 1194   2.145   1.621   2.717 -0.6752  1.3654 -1.8609
   78MPD1    H1 1195   1.867   1.930   2.842  0.9677 -0.7494  0.6178
   78MPD1    H2 1196   2.253   1.929   2.985  1.5369 -0.6744 -1.1476
   78MPD1    H3 1197   2.016   2.011   2.980  0.5812  2.2753 -1.9959
   78MPD1     N 1198   1.901   1.724   2.661 -0.1418 -0.2971 -0.0271
   78MPD1    H5 1199   1.807   1.760   2.666  0.7490  2.1087 -0.4491
   78MPD1    N1 1200   2.341   1.726   2.831 -1.1988 -0.1293 -0.2829
   78MPD1    H6 1201   2.387   1.742   2.920  0.1726  1.4461 -1.2763
   78MPD1    H7 1202   2.328   1.625   2.830  1.8295 -0.5151  0.5706
   79TCq2    C1 1203   1.921   1.622   2.569 -0.4385  0.3350  0.1822
   79TCq2    O2 1204   2.022   1.568   2.529 -0.0224  0.1367 -0.6929
   79TCq2    C2 1205   1.803   1.594   2.487 -0.3296 -0.3310 -0.1473
   79TCq2    C3 1206   1.675   1.624   2.528  0.2945 -1.2904  1.1051
   79TCq2    C4 1207   1.570   1.603   2.448 -0.1948  0.1784 -0.0545
   79TCq2    C5 1208   1.591   1.523   2.333 -0.3414 -0.2574  0.0660
   79TCq2    C6 1209   1.719   1.485   2.293  0.1906  0.0128  0.0502
   79TCq2    C7 1210   1.823   1.528   2.372  0.0462 -0.2998  0.2001
   79TCq2    C8 1211   1.744   1.388   2.190 -0.5536 -0.1127 -0.3881
   79TCq2    O4 1212   1.857   1.376   2.158  0.7209  0.2341 -0.3423
   79TCq2    C9 1213   1.437   1.652   2.493 -0.5064  0.5647 -0.4887
   79TCq2    O5 1214   1.444   1.708   2.604 -0.0795  0.3538  0.5143
   79TCq2    O6 1215   1.335   1.601   2.436 -0.2055 -0.3968 -0.1164
   79TCq2    H2 1216   1.654   1.670   2.624  0.8096 -2.9505  2.0175
   79TCq2    H3 1217   1.512   1.474   2.276  0.4685 -0.2724 -1.0565
   79TCq2    H4 1218   1.925   1.513   2.340  0.3812  0.2225  1.0150
   80MPD2     C 1219   4.151   4.704  12.398 -0.5803  0.4664  0.0514
   80MPD2    C1 1220   4.035   4.725  12.318 -0.0420  0.1528  0.0869
   80MPD2    C2 1221   3.914   4.678  12.354 -0.0952 -1.0942  0.4539
   80MPD2    C3 1222   3.890   4.612  12.474  0.2288 -0.0461  0.7569
   80MPD2    C4 1223   4.006   4.582  12.548  0.1834  0.5893  0.5689
   80MPD2    C5 1224   4.134   4.624  12.506 -0.3467 -0.2114 -0.1542
   80MPD2     H 1225   3.828   4.711  12.296 -1.1473 -1.4032  1.8140
   80MPD2    H1 1226   4.001   4.520  12.636  1.1565  0.0674  0.2560
   80MPD2    H2 1227   4.251   4.718  12.359 -0.6883  0.3280 -0.2707
   80MPD2    H3 1228   4.219   4.590  12.564 -1.2646  1.3039  2.0501
   80MPD2     N 1229   3.760   4.580  12.518 -0.0177 -0.7154  0.1377
   80MPD2    H5 1230   3.758   4.531  12.607  1.0639  2.1191  1.7189
   80MPD2    N1 1231   4.040   0.037  12.184 -0.7547  0.0412 -0.2765
   80MPD2    H7 1232   3.950   0.047  12.137 -2.0881  0.2213  2.2627
   81TCq2    C1 1233   4.144   0.090  12.123  0.0749 -0.3510  0.6304
   81TCq2    O2 1234   4.252   0.122  12.168 -0.0618 -0.1841 -0.2587
   81TCq2    C2 1235   4.139   0.087  11.979 -0.7257  0.4075  0.0327
   81TCq2    C3 1236   4.244   0.147  11.917  0.5425  0.0576 -0.3698
   81TCq2    C4 1237   4.244   0.155  11.777  0.3615 -0.5117 -0.0763
   81TCq2    C5 1238   4.129   0.111  11.708  0.6730  0.5863  0.5675
   81TCq2    C6 1239   4.022   0.060  11.780 -0.1739 -0.6523  0.0244
   81TCq2    C7 1240   4.035   0.030  11.908  0.3285 -0.0804  0.0578
   81TCq2    C8 1241   3.908   0.011  11.705 -0.6404  0.4296  0.1237
   81TCq2    O4 1242   3.863   0.079  11.612 -0.0057  0.2061  0.2105
   81TCq2    C9 1243   4.354   0.216  11.707 -0.0923 -0.7379  0.0957
   81TCq2    O5 1244   4.340   0.229  11.580 -0.9312 -0.0418  0.1054
   81TCq2    O6 1245   4.433   0.288  11.769  0.0900  0.0093  0.4796
   81TCq2    H2 1246   4.323   0.199  11.970  0.6191 -0.0527 -0.3784
   81TCq2    H3 1247   4.134   0.107  11.600 -0.9145 -2.0089  0.5948
   81TCq2    H4 1248   3.955   4.710  11.965 -0.4940 -0.0349 -1.0718
   82MPD2     C 1249   2.267   4.306  10.301 -0.2860  0.1610  0.3701
   82MPD2    C1 1250   2.179   4.206  10.323  0.0513  0.0738  0.2047
   82MPD2    C2 1251   2.162   4.167  10.450  0.2254  0.8136  0.1382
   82MPD2    C3 1252   2.221   4.241  10.558  0.3696  0.6574  0.3617
   82MPD2    C4 1253   2.295   4.351  10.536  0.4399 -0.2579 -0.4402
   82MPD2    C5 1254   2.315   4.382  10.406 -0.1917  0.5458 -0.3322
   82MPD2     H 1255   2.100   4.081  10.473  2.2582 -0.2545  1.6386
   82MPD2    H1 1256   2.350   4.409  10.609  0.0464  0.2450 -0.5465
   82MPD2    H2 1257   2.297   4.339  10.202 -2.3928  1.1138  0.0595
   82MPD2    H3 1258   2.382   4.463  10.381  1.1535 -0.3591  0.3546
   82MPD2     N 1259   2.221   4.192  10.693  0.3867 -0.1512 -0.1376
   82MPD2    H5 1260   2.270   4.253  10.759  0.2254 -1.0447  0.8067
   82MPD2    N1 1261   2.101   4.153  10.217 -0.0282 -0.2739  0.6621
   82MPD2    H7 1262   2.084   4.212  10.137  0.4305 -0.3177  0.5336
   83TCq2    C1 1263   2.177   4.075  10.738 -0.0199  0.2054  0.0922
   83TCq2    O2 1264   2.140   3.977  10.675 -0.1728 -0.0163 -0.1328
   83TCq2    C2 1265   2.203   4.055  10.877 -0.5945 -0.6810 -0.3961
   83TCq2    C3 1266   2.215   4.160  10.964 -0.2100  0.3309 -0.1712
   83TCq2    C4 1267   2.216   4.140  11.096  0.7731  0.0802 -0.1533
   83TCq2    C5 1268   2.206   4.012  11.143 -0.8168 -0.1513 -0.2962
   83TCq2    C6 1269   2.195   3.908  11.052  0.1113 -0.0037 -0.6660
   83TCq2    C7 1270   2.191   3.927  10.919 -0.1504  0.1201 -0.1109
   83TCq2    C8 1271   2.146   3.786  11.112 -0.3326  0.2401 -0.3353
   83TCq2    O4 1272   2.077   3.793  11.211 -0.2543 -0.1197 -0.0921
   83TCq2    C9 1273   2.201   4.252  11.189 -0.4661 -0.3363 -0.6164
   83TCq2    O5 1274   2.208   4.366  11.137  0.0034  0.6249 -0.1342
   83TCq2    O6 1275   2.173   4.227  11.308 -0.0114 -0.1608  0.3471
   83TCq2    H2 1276   2.212   4.264  10.933  0.4866  0.7735  1.2169
   83TCq2    H3 1277   2.201   3.984  11.248 -1.4181  1.4252  0.0973
   83TCq2    H4 1278   2.175   3.845  10.850 -0.7344  0.9148 -0.9219
   84TCq2    C1 1279   3.786   3.341  10.406  0.0630 -0.6522  0.0334
   84TCq2    O2 1280   3.669   3.310  10.388  0.0121 -0.3317 -0.3172
   84TCq2    C2 1281   3.833   3.375  10.541  0.2324 -0.0774  0.1686
   84TCq2    C3 1282   3.960   3.353  10.584  0.3977 -0.7836  0.9866
   84TCq2    C4 1283   3.984   3.376  10.714  0.9330  0.6583 -0.5484
   84TCq2    C5 1284   3.883   3.391  10.800  0.4113 -0.1295  0.5092
   84TCq2    C6 1285   3.756   3.401  10.756 -0.0178  0.0792 -0.1936
   84TCq2    C7 1286   3.723   3.399  10.623 -0.1071 -0.8053  0.5598
   84TCq2    C8 1287   3.658   3.471  10.840  0.6465  0.4837 -0.3563
   84TCq2    O4 1288   3.546   3.482  10.799  0.3398  0.0199  0.0908
   84TCq2    C9 1289   4.110   3.357  10.774  0.3403  0.6739  0.0659
   84TCq2    O5 1290   4.185   3.275  10.718  0.3454 -0.7184 -0.4475
   84TCq2    O6 1291   4.122   3.404  10.889  0.3860 -0.5066  0.5852
   84TCq2    H2 1292   4.048   3.328  10.525  1.1487 -0.5625  2.0294
   84TCq2    H3 1293   3.902   3.388  10.907 -1.4791 -2.0127  0.7828
   84TCq2    H4 1294   3.620   3.416  10.593 -0.1216  0.3119  1.2365
   85MPD2     C 1295   3.847   1.198  16.072 -0.2712 -0.1054 -0.1684
   85MPD2    C1 1296   3.847   1.144  15.944  0.2309  0.3360  0.1018
   85MPD2    C2 1297   3.895   1.219  15.844  0.0470 -0.2068 -0.3223
   85MPD2    C3 1298   3.936   1.351  15.867 -0.6020 -0.0436 -0.2613
   85MPD2    C4 1299   3.945   1.402  15.996 -0.2397 -0.1896  0.2430
   85MPD2    C5 1300   3.896   1.322  16.095 -0.1086 -0.7428  0.0558
   85MPD2     H 1301   3.885   1.178  15.744  1.9277 -0.0284 -0.5853
   85MPD2    H1 1302   3.991   1.497  16.020 -0.1641 -0.7201  2.1776
   85MPD2    H2 1303   3.822   1.149  16.165 -0.6428  0.7388  0.1784
   85MPD2    H3 1304   3.899   1.359  16.197  2.2570 -0.5883 -0.0878
   85MPD2     N 1305   3.967   1.427  15.756 -0.1487 -0.2690 -0.8010
   85MPD2    H5 1306   3.978   1.377  15.668  1.5842  0.9823 -1.2909
   85MPD2    N1 1307   3.791   1.020  15.918  0.2720 -0.0639  0.2418
   85MPD2    H7 1308   3.797   0.989  15.821 -1.6962 -3.1591  1.0946
   86TCq2    C1 1309   3.977   1.563  15.762 -0.5870  0.0397  1.0511
   86TCq2    O2 1310   3.912   1.635  15.835  0.4465 -0.4180  0.5291
   86TCq2    C2 1311   4.014   1.628  15.641  0.4946  0.1926 -0.4643
   86TCq2    C3 1312   3.966   1.749  15.603  0.0982 -0.1598  0.5976
   86TCq2    C4 1313   4.016   1.814  15.491  0.1738 -0.2530  0.1232
   86TCq2    C5 1314   4.127   1.756  15.425 -0.2291  0.1019 -0.2991
   86TCq2    C6 1315   4.179   1.639  15.479  0.4082  0.8892 -0.4671
   86TCq2    C7 1316   4.123   1.571  15.586  0.5336  0.2118  0.8672
   86TCq2    C8 1317   4.293   1.572  15.414 -0.0060  0.3046 -0.0370
   86TCq2    O4 1318   4.361   1.494  15.474  0.2545  0.0943  0.5309
   86TCq2    C9 1319   3.953   1.932  15.435 -0.2936  1.1369 -0.5525
   86TCq2    O5 1320   3.870   2.000  15.501 -0.6521 -0.4634  0.4832
   86TCq2    O6 1321   3.996   1.965  15.317 -0.5512  0.2362  0.0333
   86TCq2    H2 1322   3.870   1.779  15.644  0.4905  1.4061  0.3464
   86TCq2    H3 1323   4.166   1.800  15.333  0.7505 -0.6917 -0.2643
   86TCq2    H4 1324   4.172   1.479  15.614  0.1865 -0.4495 -0.7580
   87MPD2     C 1325   1.824   4.523   0.676 -0.3747 -0.1334  0.3554
   87MPD2    C1 1326   1.817   4.439   0.780  0.6422  0.1763  1.1287
   87MPD2    C2 1327   1.877   4.482   0.899 -0.3343 -0.3157  0.4535
   87MPD2    C3 1328   1.937   4.607   0.915  0.1673  0.4608  0.6222
   87MPD2    C4 1329   1.947   4.695   0.805 -0.0434 -0.5752  0.5098
   87MPD2    C5 1330   1.892   4.648   0.690 -0.3122  0.5532  0.1035
   87MPD2     H 1331   1.875   4.420   0.988 -1.0669  0.8719  1.2688
   87MPD2    H1 1332   1.996   0.066   0.801  2.9963 -2.2426 -2.9574
   87MPD2    H2 1333   1.774   4.492   0.585 -0.6469  0.4052  0.3210
   87MPD2    H3 1334   1.899   4.716   0.606  2.5148  0.8787  0.5942
   87MPD2     N 1335   1.999   4.657   1.029  0.6829 -0.0382  0.3029
   87MPD2    H5 1336   2.017   0.031   1.026 -0.9390  0.3279  3.4636
   87MPD2    N1 1337   1.743   4.318   0.759 -0.1380  0.2646 -0.2761
   87MPD2    H7 1338   1.726   4.303   0.660  1.5137  0.3201 -0.5720
   88TCq2    C1 1339   1.698   4.225   0.855 -1.0106 -0.4251 -0.0592
   88TCq2    O2 1340   1.699   4.244   0.977 -0.4137 -0.1037  0.3783
   88TCq2    C2 1341   1.624   4.119   0.799  0.2601 -0.2684 -0.0576
   88TCq2    C3 1342   1.566   4.027   0.884  0.1011 -0.1088  0.8995
   88TCq2    C4 1343   1.518   3.904   0.824 -0.5480  1.0345  0.0343
   88TCq2    C5 1344   1.523   3.882   0.689 -0.2588 -0.7415  0.4642
   88TCq2    C6 1345   1.577   3.984   0.607 -0.5603 -0.0774 -0.3935
   88TCq2    C7 1346   1.641   4.092   0.666  0.5673 -0.2053  0.3878
   88TCq2    C8 1347   1.606   3.966   0.471 -0.0487 -0.7403  0.2860
   88TCq2    O4 1348   1.704   4.023   0.423  0.8856  0.1653 -0.6279
   88TCq2    C9 1349   1.480   3.800   0.909  0.0747  0.5165 -0.2072
   88TCq2    O5 1350   1.474   3.813   1.035 -0.3086  0.5168  0.4124
   88TCq2    O6 1351   1.481   3.686   0.860 -0.3012 -0.8023 -0.7773
   88TCq2    H2 1352   1.541   4.042   0.989  0.3154 -0.8128  1.0539
   88TCq2    H3 1353   1.485   3.788   0.652 -1.2275 -0.8362  1.7078
   88TCq2    H4 1354   1.677   4.165   0.593 -0.5924 -1.5040 -1.4907
   89MPD2     C 1355   3.091   2.699   1.474 -0.4389  0.0836 -0.0780
   89MPD2    C1 1356   3.015   2.793   1.547  0.4842  0.2496 -0.2743
   89MPD2    C2 1357   3.058   2.922   1.545 -0.5686  0.0124 -0.0007
   89MPD2    C3 1358   3.176   2.966   1.484  0.4176 -0.0516 -0.1233
   89MPD2    C4 1359   3.250   2.872   1.415 -0.2684  0.0275  0.0652
   89MPD2    C5 1360   3.210   2.741   1.409 -0.2462 -0.9039  0.4680
   89MPD2     H 1361   2.985   2.988   1.590 -1.8833 -2.4975  1.5719
   89MPD2    H1 1362   3.343   2.890   1.362 -1.0147  0.4289 -1.1206
   89MPD2    H2 1363   3.075   2.592   1.474  0.0783  0.0001  0.7921
   89MPD2    H3 1364   3.270   2.676   1.347  0.2156 -1.4092  1.4388
   89MPD2     N 1365   3.217   3.097   1.507 -0.1426  0.2830  0.0319
   89MPD2    H5 1366   3.162   3.148   1.575 -2.0932 -2.0077  0.1544
   89MPD2    N1 1367   2.891   2.766   1.609  0.0370  0.7616  0.4525
   89MPD2    H7 1368   2.853   2.844   1.661  2.3213  0.8497  1.9762
   90TCq2    C1 1369   3.323   3.163   1.452 -0.5791 -0.2836 -0.5708
   90TCq2    O2 1370   3.379   3.135   1.346  0.0973  0.2783  0.3266
   90TCq2    C2 1371   3.364   3.287   1.510  0.6907 -0.1029  0.3619
   90TCq2    C3 1372   3.317   3.324   1.631 -0.5646  0.8426 -0.4036
   90TCq2    C4 1373   3.314   3.456   1.656 -0.0678 -0.5821  0.2102
   90TCq2    C5 1374   3.350   3.550   1.566 -0.1627  0.3935  0.3700
   90TCq2    C6 1375   3.407   3.520   1.447  0.4819 -0.3061 -0.1282
   90TCq2    C7 1376   3.420   3.387   1.428  0.3494 -0.3739  0.7834
   90TCq2    C8 1377   3.403   3.612   1.325 -0.9169 -0.3106  0.2528
   90TCq2    O4 1378   3.375   3.729   1.344 -0.6899 -0.1986  0.3562
   90TCq2    C9 1379   3.264   3.489   1.791  0.5290  0.3414 -0.0174
   90TCq2    O5 1380   3.223   3.391   1.861 -0.2509 -0.1482  0.4294
   90TCq2    O6 1381   3.281   3.609   1.823 -0.2112  0.3752 -0.2209
   90TCq2    H2 1382   3.285   3.249   1.702 -2.2353  0.3027 -1.7163
   90TCq2    H3 1383   3.329   3.653   1.592 -0.8134  0.6515 -1.2205
   90TCq2    H4 1384   3.443   3.352   1.328  1.4534 -0.8365  1.2029
   91TMC2    C1 1385   4.000   2.285  16.023 -0.0873 -0.1571 -0.7842
   91TMC2    C2 1386   4.097   2.341  16.106  0.5944  0.4819  0.9784
   91TMC2    C3 1387   4.045   2.418  16.205 -0.1086  0.1886  0.0269
   91TMC2    C4 1388   3.872   2.295  16.040  0.1209 -0.6434  0.0484
   91TMC2    C5 1389   3.834   2.363  16.153  0.0856 -0.3614 -0.1176
   91TMC2    C6 1390   3.915   2.430  16.237  1.1004  0.1381 -0.2663
   91TMC2     C 1391   4.048   2.202  15.914 -0.2060 -0.0713 -0.3112
   91TMC2     O 1392   3.964   2.140  15.844 -0.2907 -0.4245 -1.2452
   91TMC2     H 1393   4.204   2.322  16.109  0.1898 -1.3631  3.8617
   91TMC2    H1 1394   3.809   2.229  15.982  0.7921 -2.5136  1.4397
   91TMC2    H2 1395   3.876   2.476  16.327 -0.3422 -1.5187 -0.0489
   91TMC2    C7 1396   3.698   2.341  16.200  0.2281 -0.1967 -0.2157
   91TMC2    C8 1397   4.148   2.484  16.283  0.0328 -1.2946  0.0076
   91TMC2    O1 1398   3.684   2.369  16.318 -0.3172  0.3381  0.4813
   91TMC2    O2 1399   4.270   2.466  16.273 -0.3300 -0.5382  0.0837
   91TMC2    O5 1400   4.100   2.591  16.349  0.2590 -0.2876  0.0502
   91TMC2    H5 1401   4.008   2.616  16.327  0.0566 -0.5681  0.5821
   92MPD2     C 1402   4.208   2.089  15.677  0.1105  0.5343 -0.4982
   92MPD2    C1 1403   4.258   2.145  15.795 -0.6598  0.0547  0.2954
   92MPD2    C2 1404   4.397   2.167  15.804 -0.1727  0.3615  0.5217
   92MPD2    C3 1405   4.477   2.110  15.706 -1.1649 -0.2388 -0.1865
   92MPD2    C4 1406   4.425   2.045  15.596 -0.2531  0.4671  0.5056
   92MPD2    C5 1407   4.290   2.035  15.585  0.7332  1.0802 -0.1823
   92MPD2     H 1408   4.446   2.197  15.895  1.1871 -0.9214  0.2229
   92MPD2    H1 1409   4.486   1.991  15.524  0.7461  1.7378  0.4130
   92MPD2    H2 1410   4.101   2.075  15.670  0.3479 -0.1230 -2.6922
   92MPD2    H3 1411   4.245   1.978  15.504 -2.2599 -0.1046  2.2875
   92MPD2     N 1412   4.613   2.123  15.724  0.2972  0.4930 -0.2254
   92MPD2    H5 1413   4.643   2.174  15.806 -0.3898 -0.8018  0.8193
   92MPD2    N1 1414   4.181   2.204  15.902  0.2652  0.4608 -0.2860
   92MPD2    H7 1415   4.237   2.252  15.972 -2.0393  1.5457  0.7847
   93MPD2     C 1416   0.814   2.006  13.188 -0.3085 -0.3194 -0.6584
   93MPD2    C1 1417   0.807   2.135  13.140  0.1808  0.4623 -0.5277
   93MPD2    C2 1418   0.686   2.176  13.088 -0.3199 -0.4223 -0.8391
   93MPD2    C3 1419   0.572   2.099  13.113  0.2579 -0.9312 -0.3234
   93MPD2    C4 1420   0.583   1.967  13.162 -0.7129 -0.2944 -0.3353
   93MPD2    C5 1421   0.705   1.923  13.204  0.4332 -0.9440 -0.2363
   93MPD2     H 1422   0.675   2.271  13.037  0.9798 -0.1830 -0.6703
   93MPD2    H1 1423   0.496   1.909  13.193  0.7476 -2.1027  0.3600
   93MPD2    H2 1424   0.908   1.970  13.229 -1.0661  0.5432  1.8059
   93MPD2    H3 1425   0.709   1.831  13.263 -2.3496 -1.3235 -0.6379
   93MPD2     N 1426   0.438   2.147  13.080  0.5984  0.6143 -0.0548
   93MPD2    H5 1427   0.359   2.087  13.106  0.1474  0.3615 -2.0493
   93MPD2    N1 1428   0.920   2.224  13.133  0.5287 -0.1071 -0.4966
   93MPD2    H7 1429   0.908   2.315  13.089  0.4312  0.4053  0.6016
   94TCq2    C1 1430   1.049   2.193  13.171  0.6217 -0.1896  0.2581
   94TCq2    O2 1431   1.087   2.087  13.218  0.0785  0.1189 -0.2841
   94TCq2    C2 1432   1.139   2.306  13.183 -0.4353  0.5021 -0.3483
   94TCq2    C3 1433   1.089   2.434  13.167  0.0429  0.2059  0.1493
   94TCq2    C4 1434   1.176   2.537  13.188  0.0990  1.0027 -0.9872
   94TCq2    C5 1435   1.305   2.518  13.218  0.0326 -0.5832  0.4137
   94TCq2    C6 1436   1.348   2.389  13.247 -0.0917  0.8559 -0.0366
   94TCq2    C7 1437   1.268   2.283  13.217 -0.1987  0.5627 -0.9504
   94TCq2    C8 1438   1.482   2.384  13.317  0.1281  0.1303 -0.3397
   94TCq2    O4 1439   1.552   2.286  13.309  0.0702  0.1987 -0.2042
   94TCq2    C9 1440   1.130   2.669  13.149 -0.5548 -0.0563 -0.3646
   94TCq2    O5 1441   1.207   2.763  13.172  0.2473 -0.6007 -0.4856
   94TCq2    O6 1442   1.047   2.669  13.051  0.2016  0.3860 -0.3793
   94TCq2    H2 1443   0.987   2.457  13.141 -0.5487 -1.2481  1.2042
   94TCq2    H3 1444   1.377   2.600  13.216  0.7537 -1.2489 -1.1232
   94TCq2    H4 1445   1.301   2.180  13.216  0.5758  0.8117 -1.3955
   95TMC2    C1 1446   0.955   4.323  15.954  0.5171 -0.0608  0.4822
   95TMC2    C2 1447   0.873   4.246  16.035 -0.9086  0.0598  0.7588
   95TMC2    C3 1448   0.831   4.295  16.153  0.3215  1.0855  0.0696
   95TMC2    C4 1449   0.987   4.449  15.997  0.4330 -0.2188 -0.2825
   95TMC2    C5 1450   0.939   4.501  16.118  0.0697  0.1176  0.3807
   95TMC2    C6 1451   0.864   4.420  16.202  0.3219  0.2807 -0.0508
   95TMC2     C 1452   1.002   4.270  15.828 -0.9741  0.4378  0.5260
   95TMC2     O 1453   1.102   4.324  15.788  0.1550  0.4571 -0.3115
   95TMC2     H 1454   0.844   4.143  16.016 -2.2322  0.8194 -1.2305
   95TMC2    H1 1455   1.042   4.505  15.923  1.4036  0.2069  0.7633
   95TMC2    H2 1456   0.812   4.460  16.288 -1.2177 -2.5798  0.3320
   95TMC2    C7 1457   0.957   4.635  16.156  0.2088  0.3249 -0.5967
   95TMC2    C8 1458   0.745   4.209  16.233  0.1292  0.3623 -0.2963
   95TMC2    O1 1459   0.951   4.658  16.273 -0.1536 -0.0105  0.1044
   95TMC2    O2 1460   0.749   4.089  16.240 -0.1236  0.5456 -0.3319
   95TMC2    O5 1461   0.624   4.280  16.215 -0.1554 -0.1848 -0.1121
   95TMC2    H5 1462   0.636   4.368  16.174 -2.1062  1.2354  2.3491
   96MPD2     C 1463   1.083   3.929  15.461 -0.0572  0.6376 -0.5524
   96MPD2    C1 1464   1.163   4.035  15.509  0.9116  0.0815 -0.2369
   96MPD2    C2 1465   1.110   4.109  15.612 -0.2260 -0.0468 -0.0871
   96MPD2    C3 1466   0.987   4.089  15.665 -0.1561 -0.1936  0.4210
   96MPD2    C4 1467   0.906   3.984  15.622 -0.2043 -0.3139 -0.3037
   96MPD2    C5 1468   0.958   3.904  15.518 -0.4805 -0.0107 -0.2633
   96MPD2     H 1469   1.166   4.194  15.648  1.4532 -0.9533 -0.5579
   96MPD2    H1 1470   0.806   3.962  15.658  0.1624  1.5738  1.8850
   96MPD2    H2 1471   1.121   3.863  15.384 -0.1228  0.1118 -0.1352
   96MPD2    H3 1472   0.899   3.821  15.479 -0.0759  0.2765 -1.4826
   96MPD2     N 1473   0.941   4.164  15.779 -0.1729  0.3922  0.4333
   96MPD2    H5 1474   0.854   4.129  15.819 -0.1037  1.5632  1.5604
   96MPD2    N1 1475   1.288   4.046  15.458 -0.1856 -0.7331 -0.1709
   96MPD2    H7 1476   1.309   3.975  15.389 -0.6605 -0.9863 -0.0559
   97MPD2     C 1477   3.056   1.637   0.469 -0.1457 -0.6506  0.4297
   97MPD2    C1 1478   3.111   1.760   0.442  0.9775 -0.1847  0.8409
   97MPD2    C2 1479   3.109   1.809   0.311  0.4870  0.3830  0.1653
   97MPD2    C3 1480   3.063   1.732   0.207  0.6388  0.6608 -0.1897
   97MPD2    C4 1481   3.015   1.605   0.236  0.4487 -0.5241 -0.0235
   97MPD2    C5 1482   3.003   1.556   0.365 -0.6918 -0.0573 -0.2085
   97MPD2     H 1483   3.169   1.898   0.294 -0.4706  1.2846  1.4740
   97MPD2    H1 1484   2.977   1.541   0.158  2.0402 -2.3976  0.7378
   97MPD2    H2 1485   3.070   1.594   0.567 -1.4120 -2.3208 -0.1203
   97MPD2    H3 1486   2.965   1.459   0.397  0.5245 -0.6362 -0.4951
   97MPD2     N 1487   3.094   1.754   0.068  0.5886 -0.5711  0.3868
   97MPD2    H5 1488   3.087   1.679   0.001 -1.8490  0.0635 -0.1091
   97MPD2    N1 1489   3.180   1.825   0.554 -0.7413 -0.4402 -0.5275
   97MPD2    H7 1490   3.152   1.780   0.641  0.0932 -0.0316 -0.0485
   98TCq2    C1 1491   3.136   1.874   0.019 -0.3456 -0.3798 -0.2716
   98TCq2    O2 1492   3.192   1.961   0.084 -0.2538  0.2439  0.0668
   98TCq2    C2 1493   3.168   1.858  17.583 -0.4407  0.0997  0.8701
   98TCq2    C3 1494   3.106   1.763  17.507  0.3359  0.9239  0.5345
   98TCq2    C4 1495   3.167   1.716  17.400  0.1671 -0.4201 -0.1068
   98TCq2    C5 1496   3.291   1.762  17.357 -0.8093 -0.8352 -0.0528
   98TCq2    C6 1497   3.353   1.862  17.430  0.4064  0.8341 -0.4229
   98TCq2    C7 1498   3.287   1.915  17.543 -0.7926  0.0615 -0.4074
   98TCq2    C8 1499   3.503   1.878  17.408 -0.1724  0.3020  0.2212
   98TCq2    O4 1500   3.565   1.906  17.507  0.0915 -0.1496  0.3811
   98TCq2    C9 1501   3.105   1.610  17.324 -0.5257 -0.6034  0.0839
   98TCq2    O5 1502   3.152   1.596  17.208 -0.3337  0.3107  0.4515
   98TCq2    O6 1503   2.989   1.572  17.358 -0.7887  0.1995  0.2952
   98TCq2    H2 1504   3.005   1.732  17.531  0.6269  0.1212  0.7171
   98TCq2    H3 1505   3.330   1.710  17.270  2.2317 -0.1632  0.9469
   98TCq2    H4 1506   3.335   2.000  17.590 -1.0669  0.4603 -0.8594
   99MPD2     C 1507   2.022   2.819   1.131  0.3455  0.6509  0.9018
   99MPD2    C1 1508   2.036   2.916   1.225  0.0773  0.6524 -0.0854
   99MPD2    C2 1509   2.148   2.998   1.216  0.0971 -0.9954  0.5359
   99MPD2    C3 1510   2.247   2.966   1.119 -0.3169  0.0057  0.3332
   99MPD2    C4 1511   2.229   2.868   1.028  0.2901 -0.1469  0.1018
   99MPD2    C5 1512   2.113   2.801   1.036  0.1215  0.3903 -0.7216
   99MPD2     H 1513   2.154   3.087   1.277 -1.9125 -0.3675 -0.1964
   99MPD2    H1 1514   2.303   2.845   0.952 -0.0377  1.0537 -0.5755
   99MPD2    H2 1515   1.941   2.747   1.124  0.8887 -0.0785  1.9320
   99MPD2    H3 1516   2.105   2.718   0.967 -2.6958  0.0175  0.0108
   99MPD2     N 1517   2.361   3.056   1.121  0.4251  0.1957  0.8779
   99MPD2    H5 1518   2.355   3.126   1.194 -1.4196 -2.2579  3.0871
   99MPD2    N1 1519   1.957   2.941   1.341 -0.1063  0.0683  0.1230
   99MPD2    H7 1520   1.997   2.990   1.420 -0.8090  2.1380 -0.8135
  100TCq2    C1 1521   1.834   2.879   1.350 -0.3123  1.0798  0.4042
  100TCq2    O2 1522   1.766   2.817   1.267 -0.4454  0.6731 -0.7179
  100TCq2    C2 1523   1.794   2.885   1.490  0.3408  0.1043 -0.5983
  100TCq2    C3 1524   1.888   2.893   1.589 -0.1773 -0.0644  0.4811
  100TCq2    C4 1525   1.851   2.901   1.723  0.6813  0.2728  0.0038
  100TCq2    C5 1526   1.717   2.911   1.757 -0.6873  0.2709  0.2106
  100TCq2    C6 1527   1.621   2.896   1.654  0.0007  0.0169 -0.4298
  100TCq2    C7 1528   1.657   2.881   1.518 -0.2118 -0.2495 -0.1642
  100TCq2    C8 1529   1.479   2.884   1.699 -0.3254 -0.4223 -0.1239
  100TCq2    O4 1530   1.459   2.925   1.814  0.4630  0.3764 -0.0447
  100TCq2    C9 1531   1.945   2.907   1.829  0.0660 -0.6501 -0.3803
  100TCq2    O5 1532   2.054   2.847   1.816  0.2920  0.3889 -0.1848
  100TCq2    O6 1533   1.914   2.978   1.933 -0.0772 -0.0801 -0.0828
  100TCq2    H2 1534   1.996   2.897   1.579 -0.3402 -1.4553 -1.9405
  100TCq2    H3 1535   1.693   2.918   1.863 -2.4845 -0.4734 -0.1564
  100TCq2    H4 1536   1.583   2.886   1.439  0.8325 -2.2060 -1.2818
  101MPD2     C 1537   2.707   4.322  13.053  0.1260  0.0330 -0.1963
  101MPD2    C1 1538   2.589   4.370  13.100  0.2877 -0.1222 -0.4108
  101MPD2    C2 1539   2.477   4.297  13.092  0.0187  0.3779 -0.0325
  101MPD2    C3 1540   2.487   4.160  13.051  0.6139  0.3546 -1.4961
  101MPD2    C4 1541   2.606   4.113  12.992  0.2631 -0.3417  1.6447
  101MPD2    C5 1542   2.715   4.196  12.998  0.5344  0.1517  1.0646
  101MPD2     H 1543   2.379   4.332  13.121  0.0426  1.7281 -1.5461
  101MPD2    H1 1544   2.619   4.011  12.957 -3.7331  0.0805 -1.1064
  101MPD2    H2 1545   2.798   4.381  13.055 -0.5573  1.1581 -1.3898
  101MPD2    H3 1546   2.809   4.163  12.958 -0.2798 -0.4101 -0.3837
  101MPD2     N 1547   2.366   4.088  13.083 -0.3947  0.0386  0.1252
  101MPD2    H5 1548   2.291   4.136  13.133 -1.2487 -1.5741  0.3817
  101MPD2    N1 1549   2.600   4.498  13.153 -0.7210  0.9710  0.4159
  101MPD2    H7 1550   2.691   4.542  13.155  0.9084 -2.3368  0.1667
  102TCq2    C1 1551   2.628   0.267  13.062  0.2099 -0.5720  0.1339
  102TCq2    O2 1552   2.718   0.199  13.016 -0.0343 -0.8483  0.1288
  102TCq2    C2 1553   2.542   0.194  13.150  0.0955 -0.0809 -0.4230
  102TCq2    C3 1554   2.436   0.251  13.220  0.3274  0.8544  0.5542
  102TCq2    C4 1555   2.374   0.165  13.306  0.0497 -0.5890  0.2454
  102TCq2    C5 1556   2.402   0.033  13.309 -0.2397 -0.7017 -0.0584
  102TCq2    C6 1557   2.509   4.709  13.239 -0.4717  0.8137  0.5232
  102TCq2    C7 1558   2.566   0.061  13.151  0.3459 -1.0502 -0.7438
  102TCq2    C8 1559   2.492   4.564  13.206 -0.5954  0.6306 -0.0380
  102TCq2    O4 1560   2.373   4.530  13.202  0.1127 -0.2723 -0.1253
  102TCq2    C9 1561   2.270   0.200  13.396  0.2972 -0.3814  0.3479
  102TCq2    O5 1562   2.214   0.314  13.374 -0.0771 -0.4971 -0.8616
  102TCq2    O6 1563   2.227   0.114  13.473 -0.3417  0.6302  0.0343
  102TCq2    H2 1564   2.422   0.358  13.219  0.4271  0.8551 -1.1578
  102TCq2    H3 1565   2.349   4.683  13.366  1.0086 -0.7656  1.0156
  102TCq2    H4 1566   2.626   0.006  13.080  1.9239 -0.2162 -0.0433
  103TMC2    C1 1567   0.728   0.245  12.099  0.2488  0.6566  0.6554
  103TMC2    C2 1568   0.855   0.201  12.120  0.0201  0.1717 -0.3628
  103TMC2    C3 1569   0.887   0.145  12.239 -0.6536 -0.2267  0.3143
  103TMC2    C4 1570   0.633   0.238  12.197 -0.1744 -0.6773 -0.6179
  103TMC2    C5 1571   0.664   0.165  12.314 -0.0318 -0.6598 -0.3102
  103TMC2    C6 1572   0.793   0.124  12.337  0.1998 -0.5015  0.6315
  103TMC2     C 1573   0.681   0.297  11.971 -1.1913 -0.2683 -0.3348
  103TMC2     O 1574   0.559   0.303  11.957  0.0298 -0.2304 -0.4992
  103TMC2     H 1575   0.934   0.219  12.048  1.2569 -3.3759  0.0835
  103TMC2    H1 1576   0.533   0.276  12.179  0.3496  1.3154  0.6383
  103TMC2    H2 1577   0.829   0.090  12.434  0.2831  0.8985  1.0966
  103TMC2    C7 1578   0.576   0.149  12.437  0.5831 -0.3449 -0.2444
  103TMC2    C8 1579   1.022   0.114  12.270  0.6647 -0.2050 -0.3817
  103TMC2    O1 1580   0.620   0.104  12.542 -0.4860 -0.7841  0.4056
  103TMC2    O2 1581   1.065   0.149  12.380 -0.5082  0.1158  0.1798
  103TMC2    O5 1582   1.089   0.055  12.165 -0.1092 -0.0728  0.2798
  103TMC2    H5 1583   1.029   0.034  12.090  2.1209  1.2817 -1.8594
  104MPD2     C 1584   0.886   0.354  11.670 -0.2200  0.1072  0.1073
  104MPD2    C1 1585   0.761   0.340  11.737  0.0727  0.7233  0.4537
  104MPD2    C2 1586   0.642   0.371  11.676  0.4447  0.2838  0.1871
  104MPD2    C3 1587   0.648   0.404  11.545  0.8171 -0.7519  0.6344
  104MPD2    C4 1588   0.764   0.394  11.477 -0.4648 -0.4639 -0.8008
  104MPD2    C5 1589   0.886   0.373  11.539  0.1646 -0.0865  0.1691
  104MPD2     H 1590   0.554   0.393  11.735 -0.3154  0.1436 -0.8926
  104MPD2    H1 1591   0.773   0.414  11.370  1.9985  1.3066 -0.2703
  104MPD2    H2 1592   0.981   0.361  11.722  0.1140 -0.9569 -0.3568
  104MPD2    H3 1593   0.975   0.367  11.478  0.5021  0.4816  0.5973
  104MPD2     N 1594   0.522   0.424  11.486 -0.4592 -0.2234 -0.8553
  104MPD2    H5 1595   0.436   0.428  11.541 -1.5320 -0.2684 -2.5279
  104MPD2    N1 1596   0.780   0.313  11.876  0.6443 -0.3828 -0.1751
  104MPD2    H7 1597   0.879   0.304  11.900  0.3709 -0.2014  1.0362
  105MPD2     C 1598   2.543   3.719  17.011 -0.2793  0.5695 -0.1240
  105MPD2    C1 1599   2.505   3.848  17.027 -0.4911  0.5020  0.4179
  105MPD2    C2 1600   2.394   3.858  17.104  0.3726  0.4819  0.1197
  105MPD2    C3 1601   2.318   3.759  17.147 -0.0992  0.9525  0.0313
  105MPD2    C4 1602   2.353   3.634  17.126  0.3208  0.4305 -0.9675
  105MPD2    C5 1603   2.477   3.617  17.070  0.1311 -0.1781  0.7424
  105MPD2     H 1604   2.362   3.959  17.125  0.2248  0.4141  0.2248
  105MPD2    H1 1605   2.306   3.546  17.168  0.2812  1.2981  0.8376
  105MPD2    H2 1606   2.636   3.699  16.958 -0.2631  2.1851 -0.7221
  105MPD2    H3 1607   2.516   3.518  17.054  0.0213 -0.5101  2.5746
  105MPD2     N 1608   2.196   3.794  17.208  0.6320 -0.3317  0.9184
  105MPD2    H5 1609   2.183   3.894  17.215 -0.7404 -0.4510  0.2522
  105MPD2    N1 1610   2.561   3.962  16.960  0.5825 -0.0354  0.3893
  105MPD2    H7 1611   2.518   4.054  16.962 -0.4700 -0.4951 -1.1669
  106TCq2    C1 1612   2.114   3.715  17.287  0.4624 -0.0054  0.4613
  106TCq2    O2 1613   2.135   3.600  17.320  0.3879  0.2569 -0.4750
  106TCq2    C2 1614   2.011   3.796  17.349  0.0015  1.3513  0.0986
  106TCq2    C3 1615   2.035   3.933  17.363 -0.3307 -0.3586 -0.6090
  106TCq2    C4 1616   1.945   3.999  17.446 -0.4805 -0.0024 -0.0559
  106TCq2    C5 1617   1.848   3.935  17.517  0.4724  0.7528  0.1063
  106TCq2    C6 1618   1.839   3.804  17.499 -0.0062  0.8616  0.3037
  106TCq2    C7 1619   1.920   3.732  17.420  0.1573 -0.5704 -0.1393
  106TCq2    C8 1620   1.726   3.744  17.565 -0.5568  0.3770  0.2814
  106TCq2    O4 1621   1.696   3.636  17.515 -0.0577 -0.4033 -0.6687
  106TCq2    C9 1622   1.963   4.137  17.466  0.1500  0.7135 -0.6951
  106TCq2    O5 1623   2.040   4.186  17.379  0.5267  0.0097  0.6919
  106TCq2    O6 1624   1.917   4.187  17.569 -0.1905  0.2929 -0.7739
  106TCq2    H2 1625   2.121   3.982  17.319 -0.4107  0.3164 -0.0105
  106TCq2    H3 1626   1.772   4.000  17.558 -0.8742  0.1417 -1.3889
  106TCq2    H4 1627   1.915   3.623  17.418  3.3328 -0.6921 -1.0375
  107TMC2    C1 1628   2.895   3.573  11.439 -0.1543 -0.6289  0.2184
  107TMC2    C2 1629   2.857   3.467  11.359  0.3406 -0.1562  0.0503
  107TMC2    C3 1630   2.945   3.415  11.273 -0.1606 -0.0568  0.2312
  107TMC2    C4 1631   3.016   3.640  11.414 -1.2894 -0.3005  0.6378
  107TMC2    C5 1632   3.102   3.588  11.329 -0.0016  0.1464 -0.1431
  107TMC2    C6 1633   3.071   3.476  11.257 -0.2461 -1.3094 -1.0492
  107TMC2     C 1634   2.828   3.588  11.562 -0.8512  0.8404 -0.0634
  107TMC2     O 1635   2.716   3.546  11.571 -0.4504 -0.0440 -0.2297
  107TMC2     H 1636   2.772   3.407  11.389  0.5262  0.4820  1.8693
  107TMC2    H1 1637   3.043   3.728  11.472  1.6803  0.2206 -1.5273
  107TMC2    H2 1638   3.147   3.424  11.200  2.3059  0.8971  0.3435
  107TMC2    C7 1639   3.235   3.652  11.317 -0.0227 -1.0429 -0.0068
  107TMC2    C8 1640   2.904   3.288  11.211  0.6826 -0.3052  0.4596
  107TMC2    O1 1641   3.246   3.746  11.391 -0.9034 -0.4318  0.1435
  107TMC2    O2 1642   2.805   3.231  11.255  0.7207  0.0985  0.1492
  107TMC2    O5 1643   2.970   3.256  11.095  0.3205 -0.2972 -0.5441
  107TMC2    H5 1644   3.052   3.302  11.066  1.0509 -1.6055 -0.5952
  108MPD2     C 1645   2.959   3.788  11.842  0.4361 -0.3613 -0.2592
  108MPD2    C1 1646   2.863   3.719  11.770  0.9101  0.2760  0.0034
  108MPD2    C2 1647   2.734   3.707  11.824  0.2448  0.5823  0.0123
  108MPD2    C3 1648   2.708   3.757  11.955  0.8251  0.3081  0.2284
  108MPD2    C4 1649   2.804   3.832  12.012 -0.2340 -0.1803  0.1899
  108MPD2    C5 1650   2.931   3.847  11.962 -0.3013 -0.8386 -0.1190
  108MPD2     H 1651   2.654   3.651  11.775 -0.1523  0.2803  0.9914
  108MPD2    H1 1652   2.787   3.883  12.106 -1.4198  2.4168 -1.4255
  108MPD2    H2 1653   3.061   3.795  11.807 -0.2801  0.3399 -2.1733
  108MPD2    H3 1654   3.005   3.909  12.011  0.8761 -0.5303 -2.3153
  108MPD2     N 1655   2.590   3.739  12.032  0.1915  0.3125  0.2296
  108MPD2    H5 1656   2.592   3.769  12.129 -1.0936  1.0656  0.0275
  108MPD2    N1 1657   2.905   3.652  11.654  0.2800 -0.0863 -0.5103
  108MPD2    H7 1658   3.002   3.666  11.631 -0.0349 -0.6007 -2.1376
  109MPD2     C 1659   2.572   1.158   2.027 -0.1450  0.4868 -0.4954
  109MPD2    C1 1660   2.571   1.120   1.894  0.0300 -0.1035 -0.3390
  109MPD2    C2 1661   2.684   1.135   1.823  0.6088 -0.1964  0.9966
  109MPD2    C3 1662   2.800   1.199   1.873 -0.3074  0.4338 -0.1481
  109MPD2    C4 1663   2.803   1.228   2.006 -0.2123 -0.3936  0.1853
  109MPD2    C5 1664   2.684   1.211   2.079 -0.3070 -0.2759 -0.6213
  109MPD2     H 1665   2.686   1.110   1.717 -0.5834  0.6764  0.7681
  109MPD2    H1 1666   2.883   1.281   2.056 -0.2889 -0.7295  0.6540
  109MPD2    H2 1667   2.479   1.150   2.082  0.6958 -0.4966  0.7927
  109MPD2    H3 1668   2.689   1.225   2.186  1.7888  1.4555 -0.9458
  109MPD2     N 1669   2.912   1.220   1.793 -0.8866  0.2001  0.1190
  109MPD2    H5 1670   2.907   1.188   1.697  1.7713  4.7483 -1.5064
  109MPD2    N1 1671   2.452   1.071   1.838  0.3716 -0.2592  0.0542
  109MPD2    H7 1672   2.363   1.076   1.888  1.7209 -1.5167  2.5713
  110TCq2    C1 1673   3.021   1.293   1.819  1.0633  0.2534 -0.0422
  110TCq2    O2 1674   3.054   1.348   1.921 -0.3742  0.2156  0.4702
  110TCq2    C2 1675   3.109   1.302   1.699 -0.2355 -0.1408  0.1316
  110TCq2    C3 1676   3.096   1.227   1.590 -0.2457  1.0897 -0.1033
  110TCq2    C4 1677   3.175   1.257   1.481 -0.4133 -0.1600  0.2823
  110TCq2    C5 1678   3.265   1.362   1.495  0.1162 -0.6574  0.5488
  110TCq2    C6 1679   3.278   1.434   1.607  0.3332  0.1377  0.2489
  110TCq2    C7 1680   3.190   1.415   1.706 -0.1630  0.3445  0.9268
  110TCq2    C8 1681   3.332   1.570   1.595 -0.4292  0.3317 -0.0020
  110TCq2    O4 1682   3.376   1.613   1.703 -0.0459 -0.0386  0.0269
  110TCq2    C9 1683   3.183   1.171   1.361  0.4386  0.3266 -0.6072
  110TCq2    O5 1684   3.099   1.075   1.355  0.1421  0.1107 -0.4188
  110TCq2    O6 1685   3.247   1.220   1.265  0.0767  0.7549 -0.0328
  110TCq2    H2 1686   3.025   1.146   1.578 -1.4535  1.9114  1.4351
  110TCq2    H3 1687   3.336   1.375   1.415  0.5622  1.8501  1.3718
  110TCq2    H4 1688   3.212   1.474   1.795  1.8025 -1.4422  1.6391
  111TMC2    C1 1689   2.922   1.043  11.535 -0.0847  0.4926 -0.3093
  111TMC2    C2 1690   3.012   1.098  11.447 -0.4123 -0.0762 -0.0107
  111TMC2    C3 1691   3.143   1.078  11.478 -0.1998  0.3487  0.0217
  111TMC2    C4 1692   2.954   0.965  11.648  0.1538 -0.6066  0.1032
  111TMC2    C5 1693   3.090   0.949  11.668 -0.4361  0.7093 -0.4451
  111TMC2    C6 1694   3.183   1.007  11.588 -0.2665  0.5670 -0.2427
  111TMC2     C 1695   2.791   1.027  11.475  0.0060  0.4671 -1.1901
  111TMC2     O 1696   2.787   1.024  11.351 -0.0860 -0.3746 -0.0137
  111TMC2     H 1697   2.986   1.140  11.350  1.0330  0.8427 -0.0011
  111TMC2    H1 1698   2.882   0.930  11.720 -0.3342  1.8982  0.8504
  111TMC2    H2 1699   3.288   0.993  11.613 -0.4206  0.4416  0.3317
  111TMC2    C7 1700   3.133   0.877  11.786 -0.0579 -0.0405 -0.0217
  111TMC2    C8 1701   3.243   1.131  11.387  0.6814 -0.4238  0.1601
  111TMC2    O1 1702   3.056   0.878  11.881 -0.3354  0.4441 -0.3745
  111TMC2    O2 1703   3.349   1.079  11.354  0.1409  0.1700 -0.4743
  111TMC2    O5 1704   3.208   1.263  11.372  0.1362 -0.3353  0.6521
  111TMC2    H5 1705   3.162   1.287  11.455 -1.5219  2.2367 -1.0177
  112MPD2     C 1706   2.279   1.133  11.492  0.2298  0.4739  0.7205
  112MPD2    C1 1707   2.369   1.113  11.390 -0.3174 -0.9617 -0.0626
  112MPD2    C2 1708   2.503   1.080  11.413 -0.5667 -1.1870 -0.2595
  112MPD2    C3 1709   2.555   1.071  11.543 -0.1626 -0.6177 -0.3259
  112MPD2    C4 1710   2.461   1.090  11.643  0.0054  1.0821 -0.3181
  112MPD2    C5 1711   2.329   1.124  11.623  0.5445  0.2781 -0.5232
  112MPD2     H 1712   2.566   1.078  11.326  0.5431  1.4829  0.4959
  112MPD2    H1 1713   2.495   1.088  11.746 -1.0224  2.0863  0.0450
  112MPD2    H2 1714   2.171   1.141  11.482  0.1705 -0.0862  0.9000
  112MPD2    H3 1715   2.247   1.132  11.693 -0.6144  1.1159 -1.9557
  112MPD2     N 1716   2.691   1.043  11.566  0.0220  0.4017 -0.0165
  112MPD2    H5 1717   2.719   1.035  11.663 -1.4944  3.1232  0.6460
  112MPD2    N1 1718   2.333   1.119  11.255 -0.1985  0.1353  0.4794
  112MPD2    H7 1719   2.405   1.095  11.187  0.8591  0.9352  1.3022
  113MPD2     C 1720   1.011   2.689   0.797  0.6487  0.2974 -0.0706
  113MPD2    C1 1721   0.958   2.804   0.841  0.7835  0.6214 -0.6193
  113MPD2    C2 1722   0.826   2.833   0.819  0.0625 -0.6964 -0.0439
  113MPD2    C3 1723   0.745   2.749   0.739 -0.0213  0.5541 -0.5183
  113MPD2    C4 1724   0.803   2.638   0.689  0.2671 -0.9053  0.0286
  113MPD2    C5 1725   0.937   2.611   0.714  0.3857  1.0196 -0.0983
  113MPD2     H 1726   0.777   2.918   0.864 -0.3385 -1.2294  0.5145
  113MPD2    H1 1727   0.750   2.558   0.638 -0.0021  0.2451 -1.4997
  113MPD2    H2 1728   1.114   2.658   0.814 -0.0403 -1.6263  0.5907
  113MPD2    H3 1729   0.977   2.519   0.674 -1.5462  0.4762 -0.7848
  113MPD2     N 1730   0.611   2.779   0.710 -0.6326 -0.0059  0.0888
  113MPD2    H5 1731   0.552   2.712   0.662  1.7258 -1.3568 -0.9621
  113MPD2    N1 1732   1.036   2.891   0.923  0.2404  1.3000  0.2701
  113MPD2    H7 1733   0.982   2.968   0.961  0.1299  1.0432  0.6370
  114TCq2    C1 1734   0.549   2.895   0.751  0.8143  0.0450  0.6340
  114TCq2    O2 1735   0.599   3.003   0.750 -0.0968 -0.6007 -0.6328
  114TCq2    C2 1736   0.411   2.884   0.731  0.2966 -0.1849  0.5526
  114TCq2    C3 1737   0.355   3.000   0.698 -0.1998  0.2590 -0.3929
  114TCq2    C4 1738   0.236   3.028   0.754 -0.6362  0.9338 -1.1034
  114TCq2    C5 1739   0.169   2.945   0.836  0.0931  0.7765  0.2356
  114TCq2    C6 1740   0.235   2.829   0.877  0.6434  0.1921 -0.4366
  114TCq2    C7 1741   0.354   2.802   0.822 -0.6850  0.5579 -0.7113
  114TCq2    C8 1742   0.183   2.759   0.993  0.5251 -0.4145  0.9615
  114TCq2    O4 1743   0.064   2.750   1.006 -0.6500 -0.3929  0.3928
  114TCq2    C9 1744   0.177   3.160   0.726  0.1789 -0.0297  0.4025
  114TCq2    O5 1745   0.054   3.178   0.751  0.3267  0.0376 -0.4199
  114TCq2    O6 1746   0.240   3.234   0.645 -0.1750 -0.4872 -0.5492
  114TCq2    H2 1747   0.414   3.076   0.649 -0.2716  1.0594  0.7708
  114TCq2    H3 1748   0.067   2.969   0.865 -0.2654 -0.9496  0.4207
  114TCq2    H4 1749   0.416   2.719   0.855 -0.7104  0.3804 -1.1059
  115TMC2    C1 1750   1.561   1.153  17.682 -0.0824 -0.0399  0.9380
  115TMC2    C2 1751   1.521   1.102   0.095  0.2104  0.3773 -0.1269
  115TMC2    C3 1752   1.478   1.195   0.181  0.1294 -0.4041 -0.2162
  115TMC2    C4 1753   1.563   1.283  17.652  0.2370  0.4166  0.3958
  115TMC2    C5 1754   1.513   1.371   0.038 -0.2521 -0.6929  0.0844
  115TMC2    C6 1755   1.462   1.323   0.156 -0.6584  0.0130  0.3157
  115TMC2     C 1756   1.566   1.064  17.568  0.6422  0.2363  0.6752
  115TMC2     O 1757   1.607   1.113  17.463 -0.0173  0.0012  0.5080
  115TMC2     H 1758   1.549   1.005   0.134 -0.1444  0.5654  0.5916
  115TMC2    H1 1759   1.585   1.315  17.551 -1.4367 -3.2527 -1.1090
  115TMC2    H2 1760   1.412   1.389   0.226 -0.9910 -0.4127  0.4767
  115TMC2    C7 1761   1.439   1.476  17.692  0.2402 -0.0493  0.0955
  115TMC2    C8 1762   1.449   1.162   0.318  0.3351 -0.6226  0.0553
  115TMC2    O1 1763   1.326   1.498   0.023  0.0404 -0.0812 -0.1741
  115TMC2    O2 1764   1.461   1.250   0.401 -0.0170  0.0658 -0.7816
  115TMC2    O5 1765   1.408   1.033   0.323 -0.1821  0.2471  0.0642
  115TMC2    H5 1766   1.371   1.003   0.237 -0.6706  0.4251  0.2132
  116MPD2     C 1767   1.394   0.621  17.348 -0.1228  0.2875  0.6412
  116MPD2    C1 1768   1.484   0.712  17.307 -0.0659 -0.1303 -0.1525
  116MPD2    C2 1769   1.511   0.827  17.379  0.9712  0.2433 -0.6840
  116MPD2    C3 1770   1.461   0.844  17.504  0.1549 -0.0050 -0.0363
  116MPD2    C4 1771   1.376   0.746  17.549 -0.1486 -0.2144 -0.2833
  116MPD2    C5 1772   1.330   0.644  17.469  0.6799 -0.0592 -0.1027
  116MPD2     H 1773   1.582   0.900  17.342  0.1470  0.1678 -2.4395
  116MPD2    H1 1774   1.334   0.756  17.649  0.2247  0.5964 -0.2088
  116MPD2    H2 1775   1.360   0.531  17.298  3.3077 -1.3949  1.3525
  116MPD2    H3 1776   1.259   0.570  17.506  1.7981 -0.4761  1.2204
  116MPD2     N 1777   1.484   0.953  17.592  0.5962 -0.8018  0.0904
  116MPD2    H5 1778   1.440   0.943  17.682 -1.1104  2.3889 -0.3892
  116MPD2    N1 1779   1.559   0.692  17.189 -0.5853 -0.2370 -0.6905
  116MPD2    H7 1780   1.602   0.774  17.149 -4.6864  1.4580 -1.6456
  117TMC2    C1 1781   4.682   2.762  13.982 -0.2460 -0.1306 -0.1866
  117TMC2    C2 1782   0.023   2.660  13.921  0.6069 -0.5903 -1.0694
  117TMC2    C3 1783   0.159   2.640  13.945  0.2910  0.5878  0.2458
  117TMC2    C4 1784   0.006   2.841  14.076 -0.5045  0.2630 -0.2368
  117TMC2    C5 1785   0.131   2.809  14.109  0.4354  0.7291 -0.1711
  117TMC2    C6 1786   0.214   2.720  14.038 -0.4034 -0.0239  0.7830
  117TMC2     C 1787   4.561   2.791  13.920  0.0564  0.6086  0.4675
  117TMC2     O 1788   4.492   2.701  13.871  0.3587 -0.1288 -0.1094
  117TMC2     H 1789   4.701   2.609  13.839  1.3306 -0.4385 -1.5935
  117TMC2    H1 1790   4.671   2.913  14.128 -0.6825 -0.1407  0.1185
  117TMC2    H2 1791   0.314   2.702  14.076 -0.9922 -1.5825  1.5719
  117TMC2    C7 1792   0.196   2.877  14.213  0.0941  0.2977 -0.7634
  117TMC2    C8 1793   0.223   2.514  13.919 -0.5478 -0.0211 -0.3159
  117TMC2    O1 1794   0.135   2.903  14.318 -0.3734 -1.2583 -0.0023
  117TMC2    O2 1795   0.319   2.485  13.988  0.0535 -0.6440  0.1381
  117TMC2    O5 1796   0.165   2.447  13.817 -0.4253  0.0679  0.4228
  117TMC2    H5 1797   0.088   2.493  13.777 -0.3839 -0.3358 -0.1132
  118MPD2     C 1798   0.404   3.022  14.375 -0.2263  0.5008  0.4501
  118MPD2    C1 1799   0.399   3.031  14.234  0.8665 -0.0775  0.1896
  118MPD2    C2 1800   0.483   3.117  14.167  0.0632 -0.6395  0.5889
  118MPD2    C3 1801   0.570   3.203  14.235  0.0176  0.0686  0.1226
  118MPD2    C4 1802   0.574   3.192  14.368  0.7270  0.4236  1.2287
  118MPD2    C5 1803   0.491   3.104  14.438 -0.1673 -0.2597 -0.7227
  118MPD2     H 1804   0.470   3.105  14.060  3.4356  1.0664 -0.0395
  118MPD2    H1 1805   0.641   3.250  14.430 -1.2852  1.8748  2.0414
  118MPD2    H2 1806   0.342   2.949  14.426  0.3233  0.6334  1.2967
  118MPD2    H3 1807   0.494   3.102  14.547  1.3131 -0.9383 -0.7683
  118MPD2     N 1808   0.668   3.286  14.173 -0.1218  0.0136 -0.5942
  118MPD2    H5 1809   0.735   3.336  14.232  1.4977 -1.2347 -1.3813
  118MPD2    N1 1810   0.308   2.950  14.160  0.0968 -0.0649  0.6316
  118MPD2    H7 1811   0.333   2.945  14.062  0.2022  0.5839  0.6246
  119MPD2     C 1812   3.519   4.338  13.645  0.3015 -0.1905  0.0665
  119MPD2    C1 1813   3.403   4.269  13.671  1.0686  0.3303 -0.0329
  119MPD2    C2 1814   3.307   4.268  13.573 -0.1251  0.1313 -0.2316
  119MPD2    C3 1815   3.346   4.299  13.445  0.2439 -0.1683  0.1032
  119MPD2    C4 1816   3.473   4.348  13.419 -0.3209  0.1649 -0.6884
  119MPD2    C5 1817   3.558   4.379  13.520 -0.6487  1.1764  0.1257
  119MPD2     H 1818   3.208   4.226  13.590  0.1221  0.0571  1.0263
  119MPD2    H1 1819   3.503   4.360  13.315 -0.4565 -0.0784 -0.7569
  119MPD2    H2 1820   3.586   4.363  13.726  0.5760 -1.3623  0.1897
  119MPD2    H3 1821   3.653   4.431  13.510 -0.5197  0.8316 -0.4902
  119MPD2     N 1822   3.263   4.270  13.331 -0.0609  0.2897  0.2615
  119MPD2    H5 1823   3.298   4.281  13.236 -1.1144  1.0864 -0.0263
  119MPD2    N1 1824   3.380   4.231  13.801 -0.3519  0.5931  0.7203
  119MPD2    H7 1825   3.434   4.279  13.872 -0.6770 -1.8547  2.6265
  120TCq2    C1 1826   3.150   4.192  13.337  0.7884  0.4149 -0.9005
  120TCq2    O2 1827   3.081   4.140  13.429 -0.1807  0.2970  0.2076
  120TCq2    C2 1828   3.116   4.150  13.199 -0.2248 -0.1375  0.6090
  120TCq2    C3 1829   3.185   4.191  13.080  0.8302  0.7557  1.0776
  120TCq2    C4 1830   3.157   4.130  12.961 -0.4798  0.1959  0.7014
  120TCq2    C5 1831   3.064   4.026  12.963 -0.7618  0.0870  0.2416
  120TCq2    C6 1832   3.007   3.979  13.075  0.5445  0.1389 -0.0029
  120TCq2    C7 1833   3.031   4.043  13.190 -0.1707  0.4206  0.1528
  120TCq2    C8 1834   2.906   3.873  13.067  0.1990  0.5877  0.1027
  120TCq2    O4 1835   2.846   3.858  12.961 -0.4389 -0.4638  0.5662
  120TCq2    C9 1836   3.219   4.180  12.842 -0.0024 -0.2208 -0.6176
  120TCq2    O5 1837   3.324   4.251  12.854 -0.0350  0.3632  0.1084
  120TCq2    O6 1838   3.141   4.170  12.738 -0.2310 -0.4541 -0.2879
  120TCq2    H2 1839   3.254   4.275  13.078  0.1231  1.3158  0.3326
  120TCq2    H3 1840   3.043   3.970  12.872 -0.6116 -0.9995  0.8758
  120TCq2    H4 1841   2.982   4.019  13.283 -1.1898 -0.8452 -0.7100
  121TMC2    C1 1842   0.024   0.738  14.164 -0.3060  0.6875  0.2847
  121TMC2    C2 1843   4.687   0.622  14.194 -0.3260 -0.2732 -0.2052
  121TMC2    C3 1844   4.555   0.613  14.235  0.2461  0.0190  0.2348
  121TMC2    C4 1845   4.664   0.840  14.159  0.4146  0.1578  0.3269
  121TMC2    C5 1846   4.534   0.831  14.194  0.2032  0.0581 -0.1580
  121TMC2    C6 1847   4.480   0.717  14.247  0.6482  0.4168 -0.8371
  121TMC2     C 1848   0.146   0.739  14.080  0.1563 -0.0017 -0.3034
  121TMC2     O 1849   0.229   0.652  14.103 -0.6899 -0.2322 -0.0913
  121TMC2     H 1850   0.016   0.531  14.174 -1.4728 -1.9721  4.4120
  121TMC2    H1 1851   4.700   0.934  14.118 -1.0099  0.3332 -0.5357
  121TMC2    H2 1852   4.390   0.709  14.307  0.2548 -0.6045 -1.5772
  121TMC2    C7 1853   4.452   0.946  14.156 -0.3889  0.2465 -0.6853
  121TMC2    C8 1854   4.494   0.491  14.276 -0.4705 -0.1953  0.3614
  121TMC2    O1 1855   4.510   1.052  14.163 -0.0934 -0.2048 -0.0022
  121TMC2    O2 1856   4.373   0.467  14.278 -0.1755  0.4050  0.1541
  121TMC2    O5 1857   4.587   0.399  14.291 -0.2855  0.1305 -0.3318
  121TMC2    H5 1858   4.666   0.443  14.331 -0.6199 -2.2885  3.0300
  122MPD2     C 1859   0.393   0.847  13.967  0.0599  0.1463  0.0467
  122MPD2    C1 1860   0.267   0.878  13.921  0.1022  0.1536  0.4625
  122MPD2    C2 1861   0.254   0.946  13.797  0.5751  0.5528  0.2659
  122MPD2    C3 1862   0.366   0.973  13.719  0.0123 -0.0441 -0.4099
  122MPD2    C4 1863   0.493   0.946  13.776 -0.6679 -0.0112 -0.8278
  122MPD2    C5 1864   0.508   0.886  13.897 -0.3250 -0.1229  0.0035
  122MPD2     H 1865   0.158   0.970  13.753  1.1413 -0.2853 -1.4594
  122MPD2    H1 1866   0.582   0.963  13.716  0.5004  1.2116  1.2432
  122MPD2    H2 1867   0.409   0.813  14.068  1.1866  0.8707  0.1217
  122MPD2    H3 1868   0.607   0.858  13.933 -0.0344  0.6726 -0.1816
  122MPD2     N 1869   0.372   1.035  13.589 -0.7098 -0.1141 -0.5414
  122MPD2    H5 1870   0.461   1.025  13.543 -2.0117 -0.4630 -2.9809
  122MPD2    N1 1871   0.151   0.838  13.987  0.0280  0.2442 -0.0110
  122MPD2    H7 1872   0.070   0.895  13.965  0.7358  0.4789 -1.9397
  123MPD2     C 1873   3.277   3.991  10.329 -0.0562 -0.0370 -0.1456
  123MPD2    C1 1874   3.317   3.925  10.214  0.5873  0.2087  0.0079
  123MPD2    C2 1875   3.404   3.996  10.136 -0.2051 -0.6411 -0.3164
  123MPD2    C3 1876   3.448   4.128  10.156  0.7190 -0.2136 -0.3506
  123MPD2    C4 1877   3.402   4.189  10.266 -0.5025 -0.2891  0.2271
  123MPD2    C5 1878   3.330   4.114  10.354  0.3580  0.1136 -0.7321
  123MPD2     H 1879   3.441   3.945  10.048 -1.0015 -0.2948 -0.8596
  123MPD2    H1 1880   3.423   4.294  10.286  0.2996  0.0843 -2.6295
  123MPD2    H2 1881   3.215   3.937  10.399 -0.1666  1.6907  1.0879
  123MPD2    H3 1882   3.294   4.167  10.441  0.7875 -1.2472  0.2664
  123MPD2     N 1883   3.507   4.201  10.056  0.1828 -0.3465 -0.3426
  123MPD2    H5 1884   3.523   4.150   9.969 -1.2096 -1.1506 -0.1225
  123MPD2    N1 1885   3.251   3.801  10.180  0.9625  0.8446  0.0775
  123MPD2    H7 1886   3.173   3.771  10.238 -0.5578 -1.4244 -3.1084
  124TCq2    C1 1887   3.534   4.339  10.056  0.4300  0.2419 -0.2654
  124TCq2    O2 1888   3.589   4.409  10.142 -0.8443  0.3111  0.6394
  124TCq2    C2 1889   3.528   4.388   9.922  0.2735 -0.1604  0.1272
  124TCq2    C3 1890   3.632   4.461   9.877 -0.1848  0.2640 -0.1273
  124TCq2    C4 1891   3.654   4.473   9.743 -0.0303 -0.8021 -0.4465
  124TCq2    C5 1892   3.577   4.404   9.648 -0.5610 -0.1548 -0.7019
  124TCq2    C6 1893   3.471   4.332   9.701 -0.2026  0.4969  0.1876
  124TCq2    C7 1894   3.443   4.322   9.834 -0.1807  1.0502 -0.4996
  124TCq2    C8 1895   3.394   4.234   9.624  0.7405 -0.2122 -0.3414
  124TCq2    O4 1896   3.360   4.127   9.675  0.4908 -0.0401 -0.8377
  124TCq2    C9 1897   3.783   4.529   9.704 -0.1166  1.0597  0.1866
  124TCq2    O5 1898   3.848   4.596   9.788 -0.2175  0.2185  0.4714
  124TCq2    O6 1899   3.812   4.516   9.584 -0.6482  0.0886 -0.1862
  124TCq2    H2 1900   3.706   4.503   9.943  0.4927 -0.8694 -0.1725
  124TCq2    H3 1901   3.600   4.399   9.543  0.5902 -0.9218 -0.4071
  124TCq2    H4 1902   3.354   4.273   9.872  0.8518 -0.5426 -0.1448
  125TMC2    C1 1903   3.824   1.142   9.299  0.0164  0.4367  0.1167
  125TMC2    C2 1904   3.886   1.076   9.195 -0.6736  0.7816  0.0919
  125TMC2    C3 1905   3.989   1.141   9.136 -0.2042  0.6934 -0.1057
  125TMC2    C4 1906   3.856   1.265   9.340 -0.6419 -0.1247 -0.8861
  125TMC2    C5 1907   3.970   1.320   9.286  0.0602  0.3658  0.2645
  125TMC2    C6 1908   4.032   1.259   9.178  0.4774 -0.0547  0.6058
  125TMC2     C 1909   3.703   1.088   9.353 -0.2974 -0.8304  0.7961
  125TMC2     O 1910   3.688   0.971   9.318 -0.2875 -0.1723  0.1842
  125TMC2     H 1911   3.854   0.979   9.158 -0.9375  0.5282  0.9694
  125TMC2    H1 1912   3.824   1.294   9.440 -0.0729 -0.0735 -0.7202
  125TMC2    H2 1913   4.122   1.296   9.130 -1.3568  0.8469 -2.1516
  125TMC2    C7 1914   4.033   1.426   9.362  0.4459 -0.5654  0.2302
  125TMC2    C8 1915   4.019   1.103   9.000 -0.6154  0.3696  0.1818
  125TMC2    O1 1916   3.968   1.478   9.450 -0.2202  0.1908  0.2219
  125TMC2    O2 1917   4.125   1.132   8.942 -0.8396 -0.2076 -0.1846
  125TMC2    O5 1918   3.898   1.106   8.937  0.7269 -0.0855  0.3675
  125TMC2    H5 1919   3.816   1.096   8.989 -1.0811  3.2412 -1.8216
  126MPD1     C 1920   3.296   1.043   9.652  0.2801 -0.7696  0.5389
  126MPD1    C1 1921   3.347   1.173   9.675 -0.6733 -0.2210  0.3521
  126MPD1    C2 1922   3.450   1.221   9.589 -0.2459 -0.0613 -0.3433
  126MPD1    C3 1923   3.508   1.135   9.496 -0.1050  0.5593  0.5275
  126MPD1    C4 1924   3.446   1.017   9.472  0.2590 -0.6137  0.2162
  126MPD1    C5 1925   3.335   0.981   9.538 -0.6192  0.5625 -0.0366
  126MPD1     H 1926   3.492   1.319   9.607 -1.8296  0.4426  0.5853
  126MPD1    H1 1927   3.468   0.957   9.384  1.1468 -0.3383  0.2506
  126MPD1    H2 1928   3.217   0.994   9.709  0.6042 -1.3752  0.4650
  126MPD1    H3 1929   3.279   0.892   9.512 -0.1627  0.4732 -0.7132
  126MPD1     N 1930   3.618   1.171   9.427  0.4129 -0.3834  0.1279
  126MPD1    H5 1931   3.647   1.268   9.426 -1.5208  0.1820  0.9824
  126MPD1    N1 1932   3.281   1.266   9.758 -0.6970  0.3820  0.2316
  126MPD1    H6 1933   3.232   1.232   9.841 -2.0970 -2.2588 -1.6854
  126MPD1    H7 1934   3.335   1.347   9.786  0.0580 -0.2292  0.5738
  127MPD2     C 1935   0.457   0.376   8.970  0.2244  0.7619  0.4819
  127MPD2    C1 1936   0.500   0.328   9.091  0.1764  0.5882  0.4135
  127MPD2    C2 1937   0.570   0.410   9.176  0.1817 -0.1184 -0.1928
  127MPD2    C3 1938   0.599   0.541   9.146  0.4346 -0.4998  0.6032
  127MPD2    C4 1939   0.546   0.587   9.028 -0.4501  0.2265  0.3696
  127MPD2    C5 1940   0.479   0.505   8.943 -0.0597 -0.7206 -0.1264
  127MPD2     H 1941   0.613   0.379   9.271  2.0706  0.5007 -0.8341
  127MPD2    H1 1942   0.562   0.689   8.994 -1.7808  0.5423  0.6857
  127MPD2    H2 1943   0.392   0.326   8.899 -1.3893  1.7934  1.2269
  127MPD2    H3 1944   0.430   0.546   8.855 -1.3165 -1.3850  0.2601
  127MPD2     N 1945   0.677   0.613   9.237 -0.2907 -0.1269  0.2275
  127MPD2    H5 1946   0.714   0.568   9.320  0.7980  1.5565  0.6704
  127MPD2    N1 1947   0.457   0.202   9.132  0.1491 -0.4255  0.0853
  127MPD2    H7 1948   0.434   0.139   9.056  0.8895 -0.9629  0.3047
  128TCq2    C1 1949   0.465   0.156   9.259  0.0092 -0.2842  0.2638
  128TCq2    O2 1950   0.500   0.212   9.363 -0.0941  0.5888 -0.0341
  128TCq2    C2 1951   0.415   0.023   9.274 -0.0467 -0.2152  0.5723
  128TCq2    C3 1952   0.460   4.681   9.383  0.0935  0.1787 -0.5827
  128TCq2    C4 1953   0.392   4.570   9.424  0.3436 -0.0309 -0.6214
  128TCq2    C5 1954   0.283   4.532   9.359 -0.2416 -0.2383 -0.0782
  128TCq2    C6 1955   0.238   4.601   9.250 -0.5259  0.2236  0.9613
  128TCq2    C7 1956   0.302   4.714   9.208  0.7507 -0.3751  0.3397
  128TCq2    C8 1957   0.099   4.604   9.222 -0.1979  0.3996 -0.7024
  128TCq2    O4 1958   0.061   4.702   9.169 -0.2005  0.2899 -0.5455
  128TCq2    C9 1959   0.440   4.491   9.540  0.3054  0.1534  0.1914
  128TCq2    O5 1960   0.351   4.416   9.589 -1.0960 -0.9046  0.2050
  128TCq2    O6 1961   0.522   4.544   9.613  0.3419 -0.4844 -0.2837
  128TCq2    H2 1962   0.548   4.709   9.440  0.3205  0.8789 -1.2797
  128TCq2    H3 1963   0.218   4.459   9.407 -0.1472 -0.7242 -0.6843
  128TCq2    H4 1964   0.278   0.044   9.119  1.8443 -0.8094 -0.2339
  129MPD2     C 1965   2.938   0.832   0.719  0.3359  0.0976  0.1821
  129MPD2    C1 1966   3.070   0.807   0.761  0.2585 -0.0384 -0.2416
  129MPD2    C2 1967   3.172   0.861   0.684 -0.1331  0.4080  0.0898
  129MPD2    C3 1968   3.153   0.941   0.576  0.5458 -0.5028  0.2580
  129MPD2    C4 1969   3.025   0.961   0.531  0.0311  0.5322 -0.0312
  129MPD2    C5 1970   2.921   0.908   0.603  0.0664  0.4153 -0.5368
  129MPD2     H 1971   3.276   0.838   0.702 -0.6532 -1.4897  0.6138
  129MPD2    H1 1972   2.996   1.029   0.452 -0.6504 -1.6825 -1.6895
  129MPD2    H2 1973   2.854   0.800   0.779  0.2211 -0.8162 -0.4641
  129MPD2    H3 1974   2.816   0.930   0.584 -0.1023  0.9480  0.9699
  129MPD2     N 1975   3.269   0.999   0.512 -0.4640  0.0988 -0.1317
  129MPD2    H5 1976   3.356   0.992   0.563 -1.2541  0.4917  1.2619
  129MPD2    N1 1977   3.098   0.720   0.871 -0.1041 -0.2235 -0.5214
  129MPD2    H7 1978   3.197   0.698   0.883 -0.1595 -0.0881  0.1691
  130TCq2    C1 1979   3.002   0.663   0.961 -0.0964 -0.1216 -0.6742
  130TCq2    O2 1980   2.880   0.681   0.964  0.1934 -0.2165  0.0334
  130TCq2    C2 1981   3.059   0.552   1.038  0.3798  0.0849 -0.2170
  130TCq2    C3 1982   3.193   0.529   1.027  0.0113  0.4024  0.0139
  130TCq2    C4 1983   3.237   0.408   1.083  0.1655 -0.7497  0.3542
  130TCq2    C5 1984   3.148   0.324   1.149 -0.2069 -0.5998  0.9346
  130TCq2    C6 1985   3.013   0.350   1.161 -0.2655 -1.2766  0.0560
  130TCq2    C7 1986   2.976   0.468   1.107 -0.1725  0.1975  0.6672
  130TCq2    C8 1987   2.920   0.261   1.228  0.0045  0.0128  0.3355
  130TCq2    O4 1988   2.803   0.308   1.236 -0.3107  0.8934  0.5777
  130TCq2    C9 1989   3.365   0.358   1.049 -0.3858 -0.6365  0.3456
  130TCq2    O5 1990   3.449   0.438   1.001  0.0112 -0.1724 -0.3127
  130TCq2    O6 1991   3.387   0.243   1.088  0.6990  0.4033  0.6577
  130TCq2    H2 1992   3.269   0.594   0.984 -0.0904  1.7520  1.9059
  130TCq2    H3 1993   3.196   0.231   1.179  1.2596 -0.1111  0.1057
  130TCq2    H4 1994   2.870   0.491   1.106 -0.1030  0.6687  3.2261
  131MPD2     C 1995   2.876   4.162   9.479 -0.7027  0.0817 -0.6598
  131MPD2    C1 1996   2.954   4.188   9.588 -0.1362 -0.2608 -0.1520
  131MPD2    C2 1997   2.978   4.087   9.678 -0.1249  0.3506 -0.3764
  131MPD2    C3 1998   2.932   3.957   9.651  0.4628 -0.8012 -0.1345
  131MPD2    C4 1999   2.856   3.931   9.540 -0.3199 -0.1522 -0.8374
  131MPD2    C5 2000   2.830   4.038   9.454  0.4309 -0.9745  0.2979
  131MPD2     H 2001   3.050   4.105   9.757 -0.2998 -1.1950  0.1428
  131MPD2    H1 2002   2.836   3.833   9.499  0.5093  0.5950 -3.0143
  131MPD2    H2 2003   2.861   4.244   9.409 -1.8419 -0.0590 -0.5674
  131MPD2    H3 2004   2.795   4.015   9.354 -2.5055  2.4814  0.5477
  131MPD2     N 2005   2.967   3.858   9.749  0.0619 -0.1402 -0.3450
  131MPD2    H5 2006   3.036   3.888   9.818 -1.6588  1.9835  0.4305
  131MPD2    N1 2007   3.001   4.316   9.602 -0.0678  0.1921  0.0017
  131MPD2    H7 2008   2.988   4.372   9.519  0.8832  1.8661  0.9949
  132TCq2    C1 2009   3.128   0.085   9.857  0.1983 -0.0822 -0.7023
  132TCq2    O2 2010   3.063   0.046   9.958 -0.2325 -0.4439  0.4109
  132TCq2    C2 2011   3.150   4.725   9.747  0.4020  0.1767 -0.3991
  132TCq2    C3 2012   3.153   0.047   9.624 -0.3289 -0.4066 -0.3773
  132TCq2    C4 2013   3.147   4.688   9.519 -0.0830 -0.5447  0.0901
  132TCq2    C5 2014   3.125   4.550   9.531  0.8526  0.8178 -0.1277
  132TCq2    C6 2015   3.124   4.506   9.669 -0.1386  0.7303 -0.0643
  132TCq2    C7 2016   3.127   4.593   9.776 -0.1953 -0.0259  0.1795
  132TCq2    C8 2017   3.082   4.366   9.699  0.1282  0.4175 -0.0603
  132TCq2    O4 2018   3.092   4.329   9.817  0.3948  0.0307 -0.3499
  132TCq2    C9 2019   3.167   0.014   9.387 -0.2786  0.2636  0.0909
  132TCq2    O5 2020   3.208   4.668   9.292  0.1540 -0.0397  0.1351
  132TCq2    O6 2021   3.149   0.133   9.371 -1.5643 -0.2957 -0.6753
  132TCq2    H2 2022   3.177   0.149   9.596 -0.8130  0.1817  1.3637
  132TCq2    H3 2023   3.111   4.487   9.445 -2.2665  0.0032  0.9511
  132TCq2    H4 2024   3.121   4.552   9.876 -1.2477  0.3209  0.2644
  133MPD2     C 2025   2.659   0.979   8.825  0.6866  0.9262 -0.1138
  133MPD2    C1 2026   2.694   0.892   8.924  0.5690 -0.5023 -0.6142
  133MPD2    C2 2027   2.676   0.756   8.902 -0.5720 -0.2822  0.1474
  133MPD2    C3 2028   2.616   0.716   8.784 -0.9607 -0.2301 -0.1939
  133MPD2    C4 2029   2.584   0.802   8.680  0.1523 -0.2505  0.4471
  133MPD2    C5 2030   2.612   0.930   8.699 -0.0522  0.3189 -0.5146
  133MPD2     H 2031   2.700   0.680   8.976 -2.3510  1.2804  2.3501
  133MPD2    H1 2032   2.528   0.775   8.591  0.1922 -0.9998  0.6478
  133MPD2    H2 2033   2.678   1.085   8.835  2.6100  0.6346 -0.4869
  133MPD2    H3 2034   2.583   1.002   8.623  0.0689  2.3882  1.3888
  133MPD2     N 2035   2.601   0.580   8.752  0.1589  0.0315 -0.2842
  133MPD2    H5 2036   2.546   0.556   8.670 -0.6627  0.5757  0.1096
  133MPD2    N1 2037   2.739   0.942   9.050 -0.1402 -0.4507  0.1149
  133MPD2    H7 2038   2.746   1.042   9.062  0.2945 -0.4530 -0.1151
  134TCq2    C1 2039   2.764   0.868   9.160 -0.6304  0.2167  0.4790
  134TCq2    O2 2040   2.746   0.750   9.192 -0.2430 -0.3509 -0.1127
  134TCq2    C2 2041   2.787   0.962   9.275 -0.1723  0.0069  0.3013
  134TCq2    C3 2042   2.810   1.092   9.253  0.0966 -0.5887  0.5682
  134TCq2    C4 2043   2.793   1.175   9.358 -0.1359  0.4221  0.2624
  134TCq2    C5 2044   2.760   1.132   9.479 -0.4103 -0.4309  0.1403
  134TCq2    C6 2045   2.737   1.005   9.499 -0.1531 -0.5999  0.1615
  134TCq2    C7 2046   2.754   0.912   9.396 -0.7970  0.4024  0.5094
  134TCq2    C8 2047   2.682   0.965   9.622  0.5335  1.0082 -0.2900
  134TCq2    O4 2048   2.654   0.841   9.624  0.0956  0.1170 -0.5539
  134TCq2    C9 2049   2.809   1.316   9.337  0.1261  0.0333  0.3891
  134TCq2    O5 2050   2.886   1.346   9.239 -0.1611  0.1566 -0.2632
  134TCq2    O6 2051   2.768   1.400   9.423  0.2720  0.2241 -0.1578
  134TCq2    H2 2052   2.853   1.132   9.162  2.0468 -0.1311  1.6707
  134TCq2    H3 2053   2.743   1.204   9.558 -1.5746 -1.1739  0.5639
  134TCq2    H4 2054   2.744   0.805   9.414  0.6468 -0.1263 -1.7512
  135MPD2     C 2055   0.299   2.148   9.525 -0.6985  0.3821 -0.3665
  135MPD2    C1 2056   0.194   2.094   9.450 -0.6639 -0.3277 -0.3186
  135MPD2    C2 2057   0.205   2.061   9.310  0.3041  0.5294  0.0802
  135MPD2    C3 2058   0.325   2.072   9.249  0.7375  0.0755  0.5248
  135MPD2    C4 2059   0.440   2.125   9.320  0.3297  0.3678 -0.8256
  135MPD2    C5 2060   0.423   2.166   9.459 -0.0641  0.3344  0.2363
  135MPD2     H 2061   0.111   2.045   9.259 -0.5055  0.4391  1.5912
  135MPD2    H1 2062   0.534   2.137   9.268  0.2806  3.5059 -0.2495
  135MPD2    H2 2063   0.284   2.169   9.631 -1.7866  0.3662 -0.5127
  135MPD2    H3 2064   0.506   2.208   9.513  0.3369  1.2267 -1.0674
  135MPD2     N 2065   0.341   2.019   9.121 -0.2746 -0.5272 -0.3602
  135MPD2    H5 2066   0.436   2.013   9.086 -0.4112 -4.7827 -0.0081
  135MPD2    N1 2067   0.076   2.053   9.516  0.2572  0.0307  0.6541
  135MPD2    H7 2068   0.019   1.991   9.459 -1.8918  1.1042  1.6366
  136TCq2    C1 2069   0.026   2.072   9.645  0.2388 -0.1154  0.2138
  136TCq2    O2 2070   0.051   2.161   9.728  0.5857  0.4024  0.5898
  136TCq2    C2 2071   4.660   1.971   9.687  0.2641 -0.4526  0.1265
  136TCq2    C3 2072   4.567   2.000   9.784 -0.2313 -0.1415  0.2311
  136TCq2    C4 2073   4.480   1.905   9.820  0.1964 -0.2100 -0.1793
  136TCq2    C5 2074   4.500   1.774   9.783 -0.5464 -0.1201  0.8615
  136TCq2    C6 2075   4.604   1.751   9.696  0.0246 -0.4452 -0.3128
  136TCq2    C7 2076   4.678   1.847   9.638  0.3555 -0.4611 -0.5911
  136TCq2    C8 2077   4.630   1.612   9.659  0.3084 -0.0300  0.1030
  136TCq2    O4 2078   0.009   1.596   9.597 -0.1478 -0.5311 -0.5941
  136TCq2    C9 2079   4.368   1.935   9.902 -0.1080  0.2971  0.9304
  136TCq2    O5 2080   4.349   2.060   9.933 -0.6535  0.2173 -0.5590
  136TCq2    O6 2081   4.293   1.842   9.933  0.5800  0.1503 -0.5971
  136TCq2    H2 2082   4.569   2.102   9.822 -3.2404  0.7775 -2.1336
  136TCq2    H3 2083   4.443   1.691   9.824 -1.1848  0.9816  2.1792
  136TCq2    H4 2084   0.042   1.821   9.583  0.9134 -0.0844  0.1463
  137MPD2     C 2085   4.467   0.318   9.206 -0.1590 -1.2026 -0.2963
  137MPD2    C1 2086   4.489   0.416   9.303 -0.2872  0.7159  0.1520
  137MPD2    C2 2087   4.506   0.378   9.435  0.3331 -0.3189  0.6001
  137MPD2    C3 2088   4.486   0.241   9.471 -0.3273 -0.8244 -0.3883
  137MPD2    C4 2089   4.469   0.146   9.368  0.2494 -0.0498  0.6719
  137MPD2    C5 2090   4.466   0.188   9.239 -0.0270 -0.0709 -0.0345
  137MPD2     H 2091   4.527   0.447   9.516 -2.4115  0.7830  0.3437
  137MPD2    H1 2092   4.452   0.042   9.392 -0.9613  0.1725  0.7714
  137MPD2    H2 2093   4.451   0.346   9.102  0.0380  0.9404  0.2507
  137MPD2    H3 2094   4.435   0.116   9.165 -1.2525  1.0430 -0.6010
  137MPD2     N 2095   4.497   0.200   9.604  0.1251  0.0991  0.3350
  137MPD2    H5 2096   4.524   0.274   9.668  0.0622  0.8350 -0.4790
  137MPD2    N1 2097   4.488   0.549   9.259  0.1255 -0.1940  0.4149
  137MPD2    H7 2098   4.461   0.574   9.165 -0.5636 -1.2332  0.3351
  138TCq2    C1 2099   4.477   0.655   9.345 -0.6201 -0.7417  0.2792
  138TCq2    O2 2100   4.471   0.657   9.468  0.1505 -0.4798  0.2771
  138TCq2    C2 2101   4.475   0.778   9.277  0.1710  0.2576  0.0692
  138TCq2    C3 2102   4.548   0.797   9.164 -0.3693 -0.3323 -0.0848
  138TCq2    C4 2103   4.571   0.925   9.124  0.3653 -0.4325  0.3124
  138TCq2    C5 2104   4.525   1.030   9.186 -1.0171  0.7377 -0.5223
  138TCq2    C6 2105   4.443   1.008   9.296 -0.5728 -0.2577  0.4272
  138TCq2    C7 2106   4.423   0.887   9.347 -0.2686 -0.3314 -0.0049
  138TCq2    C8 2107   4.354   1.116   9.347  0.5296 -0.2442  0.7329
  138TCq2    O4 2108   4.392   1.232   9.326  0.3778 -0.2340  0.1729
  138TCq2    C9 2109   4.620   0.946   8.986 -0.7534  0.1327 -0.0496
  138TCq2    O5 2110   4.668   0.847   8.929 -0.2940 -0.0885  0.0252
  138TCq2    O6 2111   4.593   1.055   8.933  0.3167  0.3609  0.3739
  138TCq2    H2 2112   4.566   0.713   9.099  2.7983  1.4202 -1.4963
  138TCq2    H3 2113   4.538   1.128   9.142  1.5310  0.1332 -1.1256
  138TCq2    H4 2114   4.374   0.861   9.439 -2.3838  1.0846 -0.7417
  139TMC2    C1 2115   4.716   4.022  13.448  0.2449 -0.4327 -0.0170
  139TMC2    C2 2116   0.103   4.093  13.480  0.3877 -0.2988  0.2872
  139TMC2    C3 2117   0.091   4.230  13.481 -0.3148 -0.1947  0.2597
  139TMC2    C4 2118   4.593   4.076  13.438 -0.4601 -0.1007  0.0915
  139TMC2    C5 2119   4.584   4.210  13.469  0.7805 -0.3960 -0.3395
  139TMC2    C6 2120   4.695   4.288  13.489 -0.6866  0.4263 -0.5858
  139TMC2     C 2121   0.002   3.885  13.489  0.9631 -0.2188 -0.5121
  139TMC2     O 2122   0.091   3.852  13.566 -0.0592  0.2286 -0.1146
  139TMC2     H 2123   0.202   4.051  13.479  1.2933  1.8221 -1.0717
  139TMC2    H1 2124   4.498   4.028  13.415 -0.4974 -0.5129  1.0963
  139TMC2    H2 2125   4.687   4.391  13.524 -0.6314  0.2684 -0.1115
  139TMC2    C7 2126   4.458   4.290  13.464  0.3257  1.0640 -0.4859
  139TMC2    C8 2127   0.210   4.317  13.489 -0.4559 -0.1502  0.4109
  139TMC2    O1 2128   4.475   4.413  13.462  0.3778 -0.4929 -0.3498
  139TMC2    O2 2129   0.313   4.290  13.551  0.4989  0.0482 -0.5832
  139TMC2    O5 2130   0.207   4.387  13.374 -0.3714  0.0841  0.1835
  139TMC2    H5 2131   0.119   4.411  13.339 -0.7412 -3.4088 -1.2981
  140MPD2     C 2132   4.549   3.606  13.340  0.2967 -0.5568 -0.4722
  140MPD2    C1 2133   4.637   3.668  13.427  0.3046 -0.9161  0.2843
  140MPD2    C2 2134   4.702   3.595  13.525 -0.2593  0.4847  1.0016
  140MPD2    C3 2135   4.681   3.460  13.531  0.0569 -0.0002  0.1990
  140MPD2    C4 2136   4.595   3.399  13.443 -0.4574  0.4457  0.0230
  140MPD2    C5 2137   4.528   3.473  13.352  0.0502 -0.7564 -0.0877
  140MPD2     H 2138   0.053   3.641  13.586 -0.5445 -0.7460  2.2850
  140MPD2    H1 2139   4.581   3.292  13.455  2.5508 -0.0657 -1.0102
  140MPD2    H2 2140   4.489   3.663  13.269 -1.2649  0.6632  1.8488
  140MPD2    H3 2141   4.471   3.425  13.272  0.2825 -0.4751 -0.4219
  140MPD2     N 2142   0.018   3.395  13.645  0.0234  0.3118 -0.0459
  140MPD2    H5 2143   0.060   3.461  13.709  1.7708 -1.1834  0.3501
  140MPD2    N1 2144   4.654   3.807  13.408 -0.0449 -0.0490  0.0438
  140MPD2    H7 2145   4.609   3.837  13.321  0.6954  0.1088 -0.2820
  141TCq2    C1 2146   0.356   4.709  14.060  1.1899  0.5047 -0.2488
  141TCq2    O2 2147   0.454   0.006  13.991  0.0650  0.1528  0.0086
  141TCq2    C2 2148   0.387   4.670  14.196 -0.1134  0.0032 -0.0154
  141TCq2    C3 2149   0.305   4.574  14.257 -0.0313  0.0025  0.3327
  141TCq2    C4 2150   0.331   4.548  14.386 -0.1087  0.0313 -0.5979
  141TCq2    C5 2151   0.430   4.606  14.449 -0.1381  0.5696 -0.2890
  141TCq2    C6 2152   0.514   4.694  14.381  0.1933  0.0331  0.5526
  141TCq2    C7 2153   0.492   0.005  14.251  0.0448  0.1590  0.3755
  141TCq2    C8 2154   0.606   0.052  14.451 -0.1189  0.0235  0.4117
  141TCq2    O4 2155   0.630   0.013  14.562  0.1492 -0.2890  0.7278
  141TCq2    C9 2156   0.236   4.459  14.448  0.0802 -0.3090 -0.0573
  141TCq2    O5 2157   0.259   4.422  14.566 -0.0210 -0.0471  0.1279
  141TCq2    O6 2158   0.136   4.425  14.378  0.9122 -0.1373  0.1290
  141TCq2    H2 2159   0.231   4.523  14.198 -1.5626  2.3150  0.2606
  141TCq2    H3 2160   0.452   4.567  14.548 -1.2685  1.7552  0.4274
  141TCq2    H4 2161   0.568   0.052  14.190  0.8159  1.9404  2.6979
  142MPD2     C 2162   3.288   3.243  10.079 -1.0079 -0.6460  0.5922
  142MPD2    C1 2163   3.183   3.185  10.016 -0.0735 -1.1193  0.4289
  142MPD2    C2 2164   3.137   3.240   9.892  0.3320  0.4275  0.9282
  142MPD2    C3 2165   3.215   3.329   9.820 -0.4198 -0.2068  0.4327
  142MPD2    C4 2166   3.325   3.371   9.878  0.4932 -0.3062  0.2214
  142MPD2    C5 2167   3.367   3.333  10.006 -0.4058 -0.2007 -0.4911
  142MPD2     H 2168   3.044   3.207   9.846  0.4784  0.0906  0.8730
  142MPD2    H1 2169   3.390   3.432   9.815 -1.1352  0.2053 -0.9587
  142MPD2    H2 2170   3.312   3.209  10.179 -1.9760 -1.5021  0.5245
  142MPD2    H3 2171   3.457   3.377  10.050 -0.4861  1.0978 -1.6074
  142MPD2     N 2172   3.193   3.390   9.694  0.2444 -0.1133 -0.0795
  142MPD2    H5 2173   3.263   3.448   9.648  2.2593 -3.6238 -1.4248
  142MPD2    N1 2174   3.117   3.088  10.093  0.4290 -0.2152  0.1055
  142MPD2    H7 2175   3.157   3.055  10.180 -1.1989 -2.6569 -0.0681
  143TCq2    C1 2176   3.069   3.384   9.629  0.1706 -0.7773  0.1080
  143TCq2    O2 2177   2.969   3.330   9.673  0.0121 -0.3398  0.0567
  143TCq2    C2 2178   3.067   3.461   9.509 -0.5440 -0.3467  0.1108
  143TCq2    C3 2179   3.029   3.401   9.394 -0.0485  0.4615  0.3106
  143TCq2    C4 2180   3.056   3.473   9.272 -0.7344 -0.3672  0.5697
  143TCq2    C5 2181   3.103   3.602   9.277 -0.3652 -0.4182 -0.5295
  143TCq2    C6 2182   3.120   3.661   9.399 -0.2346 -0.8917 -0.1548
  143TCq2    C7 2183   3.109   3.586   9.515  0.5200 -1.1540  0.3157
  143TCq2    C8 2184   3.186   3.790   9.404 -0.3332  0.1776 -0.0927
  143TCq2    O4 2185   3.249   3.809   9.508  0.0058 -0.0012 -0.4046
  143TCq2    C9 2186   3.039   3.397   9.151 -0.1490  0.1760  0.5213
  143TCq2    O5 2187   3.052   3.271   9.167 -0.2069 -0.4421  0.0369
  143TCq2    O6 2188   3.026   3.462   9.040 -0.4052  0.1966  0.0672
  143TCq2    H2 2189   3.005   3.295   9.394 -0.1980  0.4952  1.1464
  143TCq2    H3 2190   3.134   3.655   9.187  1.2818  1.7507  1.3148
  143TCq2    H4 2191   3.122   3.635   9.612 -0.3354 -0.7978  0.2509
  144MPD2     C 2192   0.476   2.465   0.023 -0.4408 -0.5172 -0.5971
  144MPD2    C1 2193   0.548   2.369  17.673  0.2865  0.1738 -0.0596
  144MPD2    C2 2194   0.588   2.256   0.044 -0.3238  0.4727  0.3146
  144MPD2    C3 2195   0.548   2.234   0.171  0.9589  0.2305  0.2109
  144MPD2    C4 2196   0.469   2.337   0.229  0.9258  0.1485  0.5358
  144MPD2    C5 2197   0.430   2.450   0.156 -0.0482 -0.2560  0.0451
  144MPD2     H 2198   0.645   2.183  17.693  1.7391 -0.7074  3.9522
  144MPD2    H1 2199   0.432   2.325   0.330  2.9575 -1.7562  1.0478
  144MPD2    H2 2200   0.449   2.554  17.673  2.4283  1.4371  1.1422
  144MPD2    H3 2201   0.379   2.536   0.199 -0.4645 -0.5497  0.1389
  144MPD2     N 2202   0.581   2.121   0.250 -0.8152 -0.3455 -0.1721
  144MPD2    H5 2203   0.560   2.127   0.350 -2.3793  0.2770 -0.5341
  144MPD2    N1 2204   0.610   2.374  17.540  0.2277 -0.5035  0.4606
  144MPD2    H7 2205   0.668   2.294  17.518  0.5400 -0.2045  0.1993
  145TCq2    C1 2206   0.626   2.000   0.202  0.2675  0.1841 -0.0457
  145TCq2    O2 2207   0.612   1.958   0.088 -0.1490 -0.6579 -0.4957
  145TCq2    C2 2208   0.627   1.901   0.311  0.0807 -0.3109 -0.5072
  145TCq2    C3 2209   0.572   1.780   0.274  0.0948 -0.3536  0.4418
  145TCq2    C4 2210   0.552   1.691   0.380 -0.1256 -0.4545 -0.5547
  145TCq2    C5 2211   0.578   1.730   0.508 -0.5590  0.3667 -0.1094
  145TCq2    C6 2212   0.634   1.846   0.542  0.6911  0.3610  0.1022
  145TCq2    C7 2213   0.659   1.931   0.440  0.0531  0.1566 -0.6952
  145TCq2    C8 2214   0.678   1.859   0.674  0.2857 -0.3513  0.1653
  145TCq2    O4 2215   0.648   1.776   0.755  0.1642 -0.5405  0.0284
  145TCq2    C9 2216   0.518   1.553   0.336  0.0581  0.3642  0.2992
  145TCq2    O5 2217   0.472   1.534   0.221 -0.0183 -0.3983  0.0622
  145TCq2    O6 2218   0.524   1.473   0.431  0.2493  0.4718  0.1549
  145TCq2    H2 2219   0.550   1.749   0.172 -2.5048  1.5150  0.4367
  145TCq2    H3 2220   0.565   1.650   0.581  1.8726 -0.5199 -0.6520
  145TCq2    H4 2221   0.713   2.025   0.439 -0.1027  0.2410 -1.3311
  146TMC2    C1 2222   2.902   1.394  12.264  1.1603 -0.4308 -0.0406
  146TMC2    C2 2223   2.901   1.394  12.122 -0.0918  0.2713 -0.4098
  146TMC2    C3 2224   3.023   1.378  12.061  0.5514 -0.8173  0.9626
  146TMC2    C4 2225   3.020   1.387  12.337  0.7306  0.2948  0.8188
  146TMC2    C5 2226   3.139   1.352  12.272  0.3516 -0.5365  0.1708
  146TMC2    C6 2227   3.141   1.346  12.137 -0.3282 -0.1187 -1.0586
  146TMC2     C 2228   2.796   1.443  12.332  0.2647  0.1365 -0.9437
  146TMC2     O 2229   2.713   1.502  12.258  0.0905 -0.2309  0.2736
  146TMC2     H 2230   2.819   1.381  12.053 -0.1138 -1.6562 -0.0211
  146TMC2    H1 2231   3.026   1.425  12.439 -1.3756 -1.0752  1.4488
  146TMC2    H2 2232   3.234   1.327  12.084  1.0435  0.5171  1.1079
  146TMC2    C7 2233   3.254   1.329  12.355  0.1785 -0.3952 -0.7064
  146TMC2    C8 2234   3.022   1.319  11.925  0.2621  0.0393  0.0479
  146TMC2    O1 2235   3.363   1.335  12.301 -0.2551 -0.3105  0.2572
  146TMC2    O2 2236   3.127   1.271  11.894  0.8425 -0.2136 -0.1676
  146TMC2    O5 2237   2.934   1.385  11.844  0.2157 -0.5139  0.7448
  146TMC2    H5 2238   2.892   1.460  11.890  1.4624 -0.9737  2.6087
  147MPD2     C 2239   3.483   1.072  12.736  0.0650  0.0869  0.5212
  147MPD2    C1 2240   3.345   1.078  12.760  0.6641  0.0387 -0.5526
  147MPD2    C2 2241   3.259   1.143  12.678 -0.3302 -0.5284 -0.0630
  147MPD2    C3 2242   3.312   1.206  12.564  0.2765  0.0449  0.5482
  147MPD2    C4 2243   3.445   1.201  12.542  0.5769 -0.3502  0.1179
  147MPD2    C5 2244   3.527   1.133  12.623  0.1471  0.2424 -0.2946
  147MPD2     H 2245   3.151   1.136  12.683 -0.3526  1.6905  2.6834
  147MPD2    H1 2246   3.477   1.233  12.443 -3.8765  1.3813 -0.7796
  147MPD2    H2 2247   3.553   1.018  12.799  0.3848  1.2512  1.1657
  147MPD2    H3 2248   3.627   1.113  12.587  0.3595  0.3164  0.2607
  147MPD2     N 2249   3.222   1.272  12.475  0.2971  0.1641  0.2420
  147MPD2    H5 2250   3.123   1.264  12.497  0.4021 -2.3504 -0.1969
  147MPD2    N1 2251   3.304   0.981  12.850  0.1255 -0.3268  0.5266
  147MPD2    H7 2252   3.374   0.925  12.897  0.6908  0.9494  1.1740
  148MPD2     C 2253   2.657   4.257  11.016  0.2417  0.0809  0.5608
  148MPD2    C1 2254   2.654   4.304  10.886  0.1812  0.7999 -0.5752
  148MPD2    C2 2255   2.608   4.219  10.786  0.6624 -0.1385 -0.2982
  148MPD2    C3 2256   2.556   4.095  10.812  0.0080  0.2439  0.3530
  148MPD2    C4 2257   2.560   4.051  10.942 -0.6376 -0.4428 -1.1005
  148MPD2    C5 2258   2.621   4.129  11.041  0.0893  0.0814 -0.0467
  148MPD2     H 2259   2.623   4.242  10.681 -0.9368 -0.0692 -0.5131
  148MPD2    H1 2260   2.512   3.957  10.967  3.3528 -1.4729  2.5868
  148MPD2    H2 2261   2.695   4.321  11.094  2.0283 -0.9179  0.4907
  148MPD2    H3 2262   2.621   4.091  11.142  0.9582 -0.1314 -0.1296
  148MPD2     N 2263   2.505   4.006  10.707  0.1934 -0.5779 -0.3391
  148MPD2    H5 2264   2.467   3.916  10.737  2.6306 -0.8390  1.9837
  148MPD2    N1 2265   2.713   4.419  10.849 -0.6547 -0.1867  0.1966
  148MPD2    H7 2266   2.723   4.427  10.749  1.9838  0.4145  0.4908
  149TCq2    C1 2267   2.759   4.516  10.933 -1.0131 -0.2394  0.2454
  149TCq2    O2 2268   2.722   4.545  11.048 -0.1068  0.2145  0.0233
  149TCq2    C2 2269   2.862   4.582  10.871 -0.1167 -0.0295  0.0150
  149TCq2    C3 2270   2.877   4.719  10.886 -0.3363  0.7319  0.3111
  149TCq2    C4 2271   2.965   0.053  10.810 -0.3212 -0.3230  0.1136
  149TCq2    C5 2272   3.035   4.705  10.715  1.5532 -0.2667  0.0110
  149TCq2    C6 2273   3.024   4.575  10.703  0.0041  0.8470  0.4020
  149TCq2    C7 2274   2.939   4.510  10.788  0.2515  0.0460  0.5305
  149TCq2    C8 2275   3.060   4.506  10.584 -0.7132  0.3256  0.4854
  149TCq2    O4 2276   3.045   4.382  10.589  0.3253 -0.1970  0.0042
  149TCq2    C9 2277   2.940   0.189  10.772 -0.2917  0.5883  0.4781
  149TCq2    O5 2278   2.985   0.229  10.666  0.7261 -0.1060  0.2642
  149TCq2    O6 2279   2.894   0.263  10.861  0.3282 -0.4518  0.9020
  149TCq2    H2 2280   2.806   0.050  10.944 -2.4988 -2.9833  1.3691
  149TCq2    H3 2281   3.090   0.032  10.638  2.5307  0.4128  1.1756
  149TCq2    H4 2282   2.938   4.401  10.788  0.5728  0.0425  0.2367
  150MPD2     C 2283   4.066   4.369  12.005  0.2773  0.7612 -0.7889
  150MPD2    C1 2284   4.133   4.358  11.883  0.6002 -0.9500  0.7117
  150MPD2    C2 2285   4.257   4.410  11.872 -0.0285  0.2639  0.4214
  150MPD2    C3 2286   4.319   4.476  11.977  0.3461  0.2041 -0.6268
  150MPD2    C4 2287   4.258   4.470  12.102 -0.3205 -0.7387  1.0406
  150MPD2    C5 2288   4.136   4.415  12.112 -0.8765  0.3676 -0.6210
  150MPD2     H 2289   4.308   4.404  11.776  2.9607  1.2797  1.9566
  150MPD2    H1 2290   4.309   4.504  12.191 -0.0067  0.8012  0.2727
  150MPD2    H2 2291   3.962   4.338  12.011  0.1167  1.4290 -0.1118
  150MPD2    H3 2292   4.088   4.429  12.208 -0.1746  1.0296 -0.3620
  150MPD2     N 2293   4.450   4.527  11.971  0.0282 -0.5059 -0.0033
  150MPD2    H5 2294   4.501   4.555  11.887  0.7343  2.6647  1.4533
  150MPD2    N1 2295   4.056   4.311  11.776 -0.3764 -0.0684 -0.7893
  150MPD2    H7 2296   3.966   4.270  11.798  0.4712 -1.3292  0.3411
  151TCq2    C1 2297   4.540   4.505  12.076 -0.0121  0.2502 -0.0654
  151TCq2    O2 2298   4.531   4.422  12.162 -0.3069  0.0539 -0.7220
  151TCq2    C2 2299   4.673   4.565  12.054 -0.2657 -0.5598 -0.5936
  151TCq2    C3 2300   4.699   4.670  11.968 -0.7733 -0.0311 -0.5367
  151TCq2    C4 2301   0.096   4.706  11.941  0.2138 -0.4127 -0.3714
  151TCq2    C5 2302   0.203   4.621  11.971 -0.4746 -1.5221 -0.1106
  151TCq2    C6 2303   0.179   4.516  12.058 -0.0677 -0.0212 -0.4012
  151TCq2    C7 2304   0.047   4.485  12.095  0.2233  0.7958  0.6185
  151TCq2    C8 2305   0.299   4.454  12.121  0.5356  0.6053 -0.0844
  151TCq2    O4 2306   0.405   4.501  12.080  0.7414  0.3514  0.0031
  151TCq2    C9 2307   0.114   0.093  11.859  0.2957  0.3986  0.6697
  151TCq2    O5 2308   0.230   0.141  11.846  0.4010  0.0226 -0.1491
  151TCq2    O6 2309   0.011   0.150  11.820  0.8385  0.1740  0.6050
  151TCq2    H2 2310   4.616   0.006  11.936 -1.4517 -1.5244 -1.6776
  151TCq2    H3 2311   0.301   4.644  11.930 -1.4146 -0.7529 -1.9373
  151TCq2    H4 2312   0.034   4.399  12.160 -1.6074 -0.0750 -0.8973
  152MPD2     C 2313   3.946   3.804  12.547 -0.1088 -0.0499  0.3616
  152MPD2    C1 2314   4.031   3.838  12.453 -0.4905  0.4046  0.0797
  152MPD2    C2 2315   3.985   3.839  12.321 -0.1381  0.5093 -0.0876
  152MPD2    C3 2316   3.861   3.783  12.291  0.2042  0.0666  0.3537
  152MPD2    C4 2317   3.773   3.745  12.389  0.8118  0.6522 -0.2657
  152MPD2    C5 2318   3.822   3.755  12.518  0.4647  0.4744 -0.4700
  152MPD2     H 2319   4.041   3.873  12.234 -0.5022 -2.5080 -1.4997
  152MPD2    H1 2320   3.676   3.700  12.371  2.3172 -2.1930 -1.2906
  152MPD2    H2 2321   3.976   3.815  12.651 -3.9980 -1.4077  1.6439
  152MPD2    H3 2322   3.764   3.716  12.601  1.1267  0.0089 -0.2299
  152MPD2     N 2323   3.824   3.770  12.151 -0.5458  0.0207  0.3877
  152MPD2    H5 2324   3.895   3.788  12.080 -1.4863 -0.3415 -0.6286
  152MPD2    N1 2325   4.160   3.865  12.495 -0.1875 -0.3848  0.3471
  152MPD2    H7 2326   4.184   3.841  12.590 -0.0733  2.9287  1.1498
  153TCq2    C1 2327   4.254   3.934  12.416  0.0059  0.4110  0.2517
  153TCq2    O2 2328   4.231   4.004  12.315 -0.2505 -0.4984 -0.2229
  153TCq2    C2 2329   4.386   3.926  12.464 -0.0703 -0.2383 -1.1098
  153TCq2    C3 2330   4.427   3.817  12.539 -0.2313  0.1233 -0.3821
  153TCq2    C4 2331   4.557   3.813  12.577 -0.4876  0.4788 -0.3229
  153TCq2    C5 2332   4.642   3.920  12.563 -0.6208 -1.0359  0.6244
  153TCq2    C6 2333   4.583   4.030  12.496  0.5598  0.7247  0.1606
  153TCq2    C7 2334   4.460   4.034  12.438  0.0378  0.2183  0.1975
  153TCq2    C8 2335   4.661   4.140  12.449  1.0873 -0.0342 -0.6159
  153TCq2    O4 2336   4.630   4.201  12.351  0.0958 -0.2708  0.1916
  153TCq2    C9 2337   4.609   3.695  12.641  0.0735  0.3515  0.8058
  153TCq2    O5 2338   0.003   3.698  12.674  0.3876 -0.7790 -0.0261
  153TCq2    O6 2339   4.531   3.592  12.633 -0.2142  0.2914 -0.2775
  153TCq2    H2 2340   4.363   3.730  12.551  1.6113 -0.9437  1.6990
  153TCq2    H3 2341   0.020   3.918  12.594 -0.0169  2.7882 -1.1436
  153TCq2    H4 2342   4.421   4.120  12.386  1.4279  1.0839  0.5961
  154MPD2     C 2343   1.296   4.200   0.530  0.3659 -0.6646  0.3962
  154MPD2    C1 2344   1.231   4.090   0.571  0.2222 -0.1819  0.1236
  154MPD2    C2 2345   1.215   4.076   0.709  0.0267  0.2842  0.0488
  154MPD2    C3 2346   1.257   4.167   0.806 -0.0915  0.6073 -0.7089
  154MPD2    C4 2347   1.316   4.275   0.752  0.4992 -0.7047 -0.0114
  154MPD2    C5 2348   1.346   4.292   0.623  0.0855 -0.5011  0.0309
  154MPD2     H 2349   1.165   3.989   0.750  1.7998 -0.4712  0.5760
  154MPD2    H1 2350   1.361   4.350   0.816 -1.5575  0.9224 -0.4496
  154MPD2    H2 2351   1.318   4.211   0.425 -0.4154 -2.1353  0.0700
  154MPD2    H3 2352   1.379   4.392   0.598 -1.8362  0.5060  1.4952
  154MPD2     N 2353   1.246   4.132   0.944  0.6093  0.1476 -0.1236
  154MPD2    H5 2354   1.206   4.042   0.971  2.5204 -0.4849  0.5839
  154MPD2    N1 2355   1.190   3.993   0.480  0.5258 -0.1479 -0.4735
  154MPD2    H7 2356   1.215   4.021   0.386 -0.0438  0.8954 -0.3210
  155TCq2    C1 2357   1.121   3.876   0.508  0.5739 -0.2595 -0.1594
  155TCq2    O2 2358   1.117   3.818   0.618  0.3491  0.1644 -0.1819
  155TCq2    C2 2359   1.050   3.826   0.392  0.0986  0.2578  0.4646
  155TCq2    C3 2360   1.009   3.697   0.403 -0.4185 -0.0294 -0.3438
  155TCq2    C4 2361   0.947   3.641   0.291 -0.0401 -0.1833  0.3261
  155TCq2    C5 2362   0.909   3.722   0.188 -0.1170 -0.6286 -0.4973
  155TCq2    C6 2363   0.954   3.854   0.183  0.5914  0.3554 -0.4544
  155TCq2    C7 2364   1.026   3.911   0.285 -0.5919 -0.0465  0.0530
  155TCq2    C8 2365   0.967   3.920   0.058  0.1627  0.0428 -0.2737
  155TCq2    O4 2366   1.050   4.009   0.059  0.7082 -0.2221  0.1408
  155TCq2    C9 2367   0.894   3.511   0.288  0.1836  0.3089 -0.7864
  155TCq2    O5 2368   0.908   3.440   0.387 -0.0932  0.2414  0.0956
  155TCq2    O6 2369   0.848   3.470   0.178 -0.1009 -0.0630  0.0128
  155TCq2    H2 2370   1.057   3.638   0.481  3.3827  3.5518 -0.0247
  155TCq2    H3 2371   0.865   3.677   0.100  0.4812 -1.3490 -0.4231
  155TCq2    H4 2372   1.057   4.015   0.282  0.5632 -0.4069 -0.7369
  156MPD2     C 2373   3.848   1.405  12.710  0.3587  0.1078  0.8132
  156MPD2    C1 2374   3.956   1.481  12.665  0.7850 -0.4727 -0.6294
  156MPD2    C2 2375   4.014   1.565  12.755  0.5872 -0.0005 -0.2246
  156MPD2    C3 2376   3.962   1.584  12.885  0.2812 -0.7003  0.0160
  156MPD2    C4 2377   3.844   1.519  12.918 -0.1223  0.5271  0.3314
  156MPD2    C5 2378   3.791   1.431  12.829  0.1631  0.3942  0.3501
  156MPD2     H 2379   4.107   1.615  12.731  0.0140  1.5686  0.8143
  156MPD2    H1 2380   3.790   1.537  13.010  0.7370 -1.0691  1.1505
  156MPD2    H2 2381   3.809   1.327  12.645  0.8552 -0.1092  0.7751
  156MPD2    H3 2382   3.712   1.361  12.854  1.1492 -0.6315  0.6074
  156MPD2     N 2383   4.023   1.684  12.970 -0.1851 -0.1282 -0.3005
  156MPD2    H5 2384   4.099   1.733  12.924  0.2447 -0.1361  0.3998
  156MPD2    N1 2385   4.012   1.437  12.541  0.3594 -0.1236 -0.0152
  156MPD2    H7 2386   3.975   1.355  12.493  1.0938  0.8782 -2.2763
  157TCq2    C1 2387   4.108   1.496  12.472 -0.7317 -0.0543 -0.0458
  157TCq2    O2 2388   4.163   1.600  12.499  0.2812 -0.2329 -0.1461
  157TCq2    C2 2389   4.140   1.425  12.365  0.0317  0.2568 -0.0309
  157TCq2    C3 2390   4.120   1.288  12.364 -0.1774  0.3985  0.2903
  157TCq2    C4 2391   4.126   1.231  12.238 -1.0967  0.1321  0.0018
  157TCq2    C5 2392   4.141   1.303  12.124 -0.7163 -0.5066 -0.1826
  157TCq2    C6 2393   4.168   1.437  12.137 -0.2722  0.1235  0.3125
  157TCq2    C7 2394   4.164   1.502  12.254 -1.5151 -0.6356  0.2240
  157TCq2    C8 2395   4.142   1.523  12.022 -0.2415 -0.5104 -0.4786
  157TCq2    O4 2396   4.190   1.635  12.007 -0.2587 -0.0368  0.0625
  157TCq2    C9 2397   4.097   1.085  12.222  0.1375  0.0879 -0.0091
  157TCq2    O5 2398   4.114   1.029  12.110 -0.1656 -0.1336  0.2281
  157TCq2    O6 2399   4.029   1.036  12.317 -0.8825  0.4034  0.1835
  157TCq2    H2 2400   4.133   1.231  12.455 -0.3375  2.1169  1.3840
  157TCq2    H3 2401   4.143   1.246  12.032  1.8810 -1.1903  0.2915
  157TCq2    H4 2402   4.201   1.604  12.259  1.1717 -1.5899 -0.1387
  158TMC2    C1 2403   0.475   0.361  12.854 -0.5142  0.5717  0.1933
  158TMC2    C2 2404   0.552   0.390  12.752 -0.4041 -0.6891  0.0992
  158TMC2    C3 2405   0.492   0.450  12.646  0.5708 -0.0446  0.3504
  158TMC2    C4 2406   0.336   0.371  12.849  0.0755 -0.1568  0.2713
  158TMC2    C5 2407   0.282   0.420  12.735 -0.0081  0.7612  0.1426
  158TMC2    C6 2408   0.359   0.459  12.630 -0.0442 -0.3749  0.7633
  158TMC2     C 2409   0.544   0.337  12.987  0.0199 -0.6428  0.2339
  158TMC2     O 2410   0.655   0.293  12.977  0.0734  0.2943  0.0674
  158TMC2     H 2411   0.660   0.387  12.751 -0.4104 -0.0878 -3.0040
  158TMC2    H1 2412   0.268   0.345  12.930 -0.4887 -1.1106 -0.5113
  158TMC2    H2 2413   0.322   0.504  12.538  0.2314  1.5372  1.5952
  158TMC2    C7 2414   0.155   0.490  12.744 -0.0080 -0.6570 -0.7215
  158TMC2    C8 2415   0.577   0.505  12.549  1.1079 -0.0584  0.2306
  158TMC2    O1 2416   0.117   0.568  12.659  0.1505 -0.5728  0.6630
  158TMC2    O2 2417   0.666   0.445  12.492  0.2539  0.4082 -0.1897
  158TMC2    O5 2418   0.533   0.626  12.518  0.6608  0.1770  0.0380
  158TMC2    H5 2419   0.455   0.658  12.568  0.1371 -1.6909  0.4362
  159MPD2     C 2420   0.575   0.285  13.496  0.5107  0.2266  0.0264
  159MPD2    C1 2421   0.445   0.320  13.468  0.4441  0.1099  0.1896
  159MPD2    C2 2422   0.414   0.345  13.332 -0.8954  0.1888  0.0179
  159MPD2    C3 2423   0.510   0.334  13.231  0.3989 -0.1224  0.0529
  159MPD2    C4 2424   0.640   0.308  13.264 -0.2490  0.3690 -0.6018
  159MPD2    C5 2425   0.663   0.269  13.393 -0.1043  0.7667 -0.3371
  159MPD2     H 2426   0.312   0.370  13.308 -0.7506  0.5610 -0.2096
  159MPD2    H1 2427   0.715   0.297  13.187 -2.2895  0.0344 -2.5377
  159MPD2    H2 2428   0.607   0.260  13.597 -0.1713 -0.7922 -0.0075
  159MPD2    H3 2429   0.760   0.244  13.435 -1.0000  0.1684  1.3679
  159MPD2     N 2430   0.472   0.355  13.099  0.4450 -0.7650 -0.4241
  159MPD2    H5 2431   0.384   0.402  13.080  0.6959 -0.2621 -0.3458
  159MPD2    N1 2432   0.354   0.319  13.573 -0.6522  0.0128 -0.1010
  159MPD2    H7 2433   0.379   0.289  13.666 -1.8512 -0.3195  0.1245
  160TMC2    C1 2434   4.357   3.086   0.241  0.6862 -0.0571 -0.2661
  160TMC2    C2 2435   4.273   3.050   0.136  0.2253 -0.3322  0.0334
  160TMC2    C3 2436   4.321   2.983   0.032  0.3296  0.2454  0.1879
  160TMC2    C4 2437   4.484   3.044   0.237 -0.1396  0.0827  0.3965
  160TMC2    C5 2438   4.532   2.966   0.138  0.0692  0.4314  0.6321
  160TMC2    C6 2439   4.452   2.945   0.025  0.7948  0.0588 -0.7656
  160TMC2     C 2440   4.323   3.200   0.326  0.1997  0.2350 -0.1672
  160TMC2     O 2441   4.381   3.202   0.433 -0.3016  0.1965 -0.2438
  160TMC2     H 2442   4.171   3.084   0.148  0.5513  1.3461 -1.8058
  160TMC2    H1 2443   4.544   3.087   0.316 -1.3386  3.0538 -0.3126
  160TMC2    H2 2444   4.493   2.895  17.644  0.1042  0.2255 -1.1842
  160TMC2    C7 2445   4.675   2.949   0.123  0.6923  0.4437  0.5603
  160TMC2    C8 2446   4.221   2.903  17.666  0.7613 -0.2581  0.0427
  160TMC2    O1 2447   4.709   2.894   0.016  0.6072 -0.0264 -0.1710
  160TMC2    O2 2448   4.107   2.940  17.640 -0.4910 -0.4455 -0.6427
  160TMC2    O5 2449   4.267   2.778  17.645  0.2887  0.8809  0.3202
  160TMC2    H5 2450   4.354   2.755  17.684  1.0134 -2.5129 -3.3562
  161MPD2     C 2451   4.229   3.444   0.478  0.7112  0.0823  0.0979
  161MPD2    C1 2452   4.179   3.408   0.353  0.2324 -0.0342 -0.2883
  161MPD2    C2 2453   4.067   3.476   0.302  0.3251  0.5379  0.0448
  161MPD2    C3 2454   4.012   3.585   0.379 -0.5917 -0.3114 -1.2355
  161MPD2    C4 2455   4.055   3.606   0.510 -0.3016 -0.3367  0.5535
  161MPD2    C5 2456   4.164   3.539   0.552  0.2074  0.0428 -0.0735
  161MPD2     H 2457   4.026   3.455   0.204  0.5344  0.6088 -0.0593
  161MPD2    H1 2458   3.999   3.672   0.576  0.5441  0.7968  0.1247
  161MPD2    H2 2459   4.321   3.401   0.515 -0.0736 -1.0722  0.6929
  161MPD2    H3 2460   4.195   3.570   0.651  0.9302 -3.4582  0.8087
  161MPD2     N 2461   3.896   3.661   0.335 -0.2893  0.0569  0.3478
  161MPD2    H5 2462   3.857   3.729   0.400 -0.7927 -0.4169  0.5374
  161MPD2    N1 2463   4.226   3.289   0.286  0.1240 -0.2563 -0.0102
  161MPD2    H7 2464   4.173   3.265   0.203  1.2096 -0.7539 -0.5665
  162TMC2    C1 2465   2.031   0.777   0.922  0.0343  0.4530 -0.3230
  162TMC2    C2 2466   1.949   0.886   0.907 -0.7282  0.0149 -0.2738
  162TMC2    C3 2467   1.888   0.939   1.015 -0.2346 -0.0676  0.1626
  162TMC2    C4 2468   2.058   0.731   1.052  0.1676  0.1207 -0.2251
  162TMC2    C5 2469   1.990   0.780   1.159  0.6324 -0.1975  0.2945
  162TMC2    C6 2470   1.906   0.889   1.138  0.5905 -0.0087  0.0339
  162TMC2     C 2471   2.100   0.733   0.799  0.0314 -0.1447 -0.0309
  162TMC2     O 2472   2.141   0.619   0.781  0.1036  0.1403  0.0253
  162TMC2     H 2473   1.905   0.922   0.815 -1.8512  1.1903  0.7336
  162TMC2    H1 2474   2.121   0.643   1.062  1.6748  1.2229  0.0811
  162TMC2    H2 2475   1.847   0.923   1.223 -2.4081 -0.0876 -2.0308
  162TMC2    C7 2476   1.980   0.710   1.286  0.1678 -0.5968  0.0170
  162TMC2    C8 2477   1.798   1.053   0.996 -0.1716  0.4936 -0.0581
  162TMC2    O1 2478   1.908   0.761   1.369  0.3987  0.3624  0.3758
  162TMC2    O2 2479   1.758   1.079   0.877  0.1811  0.1739  0.4819
  162TMC2    O5 2480   1.822   1.135   1.100  0.0301  0.2499 -0.0209
  162TMC2    H5 2481   1.873   1.090   1.171 -0.1616  1.0389  0.6133
  163MPD2     C 2482   2.235   0.914   0.332  0.0399 -0.2413 -0.2853
  163MPD2    C1 2483   2.250   0.787   0.382  0.5253  0.2981 -0.6293
  163MPD2    C2 2484   2.194   0.754   0.497 -0.0948  0.2900 -0.2334
  163MPD2    C3 2485   2.140   0.854   0.577 -0.1251  0.5450 -0.3922
  163MPD2    C4 2486   2.131   0.984   0.530 -0.0945 -0.0131 -0.3909
  163MPD2    C5 2487   2.169   1.009   0.405 -0.6740  0.0727 -0.3039
  163MPD2     H 2488   2.218   0.656   0.534 -0.1877  1.7150  3.5834
  163MPD2    H1 2489   2.084   1.063   0.587  1.0599  0.4783 -0.1182
  163MPD2    H2 2490   2.286   0.951   0.243  0.7775 -1.5290 -0.3994
  163MPD2    H3 2491   2.171   1.102   0.351 -2.0968  0.0441 -0.4047
  163MPD2     N 2492   2.087   0.838   0.707 -0.7200 -0.1033 -0.3296
  163MPD2    H5 2493   2.049   0.924   0.744  2.4935  0.8077  0.8525
  163MPD2    N1 2494   2.330   0.706   0.294  0.6432  0.7053 -0.2220
  163MPD2    H7 2495   2.368   0.749   0.210 -0.8883 -1.8742 -2.2348
  164TCq2    C1 2496   2.960   4.578  11.305 -0.1316  0.0195 -0.1353
  164TCq2    O2 2497   2.860   4.506  11.317  0.1938  0.1943  0.8807
  164TCq2    C2 2498   2.942   4.716  11.351  1.1236 -0.4555  0.3687
  164TCq2    C3 2499   3.042   0.054  11.414 -0.0553  0.1083  0.4168
  164TCq2    C4 2500   3.061   0.188  11.407  0.0390  0.1811 -0.2697
  164TCq2    C5 2501   2.967   0.259  11.338 -0.2196 -0.1245 -1.1821
  164TCq2    C6 2502   2.866   0.196  11.277  0.0343 -0.3401  0.4586
  164TCq2    C7 2503   2.850   0.060  11.278 -0.4424 -0.0611  0.7013
  164TCq2    C8 2504   2.781   0.284  11.205 -0.1078 -0.1772  0.5707
  164TCq2    O4 2505   2.721   0.237  11.110 -0.3767 -0.2195 -0.1970
  164TCq2    C9 2506   3.177   0.239  11.460 -0.0475  0.1464 -0.0400
  164TCq2    O5 2507   3.177   0.367  11.469 -0.5032 -0.0532 -0.0633
  164TCq2    O6 2508   3.267   0.154  11.487 -0.8222  0.7484 -0.5348
  164TCq2    H2 2509   3.112   4.725  11.474 -1.2137 -0.5702  1.1503
  164TCq2    H3 2510   2.986   0.365  11.326 -1.6550  0.5030  2.0191
  164TCq2    H4 2511   2.768   0.010  11.228 -1.3714  0.8068  1.3540
  165MPD2     C 2512   3.956   2.158   1.337 -0.5448 -0.2740  0.0819
  165MPD2    C1 2513   3.952   2.047   1.421  0.3472  0.3690  0.0795
  165MPD2    C2 2514   4.013   2.047   1.542  0.7464 -0.3315 -0.7926
  165MPD2    C3 2515   4.096   2.157   1.575  0.4618 -1.0099  0.0357
  165MPD2    C4 2516   4.104   2.265   1.496 -0.6233 -0.3135  0.0234
  165MPD2    C5 2517   4.042   2.259   1.372  0.4896  0.5388 -0.4166
  165MPD2     H 2518   4.005   1.962   1.607  0.2026 -0.1631 -0.6431
  165MPD2    H1 2519   4.153   2.359   1.519  0.0473 -0.8808  0.8823
  165MPD2    H2 2520   3.900   2.149   1.244  0.0559 -0.0330 -0.2970
  165MPD2    H3 2521   4.052   2.341   1.302  1.6867  0.2943 -0.5210
  165MPD2     N 2522   4.167   2.168   1.694 -0.1839  0.0141 -0.1452
  165MPD2    H5 2523   4.252   2.225   1.694 -0.4837  0.4651 -1.3842
  165MPD2    N1 2524   3.866   1.940   1.372 -0.0046  0.0985 -0.4410
  165MPD2    H7 2525   3.819   1.961   1.285  1.4244 -2.5524 -1.8579
  166TCq2    C1 2526   4.150   2.080   1.799 -0.4285  0.4163 -0.5252
  166TCq2    O2 2527   4.060   2.005   1.831  0.1785  0.4182 -0.0447
  166TCq2    C2 2528   4.262   2.070   1.896  0.4216  0.3984 -0.0388
  166TCq2    C3 2529   4.236   2.008   2.018 -0.3101 -0.4921  0.1448
  166TCq2    C4 2530   4.324   1.982   2.110  0.6420 -0.3227 -0.5307
  166TCq2    C5 2531   4.453   2.013   2.083 -0.0950  0.1497  0.0402
  166TCq2    C6 2532   4.484   2.069   1.957  0.2395 -0.4703  0.1683
  166TCq2    C7 2533   4.390   2.101   1.863 -0.0152  0.4683  0.0491
  166TCq2    C8 2534   4.622   2.126   1.939  0.1783  0.2841 -0.3938
  166TCq2    O4 2535   4.667   2.118   1.827  0.9147  0.0088 -0.4538
  166TCq2    C9 2536   4.292   1.889   2.220 -0.0192 -0.2733  0.7345
  166TCq2    O5 2537   4.378   1.887   2.309  0.4590 -0.0879  0.5286
  166TCq2    O6 2538   4.174   1.851   2.231  0.2821 -0.2816 -0.4296
  166TCq2    H2 2539   4.135   1.972   2.036 -0.6356 -0.6276 -1.9585
  166TCq2    H3 2540   4.531   1.968   2.143 -0.1430 -0.0504 -0.0466
  166TCq2    H4 2541   4.420   2.138   1.765  0.0660  0.5212  0.0942
  167TMC2    C1 2542   2.349   0.073  12.800 -0.2185  0.0108 -0.1057
  167TMC2    C2 2543   2.276   0.101  12.911  0.1112  0.2239  0.6947
  167TMC2    C3 2544   2.223   4.725  12.976  0.9097  0.1542  0.3600
  167TMC2    C4 2545   2.376   4.673  12.751 -0.5743 -0.8499  0.7420
  167TMC2    C5 2546   2.310   4.572  12.820  0.3752 -0.0984 -0.7015
  167TMC2    C6 2547   2.244   4.596  12.936  0.5382  0.3425 -0.6273
  167TMC2     C 2548   2.388   0.189  12.725 -0.3063 -0.6604  0.4297
  167TMC2     O 2549   2.392   0.298  12.784 -0.2216 -1.0324  0.3275
  167TMC2     H 2550   2.264   0.202  12.949 -0.4408 -0.0963  1.3500
  167TMC2    H1 2551   2.412   4.651  12.651  0.7544 -1.7948  1.4475
  167TMC2    H2 2552   2.199   4.512  12.987  1.4918  1.9884  2.9400
  167TMC2    C7 2553   2.328   4.432  12.778  0.1636 -0.4673 -0.0310
  167TMC2    C8 2554   2.150   0.025  13.097 -0.0528 -1.3406  0.5037
  167TMC2    O1 2555   2.262   4.352  12.845  0.4560  0.3370  0.0211
  167TMC2    O2 2556   2.104   0.137  13.120  0.0561 -0.3208 -0.7820
  167TMC2    O5 2557   2.131   4.637  13.161 -1.2685 -0.0475 -0.0111
  167TMC2    H5 2558   2.209   4.578  13.151  0.6762  2.9642 -2.7831
  168MPD2     C 2559   2.525   0.370  12.524 -0.8899 -1.0652 -0.0376
  168MPD2    C1 2560   2.473   0.247  12.502  0.3440  0.7398 -0.0954
  168MPD2    C2 2561   2.484   0.198  12.372 -0.2455 -0.1790  0.6519
  168MPD2    C3 2562   2.540   0.271  12.266  0.6141  0.6153  0.4910
  168MPD2    C4 2563   2.586   0.396  12.295  0.5544 -0.0074 -0.0015
  168MPD2    C5 2564   2.571   0.448  12.424 -0.2607  0.0252  0.3831
  168MPD2     H 2565   2.447   0.097  12.358  0.4165 -0.6282  2.2237
  168MPD2    H1 2566   2.622   0.456  12.213 -2.5570  0.8235 -0.7594
  168MPD2    H2 2567   2.532   0.406  12.626  4.9849  1.4096 -1.3771
  168MPD2    H3 2568   2.610   0.547  12.444 -0.9910  0.5122 -0.6053
  168MPD2     N 2569   2.545   0.221  12.139  0.0555  0.1376  0.3409
  168MPD2    H5 2570   2.588   0.274  12.065  1.0089  0.2897  1.0063
  168MPD2    N1 2571   2.424   0.161  12.599  0.1185 -0.4455  0.4980
  168MPD2    H7 2572   2.401   0.069  12.562  0.0215 -1.1572  2.3645
  169MPD1     C 2573   4.350   4.608   8.494  0.2714  0.4201  0.1800
  169MPD1    C1 2574   4.456   4.526   8.467  0.6536  0.0977  0.8990
  169MPD1    C2 2575   4.501   4.444   8.567  0.0631 -0.5881 -0.2190
  169MPD1    C3 2576   4.422   4.431   8.681 -0.1756 -0.4135 -0.3236
  169MPD1    C4 2577   4.310   4.507   8.697  0.5411  0.6314 -0.4737
  169MPD1    C5 2578   4.270   4.594   8.602 -0.8758  0.1688 -0.4929
  169MPD1     H 2579   4.586   4.379   8.551 -0.2545 -0.2690 -3.2271
  169MPD1    H1 2580   4.248   4.502   8.787 -0.5746  0.4177 -1.2565
  169MPD1    H2 2581   4.325   4.689   8.427  0.0423 -0.0864 -0.3456
  169MPD1    H3 2582   4.190   4.665   8.620  1.1346  2.0744  0.9935
  169MPD1     N 2583   4.458   4.347   8.792  0.4109 -0.8871 -0.5408
  169MPD1    H5 2584   4.552   4.310   8.792  0.6148 -0.3576  0.1695
  169MPD1    N1 2585   4.521   4.531   8.339 -0.1213 -0.3142  0.6754
  169MPD1    H6 2586   4.573   4.447   8.311  1.7922  2.2732 -3.5608
  169MPD1    H7 2587   4.458   4.548   8.261 -1.2431 -0.6675  1.5082
  170MPD1     C 2588   3.190   2.386  12.595  0.0199 -0.0882  0.0886
  170MPD1    C1 2589   3.142   2.501  12.650  0.4383  0.5457 -0.0672
  170MPD1    C2 2590   3.175   2.525  12.785 -0.1487 -0.2080 -0.5358
  170MPD1    C3 2591   3.218   2.422  12.865 -0.5189 -0.2956 -0.0585
  170MPD1    C4 2592   3.249   2.295  12.812  0.0751 -0.6212 -0.0746
  170MPD1    C5 2593   3.235   2.282  12.673 -0.1324  0.2311 -0.4304
  170MPD1     H 2594   3.174   2.627  12.820  1.1332 -0.1974 -0.5194
  170MPD1    H1 2595   3.289   2.212  12.868  0.9278  0.7740  1.3924
  170MPD1    H2 2596   3.178   2.365  12.489  2.5253  2.1542 -0.6278
  170MPD1    H3 2597   3.265   2.200  12.609 -0.5097 -0.2595  0.0291
  170MPD1     N 2598   3.220   2.446  13.005 -0.9001 -0.0753  0.6660
  170MPD1    H5 2599   3.183   2.537  13.033 -1.5258 -0.0041 -0.4123
  170MPD1    N1 2600   3.098   2.600  12.561 -0.0653 -0.5391  0.7541
  170MPD1    H6 2601   3.034   2.659  12.614 -1.5555 -1.4443 -0.0345
  170MPD1    H7 2602   3.052   2.562  12.479 -0.3496  0.9827  0.2147
  171MPD1     C 2603   2.019   3.548  15.238  0.2841  0.2487 -0.2144
  171MPD1    C1 2604   2.022   3.431  15.172 -0.4805  0.7670  0.1763
  171MPD1    C2 2605   2.112   3.334  15.225  0.3508  0.3934 -0.0032
  171MPD1    C3 2606   2.182   3.356  15.341 -0.3562 -0.6336  0.2538
  171MPD1    C4 2607   2.177   3.470  15.404  0.3087  0.5649 -0.3641
  171MPD1    C5 2608   2.089   3.568  15.356  0.0508 -0.0259 -0.0352
  171MPD1     H 2609   2.135   3.247  15.164 -1.2955  0.0877 -0.2032
  171MPD1    H1 2610   2.236   3.486  15.494  0.3302  2.7620 -0.7844
  171MPD1    H2 2611   1.961   3.630  15.198  2.6195  2.0679  0.1373
  171MPD1    H3 2612   2.098   3.665  15.403  1.6154  0.2550 -0.9231
  171MPD1     N 2613   2.271   3.253  15.392  0.2589  0.4729 -0.4330
  171MPD1    H5 2614   2.310   3.274  15.484 -0.2007  1.6872 -0.5261
  171MPD1    N1 2615   1.953   3.412  15.047 -0.3096 -0.3527 -0.2221
  171MPD1    H6 2616   1.868   3.469  15.047 -0.2889 -0.3045 -3.6698
  171MPD1    H7 2617   1.937   3.312  15.035 -1.2684 -0.3751  1.2830
  172MPD1     C 2618   0.313   2.588   0.567  0.2811 -0.1235 -0.7412
  172MPD1    C1 2619   0.428   2.523   0.594 -0.1081  0.8366  0.1941
  172MPD1    C2 2620   0.528   2.543   0.499  0.4799  0.2753  0.0326
  172MPD1    C3 2621   0.523   2.657   0.412  0.3068  0.6826 -0.1064
  172MPD1    C4 2622   0.409   2.735   0.409  0.1076  0.3078  0.1684
  172MPD1    C5 2623   0.305   2.693   0.487  0.2075 -0.0867 -0.1107
  172MPD1     H 2624   0.615   2.482   0.480 -0.5111 -1.1558  0.1252
  172MPD1    H1 2625   0.399   2.828   0.355 -0.7736 -0.8751 -1.6899
  172MPD1    H2 2626   0.223   2.548   0.612  0.0363  0.7351 -0.4694
  172MPD1    H3 2627   0.207   2.735   0.469  2.1210  3.9116 -1.2891
  172MPD1     N 2628   0.623   2.690   0.314 -0.6840 -0.4635 -0.3581
  172MPD1    H5 2629   0.604   2.770   0.253  4.0377  1.7267  1.0929
  172MPD1    N1 2630   0.426   2.415   0.686  0.0222 -0.5768  0.0537
  172MPD1    H6 2631   0.508   2.422   0.746  1.6609  2.1456 -2.4920
  172MPD1    H7 2632   0.359   2.442   0.757  1.4581  1.3453  0.6827
  173MPD1     C 2633   2.377   1.634  13.801  0.2243  0.8264 -0.2768
  173MPD1    C1 2634   2.428   1.595  13.931  0.0064 -0.1844  0.6860
  173MPD1    C2 2635   2.406   1.688  14.025 -0.6336  0.1077  0.3901
  173MPD1    C3 2636   2.357   1.815  14.010 -0.4504 -0.2530 -0.7178
  173MPD1    C4 2637   2.329   1.855  13.880  0.4727  0.4417 -0.3408
  173MPD1    C5 2638   2.330   1.762  13.785  0.1751 -0.4508  0.1686
  173MPD1     H 2639   2.435   1.662  14.127  3.5008  0.2523 -0.7379
  173MPD1    H1 2640   2.288   1.952  13.854 -1.3378  0.1522  1.3964
  173MPD1    H2 2641   2.370   1.558  13.725 -3.4703  1.4067 -0.5264
  173MPD1    H3 2642   2.292   1.795  13.689 -0.7470 -0.8008  0.4157
  173MPD1     N 2643   2.321   1.890  14.123  0.1435 -0.8506 -0.0199
  173MPD1    H5 2644   2.333   1.842  14.212 -2.6780 -1.4367  0.0335
  173MPD1    N1 2645   2.473   1.463  13.959  0.1519 -0.2072  0.7924
  173MPD1    H6 2646   2.537   1.422  13.890  1.8038  1.7791  1.1580
  173MPD1    H7 2647   2.521   1.472  14.048 -0.5228 -1.9659  1.3258
  174MPD1     C 2648   2.640   2.752  14.308 -0.0995 -0.1560 -0.0182
  174MPD1    C1 2649   2.636   2.697  14.434 -0.6974 -0.1127 -0.0272
  174MPD1    C2 2650   2.572   2.570  14.442 -0.1515 -0.3164 -0.1394
  174MPD1    C3 2651   2.505   2.516  14.335 -0.4938 -0.1698 -0.1555
  174MPD1    C4 2652   2.511   2.581  14.214  0.6001 -0.3344  1.2045
  174MPD1    C5 2653   2.578   2.701  14.198 -0.0343 -0.1890  0.3557
  174MPD1     H 2654   2.568   2.524  14.541  2.4068 -1.1038 -0.3957
  174MPD1    H1 2655   2.474   2.531  14.126  3.6059 -0.1775 -0.1342
  174MPD1    H2 2656   2.698   2.843  14.299 -0.2518  0.0961  1.5771
  174MPD1    H3 2657   2.590   2.744  14.099  0.2814 -1.9280 -0.3743
  174MPD1     N 2658   2.433   2.399  14.347  1.1681 -0.1283 -0.3233
  174MPD1    H5 2659   2.407   2.349  14.262 -0.9029  0.1024  0.1892
  174MPD1    N1 2660   2.733   2.742  14.527 -0.7074 -0.4078 -0.1324
  174MPD1    H6 2661   2.706   2.722  14.623  1.5610 -0.7919  0.4075
  174MPD1    H7 2662   2.758   2.840  14.513 -0.1658 -0.5510 -0.1334
  175MPD1     C 2663   0.685   3.203  14.802 -0.2803 -0.4487 -0.3059
  175MPD1    C1 2664   0.696   3.098  14.896  0.6776  0.0708  0.6840
  175MPD1    C2 2665   0.750   3.126  15.018  0.6295 -0.1069 -0.5416
  175MPD1    C3 2666   0.799   3.251  15.042  0.3810  0.2398 -0.0666
  175MPD1    C4 2667   0.808   3.348  14.946  0.3596  0.2612  0.3194
  175MPD1    C5 2668   0.741   3.330  14.829  0.3477  0.2968 -0.1111
  175MPD1     H 2669   0.756   3.048  15.093 -0.1200 -0.4344 -0.8241
  175MPD1    H1 2670   0.844   3.448  14.965 -1.9523  1.2216 -0.2663
  175MPD1    H2 2671   0.625   3.200  14.712 -1.1644  2.9891  0.2031
  175MPD1    H3 2672   0.724   3.410  14.759 -0.6685 -0.3377 -0.5887
  175MPD1     N 2673   0.835   3.289  15.174 -0.0376  0.2845  0.3142
  175MPD1    H5 2674   0.860   3.385  15.192  0.1705  0.4781 -1.0612
  175MPD1    N1 2675   0.630   2.975  14.875  0.3465  0.4567  0.1037
  175MPD1    H6 2676   0.673   2.905  14.935 -1.8401 -0.1909  0.9077
  175MPD1    H7 2677   0.622   2.944  14.778 -2.6362  2.9937 -0.4847
  176MPD1     C 2678   2.851   0.227  16.182 -0.6338 -0.0805 -0.7422
  176MPD1    C1 2679   2.814   0.358  16.187  0.7387  0.6270  0.1714
  176MPD1    C2 2680   2.763   0.404  16.307  0.3940  0.2245  0.3236
  176MPD1    C3 2681   2.706   0.311  16.393  1.0113 -0.2924 -0.4501
  176MPD1    C4 2682   2.723   0.175  16.373  0.8736  0.2702  0.1208
  176MPD1    C5 2683   2.803   0.141  16.272  0.2075  0.0551  0.2739
  176MPD1     H 2684   2.736   0.507  16.327  1.7444  0.7077 -0.3170
  176MPD1    H1 2685   2.678   0.094  16.429 -2.1171  0.4698 -2.0464
  176MPD1    H2 2686   2.903   0.193  16.094  0.8096 -1.4345  0.6290
  176MPD1    H3 2687   2.830   0.036  16.271  0.5834  0.1640 -1.3310
  176MPD1     N 2688   2.640   0.368  16.501  0.3286  0.5241  0.1324
  176MPD1    H5 2689   2.645   0.469  16.504 -0.1007  0.6145 -1.8783
  176MPD1    N1 2690   2.867   0.451  16.096 -0.3695 -0.1478  0.2347
  176MPD1    H6 2691   2.810   0.536  16.097  1.2966  0.9622  2.4428
  176MPD1    H7 2692   2.870   0.426  15.998 -2.1935 -0.6480  0.3164
  177MPD1     C 2693   1.185   0.293   9.850  0.1665  0.1236  0.3953
  177MPD1    C1 2694   1.060   0.268   9.796  0.3069  0.4167  0.1922
  177MPD1    C2 2695   1.010   0.360   9.713  0.0944 -0.1616 -0.2625
  177MPD1    C3 2696   1.061   0.485   9.695 -0.5624  0.4045 -0.5162
  177MPD1    C4 2697   1.183   0.506   9.745 -0.1553  0.3766  0.3880
  177MPD1    C5 2698   1.241   0.416   9.830 -0.1172 -0.4413  0.3111
  177MPD1     H 2699   0.916   0.339   9.662  0.9464 -0.6161 -1.6520
  177MPD1    H1 2700   1.233   0.601   9.733  0.2022  0.2964  1.2681
  177MPD1    H2 2701   1.241   0.214   9.900  0.7432  0.4796  0.3136
  177MPD1    H3 2702   1.337   0.436   9.876 -0.8370 -0.1584  1.6867
  177MPD1     N 2703   0.987   0.575   9.615  0.5919 -0.0450 -0.8752
  177MPD1    H5 2704   0.897   0.554   9.573  1.2323  0.6368 -2.5826
  177MPD1    N1 2705   1.005   0.138   9.801 -0.7070 -0.3147 -0.0575
  177MPD1    H6 2706   0.904   0.128   9.788 -0.4418 -0.9348 -1.6797
  177MPD1    H7 2707   1.047   0.090   9.880 -2.3773 -0.4481  0.7494
  178MPD1     C 2708   3.342   1.530   0.214 -0.0768  0.6703  0.3048
  178MPD1    C1 2709   3.456   1.599   0.174 -0.1406 -0.6382 -0.4620
  178MPD1    C2 2710   3.495   1.581   0.041  0.2557  0.0259  0.4636
  178MPD1    C3 2711   3.425   1.507  17.655 -0.5402  0.0192 -0.5662
  178MPD1    C4 2712   3.314   1.443  17.700 -0.2582  0.0315 -0.3563
  178MPD1    C5 2713   3.279   1.451   0.122  0.9835  0.3770  0.3249
  178MPD1     H 2714   3.582   1.642   0.019 -0.9685  0.8838 -1.8942
  178MPD1    H1 2715   3.252   1.379  17.638 -0.3355 -1.7762  1.5917
  178MPD1    H2 2716   3.298   1.547   0.311 -1.2793 -3.2301  0.4388
  178MPD1    H3 2717   3.194   1.388   0.148  1.9428 -0.9769  0.1576
  178MPD1     N 2718   3.472   1.482  17.522 -0.7672 -0.3131  0.4677
  178MPD1    H5 2719   3.414   1.419  17.467  0.0714 -0.6357 -0.0379
  178MPD1    N1 2720   3.534   1.660   0.273 -0.3681  0.1046 -0.6912
  178MPD1    H6 2721   3.603   1.727   0.240  1.0491 -1.3364 -0.6637
  178MPD1    H7 2722   3.468   1.706   0.335 -0.2268 -1.2193  0.4443
  179MPD1     C 2723   3.020   0.182  15.606  0.5559 -1.1322  0.7470
  179MPD1    C1 2724   2.896   0.119  15.567 -0.3425  0.0545  0.0271
  179MPD1    C2 2725   2.897   4.705  15.559  0.2898  0.0975  0.1759
  179MPD1    C3 2726   3.010   4.627  15.584 -0.3210  0.0661  0.0068
  179MPD1    C4 2727   3.120   4.688  15.620  0.3430  0.2127  0.4575
  179MPD1    C5 2728   3.130   0.099  15.624  0.4082 -0.5254  0.1255
  179MPD1     H 2729   2.800   4.661  15.537 -0.4055  1.0927  1.2945
  179MPD1    H1 2730   3.211   4.633  15.640  0.9136  1.0641  0.2014
  179MPD1    H2 2731   3.031   0.289  15.603  3.6756 -1.4996 -0.6867
  179MPD1    H3 2732   3.224   0.144  15.650 -0.2172  0.3111  0.9082
  179MPD1     N 2733   3.009   4.484  15.571  0.1028  0.3191 -1.3424
  179MPD1    H5 2734   3.094   4.432  15.589 -0.7149 -1.0256 -1.3679
  179MPD1    N1 2735   2.788   0.200  15.522 -0.3778 -0.0944  0.8717
  179MPD1    H6 2736   2.789   0.292  15.565  1.3035 -0.3338  1.3697
  179MPD1    H7 2737   2.700   0.159  15.551  0.9090 -1.4569  2.9274
  180MPD1     C 2738   3.396   1.037  15.324 -0.1054 -0.5443  0.2149
  180MPD1    C1 2739   3.424   1.102  15.207 -0.4757 -0.4745  0.4704
  180MPD1    C2 2740   3.348   1.067  15.095 -0.1579 -0.2771  0.1809
  180MPD1    C3 2741   3.251   0.965  15.100  0.1070  0.3580  0.1072
  180MPD1    C4 2742   3.224   0.904  15.220 -0.6017  0.1508 -0.7053
  180MPD1    C5 2743   3.287   0.958  15.333 -0.2383  0.6030 -0.2624
  180MPD1     H 2744   3.370   1.102  14.994  1.3770  0.3544  0.7458
  180MPD1    H1 2745   3.148   0.829  15.243 -0.4848 -0.1571 -1.3311
  180MPD1    H2 2746   3.464   1.060  15.406 -1.1341 -0.9534  1.1826
  180MPD1    H3 2747   3.268   0.911  15.429  1.4439  0.2596 -0.0881
  180MPD1     N 2748   3.195   0.940  14.971 -0.0882 -0.1337  0.3243
  180MPD1    H5 2749   3.210   1.004  14.894  0.4665  0.6781  1.1276
  180MPD1    N1 2750   3.531   1.187  15.202 -0.4264 -0.3864  0.1557
  180MPD1    H6 2751   3.532   1.242  15.116 -0.3829 -0.8717 -0.1576
  180MPD1    H7 2752   3.537   1.241  15.288  0.9672 -1.1443  0.5233
  181MPD1     C 2753   4.348   2.128   9.425 -0.2000 -0.4264  0.5803
  181MPD1    C1 2754   4.332   2.183   9.552 -0.3981 -0.2774  0.2908
  181MPD1    C2 2755   4.431   2.275   9.593 -0.1524 -1.0081 -0.4058
  181MPD1    C3 2756   4.534   2.313   9.505  0.3916 -0.3011 -0.0342
  181MPD1    C4 2757   4.549   2.251   9.386 -0.2418 -0.1431  0.3709
  181MPD1    C5 2758   4.456   2.156   9.348  0.6860  0.0074 -0.5679
  181MPD1     H 2759   4.416   2.321   9.690 -1.0872  1.0388 -1.5270
  181MPD1    H1 2760   4.625   2.283   9.315  0.6893  0.0593  1.4735
  181MPD1    H2 2761   4.262   2.071   9.392  1.4963 -1.5400 -1.8762
  181MPD1    H3 2762   4.464   2.119   9.246  0.8955  1.5525 -1.1077
  181MPD1     N 2763   4.635   2.408   9.538  0.5003  0.2937  0.2206
  181MPD1    H5 2764   4.707   2.423   9.468  0.8197  2.2538  0.9644
  181MPD1    N1 2765   4.209   2.180   9.614  0.3083 -0.5987  0.3091
  181MPD1    H6 2766   4.157   2.092   9.606  0.4493 -0.5365 -1.1379
  181MPD1    H7 2767   4.201   2.201   9.714 -0.1012  1.0141 -0.0571
  182MPD1     C 2768   2.086   1.866   1.636  0.3106  0.2488 -0.4640
  182MPD1    C1 2769   2.065   1.768   1.537  0.0421  0.6515  0.1911
  182MPD1    C2 2770   1.934   1.738   1.507 -0.1791 -0.0766  0.3598
  182MPD1    C3 2771   1.827   1.797   1.575  0.2609  0.0607  1.5472
  182MPD1    C4 2772   1.849   1.873   1.685  0.4738 -0.1902  0.0539
  182MPD1    C5 2773   1.979   1.914   1.711  0.5003 -0.4039  0.4376
  182MPD1     H 2774   1.914   1.680   1.418 -1.3707  0.3731  0.3266
  182MPD1    H1 2775   1.767   1.903   1.750  0.4824 -1.9543  0.8767
  182MPD1    H2 2776   2.187   1.900   1.657  1.2032 -2.4522 -0.3841
  182MPD1    H3 2777   1.998   1.985   1.791 -0.0402 -0.2730  0.4499
  182MPD1     N 2778   1.692   1.768   1.550  0.8331 -0.6798  0.6785
  182MPD1    H5 2779   1.627   1.800   1.621 -0.9073  1.1885 -1.7317
  182MPD1    N1 2780   2.179   1.725   1.464  0.6210  0.1213 -0.3217
  182MPD1    H6 2781   2.174   1.628   1.435 -2.2251  0.0586  0.3997
  182MPD1    H7 2782   2.265   1.734   1.518  0.9207  1.9886 -1.1271
  183MPD1     C 2783   2.147   2.575   9.159 -0.0086  0.0383  0.7633
  183MPD1    C1 2784   2.068   2.682   9.186 -0.0113 -0.6561 -0.6133
  183MPD1    C2 2785   1.976   2.680   9.291  0.0638 -0.4134  0.0385
  183MPD1    C3 2786   1.942   2.567   9.353  0.1971  0.6567  0.0633
  183MPD1    C4 2787   2.014   2.449   9.324 -0.1203  0.4002  0.1325
  183MPD1    C5 2788   2.122   2.460   9.229  0.2066 -0.1250  0.1610
  183MPD1     H 2789   1.910   2.766   9.297  1.6823  0.8888 -1.0224
  183MPD1    H1 2790   2.006   2.352   9.370 -0.4445  0.6406  0.5779
  183MPD1    H2 2791   2.234   2.577   9.095 -0.4865  0.0545  0.1197
  183MPD1    H3 2792   2.177   2.371   9.199 -0.3284  0.2847 -2.0404
  183MPD1     N 2793   1.833   2.575   9.438 -0.6945  0.1296 -0.3506
  183MPD1    H5 2794   1.779   2.660   9.447 -1.1767 -0.1692 -0.3881
  183MPD1    N1 2795   2.099   2.806   9.121  0.0053 -0.1499  0.2160
  183MPD1    H6 2796   2.030   2.880   9.117  0.2626  0.0734 -0.0637
  183MPD1    H7 2797   2.146   2.787   9.033 -1.7980  0.8713 -0.9808
  184MPD1     C 2798   0.043   4.493   9.783 -0.8932  0.2854 -0.3464
  184MPD1    C1 2799   0.131   4.594   9.819  0.0698  0.2653 -0.3914
  184MPD1    C2 2800   0.153   4.684   9.722 -0.5632  0.0494  0.2506
  184MPD1    C3 2801   0.069   4.702   9.617 -0.0862  0.3999  0.0326
  184MPD1    C4 2802   4.704   4.618   9.586 -0.0519 -0.3058 -0.0707
  184MPD1    C5 2803   4.695   4.512   9.666 -0.1677  0.7832  0.3136
  184MPD1     H 2804   0.239   0.025   9.729  0.6671 -1.4536 -0.4247
  184MPD1    H1 2805   4.636   4.630   9.502  1.0335  1.1354 -0.7268
  184MPD1    H2 2806   0.026   4.399   9.834 -0.7532  1.0619  1.1406
  184MPD1    H3 2807   4.624   4.435   9.639  1.5119 -0.6531 -0.0740
  184MPD1     N 2808   0.085   0.089   9.523 -0.5745 -0.1461  0.4008
  184MPD1    H5 2809   0.016   0.089   9.449 -0.2032  1.8339  0.0261
  184MPD1    N1 2810   0.226   4.585   9.923  0.5234 -0.8613 -0.4081
  184MPD1    H6 2811   0.182   4.534   9.999 -0.5304  0.9624  0.1985
  184MPD1    H7 2812   0.240   4.676   9.966 -0.5367  0.5257 -2.9426
  185MPD1     C 2813   4.509   0.127   8.711  0.3607  0.3854 -0.2947
  185MPD1    C1 2814   4.526   0.260   8.733  0.4857  0.0683  0.6201
  185MPD1    C2 2815   4.594   0.295   8.853 -0.6465 -0.2142 -1.1709
  185MPD1    C3 2816   4.659   0.207   8.935  0.3006  0.7252  0.8407
  185MPD1    C4 2817   4.645   0.076   8.899  0.6175 -0.1506  0.0852
  185MPD1    C5 2818   4.571   0.041   8.795  0.3140 -0.6393 -0.3052
  185MPD1     H 2819   4.596   0.400   8.881  0.0406  0.0043 -2.0364
  185MPD1    H1 2820   4.689   4.722   8.956 -0.5591 -1.2451 -0.5347
  185MPD1    H2 2821   4.448   0.084   8.633  2.7178 -3.6207  0.0911
  185MPD1    H3 2822   4.559   4.664   8.764  0.6363 -0.0897 -2.2714
  185MPD1     N 2823   0.009   0.234   9.054 -0.6631  0.3686  0.2903
  185MPD1    H5 2824   0.038   0.157   9.113  3.1614  0.4702 -1.4539
  185MPD1    N1 2825   4.464   0.351   8.649 -0.1305 -0.1275 -0.4645
  185MPD1    H6 2826   4.479   0.327   8.551 -1.0024 -1.0525 -0.3685
  185MPD1    H7 2827   4.502   0.445   8.664 -1.1091 -0.3640  3.2648
  186MPD1     C 2828   3.622   4.207  15.469  0.5568 -0.0448  0.1181
  186MPD1    C1 2829   3.486   4.221  15.494 -0.2616  0.4178  0.4210
  186MPD1    C2 2830   3.440   4.323  15.578  0.6448 -0.4402  0.0035
  186MPD1    C3 2831   3.533   4.409  15.636 -0.6143 -0.1992 -0.3176
  186MPD1    C4 2832   3.663   4.395  15.612 -0.1360 -0.1447  0.4220
  186MPD1    C5 2833   3.708   4.298  15.527 -0.4319 -0.0792  0.1529
  186MPD1     H 2834   3.334   4.324  15.601  0.8119 -0.3517  0.7676
  186MPD1    H1 2835   3.746   4.460  15.638 -1.0493  1.3881 -0.5176
  186MPD1    H2 2836   3.655   4.119  15.416  2.5167  0.2644  0.8407
  186MPD1    H3 2837   3.815   4.285  15.539 -0.1143  0.3555 -2.2110
  186MPD1     N 2838   3.507   4.513  15.728 -0.0896 -0.0098 -0.2698
  186MPD1    H5 2839   3.577   4.583  15.747 -0.8740 -0.2030  3.3136
  186MPD1    N1 2840   3.399   4.115  15.461  0.0787 -0.0187  0.1177
  186MPD1    H6 2841   3.433   4.061  15.381 -4.3113  0.6402 -2.1641
  186MPD1    H7 2842   3.307   4.155  15.446  0.0396 -0.0135  0.3780
  187MPD1     C 2843   2.762   1.783   0.726 -0.5668 -0.1738 -0.0914
  187MPD1    C1 2844   2.678   1.683   0.672 -0.1033 -0.5808  0.3489
  187MPD1    C2 2845   2.679   1.690   0.531 -0.2660  0.6912  0.4064
  187MPD1    C3 2846   2.720   1.802   0.451  0.3907 -0.7784 -0.3315
  187MPD1    C4 2847   2.800   1.892   0.523 -0.4884 -0.3992  0.0296
  187MPD1    C5 2848   2.811   1.890   0.660  0.2345 -0.1772 -0.4831
  187MPD1     H 2849   2.632   1.611   0.475  1.1360 -0.8602  1.4284
  187MPD1    H1 2850   2.858   1.966   0.470 -0.6608 -0.1902  0.1339
  187MPD1    H2 2851   2.793   1.778   0.829 -2.1143 -0.6879  0.3462
  187MPD1    H3 2852   2.866   1.960   0.721  0.7423 -0.9812 -0.0210
  187MPD1     N 2853   2.697   1.808   0.310  0.0468  0.5206  0.2474
  187MPD1    H5 2854   2.728   1.892   0.262 -0.6506  0.2652 -0.6357
  187MPD1    N1 2855   2.666   1.567   0.743 -0.2531  0.3015 -0.2256
  187MPD1    H6 2856   2.586   1.522   0.698  0.2733  0.6803 -1.5371
  187MPD1    H7 2857   2.638   1.591   0.838  0.6494  1.4061 -0.2497
  188MPD1     C 2858   1.877   1.760   9.364  0.3726 -0.2199 -0.1133
  188MPD1    C1 2859   1.856   1.712   9.495  0.8098 -0.1471  0.2485
  188MPD1    C2 2860   1.916   1.591   9.529 -0.5077 -0.7979 -0.7780
  188MPD1    C3 2861   1.966   1.502   9.435  0.2070  0.1279 -0.1154
  188MPD1    C4 2862   1.956   1.537   9.304  0.4601 -0.3587  0.4627
  188MPD1    C5 2863   1.916   1.666   9.272  0.5786  0.4218  0.2803
  188MPD1     H 2864   1.927   1.576   9.635 -0.3101  3.0052 -0.2829
  188MPD1    H1 2865   1.999   1.462   9.240  2.9027  1.9211 -0.5790
  188MPD1    H2 2866   1.861   1.860   9.328 -1.1814 -1.1283 -1.9061
  188MPD1    H3 2867   1.925   1.695   9.168 -0.6353  0.6920  0.2418
  188MPD1     N 2868   2.026   1.380   9.468 -0.0669 -0.0589  0.1099
  188MPD1    H5 2869   2.075   1.327   9.397  0.9228 -0.7380  1.3044
  188MPD1    N1 2870   1.815   1.805   9.595 -0.3101  0.7824  0.2193
  188MPD1    H6 2871   1.756   1.880   9.558 -0.0287  0.5507 -0.6978
  188MPD1    H7 2872   1.773   1.770   9.681 -0.0999  1.9812  0.8105
  189MPD1     C 2873   4.360   1.559   0.523  0.7865  0.7650  0.9893
  189MPD1    C1 2874   4.337   1.694   0.537  0.5914  1.0487 -0.2909
  189MPD1    C2 2875   4.318   1.773   0.425 -0.9114 -0.3568 -0.1776
  189MPD1    C3 2876   4.292   1.712   0.300 -0.6344 -0.4459 -0.2370
  189MPD1    C4 2877   4.306   1.577   0.290 -0.3373  0.1474  0.3651
  189MPD1    C5 2878   4.340   1.504   0.397 -0.4299 -0.9324  0.3074
  189MPD1     H 2879   4.314   1.880   0.442  0.5968 -0.5935  1.6285
  189MPD1    H1 2880   4.298   1.525   0.196 -0.1358 -0.3844  0.6463
  189MPD1    H2 2881   4.375   1.495   0.609  0.7306 -0.8341 -0.1862
  189MPD1    H3 2882   4.341   1.397   0.382 -0.2678 -0.7060 -1.2454
  189MPD1     N 2883   4.274   1.789   0.185  0.1033  0.6950  0.6144
  189MPD1    H5 2884   4.292   1.888   0.200 -0.8696  1.3951 -2.7757
  189MPD1    N1 2885   4.362   1.752   0.663  0.1606  0.0601  0.1209
  189MPD1    H6 2886   4.343   1.852   0.672  2.1866  0.6568 -2.0338
  189MPD1    H7 2887   4.342   1.703   0.749 -2.8448  1.6419  0.2925
  190MPD1     C 2888   2.676   0.394  14.837  0.4223  0.6309 -0.6005
  190MPD1    C1 2889   2.806   0.424  14.806 -0.5341 -0.1901  0.2341
  190MPD1    C2 2890   2.877   0.488  14.905  0.5422 -0.0031 -0.2412
  190MPD1    C3 2891   2.830   0.501  15.038 -0.1424  0.2486 -0.7021
  190MPD1    C4 2892   2.704   0.465  15.068 -0.0352  1.1556 -0.6133
  190MPD1    C5 2893   2.627   0.416  14.967  0.0878 -0.1590  0.6442
  190MPD1     H 2894   2.982   0.508  14.886  0.8312 -0.2509  1.0831
  190MPD1    H1 2895   2.663   0.465  15.168  0.9752 -2.9686 -0.2158
  190MPD1    H2 2896   2.614   0.345  14.763 -0.4441 -0.2049  0.6904
  190MPD1    H3 2897   2.526   0.390  14.994 -0.2241 -0.7405 -1.0604
  190MPD1     N 2898   2.915   0.547  15.138  0.2491 -0.6121 -0.3592
  190MPD1    H5 2899   3.008   0.577  15.109 -0.2295 -0.5528 -1.8232
  190MPD1    N1 2900   2.852   0.421  14.675 -0.6053 -0.1029  0.4472
  190MPD1    H6 2901   2.838   0.518  14.647  0.8823  0.4919  1.8026
  190MPD1    H7 2902   2.949   0.393  14.668 -0.6892 -0.2666 -0.0734
  191MPD1     C 2903   2.169   2.624  12.846 -0.3826  0.1405 -0.1603
  191MPD1    C1 2904   2.071   2.709  12.811  0.2905 -0.3923 -0.0851
  191MPD1    C2 2905   2.104   2.829  12.743  0.1031 -0.0615  0.2828
  191MPD1    C3 2906   2.230   2.854  12.695 -0.3525 -0.3908 -1.1044
  191MPD1    C4 2907   2.330   2.770  12.733  0.4014 -0.0229  0.0889
  191MPD1    C5 2908   2.301   2.656  12.805  0.3264  0.5755  0.2494
  191MPD1     H 2909   2.033   2.908  12.721 -1.5139 -1.0986  1.6748
  191MPD1    H1 2910   2.432   2.795  12.705  0.9557  0.2377  2.3685
  191MPD1    H2 2911   2.158   2.532  12.903  3.2554  0.7361  1.4829
  191MPD1    H3 2912   2.378   2.586  12.835 -0.8464 -0.0978  1.6710
  191MPD1     N 2913   2.242   2.967  12.607 -0.1908  0.6071  0.7395
  191MPD1    H5 2914   2.151   3.003  12.583  0.0866  2.2194  2.0697
  191MPD1    N1 2915   1.940   2.667  12.830  0.2235 -0.1530  0.1911
  191MPD1    H6 2916   1.930   2.629  12.924 -2.3913 -0.6724 -0.3231
  191MPD1    H7 2917   1.875   2.745  12.830  0.0463 -0.3011  2.4062
  192MPD1     C 2918   1.626   3.496  12.536  0.2873  0.2476 -0.1669
  192MPD1    C1 2919   1.663   3.468  12.408 -0.4587 -0.1674 -0.9180
  192MPD1    C2 2920   1.798   3.427  12.389 -0.0624  0.2240 -0.1565
  192MPD1    C3 2921   1.897   3.424  12.490  0.4122 -0.2086  0.6126
  192MPD1    C4 2922   1.849   3.448  12.620  0.2470  0.3267  0.2399
  192MPD1    C5 2923   1.719   3.495  12.633 -0.7132 -0.0445  0.4815
  192MPD1     H 2924   1.821   3.416  12.283  2.1605 -0.9136  0.4594
  192MPD1    H1 2925   1.915   3.438  12.706 -1.1216 -1.5900  1.0610
  192MPD1    H2 2926   1.524   3.515  12.567 -0.0731 -0.4738 -0.9374
  192MPD1    H3 2927   1.677   3.515  12.731 -0.6014 -2.8227  1.1203
  192MPD1     N 2928   2.033   3.386  12.474 -0.2367 -0.0666 -0.0959
  192MPD1    H5 2929   2.085   3.383  12.562 -1.7334  1.8562  0.8471
  192MPD1    N1 2930   1.563   3.472  12.305  0.3860 -0.1322  0.0343
  192MPD1    H6 2931   1.488   3.538  12.324  1.3089  0.7045  0.7133
  192MPD1    H7 2932   1.601   3.492  12.213  2.4783  0.2450  0.9881
  193MPD1     C 2933   2.257   2.828  17.190  0.2404 -0.5154  0.2297
  193MPD1    C1 2934   2.393   2.820  17.167  0.2484 -0.6936  0.1224
  193MPD1    C2 2935   2.444   2.841  17.040  0.0553 -0.2892  0.0703
  193MPD1    C3 2936   2.365   2.904  16.945  0.1585 -0.8248  0.5540
  193MPD1    C4 2937   2.234   2.938  16.978  0.1237  0.4648 -0.2818
  193MPD1    C5 2938   2.187   2.896  17.093  0.2597 -0.0216  0.2768
  193MPD1     H 2939   2.548   2.815  17.025  0.5769  1.7213  0.2897
  193MPD1    H1 2940   2.166   3.000  16.919 -0.1816  0.6010  0.2095
  193MPD1    H2 2941   2.211   2.795  17.282  0.7694  2.0406  1.4193
  193MPD1    H3 2942   2.081   2.908  17.114  0.3163 -2.1042  1.7374
  193MPD1     N 2943   2.413   2.942  16.823 -0.2664  0.6927  0.6065
  193MPD1    H5 2944   2.353   2.990  16.756  0.9790 -0.2347 -1.1560
  193MPD1    N1 2945   2.479   2.757  17.265  0.4663 -0.7269 -0.4471
  193MPD1    H6 2946   2.570   2.802  17.273  0.2186 -0.7336  2.6976
  193MPD1    H7 2947   2.425   2.759  17.352  0.4479  0.1320 -0.4846
  194MPD1     C 2948   4.572   0.750  16.592 -0.0260  0.3522 -0.4404
  194MPD1    C1 2949   4.473   0.668  16.541  0.5677  0.3937 -0.1004
  194MPD1    C2 2950   4.503   0.535  16.536  0.1943 -0.3419  0.2170
  194MPD1    C3 2951   4.629   0.486  16.580  0.3713  0.0417  0.3573
  194MPD1    C4 2952   4.714   0.568  16.646  0.2610  0.4040  0.2948
  194MPD1    C5 2953   4.685   0.702  16.652 -0.0403  0.2566 -0.1322
  194MPD1     H 2954   4.425   0.464  16.513  1.0843 -1.7035  1.4247
  194MPD1    H1 2955   0.076   0.537  16.701  0.4480  0.4122  0.0034
  194MPD1    H2 2956   4.561   0.857  16.605 -0.3152  0.0927  1.4101
  194MPD1    H3 2957   0.022   0.780  16.692 -0.9734 -0.2570  2.3099
  194MPD1     N 2958   4.665   0.349  16.557  0.3259 -0.4634  1.0526
  194MPD1    H5 2959   0.034   0.321  16.577  0.5472 -1.2865 -1.1597
  194MPD1    N1 2960   4.340   0.718  16.529 -0.1459  0.2587 -0.3870
  194MPD1    H6 2961   4.275   0.671  16.465 -0.7732 -0.8401  1.0686
  194MPD1    H7 2962   4.341   0.818  16.510  1.8908  0.0800 -1.2074
  195MPD1     C 2963   1.702   1.746  16.820 -0.4794 -1.1038 -0.3790
  195MPD1    C1 2964   1.780   1.767  16.928  0.1998  0.3546 -0.0470
  195MPD1    C2 2965   1.819   1.654  16.999  0.3875  0.7873  0.2173
  195MPD1    C3 2966   1.757   1.536  16.985 -0.2254 -0.1854  0.1297
  195MPD1    C4 2967   1.665   1.519  16.891 -0.1380 -0.0899 -0.2919
  195MPD1    C5 2968   1.639   1.623  16.802  0.1072 -0.4682  0.1051
  195MPD1     H 2969   1.895   1.667  17.075  1.9401 -0.0737 -1.2123
  195MPD1    H1 2970   1.614   1.423  16.881 -0.6669 -0.2301  3.7664
  195MPD1    H2 2971   1.684   1.833  16.758  2.2569  0.7140  1.3563
  195MPD1    H3 2972   1.570   1.602  16.721  0.4469  1.8361 -0.7799
  195MPD1     N 2973   1.776   1.421  17.065 -0.4652  0.1296  0.3487
  195MPD1    H5 2974   1.718   1.341  17.040 -1.7536  0.6219  1.7415
  195MPD1    N1 2975   1.864   1.887  16.927  0.3780 -0.0945 -0.2383
  195MPD1    H6 2976   1.804   1.967  16.907 -1.5940 -1.3660  0.5876
  195MPD1    H7 2977   1.925   1.901  17.008 -0.4193  0.5249  0.2588
  196MPD1     C 2978   2.391   2.154  17.557 -0.8354 -0.5098  0.2257
  196MPD1    C1 2979   2.308   2.045  17.554  0.3735 -1.1163  0.8071
  196MPD1    C2 2980   2.302   1.977  17.676 -0.5319  0.0044  0.2987
  196MPD1    C3 2981   2.374   2.012   0.083 -0.1136 -0.1357  0.1862
  196MPD1    C4 2982   2.446   2.127   0.079  0.3698  0.4175  0.2052
  196MPD1    C5 2983   2.463   2.192  17.660  0.0339 -0.0541  0.0463
  196MPD1     H 2984   2.238   1.890  17.685 -0.1009 -0.3069  0.3606
  196MPD1    H1 2985   2.509   2.151   0.163  0.7144  0.6665 -0.1229
  196MPD1    H2 2986   2.391   2.213  17.466 -0.3272  0.4985  0.8784
  196MPD1    H3 2987   2.530   2.277  17.649 -0.9968  0.7936  0.3397
  196MPD1     N 2988   2.367   1.951   0.207  0.0029 -0.7466 -0.7419
  196MPD1    H5 2989   2.427   1.999   0.273 -3.2560 -0.7181  2.2019
  196MPD1    N1 2990   2.215   2.025  17.451 -0.7523  0.2442  0.1034
  196MPD1    H6 2991   2.263   2.047  17.364 -0.6086  1.3044  0.4406
  196MPD1    H7 2992   2.179   1.930  17.445  0.8577 -0.4291  1.1361
  197MPD1     C 2993   0.843   2.844  16.967 -0.2270 -0.0287  0.1712
  197MPD1    C1 2994   0.900   2.943  17.042 -0.4257  0.2061 -0.0589
  197MPD1    C2 2995   0.920   3.072  16.994 -0.1752 -0.3655  0.3719
  197MPD1    C3 2996   0.890   3.101  16.859  0.5352 -0.4756 -0.6066
  197MPD1    C4 2997   0.841   2.996  16.777  0.0775 -0.6754  0.9201
  197MPD1    C5 2998   0.819   2.867  16.834  0.9742 -0.1718  0.1548
  197MPD1     H 2999   0.954   3.139  17.071  1.2863 -0.2316 -0.3967
  197MPD1    H1 3000   0.837   3.007  16.669  0.7488 -1.0881  0.8488
  197MPD1    H2 3001   0.833   2.743  17.004 -2.1020 -0.0273 -0.3197
  197MPD1    H3 3002   0.790   2.789  16.766 -0.1585  1.0632 -0.7779
  197MPD1     N 3003   0.920   3.219  16.797 -0.1797 -0.1415 -0.3656
  197MPD1    H5 3004   0.896   3.220  16.698 -0.9695 -0.6971 -0.1784
  197MPD1    N1 3005   0.927   2.926  17.180  0.1759 -0.0680 -0.2901
  197MPD1    H6 3006   0.997   2.989  17.221  1.0474 -1.2722  0.0618
  197MPD1    H7 3007   0.951   2.836  17.219  0.9435 -0.0719 -0.7808
  198MPD1     C 3008   2.785   1.238  15.519  0.0005 -0.0651 -0.1287
  198MPD1    C1 3009   2.920   1.260  15.535  0.3327  0.5140  0.1682
  198MPD1    C2 3010   2.962   1.388  15.571  0.2562  0.1037  0.3289
  198MPD1    C3 3011   2.882   1.505  15.576  0.3840  0.0757 -0.0747
  198MPD1    C4 3012   2.751   1.484  15.551  0.3377 -0.2614  0.2801
  198MPD1    C5 3013   2.709   1.353  15.521 -0.4623  0.5053  0.3387
  198MPD1     H 3014   3.065   1.392  15.603  0.5584 -0.3109 -0.6045
  198MPD1    H1 3015   2.674   1.559  15.543  0.2314 -0.2729  1.1391
  198MPD1    H2 3016   2.739   1.147  15.482  0.0207  0.5643 -1.6954
  198MPD1    H3 3017   2.603   1.349  15.504 -0.2523 -0.1222 -0.7971
  198MPD1     N 3018   2.945   1.630  15.606 -0.6158 -0.7686 -0.1127
  198MPD1    H5 3019   3.046   1.633  15.615 -0.6399  0.7575 -0.2509
  198MPD1    N1 3020   3.011   1.159  15.490  0.0005 -0.6001  0.4607
  198MPD1    H6 3021   2.975   1.064  15.492 -0.8927 -0.2923 -1.1819
  198MPD1    H7 3022   3.093   1.152  15.550  0.5819 -1.4231 -0.4308
  199MPD1     C 3023   0.989   3.066   9.545 -0.2837 -0.0537  0.8471
  199MPD1    C1 3024   0.941   3.194   9.538 -0.4572 -0.8718  0.5045
  199MPD1    C2 3025   0.812   3.219   9.508 -0.5350 -0.6668 -0.3686
  199MPD1    C3 3026   0.722   3.113   9.491 -0.7041 -0.8568  0.1580
  199MPD1    C4 3027   0.775   2.981   9.494 -0.0198 -0.1702 -0.5816
  199MPD1    C5 3028   0.906   2.959   9.535 -0.5090 -0.5072 -0.6766
  199MPD1     H 3029   0.794   3.325   9.492 -0.5045 -0.6844 -0.5218
  199MPD1    H1 3030   0.717   2.890   9.478  0.9974 -1.1098  1.0603
  199MPD1    H2 3031   1.092   3.035   9.557  0.2741  1.6426  0.5292
  199MPD1    H3 3032   0.956   2.864   9.550  1.0074  0.2055 -1.2848
  199MPD1     N 3033   0.593   3.134   9.445  0.5147  0.0588 -0.1429
  199MPD1    H5 3034   0.527   3.057   9.449  3.0344 -2.1120 -0.6629
  199MPD1    N1 3035   1.036   3.294   9.523 -0.4310 -0.7916  0.3830
  199MPD1    H6 3036   1.122   3.259   9.565  0.6132  0.1254 -0.9766
  199MPD1    H7 3037   1.015   3.384   9.565  0.8688  0.7436 -2.2452
  200MPD1     C 3038   3.434   3.468  14.989 -0.0454  0.1216  0.1177
  200MPD1    C1 3039   3.356   3.497  14.879  0.2386  0.6113  0.0041
  200MPD1    C2 3040   3.402   3.465  14.755 -0.1174  0.0040 -0.0576
  200MPD1    C3 3041   3.528   3.417  14.735 -0.0484  0.0197 -0.6337
  200MPD1    C4 3042   3.613   3.401  14.843  0.1253 -0.4379  0.1454
  200MPD1    C5 3043   3.562   3.426  14.967 -0.1922  0.4321  0.0701
  200MPD1     H 3044   3.332   3.461  14.672  2.6961 -1.6378 -2.3485
  200MPD1    H1 3045   3.713   3.359  14.832 -0.2966 -1.6426  0.9547
  200MPD1    H2 3046   3.404   3.480  15.093 -0.2927 -0.6315  0.1344
  200MPD1    H3 3047   3.634   3.401  15.044  0.6403  0.0506 -0.8345
  200MPD1     N 3048   3.560   3.384  14.602 -0.3091 -0.1491 -0.0246
  200MPD1    H5 3049   3.491   3.394  14.529 -0.2838 -3.1073 -0.4650
  200MPD1    N1 3050   3.218   3.538  14.902  0.1897  0.9184 -0.0759
  200MPD1    H6 3051   3.215   3.592  14.988 -0.4361  1.2762 -0.3218
  200MPD1    H7 3052   3.178   3.596  14.828 -0.3093  0.1684 -0.4004
  201MPD1     C 3053   1.358   2.326  12.875 -0.3842  0.1819  0.0199
  201MPD1    C1 3054   1.492   2.315  12.905  0.6139  0.1035  0.9044
  201MPD1    C2 3055   1.536   2.187  12.913  0.1236 -0.1102 -0.2897
  201MPD1    C3 3056   1.455   2.080  12.915 -0.4140  0.6191 -0.4197
  201MPD1    C4 3057   1.320   2.096  12.895  0.0707  0.0552  0.6991
  201MPD1    C5 3058   1.274   2.220  12.875  0.1472 -1.1373  0.3401
  201MPD1     H 3059   1.639   2.160  12.936 -0.5213 -1.0306  1.5011
  201MPD1    H1 3060   1.245   2.020  12.878 -0.6614  0.5733  1.6490
  201MPD1    H2 3061   1.319   2.426  12.857 -0.1144  0.3330  0.2854
  201MPD1    H3 3062   1.166   2.221  12.860  0.1312  0.3542  0.5842
  201MPD1     N 3063   1.510   1.951  12.941  0.5325 -0.4290  0.4259
  201MPD1    H5 3064   1.609   1.947  12.966  1.1615 -0.0467 -1.9797
  201MPD1    N1 3065   1.576   2.423  12.908 -0.4585 -0.1548  0.5296
  201MPD1    H6 3066   1.647   2.418  12.980  0.0870  1.3334  0.0936
  201MPD1    H7 3067   1.535   2.512  12.934 -0.6658  0.4143 -1.7172
  202MPD1     C 3068   1.701   1.409   8.704  0.1639  0.4379 -0.2251
  202MPD1    C1 3069   1.620   1.500   8.770  0.1924  0.0472  0.8065
  202MPD1    C2 3070   1.624   1.508   8.904 -0.7351 -1.3576  0.5030
  202MPD1    C3 3071   1.676   1.403   8.980 -0.5210 -0.0780  0.6704
  202MPD1    C4 3072   1.737   1.307   8.915  0.2463  0.0909 -0.0605
  202MPD1    C5 3073   1.751   1.307   8.779 -0.5690  0.1952  0.5032
  202MPD1     H 3074   1.573   1.581   8.965  1.9215 -0.7029  1.9699
  202MPD1    H1 3075   1.792   1.227   8.963 -1.1229 -0.6463  0.2737
  202MPD1    H2 3076   1.706   1.405   8.596 -0.8627 -1.0379 -0.2225
  202MPD1    H3 3077   1.814   1.233   8.731  0.1284  1.3391 -0.3457
  202MPD1     N 3078   1.650   1.383   9.114 -0.4184  0.6297  0.6715
  202MPD1    H5 3079   1.687   1.297   9.155 -1.2336  0.7611  1.6929
  202MPD1    N1 3080   1.574   1.619   8.699  0.2380  0.1391 -0.3046
  202MPD1    H6 3081   1.545   1.601   8.603 -4.4671  0.4283  1.0971
  202MPD1    H7 3082   1.487   1.657   8.735 -0.1314 -2.7727  1.8770
  203MPD1     C 3083   1.305   2.142  12.466  0.4685  1.3203  0.2591
  203MPD1    C1 3084   1.311   2.012  12.515 -0.1088  0.1707 -0.3449
  203MPD1    C2 3085   1.211   1.969  12.604 -0.2754 -0.1449 -0.3708
  203MPD1    C3 3086   1.106   2.051  12.636 -0.1684 -0.2793  0.3100
  203MPD1    C4 3087   1.104   2.183  12.591 -0.4632 -0.0795 -0.8222
  203MPD1    C5 3088   1.208   2.224  12.502  0.4035 -0.2949  0.5943
  203MPD1     H 3089   1.224   1.871  12.649 -0.1458  0.0102 -0.0667
  203MPD1    H1 3090   1.028   2.260  12.598 -1.0937 -0.5543 -2.5159
  203MPD1    H2 3091   1.387   2.171  12.401 -0.9344  0.1628 -2.0367
  203MPD1    H3 3092   1.210   2.328  12.469  0.4439 -1.0013 -1.6212
  203MPD1     N 3093   0.990   1.994  12.707  0.2106  0.0062  0.2254
  203MPD1    H5 3094   0.990   1.894  12.723 -1.5622 -0.2510 -1.4560
  203MPD1    N1 3095   1.418   1.924  12.486  0.3859  0.4270 -0.2347
  203MPD1    H6 3096   1.468   1.930  12.397 -0.1883  1.2129 -0.5078
  203MPD1    H7 3097   1.396   1.827  12.508  0.2219  0.5769  0.2684
  204MPD1     C 3098   0.353   3.385  17.643  0.4588  0.2799  0.2212
  204MPD1    C1 3099   0.217   3.377  17.614 -0.0787  0.1391  0.2817
  204MPD1    C2 3100   0.181   3.266  17.539 -0.2286  0.6068  0.6176
  204MPD1    C3 3101   0.273   3.169  17.495 -0.1957 -0.0382  0.5925
  204MPD1    C4 3102   0.407   3.189  17.519  0.2788 -0.0116  0.2083
  204MPD1    C5 3103   0.443   3.295  17.593 -0.2201 -0.2341  0.8021
  204MPD1     H 3104   0.075   3.250  17.525 -0.2865  2.1881 -0.7282
  204MPD1    H1 3105   0.492   3.137  17.476  0.7098  0.7284  0.1696
  204MPD1    H2 3106   0.386   3.462   0.006  1.1773 -0.4587  0.6938
  204MPD1    H3 3107   0.551   3.297  17.606 -0.0040 -1.6069 -0.9307
  204MPD1     N 3108   0.223   3.067  17.408 -0.1972  0.5965  0.8575
  204MPD1    H5 3109   0.128   3.078  17.374  1.1587  0.5871 -2.9234
  204MPD1    N1 3110   0.127   3.462  17.677 -0.3492 -0.2225  0.3759
  204MPD1    H6 3111   0.154   3.560  17.675 -1.4403  0.0593 -0.8587
  204MPD1    H7 3112   0.037   3.475  17.630  1.2316  1.9136 -2.0508
  205MPD1     C 3113   0.585   1.804  16.283 -0.1527  0.3698  0.1253
  205MPD1    C1 3114   0.663   1.714  16.357  0.6292  0.3191 -0.1623
  205MPD1    C2 3115   0.635   1.703  16.495 -0.3758  0.2563  0.4197
  205MPD1    C3 3116   0.544   1.792  16.557 -0.7901 -0.3698 -0.2503
  205MPD1    C4 3117   0.476   1.880  16.486  0.4407  0.2179  1.0117
  205MPD1    C5 3118   0.492   1.880  16.346  0.3432  0.3394  0.0287
  205MPD1     H 3119   0.688   1.633  16.559  2.9926  2.0616 -0.3647
  205MPD1    H1 3120   0.414   1.958  16.529 -0.8068 -0.0040 -0.4205
  205MPD1    H2 3121   0.601   1.819  16.177 -0.3858  0.4645  0.1033
  205MPD1    H3 3122   0.447   1.959  16.287 -0.2339  1.0579  1.4345
  205MPD1     N 3123   0.522   1.799  16.699 -0.2495  0.1058  0.5202
  205MPD1    H5 3124   0.451   1.859  16.739  0.8528  1.4571  0.4678
  205MPD1    N1 3125   0.749   1.625  16.292 -0.1587 -0.0148 -0.1135
  205MPD1    H6 3126   0.826   1.588  16.348 -1.3835 -1.4762  0.5857
  205MPD1    H7 3127   0.779   1.665  16.203 -0.3989  1.2096  0.3526
  206MPD1     C 3128   0.587   0.766  16.772  0.4357  0.0553 -0.0997
  206MPD1    C1 3129   0.604   0.663  16.687 -0.2496  0.2770  0.3309
  206MPD1    C2 3130   0.495   0.628  16.609  0.3012  0.3930 -0.3936
  206MPD1    C3 3131   0.376   0.704  16.607 -0.2197 -0.4311 -0.1889
  206MPD1    C4 3132   0.366   0.808  16.690  0.2759  0.1301  0.0346
  206MPD1    C5 3133   0.471   0.839  16.776 -0.1444 -0.0805  0.4742
  206MPD1     H 3134   0.498   0.535  16.554 -1.2638 -1.2697  2.3066
  206MPD1    H1 3135   0.275   0.866  16.699 -1.2944 -2.4731  0.7301
  206MPD1    H2 3136   0.661   0.800  16.844  0.8182 -2.7589  0.8188
  206MPD1    H3 3137   0.454   0.926  16.838  2.2785 -0.2532  1.4138
  206MPD1     N 3138   0.268   0.679  16.515  0.9100  0.0544 -0.0290
  206MPD1    H5 3139   0.180   0.724  16.538  1.3742  1.1578 -0.4423
  206MPD1    N1 3140   0.714   0.576  16.710 -0.5505  0.0150  0.1439
  206MPD1    H6 3141   0.736   0.520  16.628 -2.0815 -0.2270 -0.0963
  206MPD1    H7 3142   0.799   0.632  16.711 -0.6468  0.1950 -1.6284
  207MPD1     C 3143   2.526   2.324   9.760 -0.0007 -0.3107  0.4820
  207MPD1    C1 3144   2.522   2.327   9.899  0.0841 -0.1709 -0.4145
  207MPD1    C2 3145   2.582   2.426   9.966 -0.7498  0.0989 -0.5295
  207MPD1    C3 3146   2.646   2.535   9.899  0.3996 -0.2257 -0.8369
  207MPD1    C4 3147   2.640   2.533   9.763  0.0295 -0.3668 -0.0104
  207MPD1    C5 3148   2.578   2.431   9.693 -0.4041  0.1500  0.5947
  207MPD1     H 3149   2.583   2.416  10.074  0.4947  3.7504 -0.2074
  207MPD1    H1 3150   2.688   2.600   9.692  0.1891 -2.0822 -1.5084
  207MPD1    H2 3151   2.487   2.247   9.695  0.0487  0.5918 -0.6193
  207MPD1    H3 3152   2.582   2.442   9.585 -2.1996  2.8890  0.8111
  207MPD1     N 3153   2.722   2.628   9.968  0.1541  0.2799 -0.4991
  207MPD1    H5 3154   2.747   2.705   9.907 -0.6874  2.5167  1.9868
  207MPD1    N1 3155   2.432   2.239   9.965  0.1132 -0.4587  0.5224
  207MPD1    H6 3156   2.436   2.152   9.914 -0.2097  0.5754 -1.2714
  207MPD1    H7 3157   2.464   2.224  10.061 -0.6880 -2.7589  0.4322
  208MPD1     C 3158   1.224   2.482   0.505  0.4581 -0.9085 -0.1638
  208MPD1    C1 3159   1.294   2.380   0.563  0.9186  0.4850 -0.2950
  208MPD1    C2 3160   1.253   2.253   0.528 -0.2847 -0.1876  0.8537
  208MPD1    C3 3161   1.146   2.227   0.444  0.1396  0.0012 -1.0603
  208MPD1    C4 3162   1.084   2.336   0.381  0.1602 -0.1697  0.3456
  208MPD1    C5 3163   1.120   2.463   0.416  0.5504 -0.5188  0.2639
  208MPD1     H 3164   1.313   2.169   0.561 -1.5618 -2.3145 -2.2562
  208MPD1    H1 3165   0.995   2.326   0.320 -1.4301  0.7789  2.5291
  208MPD1    H2 3166   1.260   2.581   0.530 -0.5251 -1.1864  2.2842
  208MPD1    H3 3167   1.068   2.549   0.375  4.2192  1.3482 -0.4255
  208MPD1     N 3168   1.115   2.087   0.430 -0.0261 -0.1642 -0.7460
  208MPD1    H5 3169   1.170   2.030   0.494 -0.3864  1.6067  1.1562
  208MPD1    N1 3170   1.402   2.404   0.649 -0.5828  0.2564  0.0800
  208MPD1    H6 3171   1.407   2.501   0.679 -3.4574  0.0283  1.2377
  208MPD1    H7 3172   1.404   2.338   0.726  0.3909 -1.6461 -1.5753
  209MPD1     C 3173   2.823   2.504  11.903 -0.0611  0.3579 -0.0955
  209MPD1    C1 3174   2.838   2.642  11.924 -0.1534 -0.2199  0.6213
  209MPD1    C2 3175   2.887   2.712  11.816  0.4580 -0.4354 -0.1364
  209MPD1    C3 3176   2.934   2.652  11.702  0.0560 -0.3897 -0.1472
  209MPD1    C4 3177   2.946   2.513  11.694 -0.4157  0.0792  0.7898
  209MPD1    C5 3178   2.894   2.444  11.801 -0.0650  0.4995 -0.7458
  209MPD1     H 3179   2.883   2.820  11.816 -0.0183 -0.4557  0.9644
  209MPD1    H1 3180   2.983   2.470  11.602  0.4774  2.5868 -0.0191
  209MPD1    H2 3181   2.776   2.440  11.977 -1.4031  1.6155  0.1239
  209MPD1    H3 3182   2.893   2.336  11.800  0.7186  0.4748  1.0662
  209MPD1     N 3183   2.976   2.739  11.602 -0.1835  0.3948  0.7237
  209MPD1    H5 3184   2.960   2.839  11.610  0.4371  0.7267 -2.3275
  209MPD1    N1 3185   2.785   2.700  12.040 -0.3986 -0.5792 -0.0720
  209MPD1    H6 3186   2.827   2.790  12.063 -1.3316 -0.5598  1.5724
  209MPD1    H7 3187   2.786   2.638  12.120  1.0734  1.2485  1.3119
  210MPD1     C 3188   3.109   3.472  11.816 -0.1531 -1.1909  0.9791
  210MPD1    C1 3189   3.183   3.498  11.705 -0.4251 -0.7300 -0.8762
  210MPD1    C2 3190   3.188   3.395  11.608 -0.0747  0.0276 -0.7287
  210MPD1    C3 3191   3.130   3.271  11.635  0.7883 -0.0204  0.8133
  210MPD1    C4 3192   3.074   3.241  11.756 -0.1163  0.4176 -0.6895
  210MPD1    C5 3193   3.051   3.345  11.840  0.3605 -0.5609  0.0532
  210MPD1     H 3194   3.248   3.403  11.518  0.9785 -0.6072 -0.0923
  210MPD1    H1 3195   3.041   3.141  11.780  0.3223  0.5156  0.3054
  210MPD1    H2 3196   3.086   3.551  11.887  0.0015  1.1524 -1.5705
  210MPD1    H3 3197   3.001   3.330  11.935 -1.7011 -0.4672 -1.0231
  210MPD1     N 3198   3.126   3.164  11.548  0.2384 -0.1249  0.4170
  210MPD1    H5 3199   3.073   3.083  11.579  0.8732 -0.4382  0.7034
  210MPD1    N1 3200   3.213   3.631  11.679  0.2318  0.0562  0.4025
  210MPD1    H6 3201   3.278   3.638  11.601  1.7753  1.2605  1.8073
  210MPD1    H7 3202   3.251   3.681  11.759  1.8917 -0.9234  0.2140
  211MPD1     C 3203   0.750   1.685  15.405  0.0838 -0.0173  0.1934
  211MPD1    C1 3204   0.622   1.678  15.358  0.8224  0.4118  0.3775
  211MPD1    C2 3205   0.526   1.761  15.409 -0.0735 -0.6240  0.0625
  211MPD1    C3 3206   0.556   1.862  15.502 -0.4513 -0.7640  1.1518
  211MPD1    C4 3207   0.684   1.877  15.539  0.0807  0.4250 -0.6288
  211MPD1    C5 3208   0.781   1.792  15.488  0.2799 -0.7234 -0.9092
  211MPD1     H 3209   0.422   1.735  15.391  0.6840 -1.8090 -2.5664
  211MPD1    H1 3210   0.722   1.948  15.612  0.8924 -0.1468 -0.4893
  211MPD1    H2 3211   0.830   1.617  15.378  0.6305  0.4162  0.7301
  211MPD1    H3 3212   0.882   1.799  15.527  0.2042 -2.4026 -0.4266
  211MPD1     N 3213   0.451   1.934  15.561 -0.4480  0.4601 -0.2601
  211MPD1    H5 3214   0.358   1.910  15.528 -0.8770  0.1217  1.1901
  211MPD1    N1 3215   0.585   1.566  15.287  0.2479  0.9265  0.0260
  211MPD1    H6 3216   0.509   1.579  15.221 -0.7382 -0.1916  0.9311
  211MPD1    H7 3217   0.660   1.511  15.244  1.9956  0.7806  3.2737
  212MPD1     C 3218   4.269   0.630  16.114 -0.1070 -0.3103 -0.9538
  212MPD1    C1 3219   4.197   0.702  16.210  0.4224 -0.6384 -0.0980
  212MPD1    C2 3220   4.132   0.637  16.313  0.1238 -0.7120  0.0793
  212MPD1    C3 3221   4.160   0.512  16.342 -0.2484 -0.1229 -0.3434
  212MPD1    C4 3222   4.248   0.437  16.260  0.3952 -0.4343  0.4938
  212MPD1    C5 3223   4.289   0.494  16.137  0.3445 -0.5028 -0.4425
  212MPD1     H 3224   4.070   0.693  16.382  0.1103  0.3853 -0.8305
  212MPD1    H1 3225   4.262   0.331  16.276  0.6439 -0.1438  2.1823
  212MPD1    H2 3226   4.313   0.673  16.025  1.8092  1.5172  0.8951
  212MPD1    H3 3227   4.342   0.436  16.063  1.1946 -0.3768  0.0692
  212MPD1     N 3228   4.093   0.436  16.441  0.0509  0.1773  0.8119
  212MPD1    H5 3229   4.115   0.337  16.438  1.9297  0.5833  1.3551
  212MPD1    N1 3230   4.183   0.840  16.193  0.3609 -0.6185 -0.1795
  212MPD1    H6 3231   4.261   0.878  16.139  1.6523 -2.0963  0.6374
  212MPD1    H7 3232   4.186   0.899  16.276 -1.9191  1.0118 -1.2640
  213MPD1     C 3233   2.796   0.879  15.166  0.4463  0.5342 -0.5616
  213MPD1    C1 3234   2.669   0.861  15.231 -0.0882 -0.7535 -0.1902
  213MPD1    C2 3235   2.600   0.978  15.242 -0.0708  0.5244 -1.0308
  213MPD1    C3 3236   2.658   1.101  15.216 -0.5105  0.4602 -0.2706
  213MPD1    C4 3237   2.790   1.121  15.177  0.4463  0.0856  0.1331
  213MPD1    C5 3238   2.855   1.004  15.162 -0.1247 -0.1819  0.4968
  213MPD1     H 3239   2.496   0.971  15.271  0.1515  2.6218  0.2504
  213MPD1    H1 3240   2.835   1.218  15.156  1.3266 -0.3576 -0.0107
  213MPD1    H2 3241   2.852   0.787  15.152 -1.2420 -0.7616  1.3065
  213MPD1    H3 3242   2.956   1.011  15.123 -0.0279 -0.5006  0.6942
  213MPD1     N 3243   2.572   1.214  15.223  0.2035  0.0181 -0.3695
  213MPD1    H5 3244   2.473   1.198  15.241  0.1351 -1.2607 -1.9190
  213MPD1    N1 3245   2.605   0.737  15.224 -0.3332 -1.2334  0.0352
  213MPD1    H6 3246   2.532   0.725  15.294  0.3638 -2.3876  0.5711
  213MPD1    H7 3247   2.669   0.658  15.225 -0.9444 -1.7241  0.8241
  214MPD1     C 3248   1.748   0.992  15.256 -0.2647 -0.4607 -0.3711
  214MPD1    C1 3249   1.877   0.950  15.258  0.2325 -0.0283  0.1824
  214MPD1    C2 3250   1.982   1.045  15.231  0.1496  0.1164 -0.0396
  214MPD1    C3 3251   1.949   1.179  15.214 -0.0857  0.8621  0.1334
  214MPD1    C4 3252   1.820   1.213  15.194 -0.8828  0.2714 -0.0347
  214MPD1    C5 3253   1.717   1.122  15.219  0.7405  0.0860 -0.2248
  214MPD1     H 3254   2.087   1.020  15.234 -0.3011 -1.5660  1.4785
  214MPD1    H1 3255   1.783   1.305  15.151  0.1251  0.9313  0.5329
  214MPD1    H2 3256   1.669   0.919  15.263 -0.3684 -0.3286 -0.1557
  214MPD1    H3 3257   1.614   1.150  15.205  0.2992 -2.1132 -1.3256
  214MPD1     N 3258   2.040   1.289  15.207  0.0299 -0.0651  0.0360
  214MPD1    H5 3259   2.007   1.381  15.180  1.4613 -0.2257 -2.2501
  214MPD1    N1 3260   1.893   0.810  15.247  0.1485  0.1684 -0.4277
  214MPD1    H6 3261   1.987   0.786  15.278 -0.8627  0.8621  3.2090
  214MPD1    H7 3262   1.829   0.760  15.308  0.9486 -1.0633 -0.6006
  215MPD1     C 3263   2.646   1.727  10.709 -0.4140 -0.3618  0.4078
  215MPD1    C1 3264   2.688   1.788  10.824 -0.1235 -0.3202 -0.0856
  215MPD1    C2 3265   2.679   1.931  10.839  0.0040 -0.3025  0.3077
  215MPD1    C3 3266   2.643   2.006  10.730 -0.3866  0.6359 -0.1654
  215MPD1    C4 3267   2.608   1.941  10.606 -0.4189 -0.4574  0.1363
  215MPD1    C5 3268   2.602   1.802  10.602 -0.0918  0.1441  0.0895
  215MPD1     H 3269   2.706   1.980  10.931  0.3944 -1.2436  0.6933
  215MPD1    H1 3270   2.564   1.989  10.520 -1.5728 -0.6364  0.6249
  215MPD1    H2 3271   2.641   1.619  10.700 -2.9153  0.0070 -2.5145
  215MPD1    H3 3272   2.560   1.750  10.516  0.0096  0.5134 -0.1839
  215MPD1     N 3273   2.649   2.145  10.726  0.3364 -0.1776 -0.2260
  215MPD1    H5 3274   2.668   2.184  10.817 -0.6491  0.1399 -0.1545
  215MPD1    N1 3275   2.725   1.713  10.937 -0.7765 -0.3760  0.1238
  215MPD1    H6 3276   2.797   1.752  10.997 -0.0902 -0.7076 -0.4839
  215MPD1    H7 3277   2.751   1.615  10.927  2.0209  0.4837 -0.9357
  216MPD1     C 3278   0.174   4.127  16.638  0.4628  0.6358 -0.6816
  216MPD1    C1 3279   0.237   4.024  16.698  0.3439  0.0972 -0.0040
  216MPD1    C2 3280   0.169   3.901  16.698  0.3926 -0.2608 -0.7933
  216MPD1    C3 3281   0.044   3.888  16.638  0.6457  0.1922  0.7512
  216MPD1    C4 3282   4.715   3.998  16.569 -0.2314 -0.3211  0.5794
  216MPD1    C5 3283   0.060   4.118  16.565 -0.3870 -0.1457 -0.0597
  216MPD1     H 3284   0.208   3.815  16.752 -1.5435 -0.1194  0.8333
  216MPD1    H1 3285   4.622   3.986  16.513 -0.8565  0.3488  1.4890
  216MPD1    H2 3286   0.216   4.226  16.653 -1.3165  1.5686 -1.8283
  216MPD1    H3 3287   0.011   4.206  16.524  0.7999 -0.3500 -1.9470
  216MPD1     N 3288   4.713   3.760  16.655  0.8461  0.2550 -0.8172
  216MPD1    H5 3289   0.034   3.696  16.718  0.8064 -0.6244 -1.6809
  216MPD1    N1 3290   0.334   4.032  16.795 -0.3248  0.4487  0.4621
  216MPD1    H6 3291   0.405   4.104  16.781  1.1441 -0.9250  0.8577
  216MPD1    H7 3292   0.383   3.943  16.797  1.6530  1.5004 -1.4513
  217MPD1     C 3293   0.029   1.833   8.089  0.4464  0.0334  0.1769
  217MPD1    C1 3294   4.682   1.885   8.199 -0.0613  0.0747 -0.6123
  217MPD1    C2 3295   0.012   1.873   8.326  0.2467  0.6205  0.1636
  217MPD1    C3 3296   0.128   1.803   8.350  0.3264  0.5028  0.9364
  217MPD1    C4 3297   0.202   1.756   8.242  0.1054 -0.3804 -0.2865
  217MPD1    C5 3298   0.152   1.777   8.114  1.1913  0.1413 -0.0840
  217MPD1     H 3299   4.679   1.926   8.399 -0.5546 -0.3269  0.2052
  217MPD1    H1 3300   0.302   1.717   8.255  0.0258 -0.3745  0.3420
  217MPD1    H2 3301   0.000   1.852   7.986  0.3475 -1.1203 -0.0082
  217MPD1    H3 3302   0.210   1.723   8.040  0.8657 -0.6262  0.2237
  217MPD1     N 3303   0.192   1.801   8.474  0.0237 -0.1975  0.2823
  217MPD1    H5 3304   0.277   1.746   8.476 -0.1352 -0.4388  0.3585
  217MPD1    N1 3305   4.570   1.959   8.177 -0.2335 -0.4608 -0.7382
  217MPD1    H6 3306   4.522   1.913   8.101 -0.4045 -0.6217 -0.5315
  217MPD1    H7 3307   4.508   1.955   8.258 -0.3535  0.9371 -0.7549
  218MPD1     C 3308   1.852   3.024  12.305 -0.4227 -0.1315 -0.4100
  218MPD1    C1 3309   1.897   2.923  12.387  0.1578 -0.9981  0.5708
  218MPD1    C2 3310   2.019   2.868  12.366  0.4650  1.0743 -0.2468
  218MPD1    C3 3311   2.101   2.899  12.259  0.0740  0.2509 -0.5078
  218MPD1    C4 3312   2.065   3.008  12.180  0.5749 -0.9469 -0.4299
  218MPD1    C5 3313   1.939   3.067  12.204 -0.0298  0.1450 -0.5803
  218MPD1     H 3314   2.049   2.789  12.434  0.3086  2.7081  1.7045
  218MPD1    H1 3315   2.122   3.042  12.094 -0.8757 -3.5923 -2.4205
  218MPD1    H2 3316   1.753   3.068  12.318 -1.2771 -2.1670 -0.0449
  218MPD1    H3 3317   1.905   3.137  12.128  0.5051 -0.4619 -1.3754
  218MPD1     N 3318   2.232   2.833  12.268 -0.1000  0.7090 -0.0831
  218MPD1    H5 3319   2.239   2.754  12.332  1.3475  0.6828 -0.2708
  218MPD1    N1 3320   1.824   2.887  12.502 -0.0151 -0.1281 -0.6874
  218MPD1    H6 3321   1.722   2.890  12.501 -0.0787 -3.2935 -0.6319
  218MPD1    H7 3322   1.843   2.793  12.535 -0.3080  0.9054  2.3945
  219MPD1     C 3323   3.269   3.088  12.370  0.0765 -0.0923  0.5989
  219MPD1    C1 3324   3.190   3.113  12.266 -0.4120  0.2418  0.0037
  219MPD1    C2 3325   3.067   3.048  12.259  0.3140 -0.1155 -0.4786
  219MPD1    C3 3326   3.015   2.983  12.372  0.1241 -0.4792 -0.0271
  219MPD1    C4 3327   3.094   2.963  12.484 -0.0210  0.7518 -0.6281
  219MPD1    C5 3328   3.215   3.019  12.479  0.3541 -0.3435 -0.7141
  219MPD1     H 3329   2.997   3.058  12.177 -0.8998 -1.9351  0.3127
  219MPD1    H1 3330   3.060   2.908  12.572  2.7572  0.5378  0.3056
  219MPD1    H2 3331   3.374   3.112  12.386  0.6275 -1.1076 -1.5473
  219MPD1    H3 3332   3.287   3.004  12.559  1.3626  0.3563 -1.4831
  219MPD1     N 3333   2.893   2.916  12.378 -0.0027  0.5776 -0.1792
  219MPD1    H5 3334   2.857   2.883  12.467  2.3072  1.0128  0.9187
  219MPD1    N1 3335   3.243   3.181  12.157  0.1961 -0.5117  0.4831
  219MPD1    H6 3336   3.317   3.245  12.185  0.5787  0.0438 -1.7843
  219MPD1    H7 3337   3.185   3.235  12.094 -0.2656  0.7701  1.9972
  220MPD1     C 3338   2.421   2.114   9.270  0.3779  0.1455 -0.3213
  220MPD1    C1 3339   2.464   2.245   9.254 -0.6685 -0.1671  0.3295
  220MPD1    C2 3340   2.411   2.339   9.341 -0.1175  0.0973 -0.4030
  220MPD1    C3 3341   2.337   2.311   9.457  0.8551 -0.1177 -0.3231
  220MPD1    C4 3342   2.304   2.178   9.470  0.2222 -0.5210  0.0301
  220MPD1    C5 3343   2.342   2.085   9.376  0.5578 -0.1373 -0.3110
  220MPD1     H 3344   2.439   2.441   9.317 -0.8357  0.5212  0.5451
  220MPD1    H1 3345   2.246   2.132   9.549  1.7864  3.1587  3.3771
  220MPD1    H2 3346   2.449   2.032   9.204 -1.0343 -0.9657  0.4470
  220MPD1    H3 3347   2.306   1.983   9.385 -2.0542  1.0815  2.9375
  220MPD1     N 3348   2.267   2.402   9.540 -0.1697  0.0333  0.0681
  220MPD1    H5 3349   2.204   2.372   9.614 -1.1767  0.0607 -0.7743
  220MPD1    N1 3350   2.543   2.279   9.144 -0.3433 -0.5301  0.2054
  220MPD1    H6 3351   2.609   2.202   9.129 -1.2912 -1.3940  0.4978
  220MPD1    H7 3352   2.594   2.366   9.160  0.8853 -1.1366 -0.3929
  221MPD1     C 3353   4.123   1.527  16.407  0.1441  0.0871 -0.2640
  221MPD1    C1 3354   4.189   1.580  16.514  0.1783  0.6053 -0.3017
  221MPD1    C2 3355   4.328   1.556  16.523  0.2914 -0.8890  0.0974
  221MPD1    C3 3356   4.396   1.497  16.416 -0.0919  0.3109  0.2972
  221MPD1    C4 3357   4.320   1.448  16.313 -0.0578  0.3812  1.0079
  221MPD1    C5 3358   4.188   1.465  16.307  0.6513 -0.4628  0.1833
  221MPD1     H 3359   4.385   1.601  16.603  0.2018 -0.4531 -0.0884
  221MPD1    H1 3360   4.366   1.391  16.233  0.5141  3.9964 -1.2446
  221MPD1    H2 3361   4.015   1.531  16.400  0.2687  1.2189 -1.5396
  221MPD1    H3 3362   4.144   1.444  16.210 -0.2010  0.1619  0.4460
  221MPD1     N 3363   4.537   1.487  16.403 -0.9252  0.6682 -0.6165
  221MPD1    H5 3364   4.581   1.443  16.323  0.7141 -1.6992  1.5509
  221MPD1    N1 3365   4.119   1.635  16.620 -0.4120 -0.3514  0.0740
  221MPD1    H6 3366   4.174   1.710  16.662  0.5006 -0.9142 -0.1105
  221MPD1    H7 3367   4.032   1.682  16.594  0.1611  0.2754 -0.7558
  222MPD1     C 3368   4.504   4.372  16.685 -0.0246  0.3402  0.2405
  222MPD1    C1 3369   4.572   4.459  16.770  0.2804  0.5015 -0.4612
  222MPD1    C2 3370   4.530   4.594  16.770  0.0135  0.2021 -0.3723
  222MPD1    C3 3371   4.415   4.632  16.712  0.0004  0.4336  0.3548
  222MPD1    C4 3372   4.353   4.548  16.630  0.3995  0.2912 -0.6148
  222MPD1    C5 3373   4.393   4.417  16.612 -0.7459  1.0851 -0.0702
  222MPD1     H 3374   4.578   4.663  16.839 -1.4090  0.7716  0.0508
  222MPD1    H1 3375   4.258   4.574  16.585  0.3991 -0.7780 -1.2307
  222MPD1    H2 3376   4.553   4.275  16.674 -0.6336 -0.1948  2.1695
  222MPD1    H3 3377   4.338   4.353  16.544  1.3585  3.4152 -3.9932
  222MPD1     N 3378   4.357   0.036  16.724 -0.1439  0.2764  0.3058
  222MPD1    H5 3379   4.279   0.062  16.664  0.3427  1.5498  0.2345
  222MPD1    N1 3380   4.692   4.416  16.833  0.3524 -0.1679  0.0147
  222MPD1    H6 3381   4.720   4.464  16.918 -1.7458  0.5284  0.3237
  222MPD1    H7 3382   4.685   4.318  16.862 -0.5478  0.3607  1.5651
  223MPD1     C 3383   3.730   4.661  17.243  0.0494  0.5442  0.1188
  223MPD1    C1 3384   3.853   4.604  17.225  0.4646 -0.5660  0.3938
  223MPD1    C2 3385   3.936   4.672  17.133 -0.4055 -0.7017  0.1695
  223MPD1    C3 3386   3.904   0.070  17.082 -0.2245  0.7662  0.0338
  223MPD1    C4 3387   3.775   0.119  17.101  0.2673  0.6279 -0.6960
  223MPD1    C5 3388   3.690   0.058  17.192 -0.7951 -0.3582  0.2730
  223MPD1     H 3389   4.032   4.629  17.107 -0.5515 -2.6683  2.9262
  223MPD1    H1 3390   3.745   0.209  17.049 -2.9070  1.7437  3.0961
  223MPD1    H2 3391   3.667   4.618  17.320 -2.5414  3.3493 -0.4270
  223MPD1    H3 3392   3.592   0.102  17.210 -1.2737 -1.5061  0.5340
  223MPD1     N 3393   4.001   0.136  17.005 -0.5291 -0.1594 -0.0937
  223MPD1    H5 3394   4.078   0.077  16.976 -0.1064  1.1389 -1.6073
  223MPD1    N1 3395   3.876   4.474  17.277 -0.0252 -0.2262 -0.0170
  223MPD1    H6 3396   3.826   4.443  17.359  1.0480  0.0707  0.7477
  223MPD1    H7 3397   3.974   4.451  17.293  0.6129  1.2843 -1.8191
  224MPD1     C 3398   1.626   2.592   9.101  0.3735 -0.6025  0.7292
  224MPD1    C1 3399   1.509   2.650   9.136 -0.0307 -0.1247  0.4535
  224MPD1    C2 3400   1.418   2.568   9.199  0.2455  0.5424 -0.1210
  224MPD1    C3 3401   1.447   2.442   9.248  0.5176 -0.4496 -0.1129
  224MPD1    C4 3402   1.572   2.398   9.225  0.0503  0.2890  0.1666
  224MPD1    C5 3403   1.654   2.470   9.147  0.4266  0.3149 -0.0708
  224MPD1     H 3404   1.318   2.607   9.208 -0.2912 -1.1320  1.1195
  224MPD1    H1 3405   1.610   2.305   9.267  0.0639  0.2627  0.0958
  224MPD1    H2 3406   1.701   2.652   9.050 -1.2202  0.0809 -0.7658
  224MPD1    H3 3407   1.751   2.426   9.127  0.7914  0.8859  0.4363
  224MPD1     N 3408   1.353   2.357   9.305  0.6136 -0.2537  0.1519
  224MPD1    H5 3409   1.394   2.272   9.342 -1.6776 -1.3255  0.2211
  224MPD1    N1 3410   1.464   2.779   9.086 -0.1140  0.1571 -0.1872
  224MPD1    H6 3411   1.389   2.816   9.143  1.2264 -0.0389  1.7119
  224MPD1    H7 3412   1.542   2.845   9.085  0.1797 -0.1811  0.2796
  225MPD1     C 3413   1.153   3.430  12.680  0.3915 -0.2026  0.1669
  225MPD1    C1 3414   1.199   3.518  12.582 -0.5715 -0.3309 -0.0215
  225MPD1    C2 3415   1.220   3.459  12.456 -0.5303 -0.4076  0.4718
  225MPD1    C3 3416   1.183   3.335  12.421 -0.3281 -0.1933  0.5086
  225MPD1    C4 3417   1.119   3.259  12.518 -0.6849  0.0439 -0.1733
  225MPD1    C5 3418   1.119   3.295  12.647  0.3128  0.1886 -0.1778
  225MPD1     H 3419   1.285   3.519  12.393 -0.7801  0.0130  0.6099
  225MPD1    H1 3420   1.073   3.167  12.482 -0.6230  0.0231 -0.1996
  225MPD1    H2 3421   1.149   3.461  12.783 -0.9097  0.9770 -0.2365
  225MPD1    H3 3422   1.079   3.224  12.718 -0.5294  1.7866  0.9662
  225MPD1     N 3423   1.204   3.274  12.294 -1.2093  0.0558 -0.0719
  225MPD1    H5 3424   1.161   3.183  12.278  1.3955 -1.0441 -0.8273
  225MPD1    N1 3425   1.247   3.639  12.631  0.4647  0.8144 -0.1526
  225MPD1    H6 3426   1.240   3.711  12.559 -0.7212  0.4992 -0.3499
  225MPD1    H7 3427   1.186   3.673  12.704 -0.4351  1.3769 -1.1627
  226MPD1     C 3428   0.727   2.226   8.801 -0.2549  0.2337 -0.2924
  226MPD1    C1 3429   0.844   2.296   8.797  0.9473  0.1486 -0.1164
  226MPD1    C2 3430   0.848   2.424   8.851  0.3137 -0.3297  0.3840
  226MPD1    C3 3431   0.743   2.476   8.921  0.2700 -0.6256 -0.3834
  226MPD1    C4 3432   0.626   2.397   8.936  0.1979 -0.6483  0.1294
  226MPD1    C5 3433   0.626   2.275   8.870  0.5160 -0.7710  0.1742
  226MPD1     H 3434   0.933   2.487   8.826 -0.3534  1.6408  3.0091
  226MPD1    H1 3435   0.541   2.428   8.995 -0.0896  1.6903 -1.4966
  226MPD1    H2 3436   0.709   2.129   8.755  3.6249 -1.6028  2.0857
  226MPD1    H3 3437   0.538   2.212   8.874  0.5788 -0.9180 -0.7635
  226MPD1     N 3438   0.757   2.607   8.972 -0.1427  0.4493 -0.1470
  226MPD1    H5 3439   0.853   2.641   8.973  0.3325 -0.8659 -0.4826
  226MPD1    N1 3440   0.951   2.258   8.716  0.0121 -0.0574 -0.3704
  226MPD1    H6 3441   1.041   2.282   8.757  0.9620 -1.2367 -1.7742
  226MPD1    H7 3442   0.941   2.159   8.693 -1.2790  0.2071 -0.9700
  227MPD1     C 3443   0.317   3.566   8.806  0.1604 -0.6129 -0.2090
  227MPD1    C1 3444   0.425   3.600   8.875  0.6588 -0.7133  0.5676
  227MPD1    C2 3445   0.499   3.498   8.934 -0.2781 -0.2075  0.0474
  227MPD1    C3 3446   0.462   3.368   8.916  0.0085  0.4482 -0.7448
  227MPD1    C4 3447   0.345   3.333   8.861  0.1070 -0.3981  0.2861
  227MPD1    C5 3448   0.275   3.434   8.804  0.5904  0.2131  1.0822
  227MPD1     H 3449   0.584   3.521   8.997 -1.5944  0.0741  1.6940
  227MPD1    H1 3450   0.309   3.231   8.858 -0.6467 -0.1309  0.0613
  227MPD1    H2 3451   0.253   3.636   8.753  2.7472  0.1975 -2.2891
  227MPD1    H3 3452   0.181   3.403   8.760  0.6303  3.2196 -1.1018
  227MPD1     N 3453   0.543   3.267   8.977 -0.0236  0.7649  0.1468
  227MPD1    H5 3454   0.637   3.292   9.008  0.2091 -1.4517  1.2990
  227MPD1    N1 3455   0.464   3.733   8.892  0.1106  0.1077  0.5099
  227MPD1    H6 3456   0.437   3.783   8.808 -0.5697  1.1482  1.3485
  227MPD1    H7 3457   0.565   3.746   8.894  0.3061 -1.3634 -0.0720
  228MPD1     C 3458   3.715   0.291  13.413 -0.1742  1.1089  0.1318
  228MPD1    C1 3459   3.590   0.239  13.416 -0.3529 -0.8135  0.3960
  228MPD1    C2 3460   3.483   0.306  13.357 -0.5369 -1.0003  0.3343
  228MPD1    C3 3461   3.500   0.436  13.306 -0.0196 -0.4263 -0.1011
  228MPD1    C4 3462   3.629   0.486  13.315  0.0648 -0.0812  0.0134
  228MPD1    C5 3463   3.729   0.417  13.371 -0.2439  0.4058  0.6675
  228MPD1     H 3464   3.383   0.263  13.358 -0.8439 -0.2568  2.6534
  228MPD1    H1 3465   3.652   0.589  13.289  0.9290 -0.4053 -0.5121
  228MPD1    H2 3466   3.796   0.239  13.461 -0.4446 -0.4468 -1.0949
  228MPD1    H3 3467   3.821   0.468  13.399 -0.9989  1.6503  0.9138
  228MPD1     N 3468   3.394   0.501  13.238 -0.2309 -0.0306  0.3609
  228MPD1    H5 3469   3.304   0.456  13.238  0.3005 -1.0956 -0.0205
  228MPD1    N1 3470   3.581   0.107  13.456  1.1111 -0.0906 -0.0267
  228MPD1    H6 3471   3.621   0.092  13.548 -0.5593 -1.5171  0.4597
  228MPD1    H7 3472   3.490   0.061  13.461  2.3716 -2.4801  1.0534
  229MPD1     C 3473   3.105   4.430  14.752 -0.0060 -0.4577  0.1853
  229MPD1    C1 3474   3.063   4.350  14.857  0.8325 -0.0548 -0.1406
  229MPD1    C2 3475   3.127   4.227  14.874 -0.3066  0.0441 -0.3561
  229MPD1    C3 3476   3.231   4.186  14.793  1.0024 -0.3391 -0.3422
  229MPD1    C4 3477   3.265   4.270  14.687  0.0300  0.3413  0.2632
  229MPD1    C5 3478   3.208   4.391  14.674  0.5856 -0.0976  0.4245
  229MPD1     H 3479   3.095   4.164  14.957 -0.4619 -0.1152 -0.5373
  229MPD1    H1 3480   3.338   4.241  14.612 -0.4219 -2.4993  0.9358
  229MPD1    H2 3481   3.047   4.512  14.712  1.5496  1.5987  2.1213
  229MPD1    H3 3482   3.241   4.440  14.583  0.0918 -0.0960  0.2450
  229MPD1     N 3483   3.299   4.068  14.814  0.0669  0.3354 -0.2161
  229MPD1    H5 3484   3.376   4.052  14.750  0.7524 -1.0801  0.9719
  229MPD1    N1 3485   2.942   4.390  14.918  0.1230  0.0432 -0.6398
  229MPD1    H6 3486   2.904   4.480  14.891 -0.9053  0.3070  1.6268
  229MPD1    H7 3487   2.934   4.379  15.019  3.7989 -2.1854 -0.5830
  230MPD1     C 3488   3.984   3.789  15.521  0.2526  0.1051 -0.6983
  230MPD1    C1 3489   4.023   3.720  15.410  1.0894 -0.2024 -0.2916
  230MPD1    C2 3490   3.928   3.689  15.317 -0.1295 -0.0328 -0.4337
  230MPD1    C3 3491   3.802   3.741  15.322  0.2388 -0.6905 -0.4404
  230MPD1    C4 3492   3.757   3.800  15.442 -0.0636 -0.2062 -0.4490
  230MPD1    C5 3493   3.850   3.824  15.537 -0.5771  0.7533  0.2765
  230MPD1     H 3494   3.956   3.639  15.224 -0.7280  0.8491 -1.0856
  230MPD1    H1 3495   3.657   3.840  15.452 -1.1984 -2.4067 -3.0354
  230MPD1    H2 3496   4.060   3.816  15.594 -1.6866 -2.6812  2.3677
  230MPD1    H3 3497   3.824   3.880  15.627  0.8745  1.3625  0.3030
  230MPD1     N 3498   3.720   3.729  15.212  0.0965 -0.4794 -0.4563
  230MPD1    H5 3499   3.751   3.672  15.134  1.6857 -1.4500  0.9035
  230MPD1    N1 3500   4.150   3.660  15.403 -0.8091 -0.5197 -0.0772
  230MPD1    H6 3501   4.171   3.633  15.307  4.4257 -0.4062  0.9871
  230MPD1    H7 3502   4.222   3.716  15.449 -0.4682  0.6347 -2.0002
  231MPD1     C 3503   0.947   1.186  15.232 -0.3431  0.4240 -0.5978
  231MPD1    C1 3504   0.984   1.137  15.109  0.6352 -0.2309  0.3526
  231MPD1    C2 3505   1.104   1.170  15.052  0.2624 -1.4306 -0.1861
  231MPD1    C3 3506   1.182   1.256  15.121  0.4408 -0.6793  0.1625
  231MPD1    C4 3507   1.142   1.312  15.239 -0.0451  0.7528 -0.3164
  231MPD1    C5 3508   1.019   1.280  15.294  0.2074  0.3923  0.4433
  231MPD1     H 3509   1.149   1.114  14.971  0.1083 -1.9002  0.0591
  231MPD1    H1 3510   1.201   1.388  15.290  2.2231 -1.5028  0.4114
  231MPD1    H2 3511   0.854   1.157  15.280  0.0823  2.5752  1.4864
  231MPD1    H3 3512   0.998   1.319  15.393  1.0535 -0.2899  0.8857
  231MPD1     N 3513   1.307   1.294  15.058 -0.2722 -0.0852 -0.2006
  231MPD1    H5 3514   1.326   1.245  14.971  0.2043 -0.7328  0.2712
  231MPD1    N1 3515   0.906   1.031  15.059  0.8786 -0.6093 -0.2092
  231MPD1    H6 3516   0.807   1.054  15.056  1.0723  0.2365 -0.1000
  231MPD1    H7 3517   0.939   1.012  14.965  0.9530  0.4888 -0.4037
  232MPD1     C 3518   3.533   4.239   0.086  0.3527  0.0656  0.3531
  232MPD1    C1 3519   3.394   4.256   0.084 -0.2469 -0.3557 -0.0458
  232MPD1    C2 3520   3.335   4.186  17.683  0.0028  1.0159 -0.0244
  232MPD1    C3 3521   3.404   4.125  17.579 -0.2970 -0.4090 -0.2763
  232MPD1    C4 3522   3.537   4.132  17.582 -0.3066 -0.1451  0.4669
  232MPD1    C5 3523   3.605   4.192  17.684  0.3875 -0.5445  0.1373
  232MPD1     H 3524   3.227   4.175  17.687  0.1172 -0.8785 -1.9955
  232MPD1    H1 3525   3.589   4.103  17.491 -1.1178  0.2310 -0.1108
  232MPD1    H2 3526   3.587   4.277   0.173 -2.1981  1.8309  1.1426
  232MPD1    H3 3527   3.713   4.201  17.685  0.2957  0.3381  2.1723
  232MPD1     N 3528   3.332   4.043  17.489  0.1982 -0.5519 -0.2674
  232MPD1    H5 3529   3.231   4.038  17.498  0.1746 -0.2380 -0.3649
  232MPD1    N1 3530   3.325   4.307   0.192 -0.8531 -0.0348  0.2708
  232MPD1    H6 3531   3.372   4.375   0.251  2.2025  0.6020 -2.9398
  232MPD1    H7 3532   3.241   4.357   0.162  0.5939  1.3807 -1.3681
  233MPD1     C 3533   0.825   2.700   2.569  0.1579 -0.0083  0.6133
  233MPD1    C1 3534   0.954   2.718   2.531 -0.0502  0.1727  0.4508
  233MPD1    C2 3535   1.029   2.609   2.495 -0.3038  1.1276 -0.3761
  233MPD1    C3 3536   0.972   2.487   2.498 -0.0943  0.8107 -0.4416
  233MPD1    C4 3537   0.840   2.474   2.543 -0.3285  0.2615 -0.0642
  233MPD1    C5 3538   0.770   2.581   2.576 -0.6208 -0.4297 -0.0542
  233MPD1     H 3539   1.127   2.637   2.459  0.1765 -0.4872 -0.3188
  233MPD1    H1 3540   0.800   2.373   2.550  1.1291 -0.2610  0.8159
  233MPD1    H2 3541   0.765   2.785   2.601 -0.5143 -0.4928  0.6411
  233MPD1    H3 3542   0.672   2.568   2.620 -0.6253 -2.2693 -0.5807
  233MPD1     N 3543   1.035   2.368   2.461 -0.0793  0.1659 -0.6507
  233MPD1    H5 3544   0.986   2.283   2.487  0.4721  0.8520  2.6918
  233MPD1    N1 3545   1.006   2.851   2.529  0.3419  0.6548 -0.0829
  233MPD1    H6 3546   1.103   2.851   2.559  0.9125 -0.6072 -1.8625
  233MPD1    H7 3547   0.949   2.930   2.556  0.6879  0.4684  1.1745
  234MPD1     C 3548   1.079   0.382   9.312 -0.1891 -0.1828 -0.6507
  234MPD1    C1 3549   1.185   0.460   9.368 -0.1638  0.4521 -0.3808
  234MPD1    C2 3550   1.196   0.592   9.314 -0.4334 -0.3655  0.0169
  234MPD1    C3 3551   1.108   0.654   9.226  0.1518 -0.0279  0.2823
  234MPD1    C4 3552   1.010   0.572   9.176  0.3675  0.1642 -0.2004
  234MPD1    C5 3553   0.990   0.442   9.224 -0.7817 -0.2621  0.1360
  234MPD1     H 3554   1.279   0.649   9.355 -0.4094  0.6984 -1.5139
  234MPD1    H1 3555   0.938   0.614   9.107 -0.6828  0.4213  1.0596
  234MPD1    H2 3556   1.057   0.277   9.324  0.6701 -0.1442  1.2830
  234MPD1    H3 3557   0.911   0.377   9.186 -2.8422  0.5419  2.9713
  234MPD1     N 3558   1.114   0.788   9.198  0.4708 -0.0906  0.2315
  234MPD1    H5 3559   1.195   0.839   9.232 -0.0646  1.3833 -0.6993
  234MPD1    N1 3560   1.294   0.400   9.433  0.0045  0.6042  0.1694
  234MPD1    H6 3561   1.351   0.455   9.497 -0.0397  2.0871 -1.0875
  234MPD1    H7 3562   1.263   0.319   9.487  3.2826 -0.1998  0.8161
  235MPD1     C 3563   2.849   3.190  10.590  0.3571  0.2749 -0.3053
  235MPD1    C1 3564   2.911   3.309  10.631  0.3913 -0.2923 -0.0934
  235MPD1    C2 3565   2.944   3.385  10.520 -0.6505  0.6378  0.0401
  235MPD1    C3 3566   2.898   3.355  10.389  0.0042 -0.3093  0.4420
  235MPD1    C4 3567   2.841   3.241  10.361 -0.6853 -0.2811  0.4439
  235MPD1    C5 3568   2.808   3.158  10.465 -0.1460 -0.1245  0.4827
  235MPD1     H 3569   2.993   3.475  10.555  0.5284  0.8052 -2.0241
  235MPD1    H1 3570   2.836   3.201  10.260  0.7163 -0.9822  0.6537
  235MPD1    H2 3571   2.823   3.117  10.666  0.1886  1.3969  0.7152
  235MPD1    H3 3572   2.793   3.051  10.457  3.4802 -0.6795  0.7783
  235MPD1     N 3573   2.941   3.447  10.292  0.0984 -0.2110  0.1457
  235MPD1    H5 3574   3.004   3.521  10.319 -1.4468  1.1850 -0.1100
  235MPD1    N1 3575   2.969   3.330  10.760  0.3195 -0.0385  0.7617
  235MPD1    H6 3576   2.914   3.298  10.839 -1.2415 -1.0791 -0.7445
  235MPD1    H7 3577   2.981   3.431  10.769 -1.1760  0.1921  0.1932
  236MPD1     C 3578   2.220   4.130   9.753  0.0379  0.3291  0.0142
  236MPD1    C1 3579   2.247   4.000   9.762 -0.2020  0.0778 -0.7465
  236MPD1    C2 3580   2.308   3.945   9.874  0.4677  0.1315  0.0538
  236MPD1    C3 3581   2.348   4.028   9.979  0.0728  0.3224 -0.4108
  236MPD1    C4 3582   2.338   4.163   9.964  0.6046 -0.5002 -0.1030
  236MPD1    C5 3583   2.274   4.206   9.850  0.7849 -0.0448  0.3524
  236MPD1     H 3584   2.312   3.837   9.863  0.1907  0.1782 -0.5149
  236MPD1    H1 3585   2.361   4.241  10.037  1.1840  0.1006 -0.9330
  236MPD1    H2 3586   2.152   4.167   9.677 -0.1057 -0.0172 -0.0309
  236MPD1    H3 3587   2.261   4.313   9.842  0.0890 -0.2362 -1.0372
  236MPD1     N 3588   2.392   3.976  10.102 -0.1216  0.3712  0.3417
  236MPD1    H5 3589   2.424   4.042  10.172  0.7505 -1.2824  1.4902
  236MPD1    N1 3590   2.192   3.908   9.671 -0.0807  0.6970 -0.2727
  236MPD1    H6 3591   2.166   3.947   9.581  2.4298  1.1864 -0.7976
  236MPD1    H7 3592   2.234   3.815   9.661  1.1049  0.9815  2.0439
  237MPD1     C 3593   2.389   1.776  15.393 -0.0267  0.0763  0.0487
  237MPD1    C1 3594   2.416   1.901  15.452 -0.0770  0.0846  0.5405
  237MPD1    C2 3595   2.312   1.988  15.467  0.0630  0.1964  0.1974
  237MPD1    C3 3596   2.182   1.948  15.442 -0.2814  1.0644 -0.0218
  237MPD1    C4 3597   2.161   1.824  15.390  0.3704  0.7194  0.1035
  237MPD1    C5 3598   2.262   1.735  15.377  0.4807 -0.0137  0.6638
  237MPD1     H 3599   2.333   2.086  15.507 -0.2768  1.4295 -2.6501
  237MPD1    H1 3600   2.063   1.795  15.353 -0.0810  0.2825  1.6352
  237MPD1    H2 3601   2.471   1.708  15.372  0.4045  1.1620 -1.7898
  237MPD1    H3 3602   2.247   1.643  15.322 -2.4862  0.4900  0.6261
  237MPD1     N 3603   2.071   2.036  15.440  0.7965  0.3851  0.2650
  237MPD1    H5 3604   1.980   1.991  15.435  1.1888 -0.2698 -1.0071
  237MPD1    N1 3605   2.550   1.929  15.480  0.1750  0.3256 -0.6077
  237MPD1    H6 3606   2.571   2.012  15.536  0.8128 -0.6178  0.5399
  237MPD1    H7 3607   2.614   1.852  15.498  0.8114  0.8811 -0.4739
  238MPD1     C 3608   3.510   1.553  15.493  0.4394 -0.1042  0.7909
  238MPD1    C1 3609   3.519   1.646  15.391  0.0354  0.8020 -0.4823
  238MPD1    C2 3610   3.461   1.609  15.268  0.2565 -0.4882 -0.1172
  238MPD1    C3 3611   3.383   1.496  15.255 -1.2459 -0.2445  0.5803
  238MPD1    C4 3612   3.363   1.417  15.364 -0.0735  0.2254  0.0809
  238MPD1    C5 3613   3.431   1.441  15.477  0.5921  0.0279  1.0000
  238MPD1     H 3614   3.464   1.684  15.189  0.4358 -0.0199  0.3413
  238MPD1    H1 3615   3.296   1.332  15.363  0.0598  0.1304 -1.5447
  238MPD1    H2 3616   3.557   1.569  15.589  0.0576 -0.0680  0.9707
  238MPD1    H3 3617   3.429   1.362  15.552 -2.4149 -0.2838  0.5888
  238MPD1     N 3618   3.317   1.458  15.136 -0.0372  0.1506  0.0440
  238MPD1    H5 3619   3.251   1.382  15.148  1.5704 -1.5474 -1.9401
  238MPD1    N1 3620   3.611   1.752  15.406  0.2774  0.4480  0.1925
  238MPD1    H6 3621   3.590   1.832  15.346 -0.1598  0.4813  0.3924
  238MPD1    H7 3622   3.625   1.784  15.502  1.6343  1.2199 -0.2548
  239MPD1     C 3623   4.067   2.464  14.600  0.0158 -0.2545 -0.6165
  239MPD1    C1 3624   3.971   2.561  14.575  0.3564 -0.4846  0.4253
  239MPD1    C2 3625   3.897   2.561  14.460  0.2405 -0.5383 -0.4382
  239MPD1    C3 3626   3.924   2.465  14.367 -1.3660 -0.6008  0.9629
  239MPD1    C4 3627   4.037   2.386  14.380  0.1891 -0.4887 -0.2016
  239MPD1    C5 3628   4.103   2.377  14.501 -0.5224 -0.2520  0.3973
  239MPD1     H 3629   3.813   2.629  14.455 -1.7629 -3.1196 -2.2594
  239MPD1    H1 3630   4.063   2.310  14.307  0.0265  0.4864 -1.2817
  239MPD1    H2 3631   4.123   2.460  14.693  2.0215  1.9723 -1.7067
  239MPD1    H3 3632   4.182   2.305  14.519 -0.9221 -0.5611  0.8915
  239MPD1     N 3633   3.845   2.442  14.256 -0.2840  0.2650 -0.4275
  239MPD1    H5 3634   3.864   2.363  14.195 -2.3157 -0.8485  0.3835
  239MPD1    N1 3635   3.931   2.638  14.685 -0.2086 -0.3786 -0.2588
  239MPD1    H6 3636   3.897   2.727  14.647 -1.1500 -0.9811 -0.8256
  239MPD1    H7 3637   3.995   2.656  14.762  0.3252 -1.3980 -0.4833
  240MPD1     C 3638   3.146   2.209  13.959 -0.5938  0.2132 -0.9788
  240MPD1    C1 3639   3.029   2.137  13.931 -0.2222  0.7761 -0.7859
  240MPD1    C2 3640   2.976   2.054  14.033  0.2135 -0.1491 -0.7019
  240MPD1    C3 3641   3.028   2.056  14.162 -0.1669  0.3805 -0.4076
  240MPD1    C4 3642   3.138   2.145  14.190  0.3030  0.4307  0.0522
  240MPD1    C5 3643   3.191   2.225  14.093  0.6095 -0.1681  0.6035
  240MPD1     H 3644   2.892   1.988  14.013 -0.7281  0.4140  1.4817
  240MPD1    H1 3645   3.178   2.158  14.290 -1.1536  1.0789  0.5528
  240MPD1    H2 3646   3.182   2.272  13.879 -0.9010 -1.3250 -2.3318
  240MPD1    H3 3647   3.282   2.278  14.118 -0.4861  2.0171 -0.0410
  240MPD1     N 3648   2.959   1.970  14.254  0.6008  0.1560 -0.0142
  240MPD1    H5 3649   2.889   1.909  14.213 -0.1326  1.5551 -0.8409
  240MPD1    N1 3650   2.974   2.142  13.802  0.6679  0.3650  0.1309
  240MPD1    H6 3651   2.998   2.233  13.764  0.8714  0.2286 -0.0651
  240MPD1    H7 3652   3.021   2.072  13.746 -0.3939  0.4894 -0.9211
  241MPD1     C 3653   3.118   1.709  15.239  0.1707  0.3153 -0.5551
  241MPD1    C1 3654   3.024   1.626  15.193 -0.4564 -0.1048  0.0850
  241MPD1    C2 3655   2.965   1.641  15.070  0.4634  0.3960 -1.1468
  241MPD1    C3 3656   3.011   1.742  14.981  0.5680 -0.4450 -0.5716
  241MPD1    C4 3657   3.113   1.824  15.024 -0.6158 -0.0763  0.3208
  241MPD1    C5 3658   3.168   1.801  15.147 -0.2077  0.5266 -0.0995
  241MPD1     H 3659   2.892   1.568  15.036 -0.7745  0.7593  0.7351
  241MPD1    H1 3660   3.164   1.898  14.964  0.7206 -1.7054 -0.5586
  241MPD1    H2 3661   3.171   1.693  15.332 -1.6456 -2.2583  0.0185
  241MPD1    H3 3662   3.257   1.858  15.173  0.3767  0.1954 -1.3776
  241MPD1     N 3663   2.961   1.770  14.847 -0.3420  0.6007 -0.1760
  241MPD1    H5 3664   3.009   1.843  14.795  0.0779  1.6048  1.6126
  241MPD1    N1 3665   2.975   1.527  15.274  0.2651  0.2306  0.3903
  241MPD1    H6 3666   2.926   1.454  15.222  0.5964  0.7800 -0.6684
  241MPD1    H7 3667   3.049   1.484  15.329 -0.9917 -2.1882  0.1948
  242MPD1     C 3668   2.472   0.249  15.670  0.5082  0.0493 -0.5265
  242MPD1    C1 3669   2.438   0.327  15.562 -1.2568 -0.4303 -0.8902
  242MPD1    C2 3670   2.448   0.269  15.436 -0.7477 -0.3754  0.3520
  242MPD1    C3 3671   2.467   0.129  15.423 -0.9740 -0.4598 -0.6350
  242MPD1    C4 3672   2.501   0.056  15.534 -0.5144  0.3693  0.3264
  242MPD1    C5 3673   2.492   0.116  15.657 -0.0800  0.1514  0.2497
  242MPD1     H 3674   2.446   0.329  15.345  0.8189 -1.5481 -0.4548
  242MPD1    H1 3675   2.528   4.677  15.526  0.0746  0.5745 -0.4594
  242MPD1    H2 3676   2.482   0.277  15.775 -1.4663 -2.3170  0.2787
  242MPD1    H3 3677   2.504   0.053  15.745 -1.3242  1.3952  1.3115
  242MPD1     N 3678   2.477   0.063  15.298 -0.2689 -0.2970 -0.5548
  242MPD1    H5 3679   2.522   4.698  15.299 -1.8316 -1.0763 -1.1396
  242MPD1    N1 3680   2.444   0.466  15.579  0.4033 -0.1851 -0.2597
  242MPD1    H6 3681   2.415   0.495  15.672 -0.2595  2.4263 -1.2898
  242MPD1    H7 3682   2.401   0.529  15.512 -1.0048 -0.8918 -0.0071
  243MPD1     C 3683   4.592   2.844  17.375  0.3375 -0.2588  0.4667
  243MPD1    C1 3684   4.587   2.983  17.371 -0.3825 -0.5056 -0.2835
  243MPD1    C2 3685   4.536   3.042  17.260 -0.1893 -0.1273 -0.3117
  243MPD1    C3 3686   4.480   2.968  17.155  0.3042 -0.9290  0.8144
  243MPD1    C4 3687   4.481   2.832  17.158  0.2423 -0.6487  0.1065
  243MPD1    C5 3688   4.530   2.772  17.272  0.4352 -0.1776  0.4222
  243MPD1     H 3689   4.520   3.150  17.258  0.8644  0.0153 -0.6315
  243MPD1    H1 3690   4.443   2.765  17.082 -1.4858 -1.4088  1.6335
  243MPD1    H2 3691   4.639   2.781  17.449  0.2113  0.3190  1.0378
  243MPD1    H3 3692   4.544   2.664  17.276 -2.2324 -0.5032  1.0795
  243MPD1     N 3693   4.432   3.043  17.044 -0.6888 -0.2603 -0.4899
  243MPD1    H5 3694   4.431   3.143  17.064  0.1385  0.2225 -2.9037
  243MPD1    N1 3695   4.653   3.064  17.458 -0.3266  0.0698  0.1609
  243MPD1    H6 3696   4.602   3.150  17.479 -0.8448  0.0050 -0.8365
  243MPD1    H7 3697   4.673   3.018  17.547  0.6642  0.9684  0.3960
  244MPD1     C 3698   3.592   3.167  17.166  0.5598  0.4045 -0.2983
  244MPD1    C1 3699   3.704   3.135  17.237 -0.1389 -0.7334 -0.1417
  244MPD1    C2 3700   3.824   3.142  17.172 -0.1049 -0.1868  0.3182
  244MPD1    C3 3701   3.835   3.193  17.044  0.0040 -0.1031  0.1903
  244MPD1    C4 3702   3.723   3.245  16.985 -0.4368 -0.3716 -0.5049
  244MPD1    C5 3703   3.600   3.221  17.048 -0.2411 -0.1911  0.0166
  244MPD1     H 3704   3.907   3.088  17.216  0.9258  0.6264 -0.6282
  244MPD1    H1 3705   3.710   3.286  16.886  2.4958 -0.1278 -0.7718
  244MPD1    H2 3706   3.494   3.143  17.207  0.5161  0.1163 -0.5736
  244MPD1    H3 3707   3.513   3.247  16.989  0.2700 -0.1778 -0.7297
  244MPD1     N 3708   3.959   3.190  16.981  0.7761 -0.8908 -0.4415
  244MPD1    H5 3709   4.036   3.155  17.038  0.6762 -0.2867  0.0621
  244MPD1    N1 3710   3.690   3.038  17.335 -0.2917  0.5219  0.2333
  244MPD1    H6 3711   3.761   3.043  17.408 -0.2492  1.1082  0.1476
  244MPD1    H7 3712   3.600   3.047  17.382  0.5810  0.7932  1.8653
  245MPD1     C 3713   1.432   3.813  13.166  0.1556 -0.4594  0.1715
  245MPD1    C1 3714   1.376   3.872  13.280 -0.1856  0.2396 -0.1815
  245MPD1    C2 3715   1.347   4.008  13.277  0.7181 -0.4865 -0.2080
  245MPD1    C3 3716   1.382   4.083  13.164  0.4065  0.1137 -0.5628
  245MPD1    C4 3717   1.408   4.016  13.050  0.8700 -0.6547  1.0273
  245MPD1    C5 3718   1.434   3.878  13.046 -0.1772  0.4993  0.6534
  245MPD1     H 3719   1.317   4.056  13.369 -1.8977 -1.2586 -0.6653
  245MPD1    H1 3720   1.411   4.075  12.960 -2.2716 -0.0539  1.3418
  245MPD1    H2 3721   1.464   3.710  13.160 -1.1184 -0.7989 -1.0052
  245MPD1    H3 3722   1.465   3.834  12.952 -0.8026  1.9042 -0.2172
  245MPD1     N 3723   1.370   4.226  13.174 -0.0765 -0.1816  0.7906
  245MPD1    H5 3724   1.331   4.261  13.261 -1.9349 -0.5021  0.0825
  245MPD1    N1 3725   1.396   3.806  13.402  0.5122 -0.7761  0.1446
  245MPD1    H6 3726   1.330   3.833  13.475  0.2818 -3.4633  0.9515
  245MPD1    H7 3727   1.402   3.705  13.395 -0.3487 -0.9728  2.1684
  246MPD1     C 3728   2.494   1.023  10.086  0.2082 -0.1741 -0.0546
  246MPD1    C1 3729   2.511   1.144  10.037  0.5026 -0.0083 -0.2114
  246MPD1    C2 3730   2.562   1.158   9.911  0.2801 -0.3427  0.4758
  246MPD1    C3 3731   2.580   1.044   9.829  0.3939 -0.5391  0.7861
  246MPD1    C4 3732   2.574   0.919   9.891 -0.1153 -0.1497 -0.1670
  246MPD1    C5 3733   2.537   0.905  10.021 -0.1687  0.3879  0.1146
  246MPD1     H 3734   2.582   1.259   9.880 -2.9539  0.7012  1.7236
  246MPD1    H1 3735   2.617   0.833   9.841  0.1332  0.0377 -0.2802
  246MPD1    H2 3736   2.451   1.001  10.183  2.4531  0.7463  1.1435
  246MPD1    H3 3737   2.517   0.806  10.059 -0.4612 -0.0399 -1.1601
  246MPD1     N 3738   2.634   1.063   9.702  0.2280  0.5181 -0.7209
  246MPD1    H5 3739   2.667   1.158   9.687  2.9551 -0.8744 -3.4783
  246MPD1    N1 3740   2.470   1.260  10.103  0.6193  0.3069 -0.0489
  246MPD1    H6 3741   2.507   1.349  10.071 -2.1198  0.7245 -2.0334
  246MPD1    H7 3742   2.466   1.247  10.204 -0.4056 -2.0755 -0.3952
  247MPD1     C 3743   0.939   0.399  16.021 -0.5902  0.3957 -1.4706
  247MPD1    C1 3744   0.918   0.336  16.139 -0.5052 -0.4771 -0.3609
  247MPD1    C2 3745   0.936   0.206  16.146  0.1122  0.7039  0.1554
  247MPD1    C3 3746   0.974   0.130  16.042  0.2243  1.3876  0.0030
  247MPD1    C4 3747   1.007   0.191  15.923 -0.2489 -0.2197  0.3332
  247MPD1    C5 3748   0.986   0.327  15.913  0.4129 -0.2111  0.4966
  247MPD1     H 3749   0.911   0.153  16.238  1.5883  2.9144  1.8442
  247MPD1    H1 3750   1.056   0.133  15.846  2.3454  0.0454  1.7995
  247MPD1    H2 3751   0.920   0.504  16.007  3.4695  1.3814  0.3635
  247MPD1    H3 3752   1.023   0.375  15.824  0.1639  0.9295  1.0102
  247MPD1     N 3753   0.976   4.719  16.045  0.1627 -0.0629 -0.2195
  247MPD1    H5 3754   0.999   4.669  15.960 -2.8699 -0.6602 -0.6686
  247MPD1    N1 3755   0.879   0.414  16.253  0.3271  0.0031 -0.0120
  247MPD1    H6 3756   0.834   0.360  16.327  1.2944 -1.1898 -0.2966
  247MPD1    H7 3757   0.828   0.492  16.213  1.9581  0.9144 -0.2986
  248MPD1     C 3758   0.924   4.010  17.252  0.3868  0.4132  0.6276
  248MPD1    C1 3759   0.826   3.919  17.280  0.2140  0.3853  0.3266
  248MPD1    C2 3760   0.824   3.879  17.415  0.2478  0.3525 -0.1013
  248MPD1    C3 3761   0.912   3.928  17.514 -0.0384 -0.1906  0.2505
  248MPD1    C4 3762   1.003   4.024  17.482 -0.0113 -0.3446  0.2747
  248MPD1    C5 3763   1.015   4.055  17.349 -0.6613 -0.9041 -0.0678
  248MPD1     H 3764   0.761   3.794  17.439 -1.4271  1.4605 -0.5434
  248MPD1    H1 3765   1.064   4.073  17.557  0.6725 -1.7711  0.6470
  248MPD1    H2 3766   0.931   4.051  17.152 -0.0744 -0.1051  0.3890
  248MPD1    H3 3767   1.084   4.134  17.321 -1.1194 -0.6856 -0.5825
  248MPD1     N 3768   0.904   3.868  17.647 -0.0821  0.5811  0.5134
  248MPD1    H5 3769   0.847   3.785  17.662 -1.7179  1.0325 -3.2140
  248MPD1    N1 3770   0.763   3.847  17.177 -0.2988  0.0961  0.5677
  248MPD1    H6 3771   0.673   3.812  17.208  0.8653 -2.4517  1.1128
  248MPD1    H7 3772   0.743   3.898  17.091  2.0174  0.5741  0.3039
  249MPD1     C 3773   2.999   2.394   9.898 -0.6573 -0.2137 -0.2487
  249MPD1    C1 3774   2.985   2.452   9.778 -0.1019  0.1925 -0.1147
  249MPD1    C2 3775   3.047   2.568   9.766 -0.1019  0.6291  0.4393
  249MPD1    C3 3776   3.124   2.634   9.862  0.1473 -0.6925  0.7614
  249MPD1    C4 3777   3.128   2.575   9.987 -0.5359 -0.2432 -0.9848
  249MPD1    C5 3778   3.064   2.454  10.000 -0.1884 -0.4018 -0.2437
  249MPD1     H 3779   3.024   2.612   9.670 -0.4353  4.2335  2.1861
  249MPD1    H1 3780   3.177   2.617  10.074 -3.4170  1.4009 -0.1654
  249MPD1    H2 3781   2.948   2.303   9.926  3.4282 -2.1544  0.9345
  249MPD1    H3 3782   3.074   2.414  10.100 -0.5838  1.1110  0.4089
  249MPD1     N 3783   3.188   2.750   9.834  0.3211 -0.1615 -0.2126
  249MPD1    H5 3784   3.164   2.795   9.746 -3.1197 -2.0631 -0.2279
  249MPD1    N1 3785   2.939   2.368   9.671  0.1506 -0.2819  0.6737
  249MPD1    H6 3786   2.904   2.430   9.599  1.1300 -2.9057 -2.0681
  249MPD1    H7 3787   2.865   2.308   9.706 -0.5957  0.5103  0.4514
  250MPD2     C 3788   4.360   2.884  13.046 -0.5203  0.0553 -0.0655
  250MPD2    C1 3789   4.319   2.983  12.962 -0.7918 -0.3017  0.2959
  250MPD2    C2 3790   4.228   2.956  12.871  0.2547 -0.1790  0.3060
  250MPD2    C3 3791   4.184   2.831  12.851  0.3525  0.4651 -0.0642
  250MPD2    C4 3792   4.220   2.734  12.941 -0.5363  0.0136 -0.4722
  250MPD2    C5 3793   4.310   2.762  13.038 -0.9623 -0.4416 -0.7342
  250MPD2     H 3794   4.196   3.030  12.799 -0.8763 -1.7929 -0.8404
  250MPD2    H1 3795   4.200   2.629  12.921 -1.3212 -0.5775  3.4438
  250MPD2    H2 3796   4.442   2.904  13.114 -1.8234 -0.0912  1.5160
  250MPD2    H3 3797   4.357   2.686  13.099 -1.6021 -1.4232 -1.4461
  250MPD2     N 3798   4.100   2.794  12.741 -0.0378 -0.3744 -0.5380
  250MPD2    H5 3799   4.041   2.711  12.746 -0.4663  0.0082  0.7207
  250MPD2    N1 3800   4.387   3.109  12.971 -0.1235  0.7527  0.4774
  250MPD2    H7 3801   4.454   3.112  13.047  1.1354  1.9821 -0.6864
  251TMC3    C1 3802   4.465   3.329  12.949  0.4753 -0.2113 -1.0540
  251TMC3    C2 3803   4.415   3.459  12.957 -0.1810 -0.8270  0.0222
  251TMC3    C3 3804   4.509   3.559  12.966  0.3486 -0.6929 -0.5272
  251TMC3    C4 3805   4.596   3.301  12.973  0.5662  0.6597  0.4550
  251TMC3    C5 3806   4.688   3.398  12.994  1.1067  0.5188  0.2956
  251TMC3    C6 3807   4.642   3.532  12.992 -0.3118 -0.1415  0.3496
  251TMC3     C 3808   4.372   3.232  12.901 -0.4876 -0.2798 -0.8409
  251TMC3     O 3809   4.295   3.260  12.809 -0.5570 -0.3513  0.1558
  251TMC3     H 3810   4.312   3.480  12.930 -0.0032 -0.1713 -0.1547
  251TMC3    H1 3811   4.628   3.198  12.965 -0.4024  0.2617  1.6986
  251TMC3    H2 3812   4.718   3.605  13.016 -0.9532 -0.0121  1.9947
  251TMC3    C7 3813   0.068   3.362  13.084 -0.2302  0.7832  0.1073
  251TMC3    C8 3814   4.451   3.690  12.991 -0.0344  0.2357  0.1107
  251TMC3    O1 3815   0.050   3.261  13.150  0.6186 -0.3087 -0.1871
  251TMC3    O2 3816   4.336   3.695  12.958  0.3257  0.4251  0.1534
  252TMC3    C1 3817   4.478   4.237   8.992  0.0757 -0.2388 -0.2172
  252TMC3    C2 3818   4.611   4.272   8.990  0.2070  0.2963  0.3028
  252TMC3    C3 3819   4.691   4.198   9.073  0.6176 -0.3622 -0.2388
  252TMC3    C4 3820   4.433   4.129   9.059 -0.8887  0.5258 -1.0232
  252TMC3    C5 3821   4.525   4.050   9.122  0.4616  0.0092  0.3675
  252TMC3    C6 3822   4.648   4.098   9.142 -0.6642 -0.7424  0.6402
  252TMC3     C 3823   4.392   4.318   8.905 -0.5019  0.4303 -0.1284
  252TMC3     O 3824   4.279   4.337   8.942 -0.2209  0.3915 -0.3648
  252TMC3     H 3825   4.649   4.347   8.921 -0.1503  1.2656  1.1515
  252TMC3    H1 3826   4.331   4.094   9.047 -1.2167  1.8448 -2.0218
  252TMC3    H2 3827   4.720   4.044   9.202  0.9964  0.6126 -0.1266
  252TMC3    C7 3828   4.462   3.950   9.210 -0.2801  0.2053  0.9071
  252TMC3    C8 3829   0.109   4.232   9.073 -0.7905  0.0640 -0.3279
  252TMC3    O1 3830   4.342   3.966   9.229  0.5642  0.7487  0.2670
  252TMC3    O2 3831   0.150   4.297   8.975  0.0111 -0.0651 -0.4006
  253MPD2     C 3832   0.982   2.407  15.027 -0.6100 -0.3575  0.4609
  253MPD2    C1 3833   0.849   2.424  15.049  0.6117  0.4556  0.3936
  253MPD2    C2 3834   0.808   2.462  15.177  0.0164  0.3508 -0.0114
  253MPD2    C3 3835   0.896   2.492  15.276  0.5240  0.4285  0.8387
  253MPD2    C4 3836   1.033   2.484  15.245 -0.1055 -0.2662  0.2617
  253MPD2    C5 3837   1.071   2.433  15.127 -0.0188 -0.3577 -0.4536
  253MPD2     H 3838   0.699   2.457  15.178 -0.0838  2.9049  1.6779
  253MPD2    H1 3839   1.110   2.514  15.315 -0.8465 -2.9128  2.2249
  253MPD2    H2 3840   1.029   2.369  14.937 -0.2881  0.1935  0.3959
  253MPD2    H3 3841   1.175   2.409  15.110 -0.0185  0.7645 -2.0610
  253MPD2     N 3842   0.865   2.527  15.406 -0.1381 -0.7415  0.4045
  253MPD2    H5 3843   0.946   2.551  15.463 -0.3552 -3.2436  1.7564
  253MPD2    N1 3844   0.751   2.420  14.944 -0.0977 -0.4279 -0.4160
  253MPD2    H7 3845   0.654   2.444  14.964  0.4843  1.0824  0.5701
  254TMC3    C1 3846   0.739   2.555  15.593 -0.3706  0.3554 -0.0149
  254TMC3    C2 3847   0.648   2.642  15.645  0.0510 -0.3719 -0.5643
  254TMC3    C3 3848   0.655   2.660  15.781 -0.7691 -0.2746  0.7070
  254TMC3    C4 3849   0.834   2.488  15.663 -0.1187  0.6161 -0.3527
  254TMC3    C5 3850   0.832   2.517  15.791 -0.7952 -0.2776  0.0239
  254TMC3    C6 3851   0.751   2.601  15.854  0.4869 -0.0502 -0.2079
  254TMC3     C 3852   0.733   2.529  15.454 -0.0941  0.5012  0.6547
  254TMC3     O 3853   0.631   2.539  15.391 -0.3880  0.0922 -0.0758
  254TMC3     H 3854   0.568   2.689  15.589 -0.4877 -0.7754 -0.1293
  254TMC3    H1 3855   0.904   2.417  15.619 -0.8759 -0.8807  0.8373
  254TMC3    H2 3856   0.764   2.612  15.961  0.0285  4.5724 -0.6356
  254TMC3    C7 3857   0.955   2.494  15.865 -0.2349  0.5936  0.3167
  254TMC3    C8 3858   0.621   2.791  15.834 -0.1577  0.1716  0.4690
  254TMC3    O1 3859   1.048   2.563  15.831  0.5987 -0.2992  0.0239
  254TMC3    O2 3860   0.595   2.799  15.954 -0.8376 -0.2534 -0.7661
  255MPD2     C 3861   3.929   0.320  10.131  0.5754  0.1418 -0.3429
  255MPD2    C1 3862   4.054   0.380  10.110  0.2214  0.4071 -0.4926
  255MPD2    C2 3863   4.165   0.302  10.138 -0.1947  0.0116 -0.4005
  255MPD2    C3 3864   4.157   0.167  10.126  0.2761 -0.7135 -0.0134
  255MPD2    C4 3865   4.032   0.108  10.115 -0.1094  0.1303 -0.7400
  255MPD2    C5 3866   3.920   0.182  10.135  0.5389  0.1761  0.2944
  255MPD2     H 3867   4.263   0.346  10.148  0.1505 -0.2623 -2.4108
  255MPD2    H1 3868   4.021   0.001  10.108 -0.5184  0.1438 -0.3235
  255MPD2    H2 3869   3.835   0.371  10.148  0.6256 -0.1289  0.7389
  255MPD2    H3 3870   3.825   0.132  10.124 -0.4595  2.2684 -0.5684
  255MPD2     N 3871   4.279   0.095  10.123  0.3683 -0.0011  0.1553
  255MPD2    H5 3872   4.360   0.153  10.137  0.0620  0.4823 -0.0908
  255MPD2    N1 3873   4.069   0.514  10.077 -0.0507 -0.1204  0.2875
  255MPD2    H7 3874   3.992   0.579  10.085 -0.4091 -0.7781  2.2925
  256TMC3    C1 3875   4.182   0.709  10.010 -0.3916 -0.5868  0.9551
  256TMC3    C2 3876   4.275   0.764   9.926  0.4350 -0.3188 -0.0197
  256TMC3    C3 3877   4.272   0.902   9.911 -0.2548 -0.3662 -0.1436
  256TMC3    C4 3878   4.090   0.789  10.075 -0.1610 -0.0598  0.3698
  256TMC3    C5 3879   4.093   0.924  10.058  0.1667 -0.0443 -0.2037
  256TMC3    C6 3880   4.180   0.986   9.970 -0.3373 -0.8681  0.5107
  256TMC3     C 3881   4.181   0.562  10.015 -0.2773  0.0520 -0.7997
  256TMC3     O 3882   4.269   0.495   9.958 -0.3887  0.1300  0.1094
  256TMC3     H 3883   4.346   0.700   9.875  1.4265  0.0783  0.8643
  256TMC3    H1 3884   4.023   0.757  10.154  0.5334 -5.1271 -1.1001
  256TMC3    H2 3885   4.155   1.088   9.944  1.2675 -0.2138  1.5458
  256TMC3    C7 3886   3.963   0.982  10.067 -0.5725  0.1957 -0.9435
  256TMC3    C8 3887   4.365   0.950   9.818  0.2626 -0.4488  0.1627
  256TMC3    O1 3888   3.867   0.904  10.070  0.8898 -0.3899  0.1431
  256TMC3    O2 3889   4.420   0.866   9.751  0.0054 -0.1581 -0.3203
  257MPD2     C 3890   3.585   3.200  13.205 -0.6514  0.3682 -0.3880
  257MPD2    C1 3891   3.512   3.144  13.103 -0.0936  0.6930  0.0204
  257MPD2    C2 3892   3.458   3.014  13.124 -0.1407 -0.3237  0.6863
  257MPD2    C3 3893   3.484   2.940  13.238 -0.5884  0.3780 -0.2954
  257MPD2    C4 3894   3.568   3.003  13.330  0.4682 -0.0109  0.5342
  257MPD2    C5 3895   3.607   3.135  13.316  0.3080 -0.4666 -0.7770
  257MPD2     H 3896   3.409   2.965  13.041 -0.4411  0.2894  0.5087
  257MPD2    H1 3897   3.590   2.957  13.425  1.0560 -1.2354 -0.1847
  257MPD2    H2 3898   3.619   3.303  13.202 -0.0109  0.1428 -0.8885
  257MPD2    H3 3899   3.661   3.183  13.398 -1.5549  1.7927 -0.8956
  257MPD2     N 3900   3.435   2.810  13.248 -0.0840  0.4739 -0.5863
  257MPD2    H5 3901   3.406   2.755  13.167 -3.6553  2.8008 -0.8751
  257MPD2    N1 3902   3.493   3.214  12.981  0.2868  0.5278 -0.4167
  257MPD2    H7 3903   3.534   3.306  12.968  2.4712 -0.3419  0.4202
  258TMC3    C1 3904   3.413   2.590  13.345 -0.2591 -0.0441  0.2040
  258TMC3    C2 3905   3.329   2.556  13.244 -0.1453  0.2018  0.2267
  258TMC3    C3 3906   3.285   2.425  13.235 -0.3762 -0.6013  0.6683
  258TMC3    C4 3907   3.449   2.499  13.437 -0.6310  0.0822  0.2711
  258TMC3    C5 3908   3.400   2.376  13.430 -0.2802  0.3604 -0.0675
  258TMC3    C6 3909   3.316   2.339  13.331  0.2560  0.4134 -0.7034
  258TMC3     C 3910   3.455   2.729  13.358 -0.1447 -0.1620 -0.6038
  258TMC3     O 3911   3.475   2.765  13.474 -0.4239  0.0897  0.3903
  258TMC3     H 3912   3.271   2.625  13.185  0.8736  1.8699  1.1864
  258TMC3    H1 3913   3.498   2.540  13.525 -0.2023 -0.6017  0.3523
  258TMC3    H2 3914   3.253   2.252  13.342  0.1538  0.1520 -3.5268
  258TMC3    C7 3915   3.409   2.298  13.554  0.7726 -0.5554  0.3738
  258TMC3    C8 3916   3.261   2.361  13.102 -0.5793  0.6021  0.0037
  258TMC3    O1 3917   3.308   2.239  13.589  0.7232 -0.4386 -0.3259
  258TMC3    O2 3918   3.271   2.235  13.101  0.2247 -0.4780  0.3897
  259MPD2     C 3919   2.087   4.285   0.686 -0.1272 -0.0144 -0.3440
  259MPD2    C1 3920   2.028   4.162   0.670 -0.7554 -0.5837 -0.3496
  259MPD2    C2 3921   2.014   4.111   0.534  0.1392  0.2974  0.3817
  259MPD2    C3 3922   2.057   4.189   0.428 -0.6190 -0.7207 -0.7459
  259MPD2    C4 3923   2.114   4.312   0.459  0.1387  0.2650  0.4621
  259MPD2    C5 3924   2.139   4.355   0.581  0.4489 -0.2629 -0.3191
  259MPD2     H 3925   1.973   4.012   0.522 -0.6663  0.7857 -0.9157
  259MPD2    H1 3926   2.169   4.371   0.387  0.2403  2.0594  2.0174
  259MPD2    H2 3927   2.098   4.338   0.780  1.1249  1.4067 -1.2827
  259MPD2    H3 3928   2.183   4.453   0.594  0.9892 -0.6449  0.7535
  259MPD2     N 3929   2.061   4.123   0.302 -0.5701 -0.4158  0.3182
  259MPD2    H5 3930   2.020   4.031   0.294  2.3161 -1.4608 -2.2059
  259MPD2    N1 3931   2.002   4.084   0.781 -0.0124  0.8522 -0.4204
  259MPD2    H7 3932   2.025   4.126   0.870 -1.5180  0.9459 -0.0712
  260TMC3    C1 3933   2.156   4.080   0.094  0.1085  0.0479 -0.2114
  260TMC3    C2 3934   2.236   4.122  17.697  0.1341  0.3526 -0.1851
  260TMC3    C3 3935   2.288   4.033  17.607 -0.1447 -0.3207  0.1902
  260TMC3    C4 3936   2.134   3.945   0.102  0.5348  0.9522 -0.3064
  260TMC3    C5 3937   2.175   3.857   0.006 -0.2499 -0.4041  0.4709
  260TMC3    C6 3938   2.255   3.902  17.613 -0.7032 -0.8355  1.5301
  260TMC3     C 3939   2.128   4.175   0.191 -0.1212 -0.4189  0.3811
  260TMC3     O 3940   2.169   4.290   0.174 -0.1539  0.0094  0.3076
  260TMC3     H 3941   2.269   4.225  17.685  1.8523 -0.0406  1.2808
  260TMC3    H1 3942   2.069   3.907   0.180  0.4127  1.2586 -0.2629
  260TMC3    H2 3943   2.282   3.838  17.529 -3.5634  0.2311 -0.1922
  260TMC3    C7 3944   2.148   3.716  17.695 -0.3595 -0.1476  0.3918
  260TMC3    C8 3945   2.349   4.095  17.482  0.2082  0.2045  0.3292
  260TMC3    O1 3946   2.233   3.657  17.631  0.0669  0.1932  0.1764
  260TMC3    O2 3947   2.328   4.214  17.475  0.0571 -0.1167 -0.2796
  261MPD2     C 3948   3.967   2.646  11.922 -0.3536  0.7495 -0.2775
  261MPD2    C1 3949   3.996   2.755  12.006 -0.0943 -0.2059 -0.4917
  261MPD2    C2 3950   4.043   2.882  11.954 -0.2359  0.7404 -0.0018
  261MPD2    C3 3951   4.059   2.886  11.813 -0.5304 -0.3655  0.2778
  261MPD2    C4 3952   4.024   2.779  11.732  0.2708 -0.2799  0.1184
  261MPD2    C5 3953   3.977   2.658  11.787  0.4107 -0.2206  0.0053
  261MPD2     H 3954   4.077   2.969  12.010  1.3290  1.0915 -1.5174
  261MPD2    H1 3955   4.020   2.793  11.624 -1.0481  0.5127  0.2710
  261MPD2    H2 3956   3.924   2.556  11.964  0.3369  1.2791  1.5687
  261MPD2    H3 3957   3.943   2.582  11.719 -2.4164  2.1622 -1.2406
  261MPD2     N 3958   4.102   3.013  11.773 -0.3322  0.0277  0.2953
  261MPD2    H5 3959   4.113   3.088  11.841 -4.2284  1.7823 -0.9908
  261MPD2    N1 3960   3.995   2.740  12.146 -0.2797 -0.6383  0.8995
  261MPD2    H7 3961   4.038   2.818  12.195 -0.8408 -0.4489  1.0838
  262TMC3    C1 3962   4.149   3.175  11.603 -0.5600 -0.4496 -0.5006
  262TMC3    C2 3963   4.086   3.267  11.682 -0.3310  0.5318 -0.1420
  262TMC3    C3 3964   4.137   3.395  11.677 -0.4560 -0.0679  0.3053
  262TMC3    C4 3965   4.246   3.204  11.518 -0.2162 -0.2152  0.4333
  262TMC3    C5 3966   4.290   3.331  11.508  0.3534  0.4404  0.1423
  262TMC3    C6 3967   4.240   3.429  11.585 -0.0317 -0.1014  0.3231
  262TMC3     C 3968   4.132   3.041  11.642 -0.0974  0.3048 -0.1030
  262TMC3     O 3969   4.160   2.956  11.560 -0.1343 -0.6901  0.0022
  262TMC3     H 3970   3.993   3.250  11.734 -1.5744  2.1674 -1.8370
  262TMC3    H1 3971   4.305   3.128  11.469 -0.6367  0.4802 -1.1535
  262TMC3    H2 3972   4.277   3.530  11.586 -0.6378  0.1073  1.9379
  262TMC3    C7 3973   4.404   3.357  11.413 -0.8922  0.0448  0.2692
  262TMC3    C8 3974   4.053   3.510  11.710 -0.0707  0.7184 -0.1233
  262TMC3    O1 3975   4.454   3.268  11.342 -0.3345 -0.1571 -0.5213
  262TMC3    O2 3976   4.107   3.612  11.737 -0.4512  0.2750 -0.2820
  263MPD2     C 3977   0.435   2.501  11.911 -0.9247 -0.6676  0.0673
  263MPD2    C1 3978   0.377   2.404  11.832  0.1016  0.3696  0.0551
  263MPD2    C2 3979   0.405   2.411  11.698  0.3127  0.4747  0.3571
  263MPD2    C3 3980   0.494   2.499  11.642  0.1520  0.6932 -0.0110
  263MPD2    C4 3981   0.562   2.584  11.725 -0.5568  0.2680 -0.5839
  263MPD2    C5 3982   0.533   2.586  11.858  0.3471  0.5581 -0.3280
  263MPD2     H 3983   0.346   2.359  11.624  2.4887 -0.7529 -0.5096
  263MPD2    H1 3984   0.631   2.665  11.702 -1.4877  1.4849  0.9215
  263MPD2    H2 3985   0.414   2.497  12.017 -1.5401 -0.3520 -0.0411
  263MPD2    H3 3986   0.584   2.662  11.915 -1.3103  1.2879  0.1984
  263MPD2     N 3987   0.514   2.489  11.507 -0.2827 -0.0548 -0.4905
  263MPD2    H5 3988   0.455   2.428  11.451  0.8816 -1.3944 -0.2823
  263MPD2    N1 3989   0.301   2.302  11.895 -0.5357  0.4685  0.0715
  263MPD2    H7 3990   0.324   2.290  11.993 -0.6353 -0.2433  0.0118
  264TMC3    C1 3991   0.602   2.516  11.287  0.9444 -0.3940  0.5190
  264TMC3    C2 3992   0.476   2.483  11.241 -0.6418  0.2061  0.6423
  264TMC3    C3 3993   0.474   2.445  11.112 -0.0946 -0.1975 -0.1377
  264TMC3    C4 3994   0.717   2.526  11.218  0.7331 -0.4893  0.2993
  264TMC3    C5 3995   0.709   2.491  11.087 -0.6044  0.1334 -0.6006
  264TMC3    C6 3996   0.592   2.438  11.039  0.5928  0.0927  0.1908
  264TMC3     C 3997   0.614   2.544  11.429 -0.2772 -0.0231 -0.1498
  264TMC3     O 3998   0.720   2.589  11.464  0.2053 -0.1838 -0.2770
  264TMC3     H 3999   0.381   2.481  11.293 -0.3559  0.6012  1.1792
  264TMC3    H1 4000   0.809   2.563  11.262  0.3286 -0.2120  0.9123
  264TMC3    H2 4001   0.589   2.398  10.938 -0.8131  1.2394 -0.2360
  264TMC3    C7 4002   0.812   2.520  10.988  0.2070  0.0550  0.3229
  264TMC3    C8 4003   0.354   2.459  11.025  0.2239  0.6494  0.2285
  264TMC3    O1 4004   0.785   2.501  10.868 -0.0427  0.2149 -0.2662
  264TMC3    O2 4005   0.269   2.537  11.067 -0.2083 -0.1386  0.1090
  265MPD2     C 4006   2.639   2.468  15.344  0.6291  0.2387  0.1781
  265MPD2    C1 4007   2.640   2.574  15.254 -0.2311 -0.2251 -0.4252
  265MPD2    C2 4008   2.659   2.540  15.122  0.3794 -0.4001  0.9789
  265MPD2    C3 4009   2.689   2.407  15.080 -0.2245 -0.1997 -0.0934
  265MPD2    C4 4010   2.690   2.302  15.171 -0.1718 -0.1101  0.1591
  265MPD2    C5 4011   2.658   2.337  15.301 -0.0628 -0.2462 -0.6121
  265MPD2     H 4012   2.635   2.618  15.050  0.1564 -1.4310 -0.0665
  265MPD2    H1 4013   2.716   2.201  15.142  0.6947  0.7967 -2.1909
  265MPD2    H2 4014   2.611   2.490  15.446 -2.9752  0.4413 -0.8378
  265MPD2    H3 4015   2.645   2.265  15.381  0.1012 -0.0729 -0.4273
  265MPD2     N 4016   2.723   2.378  14.946 -0.3321  0.6006 -1.0083
  265MPD2    H5 4017   2.716   2.279  14.924  0.4764  0.4917 -0.7798
  265MPD2    N1 4018   2.610   2.708  15.302 -0.5884 -0.1766  0.2491
  265MPD2    H7 4019   2.606   2.783  15.234 -1.5934 -0.7865 -0.3688
  266TMC3    C1 4020   2.544   2.884  15.468  0.3461 -0.2601 -1.5530
  266TMC3    C2 4021   2.583   2.939  15.585 -0.0143  0.2681  0.0866
  266TMC3    C3 4022   2.516   3.048  15.635  0.2621  0.1668  0.0451
  266TMC3    C4 4023   2.451   2.945  15.387 -0.6726 -0.1234  0.3845
  266TMC3    C5 4024   2.391   3.056  15.438 -0.0643  0.1828 -0.2873
  266TMC3    C6 4025   2.421   3.109  15.558 -0.2246 -0.5041 -0.1368
  266TMC3     C 4026   2.596   2.748  15.435  1.0099  0.2217 -0.5704
  266TMC3     O 4027   2.631   2.687  15.535  0.1275  0.2948  0.4318
  266TMC3     H 4028   2.660   2.889  15.643 -1.2263  0.0044  1.4673
  266TMC3    H1 4029   2.418   2.900  15.294 -0.0613  0.2214  0.0024
  266TMC3    H2 4030   2.370   3.194  15.602 -0.8895 -1.4161  0.8622
  266TMC3    C7 4031   2.309   3.136  15.341  0.1326  0.3134  0.2740
  266TMC3    C8 4032   2.545   3.081  15.773 -0.5041 -0.0729  0.0263
  266TMC3    O1 4033   2.276   3.084  15.235  0.4847  0.3933  0.7888
  266TMC3    O2 4034   2.597   2.999  15.844  0.4157 -0.5072 -0.0665
  267MPD2     C 4035   0.340   3.422  17.233 -0.4907 -0.0036  0.1846
  267MPD2    C1 4036   0.291   3.520  17.148 -0.6255  0.0856  0.5431
  267MPD2    C2 4037   0.230   3.485  17.032  0.5530 -0.4231  0.3185
  267MPD2    C3 4038   0.215   3.354  16.996 -0.2788  0.4250 -0.0707
  267MPD2    C4 4039   0.271   3.263  17.081  0.0672  0.3762 -0.7876
  267MPD2    C5 4040   0.345   3.295  17.192  0.2885  0.7099 -0.1532
  267MPD2     H 4041   0.196   3.561  16.962 -0.8517 -0.8454  0.5347
  267MPD2    H1 4042   0.272   3.161  17.042 -3.0117 -0.0785  0.3422
  267MPD2    H2 4043   0.387   3.457  17.325  0.4064 -0.4005 -0.1228
  267MPD2    H3 4044   0.394   3.215  17.248  2.1197  0.0533 -2.7148
  267MPD2     N 4045   0.131   3.317  16.884 -0.2469 -1.0189  0.3864
  267MPD2    H5 4046   0.087   3.225  16.884 -0.2513 -1.0052 -2.3466
  267MPD2    N1 4047   0.310   3.655  17.189  0.1430 -0.2434 -0.5877
  267MPD2    H7 4048   0.368   3.677  17.269  0.5977 -0.7095 -0.7831
  268TMC3    C1 4049   0.305   3.893  17.199 -0.1445 -0.2998  0.2027
  268TMC3    C2 4050   0.368   3.992  17.132  0.4174 -0.6132  0.4999
  268TMC3    C3 4051   0.449   4.072  17.203 -0.1032  0.3054 -0.2523
  268TMC3    C4 4052   0.337   3.867  17.329 -0.5262  0.4363 -0.2560
  268TMC3    C5 4053   0.420   3.951  17.401 -0.1489 -0.4532  0.1840
  268TMC3    C6 4054   0.474   4.062  17.336 -0.0198 -0.2195 -0.2315
  268TMC3     C 4055   0.269   3.770  17.120  0.1379  1.0100  1.2490
  268TMC3     O 4056   0.208   3.786  17.017  0.0711 -0.4208  0.0625
  268TMC3     H 4057   0.357   3.991  17.024 -0.3554  1.4239  0.5568
  268TMC3    H1 4058   0.286   3.793  17.390 -2.3569  1.5021 -0.4877
  268TMC3    H2 4059   0.531   4.140  17.386  0.0497  0.5967 -1.5547
  268TMC3    C7 4060   0.443   3.918  17.537 -0.6729  0.0160  0.4876
  268TMC3    C8 4061   0.492   4.201  17.144 -0.5000 -0.1642  0.5052
  268TMC3    O1 4062   0.412   3.803  17.574  0.9404 -0.0221  0.7854
  268TMC3    O2 4063   0.593   4.252  17.194  0.1477  0.0230  0.1150
  269MPD2     C 4064   0.416   3.187  15.306  0.7593  0.0172  0.6426
  269MPD2    C1 4065   0.330   3.230  15.400  0.8050  0.8595 -0.2529
  269MPD2    C2 4066   0.305   3.364  15.407 -0.4032 -0.3875  0.3937
  269MPD2    C3 4067   0.353   3.457  15.313 -0.1408 -0.2091 -0.8915
  269MPD2    C4 4068   0.447   3.412  15.224 -0.5048  0.2502 -0.6050
  269MPD2    C5 4069   0.477   3.279  15.225 -0.2795  0.0520  0.3938
  269MPD2     H 4070   0.227   3.403  15.470 -0.0493 -0.9850  1.1980
  269MPD2    H1 4071   0.492   3.469  15.143  1.3480  0.9542  0.9308
  269MPD2    H2 4072   0.437   3.081  15.294 -0.1940 -0.2042  0.9292
  269MPD2    H3 4073   0.550   3.245  15.152 -1.4309 -0.4635 -0.5163
  269MPD2     N 4074   0.302   3.588  15.309  0.2720 -0.1338  0.1500
  269MPD2    H5 4075   0.244   3.615  15.388  0.5754  2.4890 -0.4955
  269MPD2    N1 4076   0.279   3.128  15.490 -0.1025 -0.3580 -0.4465
  269MPD2    H7 4077   0.293   3.031  15.462 -3.7370 -0.8046 -0.7553
  270TMC3    C1 4078   0.129   3.032  15.653  0.3835 -0.4981 -0.4636
  270TMC3    C2 4079   4.716   3.032  15.648 -0.2723  0.1318  0.1817
  270TMC3    C3 4080   4.655   2.917  15.633  0.1244  0.4063 -0.1760
  270TMC3    C4 4081   0.196   2.920  15.629  0.7822 -0.0869 -0.2067
  270TMC3    C5 4082   0.132   2.800  15.626  0.0461  0.3901  0.5891
  270TMC3    C6 4083   4.722   2.797  15.616  0.3157  0.1740  0.5667
  270TMC3     C 4084   0.193   3.154  15.604 -0.2499 -0.6605  0.0844
  270TMC3     O 4085   0.157   3.260  15.649  0.2552 -0.1101  0.2497
  270TMC3     H 4086   4.662   3.126  15.646 -0.5804  0.0031  2.5801
  270TMC3    H1 4087   0.304   2.914  15.621  0.9509 -1.5589  3.0845
  270TMC3    H2 4088   4.654   2.713  15.607  0.6960 -0.0962  0.2176
  270TMC3    C7 4089   0.206   2.676  15.602  0.4125 -0.1161 -0.1225
  270TMC3    C8 4090   4.541   2.926  15.547 -0.0386 -0.1158 -0.4070
  270TMC3    O1 4091   0.326   2.687  15.580 -0.2369 -0.7630 -0.0547
  270TMC3    O2 4092   4.456   3.003  15.588  0.0681 -0.4674  1.0974
  271MPD2     C 4093   3.777   2.880  13.806  0.3691  0.1354 -0.1518
  271MPD2    C1 4094   3.734   2.853  13.932 -0.1240 -0.2870  0.0169
  271MPD2    C2 4095   3.605   2.883  13.978  0.2214  0.5908  0.1797
  271MPD2    C3 4096   3.516   2.935  13.888 -0.3143 -0.1350 -0.4064
  271MPD2    C4 4097   3.563   2.969  13.764  0.4740 -0.6956  0.4541
  271MPD2    C5 4098   3.695   2.942  13.726 -0.3854 -0.2178 -0.0398
  271MPD2     H 4099   3.572   2.855  14.078 -2.6188  1.0242 -0.6399
  271MPD2    H1 4100   3.494   3.022  13.699  0.6498  1.8506  2.3277
  271MPD2    H2 4101   3.878   2.864  13.770  0.3162  1.2795 -0.8119
  271MPD2    H3 4102   3.739   2.980  13.635 -0.7534  1.4022  0.4536
  271MPD2     N 4103   3.387   2.983  13.928  0.0857  0.3357  0.3887
  271MPD2    H5 4104   3.326   3.021  13.856 -1.7434 -1.3627  1.0512
  271MPD2    N1 4105   3.823   2.819  14.035 -0.1936  0.2117  0.5501
  271MPD2    H7 4106   3.801   2.841  14.131  1.7078  0.2372  0.9803
  272TMC3    C1 4107   4.019   2.750  14.137  0.0300 -0.2233 -0.0016
  272TMC3    C2 4108   4.132   2.677  14.135 -0.9191 -0.0381 -0.3339
  272TMC3    C3 4109   4.217   2.671  14.246 -0.4850  0.3588  0.1853
  272TMC3    C4 4110   3.982   2.817  14.252 -0.0706 -0.7014 -0.3870
  272TMC3    C5 4111   4.064   2.812  14.360  0.1494  0.1304 -0.2685
  272TMC3    C6 4112   4.180   2.737  14.357  0.0640  0.3820  0.4823
  272TMC3     C 4113   3.954   2.772  14.013 -0.2319  0.1402  0.6629
  272TMC3     O 4114   4.006   2.724  13.916  0.1656  0.6949  0.2397
  272TMC3     H 4115   4.170   2.631  14.045 -2.2379 -0.9787 -0.4078
  272TMC3    H1 4116   3.900   2.886  14.263 -0.6203 -1.3505 -0.3748
  272TMC3    H2 4117   4.239   2.726  14.447  1.0361  0.7452 -0.1137
  272TMC3    C7 4118   4.028   2.876  14.484  0.1766 -0.1450 -0.3774
  272TMC3    C8 4119   4.352   2.612  14.227 -0.4729  0.4309 -0.0554
  272TMC3    O1 4120   3.913   2.912  14.486 -0.3437  0.5703  0.1548
  272TMC3    O2 4121   4.377   2.598  14.109  0.4095 -0.4086 -0.4529
  273MPD2     C 4122   0.926   1.226  11.180  0.1840 -0.0569  0.2795
  273MPD2    C1 4123   0.906   1.253  11.309  0.5374  0.7857  0.1533
  273MPD2    C2 4124   0.796   1.197  11.374 -0.5648  0.4979 -0.1050
  273MPD2    C3 4125   0.694   1.133  11.299  0.0146 -0.7621 -0.1058
  273MPD2    C4 4126   0.718   1.104  11.171  0.1789  0.3447 -0.2049
  273MPD2    C5 4127   0.839   1.147  11.115  0.5505 -0.1781  0.1667
  273MPD2     H 4128   0.792   1.193  11.482  0.1505 -1.9819 -0.1702
  273MPD2    H1 4129   0.648   1.051  11.107 -0.8809  0.7199  0.6455
  273MPD2    H2 4130   1.003   1.264  11.114 -0.0753 -0.4867 -0.2704
  273MPD2    H3 4131   0.865   1.143  11.010  0.3994  1.8480  0.0563
  273MPD2     N 4132   0.570   1.107  11.363 -0.6521 -0.0270 -0.7697
  273MPD2    H5 4133   0.497   1.059  11.312 -1.7863 -1.4924  2.2258
  273MPD2    N1 4134   0.991   1.347  11.369  0.3802  0.2950  0.4415
  273MPD2    H7 4135   1.064   1.390  11.314 -0.7401  0.3544 -0.9720
  274TMC3    C1 4136   0.383   1.130  11.509  0.3165 -0.3806 -0.5282
  274TMC3    C2 4137   0.308   1.049  11.426  0.5074  0.0843 -0.7249
  274TMC3    C3 4138   0.171   1.054  11.435  0.0343 -0.5111  0.0608
  274TMC3    C4 4139   0.327   1.223  11.589 -0.0587  0.1857  0.2140
  274TMC3    C5 4140   0.186   1.214  11.599 -0.0097 -0.6203 -0.3973
  274TMC3    C6 4141   0.112   1.126  11.528 -1.1952 -0.2928 -0.2869
  274TMC3     C 4142   0.530   1.138  11.496 -0.1967  0.1117 -1.0805
  274TMC3     O 4143   0.587   1.200  11.582 -0.0106 -0.0397 -0.3877
  274TMC3     H 4144   0.358   0.998  11.345  0.7409 -0.7236 -0.0782
  274TMC3    H1 4145   0.380   1.306  11.635 -0.2118 -0.0808  0.8720
  274TMC3    H2 4146   0.007   1.108  11.548 -0.9421 -0.0793  1.2496
  274TMC3    C7 4147   0.125   1.316  11.677 -0.1941  0.2343  0.4905
  274TMC3    C8 4148   0.089   1.035  11.319 -0.4595  0.2463  0.1848
  274TMC3    O1 4149   0.177   1.428  11.674  0.1167 -0.1808  0.5847
  274TMC3    O2 4150   4.702   1.074  11.319  0.1930  0.4691  0.0706
  275MPD2     C 4151   0.932   3.806  14.225 -0.5326  0.2060 -0.2835
  275MPD2    C1 4152   0.877   3.700  14.295 -0.0947 -0.2775  0.4785
  275MPD2    C2 4153   0.744   3.667  14.268  0.1853  0.2992 -0.4283
  275MPD2    C3 4154   0.678   3.730  14.164 -0.3421 -0.5591  0.0002
  275MPD2    C4 4155   0.728   3.834  14.097  0.0967  0.3297 -0.6232
  275MPD2    C5 4156   0.855   3.874  14.134 -0.4431 -0.2002  0.1517
  275MPD2     H 4157   0.698   3.576  14.305 -1.0597  0.9919 -0.2889
  275MPD2    H1 4158   0.671   3.889  14.022  1.1206  2.0059 -0.1945
  275MPD2    H2 4159   1.038   3.824  14.239 -0.1916 -1.2831 -0.9737
  275MPD2    H3 4160   0.894   3.956  14.075  1.6007 -1.1518  0.1971
  275MPD2     N 4161   0.545   3.698  14.123  1.1954  0.1185 -0.0381
  275MPD2    H5 4162   0.506   3.752  14.046 -2.3237 -2.1850  0.1274
  275MPD2    N1 4163   0.948   3.633  14.398 -1.0107  0.8528  0.0459
  275MPD2    H7 4164   1.038   3.671  14.426 -1.4816  1.9949  0.0248
  276TMC3    C1 4165   1.003   3.505  14.592 -0.0616 -0.1029 -0.3219
  276TMC3    C2 4166   1.003   3.377  14.650  0.1508  0.4080  0.4594
  276TMC3    C3 4167   1.077   3.359  14.764 -0.0509 -0.0349 -0.5420
  276TMC3    C4 4168   1.071   3.608  14.650  0.8117  0.0875  0.3922
  276TMC3    C5 4169   1.154   3.576  14.755 -0.5521  0.0232 -0.1757
  276TMC3    C6 4170   1.159   3.454  14.819 -0.3175  0.1575  0.3055
  276TMC3     C 4171   0.907   3.531  14.482 -0.4310  0.4273 -0.8294
  276TMC3     O 4172   0.804   3.464  14.459  0.8959  0.2539  0.3766
  276TMC3     H 4173   0.957   3.293  14.599  0.2916  0.6198 -0.0158
  276TMC3    H1 4174   1.041   3.708  14.619 -0.5491 -0.7336 -0.9025
  276TMC3    H2 4175   1.237   3.435  14.892 -1.0009  1.1218  1.2758
  276TMC3    C7 4176   1.238   3.680  14.816 -0.4325  0.5472  0.1906
  276TMC3    C8 4177   1.102   3.230  14.826 -0.7969 -0.5203 -0.2182
  276TMC3    O1 4178   1.273   3.661  14.936  0.2068  0.4084  0.1295
  276TMC3    O2 4179   1.169   3.233  14.931  0.1851 -0.3355 -0.0688
  277MPD2     C 4180   2.600   2.760  13.127 -0.0009 -0.5365  0.0692
  277MPD2    C1 4181   2.465   2.773  13.154 -0.1490 -0.3095  0.4769
  277MPD2    C2 4182   2.418   2.687  13.256  0.4131  0.2174 -0.5147
  277MPD2    C3 4183   2.498   2.595  13.323  0.3171 -0.4096 -0.3332
  277MPD2    C4 4184   2.630   2.586  13.296  0.2853 -0.9918  0.0862
  277MPD2    C5 4185   2.678   2.678  13.197  0.3265 -0.1518 -0.0408
  277MPD2     H 4186   2.313   2.681  13.283  1.3037  0.2796  2.8365
  277MPD2    H1 4187   2.703   2.518  13.339  0.4679 -1.3366 -0.7539
  277MPD2    H2 4188   2.633   2.811  13.036 -2.7673 -2.5800 -2.0526
  277MPD2    H3 4189   2.783   2.683  13.171  0.7642 -0.9965  1.5486
  277MPD2     N 4190   2.437   2.503  13.420  0.8507 -0.0044  0.0821
  277MPD2    H5 4191   2.339   2.524  13.436  0.4677 -1.2215 -0.6995
  277MPD2    N1 4192   2.379   2.866  13.085  0.2838 -1.0839 -0.3027
  277MPD2    H7 4193   2.422   2.934  13.022  1.3249 -0.3755  1.1468
  278TMC3    C1 4194   2.415   2.335  13.573 -0.5200  0.2676 -0.1414
  278TMC3    C2 4195   2.413   2.208  13.535  0.1406  0.6810  0.9098
  278TMC3    C3 4196   2.287   2.149  13.530 -0.6340 -0.0328 -0.4511
  278TMC3    C4 4197   2.304   2.400  13.610 -0.1698 -0.6492  0.4739
  278TMC3    C5 4198   2.181   2.343  13.600  0.2912  0.1625 -0.0399
  278TMC3    C6 4199   2.167   2.215  13.563  0.3822  0.1170 -0.0052
  278TMC3     C 4200   2.508   2.405  13.487  0.1182 -0.1390  0.2647
  278TMC3     O 4201   2.614   2.355  13.457 -0.0519  0.0625 -0.1259
  278TMC3     H 4202   2.502   2.153  13.505 -2.4064 -1.5831 -2.4585
  278TMC3    H1 4203   2.313   2.506  13.629 -0.5085 -0.4250 -0.6450
  278TMC3    H2 4204   2.070   2.169  13.578  0.2414 -0.1583 -1.7179
  278TMC3    C7 4205   2.066   2.424  13.631  0.4637  0.6931  0.3881
  278TMC3    C8 4206   2.279   2.011  13.475  0.4059 -0.2097 -0.0423
  278TMC3    O1 4207   2.084   2.512  13.714  0.2354 -0.1631 -0.5759
  278TMC3    O2 4208   2.385   1.952  13.469 -0.9781 -0.5699  0.0699
  279MPD2     C 4209   1.271   2.310   0.013 -0.2024  0.5044  0.0292
  279MPD2    C1 4210   1.215   2.405  17.633 -0.4692  0.0440 -0.0740
  279MPD2    C2 4211   1.262   2.422  17.503  0.9690  0.0111  0.0796
  279MPD2    C3 4212   1.343   2.328  17.443  0.4422 -0.2769 -0.1854
  279MPD2    C4 4213   1.390   2.227  17.524  1.0550 -0.6296 -0.1519
  279MPD2    C5 4214   1.351   2.223  17.655  0.9039 -0.4740  0.0697
  279MPD2     H 4215   1.229   2.500  17.436  0.6761 -1.6954 -1.7723
  279MPD2    H1 4216   1.470   2.162  17.493 -0.0160 -1.1169 -1.8874
  279MPD2    H2 4217   1.228   2.290   0.110 -1.1091 -0.1332 -0.4976
  279MPD2    H3 4218   1.381   2.131  17.705  2.6265  1.1103  1.9613
  279MPD2     N 4219   1.399   2.337  17.312  0.4663 -0.0148  0.3170
  279MPD2    H5 4220   1.458   2.262  17.276  3.1793  1.2970  2.0228
  279MPD2    N1 4221   1.109   2.486  17.691  0.1141 -0.6500  0.1525
  279MPD2    H7 4222   1.081   2.467   0.081 -1.1491 -0.0816 -0.1032
  280TMC3    C1 4223   0.968   2.668   0.008  0.8101  0.0223  0.5326
  280TMC3    C2 4224   0.912   2.609   0.116 -0.2705 -0.0446 -0.1383
  280TMC3    C3 4225   0.834   2.687   0.198  0.0566  0.6464  0.4897
  280TMC3    C4 4226   0.947   2.801  17.680 -0.3915 -0.9725  0.5079
  280TMC3    C5 4227   0.870   2.869   0.059  0.4836 -0.3157 -0.1765
  280TMC3    C6 4228   0.816   2.818   0.177 -0.5258  0.0785 -0.3675
  280TMC3     C 4229   1.061   2.593  17.628  0.6250  0.0576  0.2699
  280TMC3     O 4230   1.079   2.634  17.515 -0.5130 -0.0760  0.1962
  280TMC3     H 4231   0.926   2.506   0.147 -1.3405  0.5216  2.2386
  280TMC3    H1 4232   1.000   2.850  17.598  1.5341 -1.0598  1.7145
  280TMC3    H2 4233   0.760   2.888   0.237 -0.7974  0.0817 -0.6246
  280TMC3    C7 4234   0.848   3.014   0.022 -0.1683 -0.2598 -0.5530
  280TMC3    C8 4235   0.741   2.621   0.289 -0.7359 -0.1081 -0.3923
  280TMC3    O1 4236   0.810   3.084   0.114 -0.3140 -0.0551 -0.6197
  280TMC3    O2 4237   0.778   2.516   0.334  0.2879  0.2590 -0.1992
  281TMC3    C1 4238   0.134   3.241  13.769 -1.0988  0.5103  0.0001
  281TMC3    C2 4239   0.239   3.330  13.751 -0.1773  0.6222 -0.0154
  281TMC3    C3 4240   0.360   3.268  13.728 -0.0409 -0.5118  0.9020
  281TMC3    C4 4241   0.147   3.109  13.790 -0.3134  0.8020 -0.3929
  281TMC3    C5 4242   0.276   3.059  13.771  0.2347  0.4479  0.2623
  281TMC3    C6 4243   0.379   3.135  13.729 -0.6487 -0.1948  0.2907
  281TMC3     C 4244   0.029   3.263  13.673 -0.5179 -0.0373 -0.5988
  281TMC3     O 4245   4.710   3.165  13.612 -0.2899 -0.0837 -0.9575
  281TMC3     H 4246   0.236   3.435  13.728  1.2147  0.6600 -0.0664
  281TMC3    H1 4247   0.066   3.039  13.805 -1.0436  1.4293 -1.3937
  281TMC3    H2 4248   0.468   3.091  13.685  0.0496  1.6020 -0.0952
  281TMC3    C7 4249   0.308   2.924  13.803  0.5494  0.1228  0.3794
  281TMC3    C8 4250   0.435   3.330  13.618 -1.3440 -0.4264  0.3239
  281TMC3    O1 4251   0.390   2.903  13.892  0.6293  0.5874 -0.2460
  281TMC3    O2 4252   0.559   3.341  13.623 -0.1013 -0.3851  0.8515
  282MPD2     C 4253   2.483   4.392  15.052  0.2773 -0.0985 -0.6827
  282MPD2    C1 4254   2.352   4.422  15.064  0.4450  0.5335  0.2378
  282MPD2    C2 4255   2.270   4.434  14.955  0.4421 -0.1258  0.0442
  282MPD2    C3 4256   2.316   4.429  14.829 -0.3429  0.0451  0.0883
  282MPD2    C4 4257   2.450   4.400  14.814  0.2519 -0.2123  0.5301
  282MPD2    C5 4258   2.534   4.379  14.922  0.3940  0.6365  0.2317
  282MPD2     H 4259   2.170   4.471  14.977  0.1206  1.2149 -3.5720
  282MPD2    H1 4260   2.498   4.394  14.717 -0.4756 -0.2655  0.1799
  282MPD2    H2 4261   2.553   4.383  15.134 -0.8263  3.0526  0.6296
  282MPD2    H3 4262   2.633   4.340  14.900 -0.6620 -1.6492 -0.4958
  282MPD2     N 4263   2.223   4.455  14.728  0.6720 -0.2179  0.2436
  282MPD2    H5 4264   2.126   4.465  14.756 -0.5564 -0.0466 -4.0429
  282MPD2    N1 4265   2.296   4.445  15.192 -0.0110  0.5758  0.1953
  282MPD2    H7 4266   2.201   4.481  15.196 -0.9314 -2.0253  1.5941
  283TMC3    C1 4267   2.282   4.420  15.424  0.4154  0.4759 -0.1134
  283TMC3    C2 4268   2.234   4.547  15.443 -0.1765 -0.8174 -0.1933
  283TMC3    C3 4269   2.143   4.563  15.543 -0.0450  0.2979  0.2690
  283TMC3    C4 4270   2.252   4.316  15.506 -0.0026 -0.2093  0.1554
  283TMC3    C5 4271   2.158   4.344  15.602 -0.6811  0.0453  0.0054
  283TMC3    C6 4272   2.102   4.461  15.628 -0.5151 -0.0585  0.3992
  283TMC3     C 4273   2.357   4.396  15.305 -0.4280  0.7121 -0.4965
  283TMC3     O 4274   2.448   4.316  15.323  0.2046 -0.4702 -0.6196
  283TMC3     H 4275   2.258   4.624  15.370 -0.1918  0.5160  1.2142
  283TMC3    H1 4276   2.308   4.225  15.491 -0.6327 -0.7658  1.1581
  283TMC3    H2 4277   2.017   4.477  15.693 -0.4898  4.2993 -0.5846
  283TMC3    C7 4278   2.093   4.227  15.657  0.2287 -0.0163  0.2752
  283TMC3    C8 4279   2.094   4.698  15.584  0.4703 -0.7862  0.5283
  283TMC3    O1 4280   2.083   4.239  15.780 -0.5159  0.1567 -0.0985
  283TMC3    O2 4281   2.065   4.706  15.704 -0.2901 -0.1152 -0.5533
  284MPD2     C 4282   0.142   3.592  11.948  0.0076  0.9634  0.4830
  284MPD2    C1 4283   0.229   3.555  11.843 -0.1644 -0.7195  0.0872
  284MPD2    C2 4284   0.278   3.423  11.835  0.7623 -0.0781 -0.5746
  284MPD2    C3 4285   0.237   3.341  11.930  0.0364  0.4727  0.3717
  284MPD2    C4 4286   0.161   3.383  12.044 -0.0894  0.4112  0.8472
  284MPD2    C5 4287   0.116   3.508  12.048  0.1588  0.0024 -0.3370
  284MPD2     H 4288   0.330   3.394  11.745  1.0122  1.8818 -1.0595
  284MPD2    H1 4289   0.138   3.306  12.116  2.3387  0.3497  1.5691
  284MPD2    H2 4290   0.114   3.697  11.956  2.0498  1.5001  0.4527
  284MPD2    H3 4291   0.068   3.541  12.139  1.4956 -3.5792  1.6666
  284MPD2     N 4292   0.262   3.201  11.916  0.7720 -0.2959  0.0219
  284MPD2    H5 4293   0.201   3.140  11.970  1.8224 -1.0614  0.3566
  284MPD2    N1 4294   0.258   3.641  11.738 -0.0699 -0.5465  0.4794
  284MPD2    H7 4295   0.314   3.610  11.659 -1.0391 -0.7054 -0.1409
  285TMC3    C1 4296   0.254   3.812  11.589  0.2159  0.3599  0.3431
  285TMC3    C2 4297   0.303   3.721  11.497  0.3526  0.3766 -0.0979
  285TMC3    C3 4298   0.406   3.752  11.418  0.0956 -0.9050  0.2413
  285TMC3    C4 4299   0.306   3.936  11.600 -0.0285  0.5858 -0.5720
  285TMC3    C5 4300   0.408   3.971  11.515 -0.6115  0.7244 -0.8787
  285TMC3    C6 4301   0.454   3.879  11.424  0.0060  0.2506  0.2194
  285TMC3     C 4302   0.202   3.762  11.714  0.2592 -0.6773 -0.1237
  285TMC3     O 4303   0.118   3.834  11.768  0.1756 -0.4742  0.6143
  285TMC3     H 4304   0.247   3.630  11.475 -0.6629  1.2893 -1.2978
  285TMC3    H1 4305   0.260   4.007  11.669  0.9270  0.6532  0.0059
  285TMC3    H2 4306   0.540   3.904  11.364  0.3913  0.6990  0.9577
  285TMC3    C7 4307   0.402   4.102  11.456  0.0267 -0.1292  0.0896
  285TMC3    C8 4308   0.444   3.660  11.313  0.4483  0.1339  0.3876
  285TMC3    O1 4309   0.394   4.104  11.333  0.2066 -0.3755 -0.0010
  285TMC3    O2 4310   0.352   3.590  11.262  0.0838  0.0150 -0.1933
  286MPD2     C 4311   1.187   2.418   2.036 -0.0715  0.1165 -0.0657
  286MPD2    C1 4312   1.156   2.393   1.903 -0.0252 -0.9866 -0.7389
  286MPD2    C2 4313   1.243   2.321   1.823  1.2194 -0.0297  0.4002
  286MPD2    C3 4314   1.375   2.280   1.867  0.4900  0.2431 -0.0983
  286MPD2    C4 4315   1.408   2.311   2.002  0.5188 -0.4102  0.0377
  286MPD2    C5 4316   1.315   2.372   2.080 -0.6542  0.3546 -0.1437
  286MPD2     H 4317   1.197   2.277   1.736  0.5177  1.2921  0.1050
  286MPD2    H1 4318   1.504   2.282   2.043  1.7243  1.8808 -1.1994
  286MPD2    H2 4319   1.117   2.468   2.101 -1.1641 -2.0653  0.4241
  286MPD2    H3 4320   1.334   2.406   2.181  1.0862 -1.3785  0.1031
  286MPD2     N 4321   1.465   2.203   1.783  0.1098 -0.6948 -0.5310
  286MPD2    H5 4322   1.551   2.162   1.819  0.3264  1.9296  1.8933
  286MPD2    N1 4323   1.021   2.424   1.861  0.1432  0.8298  0.2295
  286MPD2    H7 4324   0.958   2.459   1.932 -0.5827 -1.8488  0.8715
  287TMC3    C1 4325   1.551   2.121   1.575 -0.1135  0.0635 -0.0029
  287TMC3    C2 4326   1.516   2.069   1.450 -0.0287 -0.8669 -0.0842
  287TMC3    C3 4327   1.611   2.077   1.354 -0.1061  0.3348 -0.2795
  287TMC3    C4 4328   1.679   2.164   1.609 -0.0019 -0.0111 -0.4995
  287TMC3    C5 4329   1.769   2.169   1.509  0.0074  0.8882 -0.3362
  287TMC3    C6 4330   1.739   2.115   1.378 -0.1824  0.2037  0.4773
  287TMC3     C 4331   1.437   2.165   1.654  0.2909 -0.3950 -0.3376
  287TMC3     O 4332   1.337   2.177   1.585 -0.4097  0.4420 -0.3999
  287TMC3     H 4333   1.413   2.044   1.428 -0.0166  0.0511 -1.1446
  287TMC3    H1 4334   1.707   2.204   1.705 -2.0347  1.8746 -0.6698
  287TMC3    H2 4335   1.811   2.122   1.298  0.9109 -1.0372  1.3283
  287TMC3    C7 4336   1.905   2.198   1.547  0.2378 -0.1977  0.2580
  287TMC3    C8 4337   1.563   2.023   1.235  0.5820  0.5651  0.0625
  287TMC3    O1 4338   1.923   2.260   1.647  0.1377 -0.1769 -0.3102
  287TMC3    O2 4339   1.446   1.996   1.226  0.3040  0.5439  0.1744
  288TMC3    C1 4340   2.320   2.219  14.425  0.7094  0.1860 -0.0308
  288TMC3    C2 4341   2.272   2.144  14.526 -0.0499  0.3556 -0.4885
  288TMC3    C3 4342   2.210   2.032  14.479  0.0463 -0.3490  0.3496
  288TMC3    C4 4343   2.301   2.188  14.290 -0.3838 -0.2913 -0.4247
  288TMC3    C5 4344   2.246   2.067  14.258 -0.3157  0.3733  0.2099
  288TMC3    C6 4345   2.204   1.986  14.352  0.1631  0.1151 -0.5311
  288TMC3     C 4346   2.392   2.340  14.465 -0.3579 -0.0535 -0.3464
  288TMC3     O 4347   2.411   2.373  14.581 -0.0980  0.0055 -0.2316
  288TMC3     H 4348   2.290   2.169  14.630 -1.6097 -2.6799  0.5376
  288TMC3    H1 4349   2.339   2.246  14.207 -1.3556  2.7269  1.2509
  288TMC3    H2 4350   2.143   1.900  14.327 -0.5242  1.0214 -1.9880
  288TMC3    C7 4351   2.276   2.019  14.120  0.3372 -0.0204 -0.3843
  288TMC3    C8 4352   2.154   1.944  14.575  0.1689  0.1308  0.2345
  288TMC3    O1 4353   2.277   2.107  14.035  0.2410  0.1182  0.2461
  288TMC3    O2 4354   2.085   1.853  14.540 -0.1464  0.2106  1.0482
  289MPD2     C 4355   2.536   1.258  14.445 -0.2001 -0.3730  0.4026
  289MPD2    C1 4356   2.544   1.390  14.389  0.1220  0.0339 -0.0464
  289MPD2    C2 4357   2.438   1.431  14.304 -0.3822  0.4876 -0.2018
  289MPD2    C3 4358   2.333   1.350  14.283 -0.4059  0.5483 -0.1970
  289MPD2    C4 4359   2.340   1.217  14.317  0.0855  0.4080 -0.3764
  289MPD2    C5 4360   2.450   1.171  14.389 -0.4016  0.1422 -0.3561
  289MPD2     H 4361   2.440   1.535  14.272 -2.3076  0.3069 -0.9378
  289MPD2    H1 4362   2.263   1.147  14.289 -0.5480  0.1174  2.0746
  289MPD2    H2 4363   2.616   1.213  14.503  0.6237  1.6807  0.8928
  289MPD2    H3 4364   2.434   1.078  14.442 -0.2724  0.4483  0.2316
  289MPD2     N 4365   2.217   1.399  14.215  0.0020 -0.6227 -0.3468
  289MPD2    H5 4366   2.151   1.334  14.175 -0.4627 -1.3090  1.5671
  289MPD2    N1 4367   2.654   1.471  14.419 -0.2026 -0.0781 -0.3632
  289MPD2    H7 4368   2.722   1.436  14.485  0.2953  0.2964 -0.6854
  290TMC3    C1 4369   2.098   1.562  14.083 -0.3527 -0.1710 -0.9121
  290TMC3    C2 4370   2.044   1.689  14.082  0.1805  0.2583  0.3719
  290TMC3    C3 4371   2.001   1.730  13.951  0.7523 -0.1131  0.2683
  290TMC3    C4 4372   2.108   1.480  13.971  0.4586 -0.1407 -0.2934
  290TMC3    C5 4373   2.049   1.518  13.855 -0.0842 -0.3976 -0.5771
  290TMC3    C6 4374   1.995   1.645  13.837  0.1302 -0.1892  0.7912
  290TMC3     C 4375   2.179   1.533  14.201  0.0293  0.2870 -0.2434
  290TMC3     O 4376   2.206   1.627  14.267 -0.2713 -0.1292 -0.8104
  290TMC3     H 4377   2.036   1.750  14.171  2.0310 -0.4050  0.9913
  290TMC3    H1 4378   2.181   1.400  13.976 -0.3288 -0.7523  1.4886
  290TMC3    H2 4379   1.937   1.676  13.751 -2.4124  0.5351  2.7558
  290TMC3    C7 4380   2.037   1.426  13.750 -0.6621  0.4499  0.7249
  290TMC3    C8 4381   1.976   1.868  13.915  0.3468  0.1159 -0.7216
  290TMC3    O1 4382   2.009   1.468  13.641 -0.2361  0.0905 -0.6560
  290TMC3    O2 4383   1.943   1.892  13.800  0.0384  0.3707  0.0946
  291MPD2     C 4384   1.901   1.249   0.323 -0.4527 -0.0421 -0.4285
  291MPD2    C1 4385   1.874   1.136   0.259  0.4482  0.4839  0.3826
  291MPD2    C2 4386   1.888   1.130   0.124  0.3812  0.6128  0.8285
  291MPD2    C3 4387   1.928   1.241   0.053 -0.7448 -0.3269  0.7791
  291MPD2    C4 4388   1.953   1.363   0.111 -0.4154  0.1834  0.5599
  291MPD2    C5 4389   1.937   1.359   0.244  0.6047  0.0416 -0.1937
  291MPD2     H 4390   1.866   1.035   0.078  1.3274  0.7408  0.1285
  291MPD2    H1 4391   1.978   1.461   0.073 -0.2531 -0.5430 -1.2092
  291MPD2    H2 4392   1.890   1.273   0.428 -0.4342 -0.7837 -0.2600
  291MPD2    H3 4393   1.943   1.450   0.302 -0.4802 -0.0584  0.0773
  291MPD2     N 4394   1.947   1.232  17.622  0.2799 -0.1433  0.4280
  291MPD2    H5 4395   1.953   1.326  17.583  1.7724 -0.9792 -1.3980
  291MPD2    N1 4396   1.829   1.017   0.321  0.0168  0.1121  0.3836
  291MPD2    H7 4397   1.827   0.937   0.259 -3.4991  1.3012 -1.0719
  292TMC3    C1 4398   1.767   0.858   0.484  0.5381  0.4592  0.0693
  292TMC3    C2 4399   1.697   0.838   0.600  0.1566  0.2600 -0.1349
  292TMC3    C3 4400   1.701   0.710   0.650  0.3224  0.3168 -0.1647
  292TMC3    C4 4401   1.841   0.764   0.420 -0.0157 -0.1686 -0.4180
  292TMC3    C5 4402   1.844   0.646   0.478  0.1754 -0.2776 -0.1840
  292TMC3    C6 4403   1.773   0.612   0.588  0.3778  0.5232  0.1490
  292TMC3     C 4404   1.784   1.001   0.444 -0.5523  0.3229 -0.6278
  292TMC3     O 4405   1.763   1.084   0.529 -0.3261  0.0708 -0.0367
  292TMC3     H 4406   1.652   0.919   0.656  0.4870 -0.5273  1.2799
  292TMC3    H1 4407   1.910   0.799   0.343 -0.7016 -2.1189 -1.9119
  292TMC3    H2 4408   1.777   0.510   0.623  1.0581  0.9300  1.2711
  292TMC3    C7 4409   1.917   0.555   0.405  0.3956  0.0433 -0.3675
  292TMC3    C8 4410   1.650   0.698   0.785  0.0157 -0.7176 -0.0417
  292TMC3    O1 4411   1.921   0.582   0.288  0.1948 -0.7144  0.1500
  292TMC3    O2 4412   1.553   0.765   0.820  0.6076  0.0847  0.0569
  293MPD2     C 4413   3.779   2.995  12.229  0.5087  0.1536  0.5309
  293MPD2    C1 4414   3.680   2.946  12.315  0.2494 -0.0021  0.5977
  293MPD2    C2 4415   3.682   2.973  12.450  0.2632 -0.1647 -0.5860
  293MPD2    C3 4416   3.786   3.042  12.508 -0.2826  0.8347  0.7133
  293MPD2    C4 4417   3.880   3.090  12.423 -0.1288  0.2429 -0.4122
  293MPD2    C5 4418   3.877   3.068  12.289 -0.1358  0.0701 -0.1497
  293MPD2     H 4419   3.613   2.934  12.524  0.9117 -3.5298 -1.7343
  293MPD2    H1 4420   3.970   3.147  12.447  0.0962 -1.2244  2.1370
  293MPD2    H2 4421   3.776   2.985  12.121  0.5733  0.9753  0.4511
  293MPD2    H3 4422   3.946   3.126  12.228 -1.2074  2.0293  0.4966
  293MPD2     N 4423   3.789   3.056  12.654  0.3299  0.3107 -0.2883
  293MPD2    H5 4424   3.709   3.016  12.703  2.6976  0.0037  3.3498
  293MPD2    N1 4425   3.574   2.880  12.250 -0.3179 -0.0704  0.2661
  293MPD2    H7 4426   3.579   2.891  12.149  0.6215 -0.9385  0.2232
  294TMC3    C1 4427   3.375   2.755  12.219 -0.2025 -0.5467 -0.2442
  294TMC3    C2 4428   3.290   2.655  12.262 -0.9605  0.1397  0.1211
  294TMC3    C3 4429   3.201   2.605  12.168 -0.2856  0.2565  0.3508
  294TMC3    C4 4430   3.358   2.827  12.112  0.0486 -0.5603  0.1470
  294TMC3    C5 4431   3.274   2.782  12.013  0.2892 -0.1627  0.1634
  294TMC3    C6 4432   3.205   2.667  12.040  0.6010  0.2075  0.3279
  294TMC3     C 4433   3.470   2.815  12.315 -0.0407 -0.7074  0.1538
  294TMC3     O 4434   3.467   2.783  12.432 -0.1852 -0.1092  0.3586
  294TMC3     H 4435   3.289   2.620  12.365 -1.0155 -2.3743 -0.7232
  294TMC3    H1 4436   3.413   2.919  12.096  2.1841 -1.4134  2.5883
  294TMC3    H2 4437   3.133   2.633  11.966  1.6089 -0.4852 -0.3244
  294TMC3    C7 4438   3.262   2.844  11.883  0.5747 -0.0987  0.0509
  294TMC3    C8 4439   3.114   2.494  12.200 -0.6207 -0.0631  0.1055
  294TMC3    O1 4440   3.253   2.767  11.788 -0.5055  0.0809  0.5409
  294TMC3    O2 4441   3.059   2.492  12.308  0.0686 -0.3642 -0.0451
  295MPD2     C 4442   3.756   1.152  17.331  0.1254  0.9340  0.3367
  295MPD2    C1 4443   3.840   1.201  17.428  0.3441  0.4131  0.0440
  295MPD2    C2 4444   3.786   1.219  17.556 -0.8379  0.2211  0.6233
  295MPD2    C3 4445   3.649   1.199  17.580  0.4405  0.7813 -0.0608
  295MPD2    C4 4446   3.576   1.149  17.473  0.2293 -0.2051 -0.2224
  295MPD2    C5 4447   3.628   1.118  17.357  0.6712 -0.8443 -0.8737
  295MPD2     H 4448   3.850   1.274  17.625 -2.2375  0.5812  1.6270
  295MPD2    H1 4449   3.471   1.125  17.479  0.5980 -1.5993  0.6055
  295MPD2    H2 4450   3.789   1.131  17.230  1.0974 -1.8180  1.2094
  295MPD2    H3 4451   3.564   1.092  17.273 -0.1341  0.0042 -0.5215
  295MPD2     N 4452   3.582   1.206  17.702  0.1893 -0.2026  0.1068
  295MPD2    H5 4453   3.482   1.193  17.702  0.4053 -1.9110  1.5487
  295MPD2    N1 4454   3.972   1.222  17.395 -0.2501 -0.2617 -0.3592
  295MPD2    H7 4455   4.003   1.204  17.300  2.3104  2.4713 -0.0630
  296TMC3    C1 4456   3.567   1.237   0.235  0.8674 -0.4407 -0.4248
  296TMC3    C2 4457   3.592   1.333   0.330  0.3174  0.9179  0.7775
  296TMC3    C3 4458   3.522   1.317   0.449 -0.0462  0.3903 -0.0217
  296TMC3    C4 4459   3.470   1.139   0.256  0.5275 -0.2750 -0.1414
  296TMC3    C5 4460   3.397   1.138   0.378 -0.8293 -0.1616  0.3137
  296TMC3    C6 4461   3.440   1.214   0.485  0.2263  0.4043  0.4563
  296TMC3     C 4462   3.646   1.250   0.111  0.5750  0.0758 -0.6258
  296TMC3     O 4463   3.765   1.276   0.125  0.4796 -0.2771 -0.1455
  296TMC3     H 4464   3.659   1.417   0.319  1.8421 -0.4492 -0.4577
  296TMC3    H1 4465   3.441   1.070   0.177  0.0820 -2.2116  1.7175
  296TMC3    H2 4466   3.388   1.216   0.580 -2.1859  0.7794 -0.8734
  296TMC3    C7 4467   3.274   1.067   0.397 -0.6178  0.2291 -0.1676
  296TMC3    C8 4468   3.543   1.413   0.557 -0.4233  0.2619 -0.1254
  296TMC3    O1 4469   3.192   1.075   0.307 -0.1183  0.5617  1.0302
  296TMC3    O2 4470   3.506   1.381   0.670  0.3415  0.9520  0.4503
  297MPD2     C 4471   1.231   3.154  15.909 -0.1247  1.1634 -0.5829
  297MPD2    C1 4472   1.223   3.284  15.855 -0.3255 -0.1687  0.5125
  297MPD2    C2 4473   1.324   3.369  15.883 -0.1724 -0.6558 -0.6980
  297MPD2    C3 4474   1.428   3.325  15.959 -0.9374 -0.4820 -0.3644
  297MPD2    C4 4475   1.442   3.196  16.013  1.0543 -0.6763 -0.0478
  297MPD2    C5 4476   1.340   3.114  15.980  1.1458  0.5625 -0.7840
  297MPD2     H 4477   1.327   3.467  15.836 -4.9892 -1.4692 -2.7319
  297MPD2    H1 4478   1.528   3.165  16.071 -0.2287 -2.3023  0.9715
  297MPD2    H2 4479   1.153   3.080  15.896  1.6044 -0.5616 -1.0370
  297MPD2    H3 4480   1.335   3.014  16.020 -1.6705 -0.3170 -3.3062
  297MPD2     N 4481   1.524   3.423  15.990 -0.0248 -0.5184 -0.0846
  297MPD2    H5 4482   1.496   3.515  15.960  0.4709  0.3726  2.1659
  297MPD2    N1 4483   1.110   3.331  15.788 -0.2260 -0.2688  0.1299
  297MPD2    H7 4484   1.110   3.429  15.763  0.4347 -0.1971  0.4161
  298TMC3    C1 4485   0.940   3.307  15.620 -0.7607 -0.3777  0.1511
  298TMC3    C2 4486   0.921   3.233  15.511 -0.2278  0.1262  0.2375
  298TMC3    C3 4487   0.850   3.290  15.404 -0.0079 -0.6164  0.2129
  298TMC3    C4 4488   0.884   3.430  15.633 -0.7688  0.0939  0.0145
  298TMC3    C5 4489   0.805   3.484  15.535  0.0183  0.3380 -0.6431
  298TMC3    C6 4490   0.790   3.415  15.418 -0.0229  0.1194 -0.5454
  298TMC3     C 4491   1.020   3.250  15.730 -0.1226 -0.5146 -0.0763
  298TMC3     O 4492   1.008   3.133  15.748 -0.2513 -0.3611 -0.3606
  298TMC3     H 4493   0.979   3.142  15.504  0.2723  0.3587  1.4334
  298TMC3    H1 4494   0.901   3.474  15.731 -1.0520 -0.6355  0.3929
  298TMC3    H2 4495   0.735   3.456  15.334 -1.8075 -0.2044  0.4595
  298TMC3    C7 4496   0.713   3.591  15.582  0.1072  0.9509 -0.2558
  298TMC3    C8 4497   0.841   3.212  15.282  0.3194 -0.5088 -0.3257
  298TMC3    O1 4498   0.697   3.606  15.703 -0.4474 -0.3294 -0.0011
  298TMC3    O2 4499   0.866   3.093  15.294 -0.3028 -1.0825  0.3366
  299MPD2     C 4500   2.125   2.762  10.298 -0.2820 -0.6663 -0.2474
  299MPD2    C1 4501   2.122   2.901  10.303  0.0523  0.0089 -1.1281
  299MPD2    C2 4502   2.025   2.966  10.235  0.0080 -0.0355  0.3810
  299MPD2    C3 4503   1.915   2.895  10.183  0.5428 -0.0119 -0.2007
  299MPD2    C4 4504   1.927   2.759  10.176  0.2126  0.5593  0.1732
  299MPD2    C5 4505   2.026   2.698  10.239 -0.8819 -0.0604  0.4840
  299MPD2     H 4506   2.032   3.074  10.234  0.0193 -0.0306  1.6611
  299MPD2    H1 4507   1.855   2.684  10.145 -0.6690  1.5313 -0.1322
  299MPD2    H2 4508   2.207   2.710  10.346  1.0981 -1.4464 -3.4529
  299MPD2    H3 4509   2.028   2.590  10.247 -0.9533 -0.0294  0.8954
  299MPD2     N 4510   1.802   2.956  10.126  0.6555  0.1168  0.3466
  299MPD2    H5 4511   1.745   2.890  10.074 -1.4298  0.2415  2.4562
  299MPD2    N1 4512   2.236   2.958  10.368 -0.2038  0.2622 -0.4342
  299MPD2    H7 4513   2.288   2.893  10.426 -2.6259 -1.9140 -0.7451
  300TMC3    C1 4514   1.631   3.122  10.094  0.3420 -0.4380  0.1905
  300TMC3    C2 4515   1.599   3.257  10.087 -0.0694  0.5902  0.1354
  300TMC3    C3 4516   1.466   3.285  10.112  0.0771  0.4587 -0.0659
  300TMC3    C4 4517   1.526   3.024  10.101 -0.3351  0.3965  0.2005
  300TMC3    C5 4518   1.397   3.064  10.125 -0.2013  0.2632 -0.2068
  300TMC3    C6 4519   1.364   3.195  10.128 -0.1575 -0.6763  0.0113
  300TMC3     C 4520   1.763   3.090  10.141  0.1377  0.1399  0.7635
  300TMC3     O 4521   1.832   3.190  10.177 -0.1104  0.2176 -0.9158
  300TMC3     H 4522   1.668   3.341  10.093  1.0958 -0.4392  0.9581
  300TMC3    H1 4523   1.544   2.917  10.100  0.2486  0.5180 -1.2691
  300TMC3    H2 4524   1.259   3.221  10.140  0.2637  1.1260 -0.2764
  300TMC3    C7 4525   1.292   2.961  10.124 -0.1932 -0.3338 -0.0812
  300TMC3    C8 4526   1.436   3.404  10.173  0.3510  0.9212 -0.0110
  300TMC3    O1 4527   1.301   2.862  10.055 -0.2851 -0.3415  0.7652
  300TMC3    O2 4528   1.530   3.454  10.229 -0.3842  0.3803  0.2723
  301MPD2     C 4529   3.533   4.169   0.899  0.1357 -0.9484  0.5676
  301MPD2    C1 4530   3.430   4.171   0.805  0.8376 -0.2083 -0.4579
  301MPD2    C2 4531   3.454   4.110   0.683  1.0733 -0.3420 -0.2345
  301MPD2    C3 4532   3.578   4.055   0.650 -0.0854 -0.5115 -0.2514
  301MPD2    C4 4533   3.677   4.064   0.741  0.4719 -0.1817  0.2178
  301MPD2    C5 4534   3.655   4.115   0.867 -0.2152  0.5363  0.9185
  301MPD2     H 4535   3.370   4.123   0.616  2.0601  1.5101 -1.0973
  301MPD2    H1 4536   3.778   4.029   0.722  0.7009  1.1896 -1.1215
  301MPD2    H2 4537   3.512   4.204   0.999  0.1832 -1.3702  0.7291
  301MPD2    H3 4538   3.737   4.128   0.938  0.9965 -1.3964 -0.1199
  301MPD2     N 4539   3.608   3.987   0.525  0.6033  0.1387 -0.1985
  301MPD2    H5 4540   3.705   3.963   0.510  0.6435  0.4281 -0.4152
  301MPD2    N1 4541   3.306   4.233   0.824  0.4002 -0.7867 -0.2820
  301MPD2    H7 4542   3.239   4.220   0.749  1.9155 -1.3078 -1.5213
  302TMC3    C1 4543   3.572   3.901   0.311 -0.3013  0.1932 -0.0944
  302TMC3    C2 4544   3.676   3.811   0.323 -0.9304 -0.1348  0.4348
  302TMC3    C3 4545   3.718   3.748   0.206  1.1115  0.7158 -0.3266
  302TMC3    C4 4546   3.502   3.916   0.194 -0.4921  0.7592  0.5501
  302TMC3    C5 4547   3.539   3.851   0.078 -0.4548 -0.2388  0.0869
  302TMC3    C6 4548   3.651   3.767   0.086  0.5046  0.0585 -0.3919
  302TMC3     C 4549   3.510   3.961   0.432 -0.1165  0.4042  0.5293
  302TMC3     O 4550   3.398   3.999   0.420  0.5044  0.2442  0.5581
  302TMC3     H 4551   3.712   3.792   0.423  1.1319 -0.9327 -0.4455
  302TMC3    H1 4552   3.418   3.985   0.193 -1.1053  0.0027 -0.0587
  302TMC3    H2 4553   3.686   3.708   0.002  1.4646  0.7615 -0.4814
  302TMC3    C7 4554   3.434   3.798  17.705 -0.3899  0.4254  0.6017
  302TMC3    C8 4555   3.833   3.661   0.213 -0.1101  0.9455 -0.1519
  302TMC3    O1 4556   3.453   3.711  17.624 -0.3451  0.0499  0.0388
  302TMC3    O2 4557   3.868   3.603   0.111 -0.0200  0.3704 -0.3879
  303MPD2     C 4558   4.587   2.495  10.275  0.4716 -0.1902 -0.7069
  303MPD2    C1 4559   4.463   2.556  10.303  0.2979  0.3389 -0.0084
  303MPD2    C2 4560   4.379   2.579  10.197  0.5996 -0.0679 -0.4268
  303MPD2    C3 4561   4.420   2.552  10.067  1.0017 -0.0789 -0.2321
  303MPD2    C4 4562   4.536   2.490  10.041  0.3963  0.2158 -0.7403
  303MPD2    C5 4563   4.620   2.458  10.148  0.0019  0.2027  0.0138
  303MPD2     H 4564   4.279   2.614  10.220  0.3592 -1.3062  0.4194
  303MPD2    H1 4565   4.572   2.457   9.945  0.1736  0.5255 -0.9276
  303MPD2    H2 4566   4.656   2.472  10.356  1.4478 -0.7926 -1.7075
  303MPD2    H3 4567   4.715   2.410  10.122 -0.7427 -1.7919  0.9557
  303MPD2     N 4568   4.338   2.566   9.948 -0.2581 -0.7560  0.3448
  303MPD2    H5 4569   4.387   2.545   9.862  1.7706  1.1870  1.0384
  303MPD2    N1 4570   4.431   2.578  10.440  0.5919  0.1939 -0.2283
  303MPD2    H7 4571   4.492   2.538  10.509  0.4768  1.6702  0.7280
  304TMC3    C1 4572   4.284   2.617  10.614  0.2717 -0.3417 -0.1146
  304TMC3    C2 4573   4.193   2.702  10.674 -0.2542  0.6394  0.0538
  304TMC3    C3 4574   4.129   2.673  10.789  0.7434  1.1275 -0.3403
  304TMC3    C4 4575   4.288   2.488  10.652 -0.2122 -0.5311 -0.3011
  304TMC3    C5 4576   4.221   2.454  10.766  0.7163 -0.5051 -0.6041
  304TMC3    C6 4577   4.150   2.550  10.839 -0.0653  0.0436 -0.0975
  304TMC3     C 4578   4.320   2.648  10.480  0.0236 -0.0457  0.8828
  304TMC3     O 4579   4.250   2.721  10.413 -0.1581  0.0666 -0.0728
  304TMC3     H 4580   4.176   2.798  10.626 -0.2476 -0.3169 -1.8294
  304TMC3    H1 4581   4.333   2.410  10.592  1.2442  2.5750 -3.2071
  304TMC3    H2 4582   4.101   2.524  10.932  0.0161  0.7446  0.1380
  304TMC3    C7 4583   4.153   2.334  10.751  0.2390 -0.6608  0.3658
  304TMC3    C8 4584   3.983   2.709  10.782 -0.1184  0.4430 -0.3045
  304TMC3    O1 4585   4.217   2.242  10.697 -0.1896 -0.0807 -0.7276
  304TMC3    O2 4586   3.910   2.616  10.805 -0.6714 -0.1333  0.3192
  305MPD2     C 4587   1.830   4.442  13.666  0.1223  0.3227 -0.7010
  305MPD2    C1 4588   1.953   4.384  13.680  0.4397 -0.7691  0.7337
  305MPD2    C2 4589   1.988   4.281  13.597  0.5396 -0.3068  0.4628
  305MPD2    C3 4590   1.895   4.237  13.502  0.7635  0.2720  0.4184
  305MPD2    C4 4591   1.769   4.289  13.501  0.5410  0.3275 -0.5424
  305MPD2    C5 4592   1.733   4.391  13.587  0.1088 -0.2068 -0.4543
  305MPD2     H 4593   2.089   4.241  13.593 -1.2130 -4.8784  1.5284
  305MPD2    H1 4594   1.699   4.255  13.425 -0.5234  0.4655  0.3673
  305MPD2    H2 4595   1.800   4.515  13.740  0.0989 -0.4270  0.0289
  305MPD2    H3 4596   1.631   4.429  13.587  0.0324 -0.3880  2.4814
  305MPD2     N 4597   1.937   4.148  13.393 -0.3875 -0.2131  0.4925
  305MPD2    H5 4598   1.871   4.116  13.323  1.1290 -2.9164  0.3057
  305MPD2    N1 4599   2.040   4.439  13.785  0.3060  0.3429 -0.1462
  305MPD2    H7 4600   1.998   4.493  13.859 -0.5688 -0.8219  0.1954
  306TMC3    C1 4601   2.236   4.456  13.919  0.0215 -0.3055  0.0156
  306TMC3    C2 4602   2.366   4.412  13.939 -0.5803  0.1515  0.2362
  306TMC3    C3 4603   2.447   4.487  14.021  0.1387 -0.2680  0.2426
  306TMC3    C4 4604   2.191   4.582  13.951 -0.8281 -0.0562 -0.3108
  306TMC3    C5 4605   2.284   4.663  14.014  0.2426 -0.6195  0.2943
  306TMC3    C6 4606   2.407   4.612  14.058  0.2103 -0.9727  0.5499
  306TMC3     C 4607   2.167   4.399  13.801 -0.9978  0.6491 -0.5705
  306TMC3     O 4608   2.229   4.317  13.733 -0.2093 -0.3322  0.0963
  306TMC3     H 4609   2.403   4.317  13.902  0.5722  1.4875 -2.0537
  306TMC3    H1 4610   2.106   4.632  13.905 -0.8378 -0.9637 -1.2849
  306TMC3    H2 4611   2.482   4.684  14.089 -0.2010 -0.6822  0.8621
  306TMC3    C7 4612   2.213   0.025  14.104  0.1830 -0.1590 -0.1535
  306TMC3    C8 4613   2.536   4.411  14.110 -0.2522 -0.5579 -0.2202
  306TMC3    O1 4614   2.092   0.048  14.080 -0.4627 -0.0434 -0.4562
  306TMC3    O2 4615   2.544   4.293  14.101  0.0008  0.4800  0.3970
  307MPD2     C 4616   4.620   1.099   0.895 -0.6415  0.1884  0.0341
  307MPD2    C1 4617   4.608   1.230   0.926  0.0589 -0.1030 -0.8571
  307MPD2    C2 4618   4.478   1.291   0.927  0.0823  0.3530  0.7882
  307MPD2    C3 4619   4.374   1.239   0.865 -0.4907 -0.0738  1.0075
  307MPD2    C4 4620   4.385   1.102   0.838  0.6997  0.2948 -0.6222
  307MPD2    C5 4621   4.501   1.035   0.863  0.5735  0.0114  0.5155
  307MPD2     H 4622   4.458   1.392   0.959  0.7758  0.8069 -0.2104
  307MPD2    H1 4623   4.304   1.047   0.792 -0.8118  1.4767  0.6461
  307MPD2    H2 4624   4.715   1.048   0.904 -0.6124  0.3671  0.7250
  307MPD2    H3 4625   4.510   0.930   0.836 -3.1622 -0.4254  1.0905
  307MPD2     N 4626   4.257   1.327   0.836 -0.5593  0.1058 -0.3718
  307MPD2    H5 4627   4.256   1.422   0.871 -2.6287  0.5815 -1.7116
  307MPD2    N1 4628   4.714   1.312   0.975  0.2907  0.2288 -0.2655
  307MPD2    H7 4629   4.684   1.397   1.022 -1.1091  0.3973 -1.4808
  308TMC3    C1 4630   3.993   1.567   0.587  0.1159  0.7690 -0.1247
  308TMC3    C2 4631   3.965   1.665   0.683 -0.1047  0.1511  0.0719
  308TMC3    C3 4632   3.982   1.617   0.812  0.1175 -0.2371 -0.3910
  308TMC3    C4 4633   4.054   1.444   0.608  0.0905  0.0114  0.2982
  308TMC3    C5 4634   4.079   1.415   0.734 -0.0583  0.9253  0.1900
  308TMC3    C6 4635   4.041   1.495   0.837  0.3803 -0.5690 -0.0058
  308TMC3     C 4636   3.952   1.586   0.447 -0.5169  0.1699  0.7719
  308TMC3     O 4637   3.932   1.481   0.386  0.2635  0.3234 -0.2261
  308TMC3     H 4638   3.907   1.754   0.660  3.0916  2.4747  0.9346
  308TMC3    H1 4639   4.091   1.380   0.529  0.7968 -1.0064  1.4478
  308TMC3    H2 4640   4.061   1.457   0.936  0.5118 -1.4426 -0.3654
  308TMC3    C7 4641   4.143   1.295   0.762 -0.2015  0.2102 -0.7441
  308TMC3    C8 4642   3.986   1.714   0.926  0.3746  0.3709  0.3526
  308TMC3    O1 4643   4.114   1.198   0.691 -0.3432 -0.3979  0.1595
  308TMC3    O2 4644   3.974   1.658   1.033 -0.0529  0.0113 -0.2560
  309MPD2     C 4645   4.131   2.854  16.696  0.0873 -0.3095  0.5255
  309MPD2    C1 4646   4.044   2.898  16.604  0.1987 -0.4661  0.1098
  309MPD2    C2 4647   3.913   2.933  16.640 -0.4949  0.0204  0.1374
  309MPD2    C3 4648   3.870   2.921  16.767  0.6014 -0.1042 -0.3881
  309MPD2    C4 4649   3.958   2.869  16.858 -0.2757 -0.7432  0.0895
  309MPD2    C5 4650   4.087   2.844  16.825  0.2098 -0.5644  0.1373
  309MPD2     H 4651   3.848   2.946  16.555  0.3936  1.3881 -0.3367
  309MPD2    H1 4652   3.923   2.860  16.960  2.1079  0.7537  1.0534
  309MPD2    H2 4653   4.239   2.845  16.686 -0.0125  0.4572 -1.3763
  309MPD2    H3 4654   4.151   2.806  16.903 -1.8310 -0.9083  1.6460
  309MPD2     N 4655   3.733   2.936  16.813 -0.2927 -0.4056  0.2892
  309MPD2    H5 4656   3.719   2.928  16.913  1.7723 -2.8858  0.4022
  309MPD2    N1 4657   4.074   2.909  16.467 -0.2085 -0.1400  0.6491
  309MPD2    H7 4658   4.002   2.943  16.404  1.4307  0.6485 -0.8258
  310TMC3    C1 4659   4.212   2.893  16.279  0.6513  0.1136 -0.3889
  310TMC3    C2 4660   4.215   3.023  16.256  0.3365 -0.0057  0.2719
  310TMC3    C3 4661   4.301   3.074  16.165 -0.1900  0.1149 -0.6402
  310TMC3    C4 4662   4.307   2.816  16.214  0.5090 -0.7679  0.8448
  310TMC3    C5 4663   4.398   2.866  16.130 -0.0583 -0.4921 -0.3292
  310TMC3    C6 4664   4.394   2.999  16.097  0.0517 -0.2226 -0.6979
  310TMC3     C 4665   4.195   2.860  16.419 -0.5497 -0.8464  0.2210
  310TMC3     O 4666   4.294   2.809  16.473 -0.2311  0.5769  0.3036
  310TMC3     H 4667   4.143   3.084  16.309  1.9283  1.5096  0.7022
  310TMC3    H1 4668   4.317   2.711  16.240  0.6279 -1.1451 -0.6985
  310TMC3    H2 4669   4.451   3.031  16.011  0.7885  0.7514  0.1476
  310TMC3    C7 4670   4.517   2.787  16.102 -0.1128  0.1786  0.0883
  310TMC3    C8 4671   4.257   3.191  16.088  0.0216 -0.0028  0.0001
  310TMC3    O1 4672   4.498   2.665  16.113 -0.3572 -0.4279 -0.5551
  310TMC3    O2 4673   4.132   3.208  16.085  0.4421 -0.1921  0.0682
  311MPD2     C 4674   1.425   4.226  12.253  0.3543  0.3740 -0.4532
  311MPD2    C1 4675   1.447   4.225  12.386  0.0643 -0.7008  0.3120
  311MPD2    C2 4676   1.343   4.262  12.471 -0.4003  0.6381 -0.6797
  311MPD2    C3 4677   1.218   4.293  12.421  0.5457  0.5021  0.1895
  311MPD2    C4 4678   1.191   4.265  12.293  0.3200 -0.3264 -0.1044
  311MPD2    C5 4679   1.299   4.241  12.208 -0.0744 -0.5427 -0.0293
  311MPD2     H 4680   1.370   4.265  12.576  0.7562  4.3465 -1.0657
  311MPD2    H1 4681   1.093   4.257  12.248  0.3725 -0.4740 -0.1914
  311MPD2    H2 4682   1.508   4.193  12.192  1.1840  1.5893  0.0374
  311MPD2    H3 4683   1.296   4.224  12.101  1.5104  0.6278 -0.2596
  311MPD2     N 4684   1.114   4.316  12.513  0.3553  0.0811  0.2619
  311MPD2    H5 4685   1.142   4.323  12.610 -2.3298 -1.6288  1.1927
  311MPD2    N1 4686   1.568   4.182  12.443  0.7134 -0.1489 -0.4966
  311MPD2    H7 4687   1.566   4.169  12.544  1.5558 -0.5923 -0.5385
  312TMC3    C1 4688   0.897   4.333  12.601  0.6839  0.1386  0.1325
  312TMC3    C2 4689   0.769   4.281  12.592  0.3105 -0.6597  0.4754
  312TMC3    C3 4690   0.695   4.253  12.707  1.2358 -0.0733 -0.7575
  312TMC3    C4 4691   0.944   4.380  12.725 -0.1742 -0.0683 -0.0322
  312TMC3    C5 4692   0.863   4.340  12.832  0.5426 -0.4346 -0.2754
  312TMC3    C6 4693   0.746   4.277  12.834 -0.6441 -0.2223 -0.7702
  312TMC3     C 4694   0.982   4.342  12.482  0.4722  0.3719 -0.2198
  312TMC3     O 4695   0.921   4.325  12.376 -0.9180 -0.4919 -0.1398
  312TMC3     H 4696   0.723   4.272  12.494  0.4712 -1.3948  0.4708
  312TMC3    H1 4697   1.042   4.424  12.738 -0.1706 -0.0161 -0.2354
  312TMC3    H2 4698   0.683   4.243  12.916 -1.0012 -0.8521 -1.3034
  312TMC3    C7 4699   0.923   4.374  12.959 -0.2006  0.6497  0.2201
  312TMC3    C8 4700   0.548   4.239  12.700 -0.4514  0.2221 -0.2317
  312TMC3    O1 4701   0.910   4.299  13.049  0.1105  0.6747  0.1105
  312TMC3    O2 4702   0.496   4.136  12.744 -0.0463  0.3723 -0.3369
  313MPD2     C 4703   0.367   3.476  10.656 -0.2246 -0.2770  0.6273
  313MPD2    C1 4704   0.474   3.560  10.657  0.1342 -0.4065 -0.1892
  313MPD2    C2 4705   0.580   3.532  10.572  0.1256 -0.2984 -0.2892
  313MPD2    C3 4706   0.572   3.426  10.475  0.3376 -0.1550  0.4903
  313MPD2    C4 4707   0.468   3.334  10.484 -0.3744 -0.1987  0.6955
  313MPD2    C5 4708   0.370   3.365  10.574 -0.2686 -0.6363 -0.6182
  313MPD2     H 4709   0.670   3.592  10.565 -1.3380  1.8745 -0.5055
  313MPD2    H1 4710   0.467   3.243  10.425  2.0748 -0.3861  0.9616
  313MPD2    H2 4711   0.285   3.484  10.726  0.6855  2.8942  1.3501
  313MPD2    H3 4712   0.282   3.301  10.578 -1.8608  1.5507 -0.6009
  313MPD2     N 4713   0.678   3.407  10.380  0.4526 -0.3197 -0.1503
  313MPD2    H5 4714   0.762   3.464  10.386 -1.8477  2.7515  3.0181
  313MPD2    N1 4715   0.484   3.669  10.743  0.3203 -0.3654  0.1467
  313MPD2    H7 4716   0.560   3.732  10.718  0.8875 -1.0853  0.0630
  314TMC3    C1 4717   0.422   3.841  10.885 -0.2814  0.3175  0.5372
  314TMC3    C2 4718   0.557   3.856  10.869  1.1611 -0.5890 -0.1022
  314TMC3    C3 4719   0.605   3.967  10.810 -0.6850  0.2589 -0.3216
  314TMC3    C4 4720   0.338   3.938  10.836 -0.5131 -0.4166 -0.6773
  314TMC3    C5 4721   0.386   4.042  10.767 -0.6330  0.1837 -0.1864
  314TMC3    C6 4722   0.519   4.059  10.750 -0.8328 -1.1720  0.1147
  314TMC3     C 4723   0.385   3.713  10.827  0.3710 -0.2683  0.1490
  314TMC3     O 4724   0.271   3.674  10.846 -0.4895  0.2707 -0.7126
  314TMC3     H 4725   0.630   3.783  10.903  1.5707 -0.5001 -0.7949
  314TMC3    H1 4726   0.237   3.907  10.812 -1.3539  0.0756  2.2167
  314TMC3    H2 4727   0.551   4.150  10.700 -0.0955  0.2564  3.2346
  314TMC3    C7 4728   0.314   4.086  10.650  0.5596  0.1357  0.4764
  314TMC3    C8 4729   0.740   4.010  10.818 -0.4991 -0.7689  0.0015
  314TMC3    O1 4730   0.194   4.099  10.666  0.3470 -0.3997 -0.1314
  314TMC3    O2 4731   0.773   4.075  10.720 -0.4427 -0.1091  0.5629
  315MPD2     C 4732   0.411   2.638  16.787  0.2538 -0.4915 -0.2824
  315MPD2    C1 4733   0.483   2.670  16.908  0.1745  0.1578  0.0506
  315MPD2    C2 4734   0.515   2.799  16.930  0.2500  0.3726 -0.2329
  315MPD2    C3 4735   0.481   2.898  16.839  0.5349  0.3381 -0.6905
  315MPD2    C4 4736   0.409   2.872  16.724 -0.2834 -0.4985  0.0065
  315MPD2    C5 4737   0.368   2.738  16.702 -0.4497  0.6038 -0.2772
  315MPD2     H 4738   0.584   2.816  17.012 -0.7394 -1.1527  0.9282
  315MPD2    H1 4739   0.372   2.947  16.656  0.7659  0.5455  0.5854
  315MPD2    H2 4740   0.379   2.537  16.762 -0.1082 -0.5548  0.4159
  315MPD2    H3 4741   0.307   2.716  16.615 -1.6387  0.8143  0.4951
  315MPD2     N 4742   0.530   3.032  16.853  0.3615 -0.3451 -0.5185
  315MPD2    H5 4743   0.610   3.044  16.915  0.9231  0.9943 -1.5060
  315MPD2    N1 4744   0.521   2.573  17.000 -0.0898  0.2781 -0.1495
  315MPD2    H7 4745   0.549   2.605  17.092  1.3025 -1.8687  0.1743
  316TMC3    C1 4746   0.528   3.273  16.839 -0.7043  0.7274  0.0010
  316TMC3    C2 4747   0.592   3.277  16.959  0.0732  0.0895 -0.0228
  316TMC3    C3 4748   0.625   3.400  17.003  0.9129  0.1846  0.6643
  316TMC3    C4 4749   0.471   3.379  16.776  0.0952 -0.0360  0.2768
  316TMC3    C5 4750   0.505   3.503  16.830  0.7011  0.6040 -0.7643
  316TMC3    C6 4751   0.583   3.517  16.943  0.0887  0.2530 -0.3658
  316TMC3     C 4752   0.478   3.146  16.795  0.0157 -1.6399  0.1196
  316TMC3     O 4753   0.372   3.151  16.733 -0.3356 -0.4757  0.3407
  316TMC3     H 4754   0.627   3.186  17.006  0.0351 -0.8489 -1.8099
  316TMC3    H1 4755   0.421   3.362  16.682 -0.6399  0.3758  0.5933
  316TMC3    H2 4756   0.613   3.610  16.990  0.8946 -0.3238  0.2556
  316TMC3    C7 4757   0.510   3.610  16.741 -0.6738  0.2728  0.1386
  316TMC3    C8 4758   0.691   3.417  17.130 -0.0484 -0.6181  0.0653
  316TMC3    O1 4759   0.594   3.690  16.782 -0.0743 -0.0688 -0.0230
  316TMC3    O2 4760   0.744   3.531  17.145  0.3736  1.0908  0.4428
  317MPD2     C 4761   2.615   1.560  12.550  0.0376 -0.2280 -0.4559
  317MPD2    C1 4762   2.716   1.464  12.573 -0.3191  0.3504  0.0540
  317MPD2    C2 4763   2.728   1.403  12.698 -0.3929 -0.2828  0.7081
  317MPD2    C3 4764   2.658   1.457  12.804  0.5173 -0.1875 -0.2112
  317MPD2    C4 4765   2.562   1.550  12.787  0.5415 -0.6991  0.6434
  317MPD2    C5 4766   2.557   1.610  12.661  0.4210  0.3315 -0.5238
  317MPD2     H 4767   2.801   1.324  12.706 -0.8128 -0.7043  0.3875
  317MPD2    H1 4768   2.512   1.597  12.870  0.3403 -2.4041  1.4928
  317MPD2    H2 4769   2.608   1.619  12.459  2.3563 -0.1728 -0.5927
  317MPD2    H3 4770   2.493   1.697  12.653  1.9260  1.8420  3.9144
  317MPD2     N 4771   2.686   1.408  12.935  0.2686 -0.5723 -0.4064
  317MPD2    H5 4772   2.766   1.347  12.949 -0.2630 -1.3701 -0.7969
  317MPD2    N1 4773   2.801   1.418  12.467  0.3660  0.8316 -0.1762
  317MPD2    H7 4774   2.863   1.343  12.496 -0.2349  0.4537  0.1478
  318TMC3    C1 4775   2.651   1.304  13.131 -0.2687 -0.4584  0.1013
  318TMC3    C2 4776   2.577   1.198  13.172  0.4598 -0.6671 -0.5331
  318TMC3    C3 4777   2.640   1.101  13.245  0.2521  0.2545  1.2484
  318TMC3    C4 4778   2.779   1.316  13.163 -0.0481 -0.1323  0.4421
  318TMC3    C5 4779   2.836   1.222  13.244 -0.1047  1.0784  0.2228
  318TMC3    C6 4780   2.768   1.117  13.281  0.1990  0.0807 -0.4982
  318TMC3     C 4781   2.594   1.391  13.031 -0.4625 -0.3351 -0.3148
  318TMC3     O 4782   2.474   1.406  13.027 -0.3254  0.0991 -0.0854
  318TMC3     H 4783   2.473   1.188  13.146  0.4913  0.0403 -0.9488
  318TMC3    H1 4784   2.843   1.389  13.116 -0.1978 -0.8687 -0.9033
  318TMC3    H2 4785   2.799   1.031  13.339 -0.3417  0.8987  0.9884
  318TMC3    C7 4786   2.984   1.205  13.240 -0.6246 -0.1517 -0.2798
  318TMC3    C8 4787   2.577   0.984  13.286 -0.7800  0.4693  0.8371
  318TMC3    O1 4788   3.047   1.292  13.177  0.4599  0.3282  0.6105
  318TMC3    O2 4789   2.606   0.936  13.394 -0.2776  0.1764 -0.8557
  319MPD2     C 4790   3.345   2.546  16.631 -0.0556 -0.2130 -0.1384
  319MPD2    C1 4791   3.452   2.562  16.544  0.3120 -0.0346 -0.1360
  319MPD2    C2 4792   3.425   2.554  16.405 -0.3032 -0.4481  0.8420
  319MPD2    C3 4793   3.294   2.544  16.350  0.8906  0.3513  0.3301
  319MPD2    C4 4794   3.187   2.533  16.441  0.8054  0.1537  0.1042
  319MPD2    C5 4795   3.219   2.531  16.571 -0.3806 -0.4464  0.0705
  319MPD2     H 4796   3.510   2.558  16.337 -0.8345  1.2281  0.2724
  319MPD2    H1 4797   3.085   2.526  16.406  0.5374 -1.0890  1.1261
  319MPD2    H2 4798   3.342   2.522  16.736 -1.2868 -2.3152 -0.6607
  319MPD2    H3 4799   3.141   2.509  16.644 -2.1726  0.2028 -1.6499
  319MPD2     N 4800   3.259   2.539  16.219  0.3401 -0.2007 -0.1932
  319MPD2    H5 4801   3.159   2.535  16.203  0.0400 -0.2766  1.7042
  319MPD2    N1 4802   3.586   2.566  16.578  0.4792  0.1786  0.3536
  319MPD2    H7 4803   3.646   2.543  16.499  0.4988  1.0742  0.1077
  320TMC3    C1 4804   3.268   2.531  15.980 -0.0171 -0.0708 -0.5693
  320TMC3    C2 4805   3.293   2.615  15.871 -0.0667 -0.8032  0.2206
  320TMC3    C3 4806   3.217   2.595  15.758 -0.3860  0.9007 -0.3383
  320TMC3    C4 4807   3.172   2.437  15.974  0.2279  0.3543 -0.3617
  320TMC3    C5 4808   3.115   2.408  15.853  0.0179  0.1217 -0.8080
  320TMC3    C6 4809   3.136   2.488  15.738  0.0807 -0.0016 -0.4241
  320TMC3     C 4810   3.339   2.546  16.107 -0.2530 -1.1639  0.0580
  320TMC3     O 4811   3.458   2.577  16.110  0.7402 -0.4978  0.4924
  320TMC3     H 4812   3.360   2.700  15.878  0.8709 -1.4670 -0.6971
  320TMC3    H1 4813   3.157   2.383  16.067  2.8233  1.0203  0.4448
  320TMC3    H2 4814   3.088   2.464  15.644 -0.9708  0.1100  0.0874
  320TMC3    C7 4815   2.999   2.313  15.853  0.1368 -0.0685 -0.0696
  320TMC3    C8 4816   3.189   2.719  15.682 -0.2146  0.0462  0.7519
  320TMC3    O1 4817   2.984   2.245  15.951  0.3381  0.0536 -0.0080
  320TMC3    O2 4818   3.198   2.825  15.740  0.0933 -0.1409 -0.4537
  321TMC3    C1 4819   3.770   2.566  16.728 -0.1519  0.5847  0.0660
  321TMC3    C2 4820   3.844   2.474  16.648 -0.1926  0.9814  0.4226
  321TMC3    C3 4821   3.958   2.424  16.695 -0.1807  0.6884  0.2193
  321TMC3    C4 4822   3.803   2.583  16.860 -0.2137  0.0359 -0.4967
  321TMC3    C5 4823   3.919   2.524  16.909 -0.2314 -0.2251 -0.4606
  321TMC3    C6 4824   3.988   2.433  16.829 -0.0754  0.1688  0.1648
  321TMC3     C 4825   3.632   2.584  16.706  0.0235 -0.0732  0.2679
  321TMC3     O 4826   3.567   2.632  16.797  0.4842 -0.0750  0.1912
  321TMC3     H 4827   3.808   2.446  16.549  1.8157 -0.3999  0.0911
  321TMC3    H1 4828   3.730   2.623  16.929  0.5233  0.2185  0.1745
  321TMC3    H2 4829   4.065   2.368  16.870 -1.1731 -1.3276 -0.1463
  321TMC3    C7 4830   3.975   2.553  17.038 -0.0774  0.0478 -0.0574
  321TMC3    C8 4831   4.044   2.350  16.613  0.0928 -0.2110 -0.0036
  321TMC3    O1 4832   3.903   2.594  17.128  0.6202  0.5319 -0.0586
  321TMC3    O2 4833   3.989   2.291  16.523 -0.0814  0.0426  0.4606
  322MPD2     C 4834   1.829   3.617  13.644 -0.3353  0.0679  0.4713
  322MPD2    C1 4835   1.894   3.597  13.766  0.7308 -0.1142 -0.8743
  322MPD2    C2 4836   1.897   3.472  13.828  0.3367 -0.1430 -0.0276
  322MPD2    C3 4837   1.819   3.370  13.776  0.4251  0.2885 -0.3027
  322MPD2    C4 4838   1.755   3.389  13.653  0.3213  0.3953  0.3942
  322MPD2    C5 4839   1.753   3.516  13.597  0.4152 -0.0040  0.1961
  322MPD2     H 4840   1.942   3.462  13.926  0.7814  2.9977  0.0803
  322MPD2    H1 4841   1.703   3.312  13.598 -0.1586  1.4294 -0.6213
  322MPD2    H2 4842   1.837   3.710  13.589  1.7421  1.2910  2.8746
  322MPD2    H3 4843   1.716   3.538  13.497 -1.6688  1.3630  1.2766
  322MPD2     N 4844   1.827   3.239  13.831  0.4512 -0.2104  0.0424
  322MPD2    H5 4845   1.887   3.235  13.912  3.2615  0.0917 -2.0175
  322MPD2    N1 4846   1.972   3.705  13.816 -0.7223  0.1353  0.0909
  322MPD2    H7 4847   1.977   3.780  13.749 -0.2810 -3.4624 -3.9113
  323TMC3    C1 4848   2.101   3.844  13.965  0.0777 -0.9110 -0.4328
  323TMC3    C2 4849   2.160   3.910  13.854  0.7870 -0.1535  0.2041
  323TMC3    C3 4850   2.250   4.004  13.882  0.3130  0.5571  0.6332
  323TMC3    C4 4851   2.128   3.879  14.096  0.4075  0.1980 -0.3772
  323TMC3    C5 4852   2.212   3.985  14.122  0.0132 -0.4214  0.6986
  323TMC3    C6 4853   2.262   4.051  14.011 -0.0801 -0.5982  0.3211
  323TMC3     C 4854   2.030   3.718  13.938 -0.4130 -0.6563 -0.3062
  323TMC3     O 4855   2.031   3.633  14.028 -0.1886  0.5331  0.1788
  323TMC3     H 4856   2.154   3.861  13.757 -3.0067  1.3850 -0.3601
  323TMC3    H1 4857   2.099   3.817  14.180  3.6042 -1.1483 -0.2791
  323TMC3    H2 4858   2.319   4.141  14.032 -1.7718  0.0147  2.2786
  323TMC3    C7 4859   2.302   3.953  14.238  0.2965 -0.2724  0.0773
  323TMC3    C8 4860   2.375   4.008  13.811 -0.2007 -0.5879 -0.4463
  323TMC3    O1 4861   2.257   3.887  14.331  0.3636 -0.5251 -0.2777
  323TMC3    O2 4862   2.467   4.042  13.884  0.1620  0.0228 -0.1422
  324MPD2     C 4863   3.574   0.255  14.459  0.7096  0.0873  0.6315
  324MPD2    C1 4864   3.577   0.366  14.374  0.5856 -0.0461 -0.0944
  324MPD2    C2 4865   3.462   0.411  14.306  0.0690  0.2333  0.0728
  324MPD2    C3 4866   3.358   0.325  14.303 -0.5282  0.4515 -0.2103
  324MPD2    C4 4867   3.356   0.209  14.375 -0.2750  0.1846 -0.8587
  324MPD2    C5 4868   3.460   0.185  14.457  0.2591  0.1682 -0.2046
  324MPD2     H 4869   3.470   0.500  14.245  2.0465  0.2312  0.3347
  324MPD2    H1 4870   3.274   0.140  14.363 -0.1712  0.2530 -1.8968
  324MPD2    H2 4871   3.651   0.229  14.531  0.8855 -1.2833 -0.0496
  324MPD2    H3 4872   3.462   0.102  14.527 -0.8744 -0.5441 -1.0105
  324MPD2     N 4873   3.236   0.339  14.234 -0.1900 -0.6883 -0.0287
  324MPD2    H5 4874   3.172   0.260  14.231  0.6248 -1.3960  1.1895
  324MPD2    N1 4875   3.697   0.450  14.365 -0.1825 -0.4254  0.0411
  324MPD2    H7 4876   3.686   0.529  14.303 -0.5036  2.1121  3.3108
  325TMC3    C1 4877   3.071   0.464  14.103 -0.9931 -0.0847  0.0937
  325TMC3    C2 4878   3.012   0.352  14.049  0.4300  0.1890  0.6553
  325TMC3    C3 4879   2.893   0.369  13.990 -0.4828 -0.3109 -0.3639
  325TMC3    C4 4880   3.012   0.588  14.114  0.1448  0.3984 -0.1819
  325TMC3    C5 4881   2.886   0.595  14.065 -0.6642  0.6449 -0.5919
  325TMC3    C6 4882   2.822   0.487  13.997 -0.3806  0.0191  0.0419
  325TMC3     C 4883   3.208   0.458  14.157  0.2488  0.3098  0.6131
  325TMC3     O 4884   3.276   0.558  14.132 -0.2376 -0.3744 -0.1064
  325TMC3     H 4885   3.074   0.265  14.034 -0.2199  0.2611 -2.5719
  325TMC3    H1 4886   3.077   0.673  14.131 -2.4368  2.2321  0.3652
  325TMC3    H2 4887   2.728   0.508  13.948  0.1689 -1.3790 -1.6167
  325TMC3    C7 4888   2.818   0.720  14.085 -1.2974  0.1007 -0.4280
  325TMC3    C8 4889   2.826   0.247  13.949  0.2146 -0.2165 -0.2145
  325TMC3    O1 4890   2.716   0.744  14.026  0.1223  0.6373  0.6276
  325TMC3    O2 4891   2.899   0.151  13.936 -0.2034 -0.0610 -0.0298
  326MPD2     C 4892   4.424   1.728  11.104 -0.0775 -0.5410 -0.2180
  326MPD2    C1 4893   4.478   1.675  10.985 -0.0550  0.4672 -0.2472
  326MPD2    C2 4894   4.582   1.750  10.925 -1.0640  0.2088 -0.5905
  326MPD2    C3 4895   4.624   1.872  10.980  0.8946 -0.5273 -0.0936
  326MPD2    C4 4896   4.573   1.908  11.097  0.6342  0.3686  0.3796
  326MPD2    C5 4897   4.482   1.840  11.162 -0.4102  0.6103  0.5079
  326MPD2     H 4898   4.619   1.708  10.832  0.4114 -0.1495  0.1556
  326MPD2    H1 4899   4.607   1.998  11.147  2.5980 -0.9337  1.3893
  326MPD2    H2 4900   4.353   1.671  11.162  0.8484 -0.5595  0.9036
  326MPD2    H3 4901   4.456   1.878  11.261 -0.5317  0.0135  0.7084
  326MPD2     N 4902   0.004   1.952  10.928  0.1055 -0.1126 -0.2984
  326MPD2    H5 4903   0.027   2.038  10.977  0.7847 -0.2864 -0.3094
  326MPD2    N1 4904   4.429   1.558  10.919  0.7233 -0.2829 -0.1801
  326MPD2    H7 4905   4.492   1.519  10.851  1.3128 -1.1745  0.8707
  327TMC3    C1 4906   4.302   1.371  10.879  0.2309 -0.4899  0.4586
  327TMC3    C2 4907   4.223   1.397  10.772  0.1975  0.2205 -0.7375
  327TMC3    C3 4908   4.235   1.315  10.661 -0.2742  0.2393  0.0762
  327TMC3    C4 4909   4.398   1.275  10.876  0.1149  0.1649 -0.3536
  327TMC3    C5 4910   4.427   1.210  10.754 -0.3959 -0.7971 -0.2168
  327TMC3    C6 4911   4.342   1.232  10.651 -0.4365 -0.4667 -0.4034
  327TMC3     C 4912   4.324   1.483  10.966  0.0472 -0.1179  0.1450
  327TMC3     O 4913   4.230   1.517  11.035  0.0877 -0.1795 -0.5108
  327TMC3     H 4914   4.148   1.474  10.787  1.4114  1.1118  0.7853
  327TMC3    H1 4915   4.454   1.251  10.966  1.6372  0.6176 -1.1805
  327TMC3    H2 4916   4.368   1.181  10.558  0.1391  0.8561 -0.9706
  327TMC3    C7 4917   4.516   1.103  10.754  0.1298  0.2669 -0.1249
  327TMC3    C8 4918   4.202   1.383  10.542  0.5754 -0.1448  0.4711
  327TMC3    O1 4919   4.504   1.027  10.662 -0.0674  0.0438 -0.3528
  327TMC3    O2 4920   4.291   1.398  10.458 -1.0618  0.4321  0.7742
  328MPD2     C 4921   2.495   0.860  17.212 -0.0034 -0.0904 -0.4743
  328MPD2    C1 4922   2.531   0.842  17.078 -0.2300 -0.7512  0.3749
  328MPD2    C2 4923   2.584   0.955  17.012 -0.1310 -0.0957  0.1220
  328MPD2    C3 4924   2.588   1.079  17.073 -0.0269  0.3927 -0.1227
  328MPD2    C4 4925   2.538   1.094  17.199 -0.2185 -0.2361 -0.3142
  328MPD2    C5 4926   2.504   0.981  17.273  0.0170 -0.6320 -0.0911
  328MPD2     H 4927   2.622   0.947  16.911  0.1728 -2.5082  0.4335
  328MPD2    H1 4928   2.548   1.187  17.253 -0.0888 -0.2330 -0.3420
  328MPD2    H2 4929   2.467   0.777  17.275 -0.2045  0.4671  0.1776
  328MPD2    H3 4930   2.489   0.991  17.380 -0.4743  0.8138 -0.3059
  328MPD2     N 4931   2.625   1.200  17.007 -0.3688  0.6893  0.0236
  328MPD2    H5 4932   2.623   1.289  17.055  0.1103  1.1330 -0.7836
  328MPD2    N1 4933   2.519   0.717  17.021  0.0385 -0.1008  0.2487
  328MPD2    H7 4934   2.475   0.644  17.075 -1.2774  0.2595 -0.3434
  329TMC3    C1 4935   2.511   0.545  16.861  0.1910 -0.1904 -0.3789
  329TMC3    C2 4936   2.402   0.492  16.920 -0.0985  0.0369 -0.3945
  329TMC3    C3 4937   2.339   0.386  16.863  0.8268 -0.3330 -0.1165
  329TMC3    C4 4938   2.567   0.494  16.743  0.3872 -0.3645 -0.3110
  329TMC3    C5 4939   2.511   0.385  16.696 -0.2457 -0.2052  0.5132
  329TMC3    C6 4940   2.401   0.337  16.755  0.1346  0.2755  0.6819
  329TMC3     C 4941   2.557   0.672  16.900  0.8060  0.1046  0.0284
  329TMC3     O 4942   2.642   0.727  16.831 -0.2663 -0.3932 -0.1591
  329TMC3     H 4943   2.350   0.550  16.996 -1.8693 -0.0634 -1.5084
  329TMC3    H1 4944   2.657   0.538  16.700 -0.8753  2.0048 -0.5509
  329TMC3    H2 4945   2.369   0.245  16.706  0.3186  0.3853  0.3599
  329TMC3    C7 4946   2.572   0.300  16.597  0.7243  0.6793 -0.1672
  329TMC3    C8 4947   2.205   0.422  16.823 -0.4800 -0.0674  0.2140
  329TMC3    O1 4948   2.551   0.182  16.597 -0.1301  0.1354  0.4423
  329TMC3    O2 4949   2.201   0.431  16.703  0.5414  0.0209 -0.1547
  330TMC3    C1 4950   0.858   0.991   9.454  0.6646 -0.1053 -0.7054
  330TMC3    C2 4951   0.795   0.948   9.344 -0.5249  0.7654 -0.4548
  330TMC3    C3 4952   0.778   0.808   9.339 -0.7210  0.8607  0.5487
  330TMC3    C4 4953   0.923   0.912   9.537 -0.2173 -0.2134 -0.3032
  330TMC3    C5 4954   0.921   0.782   9.514 -0.0795 -0.0403  0.1638
  330TMC3    C6 4955   0.841   0.723   9.419 -0.0646  0.6580 -0.3223
  330TMC3     C 4956   0.835   1.122   9.508  0.7216 -0.4763  0.5212
  330TMC3     O 4957   0.877   1.149   9.621  0.2075  0.1627 -0.1863
  330TMC3     H 4958   0.757   1.019   9.271 -1.8649  1.3574  0.8122
  330TMC3    H1 4959   0.983   0.961   9.612  1.0348 -0.8225 -0.9141
  330TMC3    H2 4960   0.875   0.629   9.378  0.2819  0.3615  0.6382
  330TMC3    C7 4961   1.014   0.708   9.598 -1.0240 -0.2319  0.5951
  330TMC3    C8 4962   0.703   0.751   9.232  0.4449 -0.2129  0.4878
  330TMC3    O1 4963   1.106   0.763   9.645  0.3928 -0.2337  0.2515
  330TMC3    O2 4964   0.649   0.836   9.162 -0.3368  1.0850 -0.1605
  331MPD2     C 4965   3.158   3.963  12.456 -0.0949 -0.4017 -0.0164
  331MPD2    C1 4966   3.255   4.053  12.419  0.8089  0.8761 -0.0974
  331MPD2    C2 4967   3.320   4.038  12.299  0.1113 -0.4059 -0.4420
  331MPD2    C3 4968   3.280   3.942  12.209  0.0603  0.8288 -0.3867
  331MPD2    C4 4969   3.168   3.866  12.234 -0.1834 -0.0369  0.5833
  331MPD2    C5 4970   3.116   3.868  12.361  0.0225  0.2238 -0.1389
  331MPD2     H 4971   3.401   4.099  12.262  0.9564 -0.9484  0.4903
  331MPD2    H1 4972   3.127   3.791  12.167  0.2674  0.3545 -0.1290
  331MPD2    H2 4973   3.110   3.974  12.553 -1.7808  0.5875 -0.9659
  331MPD2    H3 4974   3.040   3.798  12.393  1.2678 -1.0859 -0.0598
  331MPD2     N 4975   3.353   3.929  12.094 -0.6741  0.4105 -0.4745
  331MPD2    H5 4976   3.426   3.998  12.082  0.8840 -1.2644 -0.5224
  331MPD2    N1 4977   3.286   4.162  12.507  1.0223  0.2148  0.0705
  331MPD2    H7 4978   3.223   4.185  12.584  0.4777  0.6072 -0.4984
  332TMC3    C1 4979   3.450   3.840  11.898  0.0129 -0.0929  0.0490
  332TMC3    C2 4980   3.490   3.970  11.855  0.2082 -0.0462 -0.7331
  332TMC3    C3 4981   3.622   4.004  11.885  0.3886  0.2384  0.4949
  332TMC3    C4 4982   3.540   3.739  11.932  0.4510  0.0848  0.3606
  332TMC3    C5 4983   3.666   3.781  11.967 -0.2447  0.3511 -0.2220
  332TMC3    C6 4984   3.708   3.913  11.941 -0.5154 -0.2229  0.9540
  332TMC3     C 4985   3.336   3.835  11.990  0.6893  0.5473 -0.2890
  332TMC3     O 4986   3.272   3.732  11.993 -0.0014 -0.0029  0.1212
  332TMC3     H 4987   3.413   4.038  11.821 -0.4457  0.1266  1.0831
  332TMC3    H1 4988   3.499   3.646  11.970 -0.3459  0.1554 -0.3241
  332TMC3    H2 4989   3.806   3.947  11.974 -1.1814  0.5391  2.1680
  332TMC3    C7 4990   3.701   3.741  12.103  0.4183 -0.2325  0.2377
  332TMC3    C8 4991   3.672   4.137  11.855  0.3029  0.9073 -0.6877
  332TMC3    O1 4992   3.600   3.705  12.162 -0.4392 -0.5642 -0.0949
  332TMC3    O2 4993   3.792   4.161  11.878 -0.4042 -0.0642 -0.3143
  333MPD2     C 4994   3.681   4.627  11.117 -0.1606 -0.2140  0.3023
  333MPD2    C1 4995   3.677   4.549  10.998  0.1106 -0.4274  0.0794
  333MPD2    C2 4996   3.620   4.425  10.998  0.0838  0.0887  0.1951
  333MPD2    C3 4997   3.555   4.379  11.109 -0.0761  0.3130 -0.5967
  333MPD2    C4 4998   3.549   4.457  11.228  0.7233  0.0512 -0.2699
  333MPD2    C5 4999   3.607   4.581  11.223  0.5096  0.1108 -0.2367
  333MPD2     H 5000   3.621   4.362  10.910  0.1492 -0.3184  0.4897
  333MPD2    H1 5001   3.501   4.429  11.320 -0.3728  2.9303  0.0145
  333MPD2    H2 5002   3.711   0.004  11.106  0.6325 -0.4130  0.5769
  333MPD2    H3 5003   3.601   4.635  11.317 -1.2238 -0.6106  0.0758
  333MPD2     N 5004   3.504   4.247  11.093 -0.3819  0.1463  0.6169
  333MPD2    H5 5005   3.510   4.204  11.002  0.9785 -1.8612  1.6393
  333MPD2    N1 5006   3.732   4.609  10.882  0.8828 -0.1597 -0.1083
  333MPD2    H7 5007   3.783   4.696  10.882 -0.3604  0.5777  0.2907
  334TMC3    C1 5008   3.835   4.601  10.666 -1.1110 -0.1228 -0.5870
  334TMC3    C2 5009   3.943   4.538  10.601  0.4132  0.2693 -0.5734
  334TMC3    C3 5010   4.028   4.618  10.534  0.7534 -0.5393  0.3441
  334TMC3    C4 5011   3.807   0.007  10.639 -0.1274 -0.2379  0.4147
  334TMC3    C5 5012   3.895   0.079  10.560  0.4602 -0.4486  0.0497
  334TMC3    C6 5013   4.004   0.022  10.498 -0.3678  0.6009  0.1780
  334TMC3     C 5014   3.774   4.529  10.779  0.1258 -0.1721  0.1343
  334TMC3     O 5015   3.775   4.405  10.765 -0.0263  0.0250 -0.0703
  334TMC3     H 5016   3.969   4.436  10.626  0.5098  0.6073  0.6992
  334TMC3    H1 5017   3.713   0.052  10.671  0.0749 -0.7059  1.6511
  334TMC3    H2 5018   4.065   0.077  10.427 -2.1693 -0.3685 -2.1312
  334TMC3    C7 5019   3.862   0.208  10.515  0.7739 -0.2161  0.0967
  334TMC3    C8 5020   4.105   4.548  10.433 -0.4061 -0.3904 -0.1927
  334TMC3    O1 5021   3.948   0.296  10.535  0.4842  0.0341 -0.6727
  334TMC3    O2 5022   4.051   4.448  10.395 -0.3435  1.0881  0.3327
  335TMC3    C1 5023   3.596   1.506  17.329 -0.0054  0.3528 -0.1566
  335TMC3    C2 5024   3.492   1.450  17.261  0.4074  0.9947 -0.2546
  335TMC3    C3 5025   3.510   1.423  17.130  0.0034  0.7458 -1.1652
  335TMC3    C4 5026   3.714   1.530  17.270 -0.3076  0.4215 -0.4004
  335TMC3    C5 5027   3.729   1.513  17.137 -0.2550 -0.1213 -0.3705
  335TMC3    C6 5028   3.623   1.461  17.068 -0.3620  0.7497  0.4406
  335TMC3     C 5029   3.589   1.523  17.473  0.7012  0.5400 -0.0109
  335TMC3     O 5030   3.675   1.595  17.522  0.9687  0.2697 -0.4645
  335TMC3     H 5031   3.394   1.427  17.299  0.5576 -0.4332 -0.7167
  335TMC3    H1 5032   3.789   1.587  17.323  0.7813 -1.0181 -0.3824
  335TMC3    H2 5033   3.640   1.445  16.962  0.2301 -2.3564  1.0057
  335TMC3    C7 5034   3.861   1.465  17.094 -0.3473 -0.6012  0.2852
  335TMC3    C8 5035   3.437   1.315  17.075 -0.2528  0.1541 -0.0352
  335TMC3    O1 5036   3.861   1.377  17.006  0.0402 -0.2556 -0.0253
  335TMC3    O2 5037   3.363   1.268  17.157 -0.0934 -0.0460  0.3534
  336MPD2     C 5038   3.237   3.899  15.996  0.5471  0.1384 -0.1314
  336MPD2    C1 5039   3.221   3.846  15.873 -0.1930  0.0200 -0.3335
  336MPD2    C2 5040   3.261   3.714  15.859  0.0343  0.5805  0.0662
  336MPD2    C3 5041   3.322   3.635  15.953 -0.6598  0.5334 -0.1488
  336MPD2    C4 5042   3.339   3.698  16.077 -0.5110 -0.4269 -0.3650
  336MPD2    C5 5043   3.295   3.823  16.101  0.0900  0.0916  0.2055
  336MPD2     H 5044   3.246   3.672  15.760  1.4408  0.9026 -0.2878
  336MPD2    H1 5045   3.380   3.641  16.160  0.9896 -0.3786 -1.0648
  336MPD2    H2 5046   3.219   4.002  16.024  1.4623  0.6159 -1.2992
  336MPD2    H3 5047   3.309   3.876  16.195 -1.4120 -1.1482  1.1302
  336MPD2     N 5048   3.362   3.504  15.943 -0.3573  0.0939  0.2775
  336MPD2    H5 5049   3.405   3.457  16.022 -1.3967 -2.8856 -0.9352
  336MPD2    N1 5050   3.165   3.911  15.763  0.0326 -0.6074  0.6266
  336MPD2    H7 5051   3.143   3.856  15.681 -0.9195 -0.4347  0.7766
  337TMC3    C1 5052   3.068   4.091  15.629 -0.1211  0.1623  0.0116
  337TMC3    C2 5053   2.980   4.002  15.577 -0.2815 -0.3138 -0.5120
  337TMC3    C3 5054   2.872   4.042  15.513  0.1598 -0.0526 -0.0286
  337TMC3    C4 5055   3.050   4.225  15.620 -0.0692  0.6345  0.0099
  337TMC3    C5 5056   2.936   4.266  15.558 -0.1279 -0.7651  0.2774
  337TMC3    C6 5057   2.846   4.174  15.514  0.1979 -0.7737 -0.6785
  337TMC3     C 5058   3.137   4.051  15.755  0.6259  0.5465  0.5892
  337TMC3     O 5059   3.176   4.141  15.829  0.4647 -0.0044  0.5103
  337TMC3     H 5060   3.002   3.896  15.591 -0.3618 -0.0893  1.3955
  337TMC3    H1 5061   3.123   4.286  15.672  0.4098  0.4340 -0.4224
  337TMC3    H2 5062   2.754   4.215  15.474 -0.3063 -1.1053  0.1344
  337TMC3    C7 5063   2.898   4.406  15.547  0.1578  0.4247 -0.3354
  337TMC3    C8 5064   2.763   3.951  15.468 -0.3491 -0.0285 -0.1137
  337TMC3    O1 5065   2.777   4.429  15.532 -0.7367 -0.3951  0.6705
  337TMC3    O2 5066   2.759   3.836  15.508  0.0844  0.2466 -0.3700
  338MPD2     C 5067   4.165   2.741   0.374 -0.0810  0.5102 -0.3355
  338MPD2    C1 5068   4.069   2.770   0.279  0.4634 -0.2435 -0.9707
  338MPD2    C2 5069   4.002   2.889   0.284  0.0985 -0.3997  0.3578
  338MPD2    C3 5070   4.010   2.974   0.392  0.0318 -0.6448  0.0014
  338MPD2    C4 5071   4.096   2.944   0.499 -0.8930  0.0571  0.2300
  338MPD2    C5 5072   4.180   2.830   0.483 -0.5576 -0.2824 -0.1338
  338MPD2     H 5073   3.929   2.922   0.211 -0.6613  0.3631  1.4532
  338MPD2    H1 5074   4.104   2.995   0.594 -1.6231 -0.6465  0.6737
  338MPD2    H2 5075   4.216   2.645   0.369  0.5452  0.8050  0.3606
  338MPD2    H3 5076   4.248   2.811   0.565 -1.8103 -0.8751  0.7844
  338MPD2     N 5077   3.928   3.083   0.395  0.6227  0.3799  0.2652
  338MPD2    H5 5078   3.866   3.083   0.315  0.2853  2.7309  0.5133
  338MPD2    N1 5079   4.045   2.677   0.171 -0.5502  0.0947  0.6161
  338MPD2    H7 5080   3.965   2.702   0.113 -0.6632 -0.7741  0.4059
  339TMC3    C1 5081   3.826   3.283   0.461 -0.2657 -0.2362  0.4882
  339TMC3    C2 5082   3.779   3.367   0.565 -0.5209 -0.8335  0.1890
  339TMC3    C3 5083   3.668   3.439   0.540  0.5687 -0.3933  0.1368
  339TMC3    C4 5084   3.766   3.276   0.336 -0.8552 -0.2997 -0.6518
  339TMC3    C5 5085   3.652   3.360   0.317  0.3198 -0.0905  0.6978
  339TMC3    C6 5086   3.604   3.439   0.421 -0.4646  0.4749  0.6972
  339TMC3     C 5087   3.924   3.181   0.496 -0.5531 -0.0477 -0.4188
  339TMC3     O 5088   3.975   3.182   0.606  0.5154  0.2571  0.9889
  339TMC3     H 5089   3.831   3.372   0.660 -0.5594  2.3967  0.0231
  339TMC3    H1 5090   3.808   3.230   0.247 -0.8555  0.0760 -0.8474
  339TMC3    H2 5091   3.521   3.508   0.408 -0.8359 -0.2754 -0.9226
  339TMC3    C7 5092   3.581   3.370   0.193  0.1510  0.4307  0.0919
  339TMC3    C8 5093   3.637   3.546   0.628  0.4081 -0.2345  0.4367
  339TMC3    O1 5094   3.515   3.475   0.186 -0.3456  0.4828  0.2438
  339TMC3    O2 5095   3.633   3.659   0.582 -0.7494 -0.5218  0.8423
  340MPD2     C 5096   3.657   1.390  10.126  0.0561 -1.1541 -0.2057
  340MPD2    C1 5097   3.630   1.261  10.093  0.1409  0.6974  0.3192
  340MPD2    C2 5098   3.734   1.166  10.109  0.3748  0.2704 -0.0226
  340MPD2    C3 5099   3.868   1.205  10.124 -0.0558 -0.5522 -0.0188
  340MPD2    C4 5100   3.887   1.337  10.159  0.0238  0.0742 -0.5138
  340MPD2    C5 5101   3.784   1.430  10.168  0.0549 -0.2754 -0.0518
  340MPD2     H 5102   3.709   1.064  10.083  2.5641 -0.2658 -0.0669
  340MPD2    H1 5103   3.985   1.376  10.181  0.6845 -2.8350  1.7230
  340MPD2    H2 5104   3.581   1.466  10.135 -0.1161 -0.9082 -3.4722
  340MPD2    H3 5105   3.789   1.535  10.197 -0.7000 -0.2496 -0.0044
  340MPD2     N 5106   3.976   1.118  10.102 -0.2875 -0.3858 -0.1661
  340MPD2    H5 5107   4.073   1.146  10.115 -0.4241 -0.9668  2.0197
  340MPD2    N1 5108   3.504   1.228  10.045  0.7504  0.0383  0.1379
  340MPD2    H7 5109   3.436   1.302  10.059 -0.8285 -1.7588  2.0210
  341TMC3    C1 5110   3.534   1.008   9.933 -0.3216  0.4285 -1.5597
  341TMC3    C2 5111   3.479   0.887   9.948  0.1637 -0.0009 -0.2941
  341TMC3    C3 5112   3.513   0.791   9.860 -0.2682 -0.6925 -0.5535
  341TMC3    C4 5113   3.622   1.041   9.830 -0.0893 -0.3144  0.7275
  341TMC3    C5 5114   3.666   0.939   9.747 -0.1016 -0.0251  0.3570
  341TMC3    C6 5115   3.613   0.808   9.764  0.2244 -0.8634  0.0001
  341TMC3     C 5116   3.454   1.102  10.012  0.2788 -0.4605  0.2607
  341TMC3     O 5117   3.336   1.064  10.029  0.5144 -0.1128 -0.1298
  341TMC3     H 5118   3.425   0.863  10.039  2.9631 -1.6105  0.9449
  341TMC3    H1 5119   3.652   1.144   9.816  4.7779 -1.9929 -1.1052
  341TMC3    H2 5120   3.649   0.724   9.705 -0.3044 -0.6793 -0.5812
  341TMC3    C7 5121   3.799   0.950   9.685 -0.5928  0.3812 -0.4627
  341TMC3    C8 5122   3.445   0.667   9.862  0.2405 -0.3516  0.2757
  341TMC3    O1 5123   3.842   0.858   9.619 -0.1025 -0.1743 -0.3830
  341TMC3    O2 5124   3.471   0.589   9.767 -0.0222 -0.3523  0.5833
  342MPD2     C 5125   1.519   4.255  17.278  0.5099  0.3773 -0.2735
  342MPD2    C1 5126   1.652   4.230  17.248  0.0961 -0.0260 -0.6527
  342MPD2    C2 5127   1.740   4.337  17.259  0.2278  0.5519  0.4416
  342MPD2    C3 5128   1.692   4.463  17.304 -0.5017  0.6386 -0.3413
  342MPD2    C4 5129   1.559   4.480  17.336  0.3836 -0.0561  0.3571
  342MPD2    C5 5130   1.470   4.378  17.323 -0.2958  0.5638  1.2557
  342MPD2     H 5131   1.847   4.332  17.242  0.0910  1.4832 -0.6906
  342MPD2    H1 5132   1.517   4.572  17.375  0.2292 -0.1543  0.4218
  342MPD2    H2 5133   1.446   4.175  17.284  2.2554 -1.1288  0.6967
  342MPD2    H3 5134   1.370   4.394  17.363 -0.9337 -0.8688  0.2423
  342MPD2     N 5135   1.778   4.573  17.344 -0.8068  0.3213  0.1190
  342MPD2    H5 5136   1.739   4.658  17.385  0.8040  1.3333 -0.4221
  342MPD2    N1 5137   1.709   4.111  17.199 -0.3142  0.1049  0.2432
  342MPD2    H7 5138   1.805   4.122  17.167 -0.2305 -1.7649 -0.1287
  343TMC3    C1 5139   1.739   3.882  17.166  0.1894 -0.2669 -0.5285
  343TMC3    C2 5140   1.842   3.902  17.070  0.5259 -0.0198  0.6485
  343TMC3    C3 5141   1.896   3.790  17.008  0.5094 -0.5531 -0.3794
  343TMC3    C4 5142   1.693   3.754  17.198  0.1496 -0.4319 -0.1889
  343TMC3    C5 5143   1.759   3.655  17.141  0.0041 -0.4853 -0.5900
  343TMC3    C6 5144   1.855   3.671  17.049  0.5931  0.4021  0.1795
  343TMC3     C 5145   1.654   3.988  17.210 -0.0868  0.6121  0.0397
  343TMC3     O 5146   1.547   3.954  17.255  0.2728 -0.0282 -1.1587
  343TMC3     H 5147   1.851   4.002  17.030  1.5183 -1.0629 -1.7052
  343TMC3    H1 5148   1.604   3.735  17.256  0.6206 -1.4537  0.2123
  343TMC3    H2 5149   1.874   3.585  16.985 -0.2975  1.0527 -0.9694
  343TMC3    C7 5150   1.712   3.512  17.157 -0.4035  0.1352 -0.0558
  343TMC3    C8 5151   2.017   3.799  16.927  0.6042  0.4142 -0.9729
  343TMC3    O1 5152   1.731   3.445  17.056 -1.0487 -0.2167  0.1160
  343TMC3    O2 5153   2.075   3.901  16.934 -0.9822  0.1610 -0.0652
  344MPD2     C 5154   2.701   3.664  10.619 -0.5814 -0.1546  0.2994
  344MPD2    C1 5155   2.652   3.607  10.508  0.0222 -0.2222  0.0729
  344MPD2    C2 5156   2.671   3.666  10.384  0.1721 -0.2385 -0.4664
  344MPD2    C3 5157   2.745   3.785  10.380 -0.1374  0.1429 -0.6453
  344MPD2    C4 5158   2.792   3.840  10.497  0.0620 -0.3034  0.6509
  344MPD2    C5 5159   2.771   3.778  10.615 -0.2143 -0.4181 -0.3217
  344MPD2     H 5160   2.621   3.616  10.302 -2.4369 -2.0863  2.2557
  344MPD2    H1 5161   2.832   3.940  10.510 -0.7525  0.0940  0.0904
  344MPD2    H2 5162   2.694   3.618  10.716  1.2683 -0.8612  0.0968
  344MPD2    H3 5163   2.788   3.829  10.709  2.5038 -2.1755  0.1233
  344MPD2     N 5164   2.782   3.859  10.264 -0.5010  0.9049  0.1208
  344MPD2    H5 5165   2.835   3.945  10.275 -0.3532  0.6785  1.1374
  344MPD2    N1 5166   2.571   3.492  10.508 -0.6465 -0.1187  0.2244
  344MPD2    H7 5167   2.555   3.447  10.419 -2.8046  1.1920 -0.0427
  345TMC3    C1 5168   2.796   3.928  10.050 -0.0154  0.3549 -0.2806
  345TMC3    C2 5169   2.921   3.974  10.093 -0.1643  0.5178 -0.0184
  345TMC3    C3 5170   2.957   4.098  10.051  0.0859  0.0538 -0.3507
  345TMC3    C4 5171   2.713   3.996   9.962 -0.2706 -0.5484 -0.5780
  345TMC3    C5 5172   2.759   4.115   9.917  0.3000 -0.3611  1.1464
  345TMC3    C6 5173   2.875   4.170   9.965 -0.1812  0.2524 -0.4184
  345TMC3     C 5174   2.738   3.833  10.136 -0.2032  0.8104  0.6236
  345TMC3     O 5175   2.650   3.762  10.088  0.0998 -0.1865 -0.9890
  345TMC3     H 5176   2.988   3.924  10.163 -1.1456  1.3748  1.5422
  345TMC3    H1 5177   2.609   3.970   9.950 -0.4368 -0.4501  0.6844
  345TMC3    H2 5178   2.899   4.270   9.933 -0.4936 -0.3203 -2.4336
  345TMC3    C7 5179   2.686   4.198   9.810  0.1431  0.1127  0.6300
  345TMC3    C8 5180   3.020   4.183  10.153  0.4020  0.3603  0.2194
  345TMC3    O1 5181   2.711   4.320   9.829  0.3962 -0.8808 -0.3522
  345TMC3    O2 5182   2.996   4.160  10.271 -0.2817 -0.0771  0.5091
  346MPD2     C 5183   2.313   0.833  14.338  0.1395 -0.9441 -0.2470
  346MPD2    C1 5184   2.433   0.827  14.278 -0.4246 -0.0565 -0.1803
  346MPD2    C2 5185   2.553   0.823  14.348  0.4201  0.2900 -0.2111
  346MPD2    C3 5186   2.548   0.836  14.486  1.0622 -0.0077  0.4295
  346MPD2    C4 5187   2.428   0.838  14.550  0.0231  0.3603  0.8743
  346MPD2    C5 5188   2.314   0.840  14.478  0.1085  0.0308 -0.0491
  346MPD2     H 5189   2.643   0.792  14.296  1.8974  1.0525  1.9077
  346MPD2    H1 5190   2.419   0.845  14.658 -1.4964  2.0717  0.6279
  346MPD2    H2 5191   2.218   0.819  14.289 -0.7632  0.1024  1.2025
  346MPD2    H3 5192   2.217   0.823  14.523 -0.1803 -5.0038 -2.6638
  346MPD2     N 5193   2.677   0.848  14.544 -0.4018  0.2334  0.3902
  346MPD2    H5 5194   2.750   0.856  14.474 -1.1273 -0.2605 -0.4306
  346MPD2    N1 5195   2.449   0.832  14.138  0.1807  0.5003  0.7375
  346MPD2    H7 5196   2.540   0.807  14.101  0.0142  2.6454 -1.1451
  347TMC3    C1 5197   2.849   0.880  14.696  0.1688  0.7956 -0.2362
  347TMC3    C2 5198   2.898   0.975  14.620 -0.1062  0.6891 -0.6460
  347TMC3    C3 5199   3.034   1.003  14.619  0.3688 -0.7071 -0.6491
  347TMC3    C4 5200   2.913   0.826  14.802  0.8221 -0.0838  0.1987
  347TMC3    C5 5201   3.046   0.860  14.810 -0.3696  0.1048  0.8799
  347TMC3    C6 5202   3.111   0.945  14.719  0.1076  0.2192  0.1604
  347TMC3     C 5203   2.709   0.842  14.676  0.5407 -0.2435  0.0054
  347TMC3     O 5204   2.654   0.772  14.761 -0.2939 -0.6096 -0.7124
  347TMC3     H 5205   2.832   1.038  14.562  0.0619  0.2528 -1.3059
  347TMC3    H1 5206   2.856   0.779  14.882 -0.3989  0.5900 -0.2828
  347TMC3    H2 5207   3.217   0.969  14.719  0.7667 -2.6324 -0.3756
  347TMC3    C7 5208   3.098   0.846  14.946 -0.2123  0.0015  0.0512
  347TMC3    C8 5209   3.086   1.120  14.545 -0.1571 -0.0260 -0.0675
  347TMC3    O1 5210   3.052   0.759  15.018 -0.0408  0.2577 -0.3694
  347TMC3    O2 5211   3.187   1.161  14.603  0.3489  0.1384  0.4638
  348MPD2     C 5212   1.187   0.119  11.632  0.2276 -0.5452  0.8737
  348MPD2    C1 5213   1.167   0.053  11.510 -0.2527  1.0384 -0.4497
  348MPD2    C2 5214   1.207   0.112  11.396 -0.5403  0.7395  0.4388
  348MPD2    C3 5215   1.276   0.231  11.385  0.2876 -0.2142  0.5539
  348MPD2    C4 5216   1.290   0.298  11.503  0.8460  0.1401  1.0214
  348MPD2    C5 5217   1.248   0.243  11.622  0.0320 -0.8921 -0.1920
  348MPD2     H 5218   1.191   0.051  11.308 -2.4085  0.7143  0.7959
  348MPD2    H1 5219   1.353   0.385  11.522  2.5461 -0.5108 -1.6078
  348MPD2    H2 5220   1.174   0.084  11.734 -0.9994  0.3583  1.0188
  348MPD2    H3 5221   1.280   0.295  11.711 -1.4758  1.7163 -1.1914
  348MPD2     N 5222   1.318   0.280  11.263 -0.3818  0.3392  0.0676
  348MPD2    H5 5223   1.278   0.245  11.177  0.9616 -0.0258 -0.4108
  348MPD2    N1 5224   1.095   4.656  11.498  0.2363 -0.4919  0.0454
  348MPD2    H7 5225   1.068   4.629  11.404  0.1587 -0.5557  0.0861
  349TMC3    C1 5226   0.973   4.464  11.534  0.6222  0.1517 -0.3423
  349TMC3    C2 5227   0.945   4.360  11.615 -0.2921  0.1118 -0.7805
  349TMC3    C3 5228   0.880   4.246  11.563 -0.0512  0.0259  0.9911
  349TMC3    C4 5229   0.954   4.456  11.396  0.7373 -0.2828  0.7761
  349TMC3    C5 5230   0.918   4.334  11.347  0.4404  0.1748 -0.6677
  349TMC3    C6 5231   0.874   4.233  11.428  0.6249  0.1098  0.6119
  349TMC3     C 5232   1.050   4.575  11.595  0.1063 -0.0374  0.3404
  349TMC3     O 5233   1.076   4.581  11.715  1.0777  0.4077  0.3092
  349TMC3     H 5234   0.960   4.367  11.722  1.1900  0.9714 -1.0495
  349TMC3    H1 5235   0.961   4.537  11.325 -2.4331 -0.7370 -0.0629
  349TMC3    H2 5236   0.849   4.133  11.394 -1.7244 -0.2334  3.2688
  349TMC3    C7 5237   0.847   4.325  11.224  0.2944  0.0415  0.1571
  349TMC3    C8 5238   0.830   4.140  11.652 -0.7066  0.3478  0.0592
  349TMC3    O1 5239   0.740   4.261  11.218 -0.2434 -0.1414 -0.2624
  349TMC3    O2 5240   0.754   4.058  11.600  0.0043  0.3470 -0.3844
  350MPD2     C 5241   0.191   3.211   9.700 -0.3214 -0.7676 -0.0883
  350MPD2    C1 5242   0.282   3.111   9.718 -0.0975 -1.5271 -0.5984
  350MPD2    C2 5243   0.412   3.137   9.738  0.0702 -0.2202 -0.0218
  350MPD2    C3 5244   0.456   3.268   9.756 -0.4934 -0.1972 -0.1984
  350MPD2    C4 5245   0.368   3.367   9.739 -0.3172  0.3854 -0.7072
  350MPD2    C5 5246   0.234   3.340   9.712 -0.6045 -0.7686 -0.1566
  350MPD2     H 5247   0.483   3.056   9.751 -1.3587 -1.3444  0.7828
  350MPD2    H1 5248   0.392   3.473   9.746  1.7439  0.0295 -2.3684
  350MPD2    H2 5249   0.085   3.197   9.684 -0.7058 -0.1936  1.9076
  350MPD2    H3 5250   0.163   3.421   9.707 -0.7210 -0.8086  0.7433
  350MPD2     N 5251   0.590   3.287   9.813 -0.0694  0.2672 -0.2623
  350MPD2    H5 5252   0.642   3.200   9.819 -0.5352 -0.0938 -1.3530
  350MPD2    N1 5253   0.245   2.977   9.695  0.2305  0.0648  0.5839
  350MPD2    H7 5254   0.323   2.912   9.694 -0.6459 -1.0291  1.9976
  351TMC3    C1 5255   0.125   2.777   9.659  0.6696  0.3163  0.0244
  351TMC3    C2 5256   0.250   2.712   9.660 -0.7476  0.2886 -0.0660
  351TMC3    C3 5257   0.259   2.576   9.676  0.2294  0.1065 -0.6986
  351TMC3    C4 5258   0.010   2.706   9.666 -0.4949  0.2686  0.5824
  351TMC3    C5 5259   0.020   2.568   9.657  0.1363  0.7146 -0.1935
  351TMC3    C6 5260   0.144   2.507   9.658 -0.7315  1.0113  0.0129
  351TMC3     C 5261   0.121   2.923   9.676 -0.4314  0.1325  0.3072
  351TMC3     O 5262   0.013   2.972   9.665 -0.3773  0.1459 -0.1790
  351TMC3     H 5263   0.343   2.767   9.657 -0.8636  0.4722 -0.3502
  351TMC3    H1 5264   4.646   2.760   9.641 -0.2351  0.6271  0.4115
  351TMC3    H2 5265   0.151   2.400   9.650  1.9033  1.0606  1.9302
  351TMC3    C7 5266   4.626   2.490   9.645  0.7127  0.0517  0.3304
  351TMC3    C8 5267   0.388   2.506   9.689 -0.5395 -0.9387  0.0552
  351TMC3    O1 5268   4.526   2.514   9.713 -0.1032  0.4380  0.0077
  351TMC3    O2 5269   0.478   2.542   9.617 -0.0930 -0.1037  0.0147
  352MPD2     C 5270   3.106   0.411   0.718 -0.5404 -0.1878  0.4914
  352MPD2    C1 5271   2.984   0.366   0.767  0.0931  0.5529  0.1365
  352MPD2    C2 5272   2.967   0.250   0.833  0.6877  0.4919 -0.1820
  352MPD2    C3 5273   3.076   0.159   0.845  1.1254 -0.4985  0.3273
  352MPD2    C4 5274   3.195   0.206   0.803 -0.3745 -0.0866  0.4313
  352MPD2    C5 5275   3.212   0.328   0.741  0.2251  0.3458 -0.9766
  352MPD2     H 5276   2.877   0.219   0.885  0.5999  0.4422 -0.3624
  352MPD2    H1 5277   3.280   0.145   0.833 -0.2976 -0.6784 -1.0003
  352MPD2    H2 5278   3.111   0.503   0.661  1.3873  1.0144  2.6251
  352MPD2    H3 5279   3.316   0.348   0.718  0.9477  0.4238  2.3059
  352MPD2     N 5280   3.065   0.029   0.899 -0.2413 -0.2397  0.4825
  352MPD2    H5 5281   3.154   4.709   0.884 -1.3562 -2.0065 -0.5909
  352MPD2    N1 5282   2.884   0.460   0.746 -0.2219 -0.3026  0.5233
  352MPD2    H7 5283   2.913   0.537   0.687 -0.8015 -0.5184 -0.0459
  353TMC3    C1 5284   2.986   4.542   0.968  0.5935 -0.2734 -0.5645
  353TMC3    C2 5285   3.122   4.505   0.963 -0.2772 -0.0109  0.4129
  353TMC3    C3 5286   3.145   4.373   0.940  0.7269 -0.7128  0.3721
  353TMC3    C4 5287   2.881   4.455   0.943 -0.4386 -0.1509 -0.1747
  353TMC3    C5 5288   2.916   4.330   0.913 -0.1139  0.7830  0.0846
  353TMC3    C6 5289   3.048   4.282   0.909  0.3665  0.4474  0.0321
  353TMC3     C 5290   2.957   4.681   0.930  0.5458  0.0294  0.0332
  353TMC3     O 5291   2.838   4.709   0.915 -0.3679  0.1272 -1.0349
  353TMC3     H 5292   3.203   4.574   0.984 -1.4995  0.7438  2.6817
  353TMC3    H1 5293   2.777   4.488   0.937  0.6686  3.0116 -2.2823
  353TMC3    H2 5294   3.062   4.175   0.900 -1.7851  0.3106 -1.6621
  353TMC3    C7 5295   2.830   4.244   0.830  0.3273 -0.2142  0.0865
  353TMC3    C8 5296   3.277   4.318   0.930 -0.0259 -0.7267 -0.7385
  353TMC3    O1 5297   2.880   4.161   0.756  0.3268  0.1873 -0.3824
  353TMC3    O2 5298   3.362   4.377   0.995  0.0776 -0.2670  0.0471
  354TMC3    C1 5299   0.314   1.133  13.391 -0.0478  0.9422  0.1382
  354TMC3    C2 5300   0.447   1.148  13.374  0.2433  0.3039 -0.1213
  354TMC3    C3 5301   0.507   1.111  13.252  0.6263 -0.1735  0.1960
  354TMC3    C4 5302   0.235   1.099  13.280 -0.1678 -0.2020 -0.0966
  354TMC3    C5 5303   0.295   1.066  13.156  0.2545  0.0040 -0.3230
  354TMC3    C6 5304   0.432   1.069  13.144 -0.7226 -0.7287 -0.2969
  354TMC3     C 5305   0.267   1.080  13.520 -0.6056  0.0835  0.3400
  354TMC3     O 5306   0.148   1.083  13.545  0.9101 -0.3464 -0.2803
  354TMC3     H 5307   0.509   1.185  13.455 -0.0673  0.2102  0.1622
  354TMC3    H1 5308   0.130   1.075  13.285  0.5435 -3.5261 -0.6231
  354TMC3    H2 5309   0.482   1.041  13.051 -1.3910  3.3319 -1.9101
  354TMC3    C7 5310   0.223   1.126  13.046 -0.4339  0.1891  0.2723
  354TMC3    C8 5311   0.610   1.200  13.206 -0.5430 -0.1354 -0.9781
  354TMC3    O1 5312   0.107   1.166  13.062 -0.2173 -0.2479 -0.0052
  354TMC3    O2 5313   0.601   1.316  13.237 -0.1393  0.4819  0.2343
  355MPD2     C 5314   0.643   1.825  11.613  0.2741 -0.4624  0.0475
  355MPD2    C1 5315   0.686   1.902  11.714 -0.4556 -0.4249 -0.2007
  355MPD2    C2 5316   0.821   1.945  11.707  0.0950  0.2076 -0.3336
  355MPD2    C3 5317   0.906   1.920  11.590  0.5700 -0.8124 -0.0185
  355MPD2    C4 5318   0.848   1.847  11.489 -0.8235  0.2946  0.5004
  355MPD2    C5 5319   0.718   1.792  11.505  0.0421  0.0008  0.0588
  355MPD2     H 5320   0.870   2.005  11.782 -0.1513  0.7275 -0.5902
  355MPD2    H1 5321   0.907   1.828  11.399  1.9693 -0.7280  2.5225
  355MPD2    H2 5322   0.539   1.795  11.603  0.1085 -0.5301  2.0040
  355MPD2    H3 5323   0.678   1.715  11.440  2.4179 -0.7887 -0.4910
  355MPD2     N 5324   1.029   1.990  11.579 -0.4998 -0.4701  0.0274
  355MPD2    H5 5325   1.059   2.029  11.667  0.0392  3.0340 -1.7342
  355MPD2    N1 5326   0.595   1.948  11.815 -0.2347  0.2888 -0.2713
  355MPD2    H7 5327   0.514   1.890  11.829 -0.1231  0.4900  1.1433
  356TMC3    C1 5328   1.227   2.085  11.495  0.3927  0.9246 -0.3731
  356TMC3    C2 5329   1.266   2.168  11.397 -0.5913 -0.1650 -0.0391
  356TMC3    C3 5330   1.311   2.294  11.438 -0.0946 -0.3535  0.2634
  356TMC3    C4 5331   1.236   2.113  11.627 -0.4482  1.2243  0.4831
  356TMC3    C5 5332   1.290   2.238  11.665 -0.4276 -0.1802 -0.9071
  356TMC3    C6 5333   1.321   2.328  11.571  0.2821  0.0399 -0.7456
  356TMC3     C 5334   1.106   2.010  11.465 -0.3250 -0.0254  0.5301
  356TMC3     O 5335   1.087   1.965  11.354  0.3853  0.1264 -0.8513
  356TMC3     H 5336   1.240   2.158  11.292 -1.3890  2.4860 -0.1050
  356TMC3    H1 5337   1.242   2.036  11.703  0.3596  0.4122 -0.3984
  356TMC3    H2 5338   1.369   2.417  11.609 -1.6390  0.4690  0.6731
  356TMC3    C7 5339   1.242   2.286  11.796  0.6412 -0.2707  0.4681
  356TMC3    C8 5340   1.387   2.368  11.337 -0.4064  0.5645 -0.8166
  356TMC3    O1 5341   1.211   2.194  11.875 -0.0567 -0.3906 -0.1705
  356TMC3    O2 5342   1.418   2.296  11.241  0.1718 -0.1586  0.1727
  357MPD2     C 5343   0.886   1.967   1.669  0.5141  0.3088  0.0180
  357MPD2    C1 5344   1.009   1.935   1.717 -0.7348 -0.0094  0.2135
  357MPD2    C2 5345   1.049   1.966   1.848 -0.1715 -0.4438  0.5331
  357MPD2    C3 5346   0.959   2.023   1.936 -0.1637  0.4123  0.0623
  357MPD2    C4 5347   0.841   2.061   1.884  0.3347 -0.4579 -0.2458
  357MPD2    C5 5348   0.805   2.033   1.759  0.0064 -0.3575  0.4652
  357MPD2     H 5349   1.149   1.940   1.881  0.2625  2.6041  1.6104
  357MPD2    H1 5350   0.772   2.115   1.949  0.1966 -0.0655 -0.7163
  357MPD2    H2 5351   0.850   1.962   1.567  1.6133  1.5180 -0.4395
  357MPD2    H3 5352   0.712   2.080   1.730  0.7390 -0.2239 -1.7202
  357MPD2     N 5353   0.994   2.060   2.068  0.5964  0.4055  0.0791
  357MPD2    H5 5354   0.939   2.133   2.114 -0.8214 -1.0444  0.7036
  357MPD2    N1 5355   1.095   1.882   1.619  0.0442 -0.0630 -0.4405
  357MPD2    H7 5356   1.069   1.872   1.522 -1.0550 -0.5926 -0.0902
  358TMC3    C1 5357   1.288   1.774   1.542  0.1046  0.4237  0.3650
  358TMC3    C2 5358   1.220   1.732   1.430 -0.0222  0.8095  0.2917
  358TMC3    C3 5359   1.296   1.677   1.328 -0.0347  0.0230 -0.3018
  358TMC3    C4 5360   1.420   1.768   1.557  0.7200  0.0370 -0.2413
  358TMC3    C5 5361   1.492   1.714   1.448 -0.0458  0.2324  0.9266
  358TMC3    C6 5362   1.428   1.665   1.342  0.0766 -0.1493 -0.7419
  358TMC3     C 5363   1.223   1.835   1.653  0.5566  0.5242  0.8283
  358TMC3     O 5364   1.294   1.846   1.751  0.2840  0.9923 -0.7532
  358TMC3     H 5365   1.116   1.756   1.412 -0.5147 -1.0915  0.5448
  358TMC3    H1 5366   1.474   1.795   1.647 -1.2956  0.7797  0.7406
  358TMC3    H2 5367   1.490   1.634   1.259 -0.4130 -0.8737 -0.8355
  358TMC3    C7 5368   1.639   1.710   1.440 -0.2755  0.3323 -0.2443
  358TMC3    C8 5369   1.231   1.654   1.201  0.1959 -0.1648  0.0716
  358TMC3    O1 5370   1.693   1.678   1.334  0.2363 -0.8211 -0.0663
  358TMC3    O2 5371   1.305   1.643   1.102  0.3024  0.2275  0.0656
  359MPD2     C 5372   0.872   1.800  12.044  0.2480 -0.2205  0.2414
  359MPD2    C1 5373   0.895   1.673  12.006 -0.1107  0.0558  0.8413
  359MPD2    C2 5374   0.802   1.575  12.047 -0.6320 -0.0662 -0.3495
  359MPD2    C3 5375   0.681   1.609  12.109 -0.4063 -0.6130 -0.2719
  359MPD2    C4 5376   0.666   1.735  12.148  0.4716  0.7326  0.0188
  359MPD2    C5 5377   0.755   1.828  12.110  0.1885 -0.0846 -0.2181
  359MPD2     H 5378   0.823   1.477  12.005  0.9295  0.2041 -0.1914
  359MPD2    H1 5379   0.580   1.774  12.201 -0.3824 -0.2323 -0.6574
  359MPD2    H2 5380   0.937   1.881  12.014 -0.5539  0.3659  0.0943
  359MPD2    H3 5381   0.724   1.929  12.135 -0.6605  0.3888 -3.1663
  359MPD2     N 5382   0.585   1.516  12.153 -0.1766  0.2989  0.4574
  359MPD2    H5 5383   0.506   1.552  12.206  1.1234  0.1534  2.5039
  359MPD2    N1 5384   0.992   1.631  11.915 -0.6026  0.3054 -0.4914
  359MPD2    H7 5385   0.990   1.534  11.884 -1.2431 -0.3532  1.6385
  360TMC3    C1 5386   1.124   1.647  11.727 -0.1683 -0.7835  0.8040
  360TMC3    C2 5387   1.215   1.710  11.643  0.1318 -0.6341 -0.2361
  360TMC3    C3 5388   1.232   1.658  11.515  0.6477  0.5014  0.1335
  360TMC3    C4 5389   1.047   1.541  11.679 -0.2207  0.2675  0.8377
  360TMC3    C5 5390   1.071   1.489  11.552 -0.0179 -0.9278 -0.4213
  360TMC3    C6 5391   1.164   1.544  11.466  0.0821 -0.0704  0.3837
  360TMC3     C 5392   1.077   1.713  11.849  1.2079 -0.5269 -0.1626
  360TMC3     O 5393   1.111   1.830  11.856  1.2798 -0.2021  0.3884
  360TMC3     H 5394   1.278   1.788  11.684 -1.6575  0.5802  0.2012
  360TMC3    H1 5395   0.968   1.491  11.735 -1.4809 -0.4871 -1.6241
  360TMC3    H2 5396   1.168   1.517  11.361 -0.4370  0.1153  0.3164
  360TMC3    C7 5397   0.966   1.405  11.495  0.5001 -0.1173 -0.2680
  360TMC3    C8 5398   1.344   1.711  11.440 -0.0807  0.1548 -0.5177
  360TMC3    O1 5399   0.863   1.393  11.564 -0.2317 -0.5814 -0.0063
  360TMC3    O2 5400   1.380   1.826  11.453  0.0648  0.0763  0.8023
  361MPD2     C 5401   2.834   4.419  16.128  0.0016 -0.5191 -0.6764
  361MPD2    C1 5402   2.783   4.452  16.250  0.0660  0.5323 -0.4404
  361MPD2    C2 5403   2.859   4.410  16.358 -0.0320  0.0755 -0.5859
  361MPD2    C3 5404   2.972   4.324  16.347  0.1549 -0.6294  0.4691
  361MPD2    C4 5405   3.009   4.285  16.210 -0.4590 -0.6235 -0.0021
  361MPD2    C5 5406   2.939   4.336  16.104  0.2326 -0.2097 -0.0901
  361MPD2     H 5407   2.814   4.415  16.456  0.5280  3.8732 -0.5160
  361MPD2    H1 5408   3.094   4.221  16.190  0.8420  0.7822  0.9673
  361MPD2    H2 5409   2.790   4.460  16.038 -0.3001 -2.0760 -1.2475
  361MPD2    H3 5410   2.969   4.316  16.001  2.6689  0.5055  0.4756
  361MPD2     N 5411   3.041   4.269  16.450  0.4562 -0.2339 -0.6551
  361MPD2    H5 5412   3.119   4.205  16.434 -1.0102 -2.0702 -0.4492
  361MPD2    N1 5413   2.672   4.542  16.268  0.9557 -0.0993 -0.0759
  361MPD2    H7 5414   2.653   4.563  16.366 -0.7244  0.0999 -0.4442
  362TMC3    C1 5415   2.477   4.678  16.220  0.2731  0.0526  0.1865
  362TMC3    C2 5416   2.419   4.652  16.344  0.9440  0.4398  0.5090
  362TMC3    C3 5417   2.324   0.018  16.384 -0.8410  0.3058  0.2807
  362TMC3    C4 5418   2.440   0.064  16.145 -0.3219  0.1204  0.0650
  362TMC3    C5 5419   2.344   0.150  16.195  0.0173  0.0551 -0.4470
  362TMC3    C6 5420   2.281   0.131  16.318 -0.4123  0.9954 -0.1505
  362TMC3     C 5421   2.586   4.595  16.173  0.0019 -0.6892 -0.3375
  362TMC3     O 5422   2.608   4.593  16.050  0.3598 -1.1674 -0.5538
  362TMC3     H 5423   2.444   4.558  16.390  1.8009  0.7833  0.7485
  362TMC3    H1 5424   2.476   0.068  16.043 -1.2176  0.0417 -0.2491
  362TMC3    H2 5425   2.211   0.206  16.353 -0.4907  1.5339 -1.4716
  362TMC3    C7 5426   2.304   0.273  16.127  0.0525 -1.3905 -0.4325
  362TMC3    C8 5427   2.289   0.004  16.526  1.5521 -0.4459 -1.0209
  362TMC3    O1 5428   2.196   0.327  16.148 -0.5679 -0.0368  0.4548
  362TMC3    O2 5429   2.354   4.656  16.595 -0.0091 -0.4119  0.1876
  363TMC3    C1 5430   1.649   2.488   9.569 -0.4470  0.1970 -0.5250
  363TMC3    C2 5431   1.595   2.380   9.626 -0.9547  0.3346  0.1839
  363TMC3    C3 5432   1.473   2.400   9.677  0.1545 -0.3734 -0.3417
  363TMC3    C4 5433   1.568   2.589   9.529  0.4463  0.3006 -0.1959
  363TMC3    C5 5434   1.443   2.608   9.580  0.0346 -0.3688 -0.1133
  363TMC3    C6 5435   1.394   2.514   9.660  0.6064 -0.5781  0.1866
  363TMC3     C 5436   1.780   2.468   9.509  0.7874  0.2260  0.3882
  363TMC3     O 5437   1.832   2.356   9.519  0.5669 -0.1110  0.8994
  363TMC3     H 5438   1.658   2.301   9.666 -0.9517  0.2910  0.0926
  363TMC3    H1 5439   1.598   2.650   9.444  0.7453 -0.0201 -0.3181
  363TMC3    H2 5440   1.302   2.528   9.715 -1.0742 -1.1020 -2.4628
  363TMC3    C7 5441   1.353   2.691   9.517  0.2073 -1.1029  0.2507
  363TMC3    C8 5442   1.410   2.286   9.742 -0.4749 -0.1909 -0.6092
  363TMC3    O1 5443   1.237   2.653   9.513  0.1958  0.2781  0.4021
  363TMC3    O2 5444   1.306   2.309   9.804  0.6255  0.6843  0.5040
  364MPD2     C 5445   3.983   1.823  10.396  0.4108  0.0177  0.4836
  364MPD2    C1 5446   4.111   1.780  10.381  0.6879  0.3819 -0.8412
  364MPD2    C2 5447   4.143   1.654  10.421 -0.1325  0.0139 -0.1642
  364MPD2    C3 5448   4.050   1.570  10.486 -0.1228 -0.4903 -0.1890
  364MPD2    C4 5449   3.915   1.613  10.485  0.1288 -0.2236  0.6292
  364MPD2    C5 5450   3.887   1.738  10.436  0.5724  0.1842  0.1204
  364MPD2     H 5451   4.246   1.621  10.427  0.4579  1.9707  0.3786
  364MPD2    H1 5452   3.832   1.562  10.532  0.0027 -0.0718  0.5709
  364MPD2    H2 5453   3.958   1.928  10.388  1.1854  0.1968  0.4781
  364MPD2    H3 5454   3.787   1.773  10.457  1.5607  2.4418  1.0453
  364MPD2     N 5455   4.086   1.450  10.552  0.7363  0.6056  0.2182
  364MPD2    H5 5456   4.013   1.419  10.616  1.5651  0.2535  0.9974
  364MPD2    N1 5457   4.214   1.875  10.363 -0.1862  0.3543  0.1184
  364MPD2    H7 5458   4.195   1.973  10.378 -3.0339 -0.0189 -0.8752
  365TMC3    C1 5459   4.434   1.942  10.321 -0.0991 -0.0778  0.3117
  365TMC3    C2 5460   4.538   1.925  10.230 -0.7599  0.2244 -0.2338
  365TMC3    C3 5461   4.646   2.010  10.236  0.0888  0.6642  0.1797
  365TMC3    C4 5462   4.448   2.029  10.429  0.8020  0.0906 -0.5580
  365TMC3    C5 5463   4.556   2.116  10.429 -0.6609  0.4512  0.8595
  365TMC3    C6 5464   4.646   2.111  10.326  0.3154  0.6576 -0.3059
  365TMC3     C 5465   4.339   1.837  10.321 -0.0587 -0.1401 -0.5134
  365TMC3     O 5466   4.370   1.734  10.258  0.1138  0.0827  0.2025
  365TMC3     H 5467   4.525   1.868  10.139  0.6708 -0.9229  0.2959
  365TMC3    H1 5468   4.389   2.012  10.518  2.1240 -1.3064  0.0417
  365TMC3    H2 5469   0.004   2.179  10.324 -0.2216  1.2846 -1.2855
  365TMC3    C7 5470   4.596   2.186  10.549  0.0255 -0.8274 -0.2780
  365TMC3    C8 5471   0.017   2.013  10.125 -0.2446 -0.2234 -0.1440
  365TMC3    O1 5472   4.705   2.246  10.541  0.3921 -0.3009  0.2147
  365TMC3    O2 5473   0.087   2.112  10.104 -0.6951  0.3434  0.3254
  366MPD2     C 5474   3.093   2.787  14.792 -0.1838  0.0877  0.2788
  366MPD2    C1 5475   3.160   2.866  14.885  0.8306 -0.1474 -0.4422
  366MPD2    C2 5476   3.294   2.827  14.915 -0.2292 -0.1575  0.2720
  366MPD2    C3 5477   3.362   2.725  14.845  0.9344  0.2960  0.1827
  366MPD2    C4 5478   3.287   2.646  14.765  0.7525 -0.0439 -0.7440
  366MPD2    C5 5479   3.156   2.681  14.729  0.0244  0.3166 -0.2337
  366MPD2     H 5480   3.350   2.884  14.988 -0.4346  2.1806 -1.4004
  366MPD2    H1 5481   3.338   2.577  14.699  2.5100  0.3687  0.1912
  366MPD2    H2 5482   2.985   2.792  14.782 -0.1476  1.2850  0.4386
  366MPD2    H3 5483   3.117   2.616  14.651  2.0965 -0.2640 -0.7879
  366MPD2     N 5484   3.498   2.714  14.868  0.2917  0.0088  0.0383
  366MPD2    H5 5485   3.527   2.769  14.948  2.8212 -1.3168  0.0253
  366MPD2    N1 5486   3.104   2.973  14.961  0.1613  1.0278  0.1637
  366MPD2    H7 5487   3.173   3.024  15.015  0.6943  2.0651 -1.4870
  367TMC3    C1 5488   2.953   3.152  15.019 -0.7274 -0.1465 -0.4480
  367TMC3    C2 5489   3.035   3.203  15.117  0.3775  0.0120 -0.0303
  367TMC3    C3 5490   3.031   3.340  15.138 -0.1688  0.6295  0.8010
  367TMC3    C4 5491   2.886   3.231  14.928  0.6671 -0.2270  0.3622
  367TMC3    C5 5492   2.893   3.367  14.954  0.1523 -0.1457 -0.8157
  367TMC3    C6 5493   2.964   3.424  15.052 -0.2392 -0.6393  0.2080
  367TMC3     C 5494   2.975   3.020  14.951 -0.0584 -0.7253  0.3622
  367TMC3     O 5495   2.881   2.974  14.892  0.0263  0.5826  0.1733
  367TMC3     H 5496   3.085   3.135  15.186 -1.7970 -0.7006  0.8427
  367TMC3    H1 5497   2.825   3.186  14.851 -0.9161  1.0736  0.8637
  367TMC3    H2 5498   2.970   3.532  15.058 -0.8006 -0.5773 -0.3670
  367TMC3    C7 5499   2.779   3.449  14.904  0.3195 -0.5980  0.6204
  367TMC3    C8 5500   3.133   3.398  15.220  0.0034  0.6436 -0.2068
  367TMC3    O1 5501   2.806   3.563  14.861 -0.4960  0.3439 -0.1332
  367TMC3    O2 5502   3.222   3.320  15.253 -0.0705  0.1258  0.5098
  368MPD2     C 5503   4.180   4.724  12.873  0.1173 -0.0299  0.1911
  368MPD2    C1 5504   4.111   0.116  12.852  0.1990  0.5294 -0.8451
  368MPD2    C2 5505   4.161   0.206  12.760 -0.4296  0.0833  0.2764
  368MPD2    C3 5506   4.283   0.184  12.708  0.6474  0.0767  0.3480
  368MPD2    C4 5507   4.360   0.081  12.741  1.0706 -0.6832  0.2204
  368MPD2    C5 5508   4.300   4.714  12.815 -0.1778 -0.5016  0.5668
  368MPD2     H 5509   4.101   0.291  12.730 -1.5137 -0.5850  0.5635
  368MPD2    H1 5510   4.459   0.051  12.709  0.3936 -2.9302  0.2264
  368MPD2    H2 5511   4.144   4.641  12.934  0.5716  0.8487  1.6552
  368MPD2    H3 5512   4.360   4.627  12.839  0.2579 -0.3417  0.0620
  368MPD2     N 5513   4.338   0.278  12.609 -0.1465  0.1104  0.2112
  368MPD2    H5 5514   4.431   0.254  12.577 -0.4782 -0.1114 -0.5984
  368MPD2    N1 5515   3.993   0.157  12.923 -0.1077 -0.2498 -0.1655
  368MPD2    H7 5516   3.932   0.089  12.966  2.1200 -0.9405  1.9128
  369TMC3    C1 5517   3.821   0.308  12.993  0.7866 -0.3073  0.4325
  369TMC3    C2 5518   3.771   0.432  12.951 -0.1007 -0.2292  0.0813
  369TMC3    C3 5519   3.644   0.440  12.905  0.4684 -0.8586  0.0567
  369TMC3    C4 5520   3.740   0.201  12.994 -0.7128  0.0987 -0.0963
  369TMC3    C5 5521   3.613   0.217  12.964 -0.2634 -0.0081  0.0129
  369TMC3    C6 5522   3.559   0.335  12.919  1.2866  0.2291  0.1283
  369TMC3     C 5523   3.955   0.288  12.932  0.1276  1.1074  0.5475
  369TMC3     O 5524   4.012   0.393  12.906  0.1152  0.0714 -0.3501
  369TMC3     H 5525   3.838   0.516  12.946 -0.5715 -0.0050 -2.5072
  369TMC3    H1 5526   3.779   0.106  13.029 -0.5413 -0.1558 -0.9875
  369TMC3    H2 5527   3.455   0.350  12.892  0.9068 -1.0570  0.8348
  369TMC3    C7 5528   3.516   0.119  13.023  0.6380  0.1584 -0.6861
  369TMC3    C8 5529   3.626   0.534  12.796 -0.3275  0.6394 -0.1565
  369TMC3    O1 5530   3.555   0.051  13.116  0.3657  0.6242 -0.4677
  369TMC3    O2 5531   3.511   0.571  12.772  0.1330 -0.0455 -0.0221
  370TMC3    C1 5532   3.632   0.843  15.940  0.0102 -0.5130  0.0576
  370TMC3    C2 5533   3.516   0.804  16.003  0.0811 -1.6162  0.2369
  370TMC3    C3 5534   3.464   0.681  15.984  0.0174  0.7437 -1.0737
  370TMC3    C4 5535   3.698   0.760  15.850  0.2277  0.7445  0.3769
  370TMC3    C5 5536   3.640   0.633  15.831 -0.0217 -0.1224 -1.0525
  370TMC3    C6 5537   3.520   0.601  15.896  0.3373 -0.2807 -0.2952
  370TMC3     C 5538   3.713   0.947  16.005  0.5520  0.0032 -0.2278
  370TMC3     O 5539   3.682   0.963  16.121  0.1714  0.3812  0.5012
  370TMC3     H 5540   3.465   0.879  16.063 -0.5950 -0.4843 -1.7437
  370TMC3    H1 5541   3.783   0.785  15.789  1.3501 -2.3152  0.6735
  370TMC3    H2 5542   3.478   0.501  15.883  0.2494 -0.2594 -0.1715
  370TMC3    C7 5543   3.694   0.545  15.725  0.4643  0.4958  0.6826
  370TMC3    C8 5544   3.408   0.602  16.100  0.2530  0.1793 -0.2286
  370TMC3    O1 5545   3.807   0.561  15.678  0.5667  0.1584 -0.5139
  370TMC3    O2 5546   3.374   0.484  16.076  0.0172  0.1940 -0.2032
  371TMC3    C1 5547   0.207   3.777  15.204 -0.4932 -0.3501 -0.4964
  371TMC3    C2 5548   0.100   3.761  15.288  0.6657  0.6256 -0.2846
  371TMC3    C3 5549   0.023   3.866  15.320 -0.7117 -0.1846  0.2960
  371TMC3    C4 5550   0.241   3.891  15.145 -0.1600  0.6327  0.2735
  371TMC3    C5 5551   0.154   4.001  15.177 -0.8587 -0.4161 -0.5994
  371TMC3    C6 5552   0.054   3.991  15.274 -0.0830  0.1933 -0.2991
  371TMC3     C 5553   0.312   3.677  15.205  0.2952  0.3725 -0.4709
  371TMC3     O 5554   0.393   3.683  15.115  0.0338 -0.0792  0.0789
  371TMC3     H 5555   0.063   3.660  15.304 -0.1234  1.4820  3.2434
  371TMC3    H1 5556   0.331   3.904  15.086 -0.7367 -1.1684 -0.9742
  371TMC3    H2 5557   4.707   4.071  15.270 -1.0359 -0.6333  0.7903
  371TMC3    C7 5558   0.177   4.133  15.132  0.6553 -0.5217  0.0793
  371TMC3    C8 5559   4.633   3.841  15.408 -0.0295 -0.2174  1.1447
  371TMC3    O1 5560   0.101   4.218  15.179  0.4092  0.1786 -0.2795
  371TMC3    O2 5561   4.612   3.725  15.445  0.3622 -0.3870  0.0208
  372MPD2     C 5562   4.603   0.578  12.795 -0.6582  0.1959  0.1018
  372MPD2    C1 5563   4.658   0.456  12.846 -0.1694 -0.8504 -1.1362
  372MPD2    C2 5564   4.578   0.374  12.923 -0.4526 -0.7553 -0.1014
  372MPD2    C3 5565   4.448   0.398  12.952 -0.6158 -0.3223 -0.1022
  372MPD2    C4 5566   4.395   0.506  12.889  0.2397  0.4887  0.1602
  372MPD2    C5 5567   4.470   0.598  12.818  0.5182 -0.0293 -0.8501
  372MPD2     H 5568   4.621   0.287  12.972 -0.8420 -0.9880 -0.1673
  372MPD2    H1 5569   4.290   0.531  12.895 -0.3744 -1.9953  0.0072
  372MPD2    H2 5570   4.654   0.664  12.752  2.6134 -2.4550 -1.3246
  372MPD2    H3 5571   4.416   0.685  12.782  2.4924  1.7249  0.4295
  372MPD2     N 5572   4.375   0.334  13.052  0.3261  0.2270 -0.5284
  372MPD2    H5 5573   4.417   0.248  13.085  0.1937  0.1220 -0.6356
  372MPD2    N1 5574   0.071   0.423  12.830 -0.0074 -0.2491 -0.1575
  372MPD2    H7 5575   0.108   0.336  12.868 -1.3885  0.1482  2.0762
  373TMC3    C1 5576   4.178   0.298  13.188 -0.2162  0.4165 -0.1182
  373TMC3    C2 5577   4.101   0.361  13.284  0.0020  0.2510  0.1883
  373TMC3    C3 5578   4.052   0.285  13.387 -0.4023 -0.2278 -0.2787
  373TMC3    C4 5579   4.208   0.165  13.185  0.5214  0.3327  0.7066
  373TMC3    C5 5580   4.143   0.095  13.283 -0.2485 -0.0275  0.2908
  373TMC3    C6 5581   4.066   0.150  13.379  0.3126  0.3460  0.1833
  373TMC3     C 5582   4.259   0.385  13.105  0.5148 -0.2217  0.2486
  373TMC3     O 5583   4.230   0.505  13.105  0.4033 -0.1033  0.3252
  373TMC3     H 5584   4.099   0.467  13.303 -3.6341  0.0722  0.9013
  373TMC3    H1 5585   4.272   0.115  13.113  0.1089  0.8192 -0.0022
  373TMC3    H2 5586   4.041   0.086  13.463 -0.8633 -1.8790 -1.8712
  373TMC3    C7 5587   4.168   4.677  13.289 -0.1167  0.2980  0.1082
  373TMC3    C8 5588   4.049   0.354  13.517 -0.4052  0.2056  0.5634
  373TMC3    O1 5589   4.281   4.650  13.263 -0.2801  0.2255 -0.5130
  373TMC3    O2 5590   4.093   0.466  13.514 -0.0113  0.1613 -0.5955
  374TMC3    C1 5591   0.149   0.301   9.443 -0.8789  0.2187 -0.2243
  374TMC3    C2 5592   0.227   0.405   9.472  0.1573 -0.1108  0.5617
  374TMC3    C3 5593   0.242   0.488   9.365 -0.0970  0.1679 -0.3316
  374TMC3    C4 5594   0.091   0.277   9.319 -0.8201  0.0270  0.3082
  374TMC3    C5 5595   0.119   0.371   9.219 -0.8696  0.5637 -0.1125
  374TMC3    C6 5596   0.200   0.478   9.238  0.4795  0.1381 -0.0549
  374TMC3     C 5597   0.175   0.194   9.526  0.1431  0.7204  0.4037
  374TMC3     O 5598   0.278   0.195   9.592 -0.0914  0.1438  0.2237
  374TMC3     H 5599   0.246   0.433   9.574  0.0149 -0.7627  0.7682
  374TMC3    H1 5600   0.034   0.186   9.304  1.0963 -1.1367 -0.0334
  374TMC3    H2 5601   0.210   0.561   9.168 -1.3579  3.8270  4.0408
  374TMC3    C7 5602   0.045   0.361   9.087 -0.1468 -0.1054 -0.5179
  374TMC3    C8 5603   0.308   0.613   9.393 -0.6952  1.0259  0.5237
  374TMC3    O1 5604   0.052   0.458   9.013 -0.1574  0.1471  0.0891
  374TMC3    O2 5605   0.280   0.720   9.334  0.0096  0.3470  0.6857
  375MPD2     C 5606   0.285   1.126  16.460  0.0653  0.7561 -0.0126
  375MPD2    C1 5607   0.172   1.088  16.394 -0.0531 -0.5928 -0.1965
  375MPD2    C2 5608   0.184   1.042  16.259  0.6388  0.7097 -0.7494
  375MPD2    C3 5609   0.308   1.004  16.211 -0.2296 -0.3888 -0.5538
  375MPD2    C4 5610   0.423   1.039  16.283  0.4683  0.2136 -0.2097
  375MPD2    C5 5611   0.411   1.108  16.401  0.3300 -0.0361  0.4407
  375MPD2     H 5612   0.091   1.020  16.207  1.3338  1.1375 -2.1682
  375MPD2    H1 5613   0.525   1.025  16.249  1.1880 -1.1226  2.4781
  375MPD2    H2 5614   0.287   1.157  16.564 -1.4175  1.3719 -0.1651
  375MPD2    H3 5615   0.505   1.132  16.451 -0.1678  0.5817  1.0914
  375MPD2     N 5616   0.319   0.919  16.099 -0.4140  0.0760 -0.2254
  375MPD2    H5 5617   0.412   0.882  16.085 -1.6823 -1.6532 -4.1810
  375MPD2    N1 5618   0.047   1.082  16.455 -0.5482  0.2834 -0.2139
  375MPD2    H7 5619   4.696   1.052  16.398  0.0742  1.4926 -1.6783
  376TMC3    C1 5620   0.280   0.772  15.925  0.1772 -0.6624  0.5827
  376TMC3    C2 5621   0.378   0.696  15.984  0.3487 -0.6544 -0.1242
  376TMC3    C3 5622   0.476   0.635  15.911 -0.6262 -0.1723 -0.3801
  376TMC3    C4 5623   0.289   0.792  15.786  0.0033 -0.5586 -0.0823
  376TMC3    C5 5624   0.389   0.727  15.714 -0.2049 -0.6815  0.0732
  376TMC3    C6 5625   0.480   0.647  15.769 -0.7581 -0.7141  0.0692
  376TMC3     C 5626   0.224   0.882  16.000  0.0766 -0.0848 -0.2419
  376TMC3     O 5627   0.112   0.930  15.986 -0.0405  0.5908 -0.2450
  376TMC3     H 5628   0.373   0.679  16.091  0.3304 -0.3430 -0.0750
  376TMC3    H1 5629   0.213   0.849  15.735  1.2045  2.9657  2.0344
  376TMC3    H2 5630   0.562   0.605  15.711 -1.2394 -2.0614  0.3642
  376TMC3    C7 5631   0.395   0.764  15.576 -0.6160 -0.0345 -0.9600
  376TMC3    C8 5632   0.607   0.645  15.965  0.1923 -0.6654  0.0841
  376TMC3    O1 5633   0.367   0.882  15.557  0.1001  0.3261  0.0364
  376TMC3    O2 5634   0.696   0.629  15.885 -0.0457 -0.2416  0.2577
  377MPD2     C 5635   2.790   0.707  12.829 -0.5303 -0.1516 -0.5222
  377MPD2    C1 5636   2.832   0.571  12.806  0.1660 -0.0824 -0.4179
  377MPD2    C2 5637   2.783   0.470  12.896 -0.8437 -0.9175 -0.4737
  377MPD2    C3 5638   2.698   0.501  13.004 -0.9238 -0.3971  0.1134
  377MPD2    C4 5639   2.668   0.634  13.024 -0.0967 -0.2287  0.4522
  377MPD2    C5 5640   2.714   0.730  12.939 -0.6822 -0.1521 -0.4374
  377MPD2     H 5641   2.794   0.365  12.870  1.1925 -0.7382 -0.3468
  377MPD2    H1 5642   2.601   0.669  13.102  0.4928 -1.7841  1.6656
  377MPD2    H2 5643   2.828   0.790  12.770 -0.9421 -1.8341 -3.1751
  377MPD2    H3 5644   2.692   0.831  12.968  1.3631 -0.1630  1.1850
  377MPD2     N 5645   2.621   0.404  13.070  0.2537 -0.7750 -0.2386
  377MPD2    H5 5646   2.560   0.439  13.143  0.6094 -1.1377  0.2349
  377MPD2    N1 5647   2.914   0.548  12.694  0.1885 -0.1130 -0.1116
  377MPD2    H7 5648   2.947   0.633  12.648  1.1884 -0.2356  0.3751
  378TMC3    C1 5649   3.196   0.542  12.401 -0.0627 -0.3584  0.5107
  378TMC3    C2 5650   3.080   0.512  12.464 -0.2020 -0.2180  0.2224
  378TMC3    C3 5651   3.070   0.415  12.562 -0.2902  0.2313 -0.1786
  378TMC3    C4 5652   3.302   0.464  12.431 -0.0994 -0.9251 -0.3216
  378TMC3    C5 5653   3.298   0.366  12.521  0.2111  0.1037  0.1946
  378TMC3    C6 5654   3.178   0.342  12.583  0.6845  0.2909  0.5538
  378TMC3     C 5655   3.202   0.620  12.279  0.7320  0.1192  0.2181
  378TMC3     O 5656   3.106   0.690  12.262  0.0235  0.9969 -0.5539
  378TMC3     H 5657   2.990   0.565  12.434  0.4427  1.5583  1.4611
  378TMC3    H1 5658   3.401   0.497  12.399 -0.2012  0.4584  0.7846
  378TMC3    H2 5659   3.168   0.255  12.647  2.5508  2.4696  3.8324
  378TMC3    C7 5660   3.418   0.294  12.569 -0.2633  0.3610  0.2628
  378TMC3    C8 5661   2.976   0.425  12.670  0.0372 -0.3566 -0.9529
  378TMC3    O1 5662   3.410   0.235  12.677 -0.0160  0.5762  0.6296
  378TMC3    O2 5663   2.977   0.329  12.743 -0.3012 -0.6180  0.1701
  379MPD2     C 5664   4.362   3.503  15.704 -0.0043  0.0062  0.1116
  379MPD2    C1 5665   4.244   3.460  15.749  0.0415  0.4585 -0.4487
  379MPD2    C2 5666   4.238   3.378  15.857  0.2525 -0.0427  0.0853
  379MPD2    C3 5667   4.350   3.350  15.923  0.5477 -0.2712  0.4185
  379MPD2    C4 5668   4.473   3.400  15.881  0.3713  0.8225 -0.9942
  379MPD2    C5 5669   4.478   3.471  15.764  0.4693 -0.5530 -0.4089
  379MPD2     H 5670   4.141   3.338  15.884  0.3922 -0.8785 -0.6670
  379MPD2    H1 5671   4.570   3.378  15.926  0.2128  0.7658 -0.6837
  379MPD2    H2 5672   4.357   3.565  15.615 -2.4371 -0.6866 -0.2235
  379MPD2    H3 5673   4.576   3.503  15.728 -0.6480 -0.4262 -3.3131
  379MPD2     N 5674   4.363   3.255  16.031  0.4923  0.2682 -0.3489
  379MPD2    H5 5675   4.454   3.227  16.064  0.2470  1.6733  1.5467
  379MPD2    N1 5676   4.127   3.486  15.672 -0.2356  0.7013 -0.1829
  379MPD2    H7 5677   4.137   3.522  15.578  1.4405 -0.5550 -0.4897
  380TMC3    C1 5678   3.920   3.409  15.587  0.1519  0.0667  0.4170
  380TMC3    C2 5679   3.991   3.327  15.507 -0.3607 -0.0232  0.2738
  380TMC3    C3 5680   3.937   3.303  15.388 -0.1955  0.5149  0.3841
  380TMC3    C4 5681   3.792   3.441  15.565  0.1406  0.3753 -0.6149
  380TMC3    C5 5682   3.740   3.413  15.439 -0.6422  0.0068  0.6105
  380TMC3    C6 5683   3.820   3.356  15.346 -0.6165  0.2321  0.0423
  380TMC3     C 5684   3.998   3.448  15.707 -0.2415 -0.4159  0.0967
  380TMC3     O 5685   3.948   3.456  15.817  0.1629 -0.1472 -0.1201
  380TMC3     H 5686   4.085   3.293  15.549 -0.0447  1.0028  0.4091
  380TMC3    H1 5687   3.734   3.496  15.639  0.3361 -0.9030  0.4995
  380TMC3    H2 5688   3.780   3.323  15.251  1.6052  0.3632 -0.9372
  380TMC3    C7 5689   3.609   3.452  15.399 -0.0558  0.4135  0.6609
  380TMC3    C8 5690   4.044   3.299  15.286 -0.1238 -0.6394  0.3206
  380TMC3    O1 5691   3.578   3.415  15.288 -0.5789  0.2405 -0.6453
  380TMC3    O2 5692   4.015   3.335  15.174  0.2440  0.1483  0.2978
  381TMC3    C1 5693   3.369   4.645  15.868  0.0686  0.0870 -0.4019
  381TMC3    C2 5694   3.453   0.023  15.852 -0.2492 -0.1668 -1.0722
  381TMC3    C3 5695   3.463   0.122  15.950 -0.3446 -0.0805 -0.7567
  381TMC3    C4 5696   3.276   4.650  15.966  0.6728  0.2954  0.0935
  381TMC3    C5 5697   3.278   0.035  16.053 -0.1115  0.2811 -0.1018
  381TMC3    C6 5698   3.374   0.130  16.051 -0.0671 -0.2445  0.2448
  381TMC3     C 5699   3.384   4.527  15.788 -0.3596  0.1389  0.4364
  381TMC3     O 5700   3.287   4.450  15.796 -0.5564  0.3691  0.2895
  381TMC3     H 5701   3.527   0.025  15.773  0.7210 -0.7058 -0.1816
  381TMC3    H1 5702   3.197   4.576  15.967 -0.7363  1.7803 -0.3548
  381TMC3    H2 5703   3.361   0.222  16.108  0.5591  0.8422 -1.3488
  381TMC3    C7 5704   3.206   0.006  16.176 -0.1534 -0.0295 -0.5864
  381TMC3    C8 5705   3.592   0.174  15.968 -0.0418 -0.2800  0.1581
  381TMC3    O1 5706   3.160   4.618  16.181 -0.2015 -0.6288  0.2998
  381TMC3    O2 5707   3.678   0.122  15.906  0.9735  0.3272 -0.4847
  382MPD2     C 5708   2.960   2.270  17.155  0.7426 -0.9599  0.2167
  382MPD2    C1 5709   2.952   2.304  17.291  0.4905 -0.0476 -0.6094
  382MPD2    C2 5710   2.915   2.206  17.380 -0.5029 -0.2265  0.8493
  382MPD2    C3 5711   2.879   2.081  17.337  0.5200  0.7576 -0.3507
  382MPD2    C4 5712   2.908   2.046  17.209 -0.1269 -0.3907  0.3975
  382MPD2    C5 5713   2.942   2.140  17.113 -0.7306  0.7787 -0.0846
  382MPD2     H 5714   2.876   2.241  17.475 -1.6121 -1.0312  0.6988
  382MPD2    H1 5715   2.900   1.941  17.182  0.6756 -0.8440  1.8882
  382MPD2    H2 5716   2.979   2.344  17.077  1.8014  0.3139  1.6797
  382MPD2    H3 5717   2.958   2.104  17.012 -1.1220 -0.0993  0.1598
  382MPD2     N 5718   2.822   1.980  17.419  0.4209  0.1288  0.2840
  382MPD2    H5 5719   2.787   1.892  17.384 -3.0969  1.6138  0.0689
  382MPD2    N1 5720   2.991   2.435  17.333 -0.6575  0.0242  0.1605
  382MPD2    H7 5721   2.996   2.454  17.433  3.4280  1.8284 -0.3710
  383TMC3    C1 5722   2.725   1.868  17.603  0.0400 -0.5523 -0.5951
  383TMC3    C2 5723   2.636   1.807  17.521 -0.9058 -0.3902  0.1065
  383TMC3    C3 5724   2.576   1.700  17.567  0.3054  0.4060 -0.4435
  383TMC3    C4 5725   2.747   1.828   0.028 -0.0637 -0.5735 -0.0994
  383TMC3    C5 5726   2.663   1.735   0.079 -0.4016  0.6727  0.2017
  383TMC3    C6 5727   2.573   1.670  17.700  1.0398  0.4916  0.4574
  383TMC3     C 5728   2.796   1.985  17.553 -0.6202  0.7083 -0.3498
  383TMC3     O 5729   2.848   2.064  17.632 -0.0498 -0.3829  0.5086
  383TMC3     H 5730   2.617   1.843  17.421  2.0849  0.7721 -0.0498
  383TMC3    H1 5731   2.830   1.874   0.081 -0.8902  0.8139 -0.0127
  383TMC3    H2 5732   2.506   1.598   0.040 -2.7963  2.4315 -2.1452
  383TMC3    C7 5733   2.649   1.711   0.222 -0.0175  0.6863  0.4320
  383TMC3    C8 5734   2.501   1.619  17.472  0.3394 -0.5357  0.3460
  383TMC3    O1 5735   2.598   1.602   0.253  0.2436  0.3689 -0.4893
  383TMC3    O2 5736   2.460   1.680  17.375 -0.7812 -0.7102 -0.1011
  384MPD2     C 5737   4.588   3.562  11.706 -0.2812 -0.0506  0.1834
  384MPD2    C1 5738   4.501   3.524  11.804 -1.1905 -0.1567 -0.5671
  384MPD2    C2 5739   4.472   3.386  11.818 -0.9587  0.0644  0.5217
  384MPD2    C3 5740   4.551   3.289  11.745  0.1004 -0.3773  0.4398
  384MPD2    C4 5741   4.650   3.337  11.662  0.3038  1.1409 -0.1982
  384MPD2    C5 5742   4.671   3.469  11.641 -0.5305 -0.6988 -0.1519
  384MPD2     H 5743   4.390   3.362  11.885  0.5287  0.0331  2.3220
  384MPD2    H1 5744   4.721   3.273  11.611  0.5692 -0.0460  1.6841
  384MPD2    H2 5745   4.611   3.666  11.683  2.4642 -0.7944 -0.4205
  384MPD2    H3 5746   0.023   3.503  11.575  0.6768  0.8666  2.0772
  384MPD2     N 5747   4.537   3.147  11.749  0.0471 -0.6186  0.0388
  384MPD2    H5 5748   4.597   3.083  11.699 -0.2735  0.1239 -1.2859
  384MPD2    N1 5749   4.444   3.616  11.894 -0.4807  0.2913  0.2712
  384MPD2    H7 5750   4.485   3.708  11.912 -1.1388  0.6147  0.1150
  385TMC3    C1 5751   4.509   2.967  11.882 -0.9953  0.3763  0.0633
  385TMC3    C2 5752   4.415   2.873  11.919  0.0057  0.1809 -0.3587
  385TMC3    C3 5753   4.429   2.813  12.044 -0.3883 -0.0697 -0.3457
  385TMC3    C4 5754   4.620   2.991  11.957  0.1498  0.1216  0.4937
  385TMC3    C5 5755   4.623   2.937  12.080 -0.1303 -0.5203 -0.0501
  385TMC3    C6 5756   4.538   2.841  12.125 -0.3541 -0.1414 -0.2627
  385TMC3     C 5757   4.453   3.087  11.834  0.0073  0.4554  0.8970
  385TMC3     O 5758   4.363   3.136  11.900 -0.1330 -0.8462  0.3295
  385TMC3     H 5759   4.322   2.864  11.864 -0.6900 -1.5714  1.0873
  385TMC3    H1 5760   4.686   3.072  11.928 -2.0801  2.1788  1.1568
  385TMC3    H2 5761   4.551   2.795  12.222  1.8362  0.8483 -0.1015
  385TMC3    C7 5762   4.723   2.990  12.164 -0.7193  0.0787  0.1508
  385TMC3    C8 5763   4.355   2.693  12.071  0.3445 -0.2702  0.0190
  385TMC3    O1 5764   0.082   3.062  12.108  0.6094 -0.1507 -0.2639
  385TMC3    O2 5765   4.339   2.658  12.190 -0.4987 -0.1261  0.2738
  386TMC3    C1 5766   4.200   1.047  11.527  0.1061  0.5446  1.0393
  386TMC3    C2 5767   4.202   1.054  11.392 -0.1187  0.0768 -0.6003
  386TMC3    C3 5768   4.079   1.072  11.332 -0.2961 -0.1277 -0.1322
  386TMC3    C4 5769   4.084   1.066  11.601 -0.4800  0.0128  0.0516
  386TMC3    C5 5770   3.964   1.076  11.531 -0.3880  0.9694  0.6644
  386TMC3    C6 5771   3.962   1.077  11.394  0.6355  0.8199 -0.1257
  386TMC3     C 5772   4.323   1.033  11.600  0.1835  0.0868  0.2250
  386TMC3     O 5773   4.323   1.079  11.713  0.8486  0.8170 -0.2112
  386TMC3     H 5774   4.289   1.040  11.328  1.2303 -1.5005  1.5783
  386TMC3    H1 5775   4.082   1.061  11.709  0.0916  4.3086  0.2622
  386TMC3    H2 5776   3.870   1.098  11.340  2.4624 -0.3033 -3.6536
  386TMC3    C7 5777   3.855   1.116  11.620 -0.0950 -0.1664 -0.5142
  386TMC3    C8 5778   4.075   1.073  11.180 -0.3658  0.3208  0.4230
  386TMC3    O1 5779   3.859   1.065  11.733 -0.2345 -0.2485 -0.1265
  386TMC3    O2 5780   4.002   1.162  11.133  0.1406 -0.5774 -0.1848
  387MPD2     C 5781   2.382   0.831   9.149  0.5468 -0.1119 -0.0954
  387MPD2    C1 5782   2.412   0.816   9.280 -0.0298 -0.4148  0.3219
  387MPD2    C2 5783   2.449   0.688   9.318 -0.9153  0.7279  0.1517
  387MPD2    C3 5784   2.443   0.577   9.239  0.4743  0.3489  0.1156
  387MPD2    C4 5785   2.415   0.595   9.103  0.4723  0.4836 -0.0990
  387MPD2    C5 5786   2.391   0.724   9.068  0.4180  0.0414 -0.3379
  387MPD2     H 5787   2.474   0.663   9.420  1.1292  1.1218 -0.2501
  387MPD2    H1 5788   2.417   0.515   9.029  2.6759  0.5473 -0.1141
  387MPD2    H2 5789   2.357   0.925   9.102  1.2232  0.7095  1.1688
  387MPD2    H3 5790   2.372   0.751   8.964 -3.2432  1.5550  0.7283
  387MPD2     N 5791   2.472   0.448   9.292 -0.0473 -0.3019 -0.9192
  387MPD2    H5 5792   2.480   0.454   9.393 -2.0095  2.8462 -0.9529
  387MPD2    N1 5793   2.408   0.914   9.377  0.3533  0.2509  0.9566
  387MPD2    H7 5794   2.453   0.890   9.464 -0.7818  0.0607  1.5001
  388TMC3    C1 5795   2.309   1.084   9.505 -0.3590  0.7624 -0.0313
  388TMC3    C2 5796   2.228   1.191   9.505 -0.6722  0.0903 -0.1223
  388TMC3    C3 5797   2.123   1.198   9.597  0.1371 -0.1885 -0.2729
  388TMC3    C4 5798   2.313   1.002   9.617  0.0881  0.8453  0.0237
  388TMC3    C5 5799   2.223   1.019   9.717  0.2556  0.0143 -0.3246
  388TMC3    C6 5800   2.125   1.116   9.713 -0.6980  0.6808  0.1825
  388TMC3     C 5801   2.346   1.037   9.373 -1.0110  0.3117  0.4600
  388TMC3     O 5802   2.301   1.091   9.275 -0.2742 -0.0689 -0.2944
  388TMC3     H 5803   2.227   1.257   9.418  0.4987  0.2676  0.0053
  388TMC3    H1 5804   2.378   0.914   9.619  0.4497  1.1431  1.3868
  388TMC3    H2 5805   2.057   1.122   9.797 -1.4572  0.8638 -0.4451
  388TMC3    C7 5806   2.205   0.909   9.813  0.6853  0.1796  0.0610
  388TMC3    C8 5807   2.034   1.321   9.597 -0.1529  0.4496 -0.2136
  388TMC3    O1 5808   2.194   0.938   9.933  0.0550  0.0684 -0.0463
  388TMC3    O2 5809   1.988   1.350   9.705 -0.2444  0.0577  0.0164
  389MPD2     C 5810   1.389   3.776  11.394  0.2155 -0.5087 -0.0720
  389MPD2    C1 5811   1.341   3.717  11.275 -0.2165  0.1074  0.3616
  389MPD2    C2 5812   1.283   3.599  11.277  0.5245 -0.2057 -0.4850
  389MPD2    C3 5813   1.243   3.543  11.396  0.5886  0.8339  0.4925
  389MPD2    C4 5814   1.300   3.596  11.513  0.7923  0.3554  0.0069
  389MPD2    C5 5815   1.373   3.716  11.517  0.6995  0.2467  0.4687
  389MPD2     H 5816   1.247   3.548  11.188  1.0756  2.0747 -1.9976
  389MPD2    H1 5817   1.281   3.569  11.617 -1.5993 -0.0088 -0.5253
  389MPD2    H2 5818   1.437   3.873  11.405  0.3712 -0.6631  0.6254
  389MPD2    H3 5819   1.396   3.763  11.612 -2.3360 -0.1371  1.3745
  389MPD2     N 5820   1.181   3.412  11.396  0.5007  0.7739  0.7720
  389MPD2    H5 5821   1.167   3.361  11.482  1.0422  0.7441  0.8427
  389MPD2    N1 5822   1.346   3.794  11.157 -0.0165  0.1833 -0.2854
  389MPD2    H7 5823   1.412   3.871  11.163 -0.0941  0.1999  0.3959
  390TMC3    C1 5824   1.066   3.224  11.307  0.1358 -0.2390  0.3454
  390TMC3    C2 5825   1.126   3.129  11.390 -0.4795 -0.2864  0.4314
  390TMC3    C3 5826   1.098   2.994  11.364  0.9512  0.3573  0.6279
  390TMC3    C4 5827   1.020   3.186  11.185 -0.5978  0.7526 -0.1281
  390TMC3    C5 5828   1.014   3.052  11.153 -0.1180 -0.5260  0.0833
  390TMC3    C6 5829   1.047   2.952  11.243 -1.3242  0.6047  0.0387
  390TMC3     C 5830   1.111   3.358  11.291  0.4428  0.1161  0.1690
  390TMC3     O 5831   1.091   3.411  11.182 -0.7222 -0.2315  0.0236
  390TMC3     H 5832   1.180   3.147  11.483  2.0005 -2.9970 -0.4935
  390TMC3    H1 5833   0.963   3.247  11.116 -0.9439 -2.6665 -2.8207
  390TMC3    H2 5834   1.033   2.846  11.224 -0.4583  1.0907 -3.3330
  390TMC3    C7 5835   0.895   3.004  11.088  0.4441  0.1572  0.2645
  390TMC3    C8 5836   1.071   2.905  11.467  0.3416 -0.6605  0.4525
  390TMC3    O1 5837   0.848   3.051  10.984  0.1607  0.0380  0.0412
  390TMC3    O2 5838   1.087   2.788  11.444 -0.1292  0.6389 -0.1795
  391MPD2     C 5839   0.976   0.191  10.729 -0.4277 -0.3182 -0.9442
  391MPD2    C1 5840   1.086   0.263  10.698 -0.2210  0.4106 -0.1734
  391MPD2    C2 5841   1.084   0.340  10.580  0.0123  0.2438 -0.0830
  391MPD2    C3 5842   0.975   0.336  10.495 -0.8462  0.2700  0.1432
  391MPD2    C4 5843   0.865   0.253  10.525 -0.0578 -0.4167 -0.2895
  391MPD2    C5 5844   0.865   0.189  10.646  0.1626  0.0534 -0.3199
  391MPD2     H 5845   1.165   0.408  10.557 -0.6232  1.5011  1.3916
  391MPD2    H1 5846   0.781   0.241  10.458  0.4146 -1.1297 -0.7624
  391MPD2    H2 5847   0.977   0.116  10.807  1.0546 -0.6528 -1.2857
  391MPD2    H3 5848   0.769   0.149  10.675 -0.7220  3.2360  1.1221
  391MPD2     N 5849   0.988   0.411  10.371  0.0267  0.4597  0.1974
  391MPD2    H5 5850   1.077   0.453  10.348  0.2336  0.2788  0.6581
  391MPD2    N1 5851   1.192   0.285  10.794 -0.2735  0.2419 -0.1998
  391MPD2    H7 5852   1.173   0.258  10.890 -0.3891  2.6625  0.4588
  392TMC3    C1 5853   0.923   0.493  10.156 -0.2885 -0.1273  0.5541
  392TMC3    C2 5854   0.821   0.510  10.060  0.1298 -0.6819 -0.5286
  392TMC3    C3 5855   0.846   0.594   9.961  0.2886 -0.3870  0.0937
  392TMC3    C4 5856   1.044   0.565  10.154  0.5840  0.9674  0.2193
  392TMC3    C5 5857   1.058   0.648  10.044 -0.0311  0.6741 -0.3637
  392TMC3    C6 5858   0.958   0.672   9.952  0.0321  0.4973 -0.3087
  392TMC3     C 5859   0.887   0.426  10.282  0.2631  0.2646 -0.5817
  392TMC3     O 5860   0.771   0.397  10.298  0.1551 -0.1013  0.3298
  392TMC3     H 5861   0.720   0.476  10.075 -0.8031  2.0627 -0.5098
  392TMC3    H1 5862   1.134   0.539  10.208 -0.1089  1.5581  1.6341
  392TMC3    H2 5863   0.983   0.737   9.868  0.6246  1.0826  0.3190
  392TMC3    C7 5864   1.150   0.750  10.079 -0.3112 -0.1512  0.0053
  392TMC3    C8 5865   0.743   0.605   9.861 -0.1878  0.1495 -1.0201
  392TMC3    O1 5866   1.165   0.768  10.199 -0.3814 -0.0414  0.3779
  392TMC3    O2 5867   0.668   0.509   9.850  0.4063  0.2692 -0.0439
  393TMC3    C1 5868   4.615   3.161  10.003 -0.5885 -0.1513  0.1318
  393TMC3    C2 5869   4.491   3.104  10.027  0.2651  0.8990  0.3853
  393TMC3    C3 5870   4.484   2.972  10.046 -0.7325 -0.1873 -0.0768
  393TMC3    C4 5871   0.006   3.092  10.002 -0.9676  0.1545 -0.0484
  393TMC3    C5 5872   4.717   2.958  10.006 -0.5957  0.1300 -0.0970
  393TMC3    C6 5873   4.599   2.893  10.024 -0.4776  0.0791 -0.7180
  393TMC3     C 5874   4.610   3.303   9.980 -0.0528  0.0571 -0.3629
  393TMC3     O 5875   4.501   3.340   9.942  0.0777  0.9457 -0.0504
  393TMC3     H 5876   4.400   3.163  10.022 -1.7403 -2.3824 -1.3016
  393TMC3    H1 5877   0.096   3.132   9.957 -0.2259 -1.8508 -0.3446
  393TMC3    H2 5878   4.582   2.786  10.016 -0.1067  0.0493 -1.1209
  393TMC3    C7 5879   0.109   2.871  10.000 -0.5481  0.2651 -0.2932
  393TMC3    C8 5880   4.364   2.914   9.997 -0.6329 -0.2881 -0.3768
  393TMC3    O1 5881   0.090   2.749   9.994 -0.0181  0.4532 -0.4600
  393TMC3    O2 5882   4.361   2.909   9.874 -0.2267 -0.2162 -0.2264
  394TMC3    C1 5883   1.327   3.842  10.925  0.1401  0.2547 -0.6765
  394TMC3    C2 5884   1.244   3.863  10.819  0.4115  0.0961 -0.4650
  394TMC3    C3 5885   1.291   3.913  10.702 -0.5717  0.3287  0.1762
  394TMC3    C4 5886   1.462   3.862  10.908  0.3460 -0.2446  0.5071
  394TMC3    C5 5887   1.506   3.890  10.783  0.0411 -0.6670 -0.4098
  394TMC3    C6 5888   1.428   3.930  10.681 -0.1368 -0.6991 -0.0761
  394TMC3     C 5889   1.285   3.762  11.035  0.4483  0.4213  0.0548
  394TMC3     O 5890   1.213   3.669  11.000 -0.2093 -0.2449 -0.0728
  394TMC3     H 5891   1.141   3.827  10.822  0.6641 -0.5835 -0.1105
  394TMC3    H1 5892   1.529   3.828  10.985  0.7439  0.1971  0.3500
  394TMC3    H2 5893   1.464   3.959  10.584 -1.0097  0.8428  0.0609
  394TMC3    C7 5894   1.644   3.854  10.760 -0.1582  0.5613 -0.4892
  394TMC3    C8 5895   1.212   3.866  10.590 -0.0059  0.1072  0.5222
  394TMC3    O1 5896   1.692   3.908  10.660  0.5104  0.8269  0.0957
  394TMC3    O2 5897   1.090   3.881  10.586 -0.3638 -0.9072 -0.1071
  395TMC3    C1 5898   0.959   0.819  14.097 -0.1106  0.3045  0.0472
  395TMC3    C2 5899   0.864   0.766  14.179 -0.2952  0.9395 -0.3733
  395TMC3    C3 5900   0.835   0.834  14.295  0.6226  0.2182 -0.0375
  395TMC3    C4 5901   1.033   0.934  14.130 -0.3763 -0.0309 -0.3937
  395TMC3    C5 5902   0.996   0.997  14.242 -0.0921  1.0763  0.3939
  395TMC3    C6 5903   0.897   0.952  14.324  0.7497 -0.2937  0.0788
  395TMC3     C 5904   0.997   0.744  13.975 -0.3601  0.2039  0.1572
  395TMC3     O 5905   1.024   0.818  13.879  0.0752  0.8021  0.5986
  395TMC3     H 5906   0.815   0.675  14.147 -2.0182  2.2256 -1.4552
  395TMC3    H1 5907   1.110   0.970  14.062 -0.3553 -0.4334 -0.5795
  395TMC3    H2 5908   0.880   0.988  14.425  1.4686 -1.1355  0.5017
  395TMC3    C7 5909   1.089   1.094  14.298  0.1345 -0.0593 -0.1398
  395TMC3    C8 5910   0.800   0.754  14.413  0.0985  0.5268 -0.5352
  395TMC3    O1 5911   1.039   1.186  14.362 -0.4133 -0.2082  0.9221
  395TMC3    O2 5912   0.842   0.791  14.522 -0.2386 -0.7772  0.3102
  396MPD2     C 5913   0.868   1.855  17.310  0.7400 -0.0845  0.3122
  396MPD2    C1 5914   0.941   1.754  17.251  0.4399 -0.6169 -0.2451
  396MPD2    C2 5915   0.946   1.758  17.112 -0.5322 -0.0123 -0.6375
  396MPD2    C3 5916   0.877   1.842  17.031  0.5682 -0.2633  0.4140
  396MPD2    C4 5917   0.799   1.929  17.094 -0.6952 -0.0560  0.4602
  396MPD2    C5 5918   0.803   1.937  17.228 -0.4733 -0.5006  0.0955
  396MPD2     H 5919   1.004   1.681  17.062  0.1169  0.6013 -0.8443
  396MPD2    H1 5920   0.727   1.984  17.034  1.6408 -0.5213 -2.7735
  396MPD2    H2 5921   0.845   1.857  17.416  2.9006 -0.7971  0.7988
  396MPD2    H3 5922   0.746   2.012  17.281 -1.1231 -1.8434  1.2964
  396MPD2     N 5923   0.883   1.830  16.891 -0.1385  0.1107 -0.1195
  396MPD2    H5 5924   0.935   1.753  16.851  0.3381 -0.4184  1.5179
  396MPD2    N1 5925   1.015   1.667  17.329 -0.0047 -0.7880  0.1019
  396MPD2    H7 5926   1.016   1.685  17.429  2.1107  2.2552 -0.4673
  397TMC3    C1 5927   1.188   1.506  17.384 -0.0188  0.3402 -0.2224
  397TMC3    C2 5928   1.306   1.465  17.324 -0.7869 -0.7432  0.1940
  397TMC3    C3 5929   1.336   1.332  17.329 -1.1193 -0.6707 -0.2423
  397TMC3    C4 5930   1.120   1.421  17.470  0.4109  0.2943  0.6724
  397TMC3    C5 5931   1.177   1.295  17.489 -0.0278  0.1601  0.3005
  397TMC3    C6 5932   1.279   1.246  17.417 -0.3432  0.0181 -0.0882
  397TMC3     C 5933   1.106   1.574  17.281 -0.7760  0.3234 -0.5363
  397TMC3     O 5934   1.133   1.546  17.166  0.6334 -0.3099  0.1621
  397TMC3     H 5935   1.356   1.533  17.255 -0.8110 -1.1215 -0.1957
  397TMC3    H1 5936   1.047   1.461  17.539 -0.1484  1.0132 -0.3348
  397TMC3    H2 5937   1.321   1.148  17.437  0.0751  0.0484 -0.8356
  397TMC3    C7 5938   1.146   1.218  17.610  0.2193 -0.6790  0.2651
  397TMC3    C8 5939   1.390   1.279  17.207  0.9506  0.7000 -0.0818
  397TMC3    O1 5940   1.169   1.097  17.607  0.0809 -0.1238 -0.2297
  397TMC3    O2 5941   1.434   1.359  17.127  0.2674 -0.4089  0.1215
  398MPD2     C 5942   4.637   2.380   0.012 -0.1238  0.2379  0.9153
  398MPD2    C1 5943   4.554   2.294   0.081 -0.4613  0.6638 -0.6088
  398MPD2    C2 5944   4.532   2.315   0.220 -0.1616 -0.0707  0.3458
  398MPD2    C3 5945   4.598   2.421   0.280  0.0916  0.6590 -0.3394
  398MPD2    C4 5946   4.678   2.509   0.217  0.8192 -0.6043  0.2789
  398MPD2    C5 5947   4.693   2.491   0.083 -0.6235 -0.5044 -0.1503
  398MPD2     H 5948   4.463   2.256   0.280 -2.3933  0.0178 -2.1293
  398MPD2    H1 5949   4.716   2.603   0.255  0.9122  0.0158 -1.3220
  398MPD2    H2 5950   4.647   2.373  17.610 -0.5580 -0.9276  0.9582
  398MPD2    H3 5951   0.043   2.555   0.041 -0.6713  0.0066  0.5374
  398MPD2     N 5952   4.576   2.429   0.421  0.6810 -0.4384 -0.2642
  398MPD2    H5 5953   4.520   2.355   0.461  1.2930 -1.5408 -1.4709
  398MPD2    N1 5954   4.484   2.181   0.022  0.0766  1.0696  0.0339
  398MPD2    H7 5955   4.415   2.138   0.084  0.9554 -0.3968 -0.0093
  399TMC3    C1 5956   4.378   2.030  17.584  0.1095 -0.6155  0.0208
  399TMC3    C2 5957   4.353   1.939  17.684  0.3123 -0.2559  0.2773
  399TMC3    C3 5958   4.261   1.846  17.657 -0.6060  0.1922  0.1250
  399TMC3    C4 5959   4.315   2.030  17.463  0.5344 -0.2526 -0.7570
  399TMC3    C5 5960   4.233   1.924  17.435  0.4957 -0.3424  0.2037
  399TMC3    C6 5961   4.197   1.838  17.534  0.1039  0.2746  0.2623
  399TMC3     C 5962   4.471   2.141  17.601  0.3866 -0.5128 -0.2356
  399TMC3     O 5963   4.532   2.190  17.507 -0.4441 -0.4623 -0.0029
  399TMC3     H 5964   4.417   1.925   0.065  1.5680  0.8220 -0.4817
  399TMC3    H1 5965   4.336   2.108  17.391 -0.2177  0.3061 -0.3806
  399TMC3    H2 5966   4.133   1.752  17.517 -0.5167  0.9431 -0.8196
  399TMC3    C7 5967   4.141   1.942  17.324  0.0859  0.0173 -0.6586
  399TMC3    C8 5968   4.260   1.737   0.053  0.3004 -0.3321 -0.5039
  399TMC3    O1 5969   4.195   1.995  17.229  0.2657  0.2486 -0.2732
  399TMC3    O2 5970   4.222   1.631   0.007 -0.1753  0.3718 -0.3290
  400TMC3    C1 5971   2.655   1.334  16.822  0.1858  0.7780 -0.1028
  400TMC3    C2 5972   2.575   1.353  16.712  0.4895  0.1799  0.1678
  400TMC3    C3 5973   2.482   1.451  16.726  0.5176  0.3096  0.9764
  400TMC3    C4 5974   2.670   1.426  16.919 -0.3118  0.3582  0.6761
  400TMC3    C5 5975   2.587   1.535  16.914  0.4022  0.5955 -0.4909
  400TMC3    C6 5976   2.490   1.549  16.825  1.0741  0.0487 -0.2428
  400TMC3     C 5977   2.647   1.198  16.869 -0.9321  0.0368  0.4431
  400TMC3     O 5978   2.646   1.111  16.785  0.3436  0.4373 -0.2872
  400TMC3     H 5979   2.557   1.272  16.642 -0.8804  0.0707  0.6462
  400TMC3    H1 5980   2.761   1.441  16.974 -0.6023  0.8649  1.0130
  400TMC3    H2 5981   2.416   1.629  16.830 -0.7081 -1.6143  0.1460
  400TMC3    C7 5982   2.620   1.653  16.988 -0.2413  0.5913 -0.7282
  400TMC3    C8 5983   2.388   1.491  16.616 -0.3042 -0.3800  0.5596
  400TMC3    O1 5984   2.738   1.683  17.009 -0.1865 -0.4765  0.0432
  400TMC3    O2 5985   2.346   1.602  16.628 -0.4811 -0.0612 -0.5680
  401MPD2     C 5986   1.607   4.570   1.730 -0.6679 -0.0676 -0.2491
  401MPD2    C1 5987   1.645   4.528   1.607  0.2513  0.0935  0.0620
  401MPD2    C2 5988   1.583   4.424   1.540  0.0219 -0.1308 -0.5371
  401MPD2    C3 5989   1.467   4.366   1.593 -0.4246 -0.0006  0.9442
  401MPD2    C4 5990   1.419   4.406   1.713  0.0263 -0.7938  0.2023
  401MPD2    C5 5991   1.497   4.508   1.785 -0.3503 -0.3783  0.3596
  401MPD2     H 5992   1.618   4.397   1.441 -1.0796 -2.4395 -0.2878
  401MPD2    H1 5993   1.330   4.361   1.754 -1.5623  1.5189 -0.7685
  401MPD2    H2 5994   1.665   4.648   1.777  0.5771 -0.9796 -0.2843
  401MPD2    H3 5995   1.473   4.549   1.883  0.0651  0.9523 -0.0917
  401MPD2     N 5996   1.395   4.280   1.506  0.4760 -0.1838  0.1222
  401MPD2    H5 5997   1.438   4.271   1.415  2.6663 -0.4477  1.1783
  401MPD2    N1 5998   1.746   4.590   1.530  0.0297  0.1984  0.0070
  401MPD2    H7 5999   1.754   4.549   1.438  2.1664 -1.4722  0.9170
  402TMC3    C1 6000   1.222   4.164   1.416 -0.3541  0.4849  0.4169
  402TMC3    C2 6001   1.193   4.032   1.428 -0.1858  0.4323 -0.3182
  402TMC3    C3 6002   1.207   3.960   1.311 -0.0526  0.1572  0.0535
  402TMC3    C4 6003   1.268   4.215   1.297 -0.3272 -0.2492  0.0556
  402TMC3    C5 6004   1.272   4.141   1.183  0.5032  0.0804  0.5269
  402TMC3    C6 6005   1.244   4.004   1.188 -0.0365 -0.1761 -0.0194
  402TMC3     C 6006   1.272   4.221   1.534 -0.0761  0.8665  0.4724
  402TMC3     O 6007   1.221   4.193   1.643  0.1539  0.9256  0.2939
  402TMC3     H 6008   1.172   3.990   1.526  2.1482 -0.0440 -0.0063
  402TMC3    H1 6009   1.287   4.321   1.292 -1.3587 -0.0693 -0.0364
  402TMC3    H2 6010   1.255   3.936   1.104 -1.9750  1.9893 -2.0263
  402TMC3    C7 6011   1.283   4.216   1.052  0.6153  0.1136 -0.3395
  402TMC3    C8 6012   1.172   3.817   1.308 -0.0574  0.3676  0.6410
  402TMC3    O1 6013   1.311   4.333   1.052  0.6304 -0.3027  0.3641
  402TMC3    O2 6014   1.223   3.754   1.223 -0.7547  0.1640 -0.8160
  403MPD2     C 6015   4.057   3.645  13.071 -0.5533  0.3988 -0.0291
  403MPD2    C1 6016   4.079   3.530  13.142  0.5323 -0.7204 -0.0227
  403MPD2    C2 6017   4.133   3.543  13.269  0.0717  0.2322 -0.7013
  403MPD2    C3 6018   4.185   3.665  13.310 -0.4802 -0.2745 -0.3392
  403MPD2    C4 6019   4.157   3.782  13.239 -0.3763  0.4127 -0.6496
  403MPD2    C5 6020   4.084   3.766  13.124  0.5693  0.1955 -0.0280
  403MPD2     H 6021   4.138   3.453  13.329 -0.6850 -0.2207 -1.3074
  403MPD2    H1 6022   4.182   3.877  13.285  0.9145 -0.1386 -0.2253
  403MPD2    H2 6023   4.000   3.636  12.979 -3.4952 -0.8831  1.9245
  403MPD2    H3 6024   4.072   3.856  13.065 -1.7392 -0.7314 -0.9479
  403MPD2     N 6025   4.240   3.665  13.441  0.7555  0.2079 -0.7842
  403MPD2    H5 6026   4.245   3.577  13.491  1.6239  1.2666  1.0079
  403MPD2    N1 6027   4.039   3.405  13.089  0.3829  0.0288  0.3159
  403MPD2    H7 6028   3.997   3.407  12.997  0.3586 -0.9963  0.2959
  404TMC3    C1 6029   3.958   3.181  13.077  0.3100  1.1046 -0.8105
  404TMC3    C2 6030   3.907   3.067  13.136 -0.1558 -0.0394 -0.0985
  404TMC3    C3 6031   3.844   2.981  13.050  0.7039 -0.6559  0.1726
  404TMC3    C4 6032   3.947   3.196  12.946 -0.1483 -0.5595  0.3287
  404TMC3    C5 6033   3.871   3.108  12.866  0.2413 -0.4480 -0.3062
  404TMC3    C6 6034   3.825   2.996  12.919 -0.5575  0.8480 -0.1374
  404TMC3     C 6035   4.024   3.279  13.158  0.5553  0.3471 -0.1557
  404TMC3     O 6036   4.038   3.252  13.277 -0.2630 -0.7216  0.0821
  404TMC3     H 6037   3.941   3.034  13.234 -0.3620  1.2485  0.4020
  404TMC3    H1 6038   3.991   3.284  12.899  2.4896 -0.3613  3.1796
  404TMC3    H2 6039   3.782   2.921  12.854 -0.8513  0.1891  0.8187
  404TMC3    C7 6040   3.886   3.119  12.725  0.0056 -0.6098  0.2635
  404TMC3    C8 6041   3.840   2.838  13.081 -0.0580  0.0865 -0.4247
  404TMC3    O1 6042   3.981   3.186  12.690  0.7054  0.2714 -0.3618
  404TMC3    O2 6043   3.901   2.768  12.999 -0.0269  0.0569  0.5323
  405MPD2     C 6044   4.179   3.452  14.201 -0.9029  0.4769 -0.1705
  405MPD2    C1 6045   4.064   3.425  14.129  0.8884 -0.0174  0.0235
  405MPD2    C2 6046   4.030   3.511  14.021  0.1134 -0.1610  0.0679
  405MPD2    C3 6047   4.099   3.626  13.989 -0.7227 -0.0456  0.0167
  405MPD2    C4 6048   4.218   3.650  14.063  0.3003  0.3636  0.1044
  405MPD2    C5 6049   4.254   3.561  14.162  0.0858  0.1518 -0.4474
  405MPD2     H 6050   3.933   3.500  13.974 -1.1269  0.5581  2.4150
  405MPD2    H1 6051   4.284   3.733  14.043 -1.9988  2.2403  0.4288
  405MPD2    H2 6052   4.201   3.400  14.294  0.9789  3.3502  1.0272
  405MPD2    H3 6053   4.345   3.575  14.218 -0.6235 -1.5223  1.1173
  405MPD2     N 6054   4.047   3.704  13.887  0.6576  0.0514 -0.3473
  405MPD2    H5 6055   3.965   3.669  13.839  0.2592  0.8232 -0.2252
  405MPD2    N1 6056   3.985   3.317  14.177 -0.0057 -0.1970  0.0278
  405MPD2    H7 6057   4.007   3.266  14.262  0.2039 -0.1292  0.0157
  406TMC3    C1 6058   3.885   4.095  13.740  0.1163  0.8231  0.8940
  406TMC3    C2 6059   3.784   4.027  13.675 -0.3162 -0.1311 -0.2237
  406TMC3    C3 6060   3.792   3.893  13.662 -0.1390 -0.3393 -0.9659
  406TMC3    C4 6061   4.001   4.037  13.782  0.0345 -0.1381 -0.0778
  406TMC3    C5 6062   3.998   3.903  13.768  0.2492  0.3982  0.0231
  406TMC3    C6 6063   3.892   3.829  13.717 -0.0779 -0.7412 -0.0642
  406TMC3     C 6064   3.828   4.198  13.817  0.6517  0.2032 -0.3908
  406TMC3     O 6065   3.888   4.302  13.831  0.2564 -0.1613 -0.0827
  406TMC3     H 6066   3.691   4.080  13.657  0.5784  1.3496 -0.4651
  406TMC3    H1 6067   4.077   4.090  13.838 -0.8855 -1.6107  2.5778
  406TMC3    H2 6068   3.891   3.721  13.709  2.6995 -0.9524  2.5322
  406TMC3    C7 6069   4.089   3.832  13.861  0.3405 -0.3611 -0.6086
  406TMC3    C8 6070   3.665   3.833  13.673  0.7504  0.0150  0.2238
  406TMC3    O1 6071   4.180   3.893  13.918  0.1639 -0.5883  0.4189
  406TMC3    O2 6072   3.573   3.872  13.605  0.5384 -0.1373 -0.0706
  407MPD2     C 6073   1.933   0.295   8.877 -0.3474 -0.4094  0.8425
  407MPD2    C1 6074   2.037   0.258   8.954 -0.1664 -0.0830 -0.3648
  407MPD2    C2 6075   2.013   0.241   9.088 -0.1089 -0.3418 -0.6504
  407MPD2    C3 6076   1.897   0.283   9.148  0.6593  0.6520  0.6532
  407MPD2    C4 6077   1.802   0.335   9.061  0.3816  0.1703 -0.6201
  407MPD2    C5 6078   1.815   0.333   8.928 -0.3482 -0.2618 -0.0553
  407MPD2     H 6079   2.099   0.213   9.147 -2.1244 -1.3349  1.8009
  407MPD2    H1 6080   1.710   0.375   9.103  1.9357 -0.4064  3.3960
  407MPD2    H2 6081   1.938   0.279   8.770  1.7864  0.0587  0.8685
  407MPD2    H3 6082   1.736   0.377   8.869 -1.3410 -1.0696  0.6740
  407MPD2     N 6083   1.877   0.297   9.280  0.2336  0.3706 -0.2224
  407MPD2    H5 6084   1.795   0.349   9.310  0.1701  1.3875 -2.1262
  407MPD2    N1 6085   2.165   0.235   8.911 -0.2035  0.3024 -0.2783
  407MPD2    H7 6086   2.233   0.195   8.974 -0.8759 -0.3056  0.0651
  408TMC3    C1 6087   2.358   0.234   8.774 -0.6231 -0.4567  0.5709
  408TMC3    C2 6088   2.410   0.120   8.835  0.2475  0.0461 -0.3497
  408TMC3    C3 6089   2.538   0.124   8.879 -0.1591 -0.2696  0.5115
  408TMC3    C4 6090   2.427   0.353   8.765 -0.1577  0.6589 -0.1384
  408TMC3    C5 6091   2.560   0.346   8.805 -0.8459 -1.2469  0.1788
  408TMC3    C6 6092   2.617   0.237   8.866 -0.2417  0.2409  0.2519
  408TMC3     C 6093   2.217   0.260   8.786  0.4095 -0.6579  0.0426
  408TMC3     O 6094   2.165   0.320   8.695 -0.3120 -0.2159 -0.3301
  408TMC3     H 6095   2.352   0.029   8.845  0.4197 -0.2517 -2.0294
  408TMC3    H1 6096   2.372   0.434   8.720 -2.1375 -0.8456 -0.4406
  408TMC3    H2 6097   2.713   0.241   8.916 -0.5406 -2.0182  1.0005
  408TMC3    C7 6098   2.624   0.475   8.837  0.1506  0.3960  0.5690
  408TMC3    C8 6099   2.579   0.015   8.963  0.5668 -0.5334 -0.4274
  408TMC3    O1 6100   2.692   0.467   8.938 -0.1990  0.5256  0.3078
  408TMC3    O2 6101   2.517   4.636   8.947 -0.0206  0.3590  0.1415
  409MPD2     C 6102   1.600   0.961  16.482 -0.6272  0.3762 -0.0140
  409MPD2    C1 6103   1.622   0.961  16.616 -0.2977  0.3236  0.1541
  409MPD2    C2 6104   1.683   1.075  16.666  0.4237 -0.6763 -0.5506
  409MPD2    C3 6105   1.728   1.179  16.589  0.2865 -0.8867  0.3945
  409MPD2    C4 6106   1.700   1.170  16.457  0.4155  0.0262  0.1188
  409MPD2    C5 6107   1.641   1.061  16.405 -0.2591  0.1340 -0.1877
  409MPD2     H 6108   1.699   1.069  16.773  2.6059 -0.4216 -0.8472
  409MPD2    H1 6109   1.741   1.234  16.380  0.0681 -0.6236 -0.6097
  409MPD2    H2 6110   1.556   0.880  16.425 -0.2928  1.3064 -1.5901
  409MPD2    H3 6111   1.630   1.057  16.297 -1.4172 -0.5678 -0.0419
  409MPD2     N 6112   1.812   1.292  16.628  0.0243 -0.5400 -0.3280
  409MPD2    H5 6113   1.835   1.358  16.554  0.8055 -1.4804 -0.9257
  409MPD2    N1 6114   1.595   0.861  16.709 -0.5089 -0.6359  0.2627
  409MPD2    H7 6115   1.622   0.868  16.807 -0.5652  0.6797  0.1803
  410TMC3    C1 6116   1.972   1.404  16.773  0.2043 -1.0349  0.3260
  410TMC3    C2 6117   2.060   1.382  16.878  0.3143 -0.5390 -0.3817
  410TMC3    C3 6118   2.137   1.487  16.925 -0.3320  0.5732  0.5096
  410TMC3    C4 6119   1.974   1.509  16.694  0.6635 -0.0811 -0.2464
  410TMC3    C5 6120   2.049   1.614  16.744  0.4695  0.0316 -0.1222
  410TMC3    C6 6121   2.126   1.602  16.861 -0.0164  1.2272 -0.3746
  410TMC3     C 6122   1.871   1.299  16.750 -0.0473 -0.0525 -0.2886
  410TMC3     O 6123   1.863   1.221  16.844 -0.2793  0.5267  0.4622
  410TMC3     H 6124   2.055   1.288  16.932  1.4671  0.7318  1.9058
  410TMC3    H1 6125   1.901   1.528  16.615 -2.0189 -2.1652  1.7245
  410TMC3    H2 6126   2.188   1.684  16.894  1.3381  0.0362  0.0449
  410TMC3    C7 6127   2.049   1.737  16.661 -0.3903 -0.7014  0.2688
  410TMC3    C8 6128   2.217   1.473  17.048  0.4378 -0.2582  0.3144
  410TMC3    O1 6129   1.993   1.748  16.550 -0.4745  0.1957 -0.4750
  410TMC3    O2 6130   2.287   1.574  17.061 -0.4713  0.7900  0.2486
  411MPD2     C 6131   1.738   1.800  14.355 -0.1852  0.0651  1.1746
  411MPD2    C1 6132   1.676   1.849  14.242  0.8394  0.5236 -0.3538
  411MPD2    C2 6133   1.658   1.771  14.136  0.0573  0.1091  0.6110
  411MPD2    C3 6134   1.696   1.639  14.124 -0.3920  0.7297  0.2645
  411MPD2    C4 6135   1.755   1.588  14.236 -0.2245  0.1261  0.4189
  411MPD2    C5 6136   1.776   1.665  14.348  0.3946 -0.0394  0.4319
  411MPD2     H 6137   1.608   1.818  14.052 -0.3972 -0.9881  0.2755
  411MPD2    H1 6138   1.772   1.483  14.252  0.1618  0.1011 -0.1580
  411MPD2    H2 6139   1.749   1.853  14.449 -1.7167  0.6450  1.0238
  411MPD2    H3 6140   1.831   1.628  14.434 -1.0967  0.7450  1.7353
  411MPD2     N 6141   1.677   1.552  14.019  0.6596  0.2204  1.0811
  411MPD2    H5 6142   1.716   1.458  14.024 -2.4150 -1.0611  1.2351
  411MPD2    N1 6143   1.626   1.983  14.244  0.2394 -0.3979  0.0988
  411MPD2    H7 6144   1.630   2.019  14.339 -1.8125 -1.1377  0.4739
  412TMC3    C1 6145   1.671   1.501  13.788 -0.0481 -0.3703 -0.1954
  412TMC3    C2 6146   1.631   1.371  13.797  0.0259 -0.9150  0.5514
  412TMC3    C3 6147   1.624   1.297  13.683 -0.3055 -0.0200  0.4495
  412TMC3    C4 6148   1.692   1.559  13.675  0.7289  0.0857 -0.3590
  412TMC3    C5 6149   1.692   1.488  13.560  0.0163 -0.5058  0.5433
  412TMC3    C6 6150   1.666   1.355  13.563 -0.1570 -0.8154 -0.4058
  412TMC3     C 6151   1.636   1.598  13.896 -0.2158 -0.2223 -0.4577
  412TMC3     O 6152   1.597   1.707  13.867  0.2432  0.1615 -0.2854
  412TMC3     H 6153   1.607   1.329  13.895 -1.2783 -0.7377  0.3104
  412TMC3    H1 6154   1.721   1.663  13.686  0.5123  0.1097  0.0021
  412TMC3    H2 6155   1.665   1.304  13.468  0.0702 -1.9622  0.2081
  412TMC3    C7 6156   1.614   1.549  13.451  0.2697 -0.3237  0.0746
  412TMC3    C8 6157   1.510   1.206  13.672 -0.1779  0.4605  0.5652
  412TMC3    O1 6158   1.551   1.470  13.383  0.7728 -0.1619 -0.5585
  412TMC3    O2 6159   1.511   1.129  13.574 -0.2251  0.2844  0.4515
  413MPD2     C 6160   3.118   0.009  15.266  0.3097  0.0953  0.3889
  413MPD2    C1 6161   3.066   4.703  15.145  0.0565  0.2182  0.4666
  413MPD2    C2 6162   3.146   4.610  15.065  0.1536 -0.8646  0.0777
  413MPD2    C3 6163   3.261   4.558  15.116  0.2208 -0.4352 -0.3556
  413MPD2    C4 6164   3.306   4.598  15.238 -0.7997  0.1493  0.0985
  413MPD2    C5 6165   3.231   4.683  15.313  0.2450 -0.0809 -0.1849
  413MPD2     H 6166   3.115   4.584  14.965 -0.9694  0.3960  0.0945
  413MPD2    H1 6167   3.402   4.565  15.276 -0.7512 -0.1640 -0.2921
  413MPD2    H2 6168   3.067   0.077  15.334  0.2878 -0.7786  1.2442
  413MPD2    H3 6169   3.271   4.716  15.409 -0.1570 -2.2143  0.7238
  413MPD2     N 6170   3.329   4.457  15.046 -0.0284  0.3119 -0.2947
  413MPD2    H5 6171   3.302   4.441  14.949  0.3566 -0.9312 -0.1920
  413MPD2    N1 6172   2.946   0.038  15.099 -0.0863 -0.1451  0.6300
  413MPD2    H7 6173   2.904   0.110  15.157 -1.4073 -2.6485  2.7851
  414TMC3    C1 6174   3.488   4.287  15.008  0.1619  0.6352  0.6776
  414TMC3    C2 6175   3.575   4.189  15.057  0.2813  0.0295  0.2707
  414TMC3    C3 6176   3.664   4.145  14.964  0.2625 -0.6550 -0.5182
  414TMC3    C4 6177   3.496   4.332  14.879 -0.3393 -0.2847  0.5241
  414TMC3    C5 6178   3.595   4.288  14.795  1.4443 -0.0250  0.5222
  414TMC3    C6 6179   3.681   4.188  14.835 -0.1325  0.6696 -0.2817
  414TMC3     C 6180   3.420   4.369  15.106 -0.8352  0.3069 -0.3919
  414TMC3     O 6181   3.440   4.336  15.219 -0.1482  0.3475 -0.3990
  414TMC3     H 6182   3.555   4.146  15.155 -1.8781  1.6150  0.5216
  414TMC3    H1 6183   3.453   4.426  14.847  1.9383  0.8962  0.9382
  414TMC3    H2 6184   3.741   4.146  14.755  0.5402  1.4595 -0.2017
  414TMC3    C7 6185   3.644   4.379  14.695  0.2672  0.2940 -0.4090
  414TMC3    C8 6186   3.787   4.069  14.997  0.7495 -0.0045 -0.2606
  414TMC3    O1 6187   3.561   4.450  14.642 -0.1924 -0.3659  0.0453
  414TMC3    O2 6188   3.848   4.022  14.901  0.5605  0.4180 -0.6354
  415TMC3    C1 6189   4.152   2.576   9.797  0.2926 -0.4766 -0.3636
  415TMC3    C2 6190   4.228   2.626   9.692  0.3899 -0.1654  0.0837
  415TMC3    C3 6191   4.167   2.625   9.568  0.3306 -0.1946  0.8603
  415TMC3    C4 6192   4.016   2.557   9.787 -0.0691 -0.4247  0.0589
  415TMC3    C5 6193   3.964   2.557   9.660  0.6667 -0.3352 -0.0785
  415TMC3    C6 6194   4.043   2.568   9.548  0.4616  0.1620  0.0154
  415TMC3     C 6195   4.206   2.583   9.935 -0.4125  0.4865  0.3811
  415TMC3     O 6196   4.126   2.566  10.026  0.0899  0.1498 -0.2100
  415TMC3     H 6197   4.324   2.671   9.715 -0.5516  2.1358 -0.4972
  415TMC3    H1 6198   3.969   2.535   9.882  0.5729 -1.1013  0.2185
  415TMC3    H2 6199   4.009   2.557   9.446 -0.1459 -0.3125  0.2692
  415TMC3    C7 6200   3.835   2.492   9.643  0.1128  0.1107  0.3841
  415TMC3    C8 6201   4.260   2.620   9.453 -0.1166 -0.5216 -0.4121
  415TMC3    O1 6202   3.796   2.464   9.527  0.0169  0.0242 -0.0913
  415TMC3    O2 6203   4.237   2.539   9.366 -0.2106  0.1014 -0.3571
  416MPD2     C 6204   4.510   1.533  11.996  0.5681 -0.2398 -0.2662
  416MPD2    C1 6205   4.619   1.583  11.932  0.0286  0.4848  0.1328
  416MPD2    C2 6206   4.688   1.503  11.843 -0.1770  0.8745 -0.3766
  416MPD2    C3 6207   4.650   1.374  11.816  0.3046  0.5618  0.3154
  416MPD2    C4 6208   4.532   1.325  11.875 -0.1199  0.0958  0.0675
  416MPD2    C5 6209   4.470   1.405  11.966 -0.3711 -0.0138 -0.2226
  416MPD2     H 6210   0.059   1.541  11.817 -0.3167 -1.1336 -3.7220
  416MPD2    H1 6211   4.508   1.220  11.868 -0.7389  0.2640 -0.3253
  416MPD2    H2 6212   4.450   1.587  12.070  1.2564  1.2765 -0.8141
  416MPD2    H3 6213   4.394   1.355  12.026  1.7362 -0.6628  1.8925
  416MPD2     N 6214   0.002   1.285  11.729 -0.2525 -0.2340 -0.0433
  416MPD2    H5 6215   4.683   1.195  11.713 -2.4251  1.4985 -3.5381
  416MPD2    N1 6216   4.658   1.714  11.967  0.3231 -0.0812 -0.3701
  416MPD2    H7 6217   4.610   1.752  12.048 -1.4395 -0.8175 -1.0826
  417TMC3    C1 6218   0.044   1.927  11.949  0.2449 -0.0059  0.0408
  417TMC3    C2 6219   0.028   1.949  12.083 -0.4954  0.2274 -0.4180
  417TMC3    C3 6220   0.073   2.064  12.133  0.3688 -0.2617 -0.2278
  417TMC3    C4 6221   0.108   2.008  11.862 -0.2838  0.0261 -0.8985
  417TMC3    C5 6222   0.163   2.121  11.921 -0.4430  0.1101 -0.5799
  417TMC3    C6 6223   0.154   2.143  12.058 -1.1718 -0.1004  0.3923
  417TMC3     C 6224   0.014   1.797  11.891  0.3254 -0.0299  0.8102
  417TMC3     O 6225   0.083   1.772  11.789  0.4425  0.0536  0.6343
  417TMC3     H 6226   4.696   1.877  12.140  0.0626  0.6918  0.7473
  417TMC3    H1 6227   0.111   1.990  11.756 -0.0504 -3.5847 -0.2835
  417TMC3    H2 6228   0.188   2.233  12.107  0.1392 -0.4306  0.0999
  417TMC3    C7 6229   0.221   2.212  11.827 -0.6557 -0.0536 -0.3787
  417TMC3    C8 6230   0.117   2.060  12.271 -0.5132  0.4115  0.2721
  417TMC3    O1 6231   0.183   2.212  11.710  0.1374 -0.2230  0.2962
  417TMC3    O2 6232   0.221   2.110  12.306 -0.3220 -0.4768  0.3269
  418TMC3    C1 6233   4.692   2.400   0.849  0.3717  0.2574 -0.5462
  418TMC3    C2 6234   4.693   2.485   0.737  0.1700  0.3585  0.9265
  418TMC3    C3 6235   4.588   2.475   0.650 -0.7329  0.5027 -0.4216
  418TMC3    C4 6236   4.581   2.331   0.880  0.4172  0.3284 -0.8165
  418TMC3    C5 6237   4.474   2.323   0.793 -0.6681 -0.0044 -0.0815
  418TMC3    C6 6238   4.484   2.388   0.676 -0.3843 -0.6455 -0.0447
  418TMC3     C 6239   0.098   2.356   0.890  0.1344 -0.1601  0.2363
  418TMC3     O 6240   0.191   2.421   0.847 -0.1226 -1.2773  0.3875
  418TMC3     H 6241   0.060   2.525   0.701  0.2526 -1.2137 -0.6205
  418TMC3    H1 6242   4.576   2.283   0.977  0.6177  2.1593  0.1013
  418TMC3    H2 6243   4.410   2.366   0.600  0.0569 -0.4813 -0.5236
  418TMC3    C7 6244   4.366   2.231   0.808 -0.9822 -0.0633 -1.2233
  418TMC3    C8 6245   4.626   2.513   0.517 -1.4768  0.1891  1.3181
  418TMC3    O1 6246   4.284   2.208   0.720  0.2870  0.4481 -0.0117
  418TMC3    O2 6247   4.706   2.609   0.499 -0.5059 -0.0367 -0.4254
  419MPD2     C 6248   3.248   1.662  12.041  0.2191 -0.4641  0.6787
  419MPD2    C1 6249   3.111   1.677  12.018  0.0787  0.2413 -0.1898
  419MPD2    C2 6250   3.021   1.705  12.127  0.6443  0.5578  0.3272
  419MPD2    C3 6251   3.064   1.694  12.257  0.7150 -0.0157  0.2751
  419MPD2    C4 6252   3.192   1.664  12.277 -0.0558  0.4332  1.2956
  419MPD2    C5 6253   3.279   1.652  12.175 -0.5091  0.1738  0.3156
  419MPD2     H 6254   2.916   1.726  12.109  0.1544  0.5351  3.1694
  419MPD2    H1 6255   3.237   1.658  12.376  1.5226 -1.6886  0.4581
  419MPD2    H2 6256   3.316   1.650  11.958 -0.1101 -1.7722  0.5956
  419MPD2    H3 6257   3.382   1.637  12.206 -0.1622 -1.2877 -1.4987
  419MPD2     N 6258   2.979   1.727  12.365  0.0517 -0.8096 -0.3441
  419MPD2    H5 6259   2.893   1.776  12.343  0.6251  0.5356  0.3992
  419MPD2    N1 6260   3.055   1.681  11.887 -0.7269  0.5232 -0.7077
  419MPD2    H7 6261   2.954   1.691  11.880 -0.7645 -0.6527 -1.7563
  420TMC3    C1 6262   2.908   1.765  12.587 -0.5390  0.2421  0.8525
  420TMC3    C2 6263   2.823   1.865  12.542  0.0122 -0.1295 -0.5254
  420TMC3    C3 6264   2.740   1.919  12.635 -0.5401 -0.4134  0.0441
  420TMC3    C4 6265   2.911   1.728  12.715 -0.4169  0.5354  0.3635
  420TMC3    C5 6266   2.838   1.798  12.806 -0.0640  0.2936  0.1456
  420TMC3    C6 6267   2.758   1.901  12.769  0.0858 -0.1973 -0.3775
  420TMC3     C 6268   3.009   1.714  12.500 -0.4240  0.2551  0.4731
  420TMC3     O 6269   3.083   1.628  12.556  0.1788  0.3501  0.0994
  420TMC3     H 6270   2.823   1.887  12.435  0.9945 -0.4308 -0.5792
  420TMC3    H1 6271   2.980   1.654  12.754 -1.6965 -0.0732  1.4780
  420TMC3    H2 6272   2.718   1.973  12.840  0.2914  0.2350 -0.7040
  420TMC3    C7 6273   2.869   1.784  12.945 -0.3334  0.3244 -0.7398
  420TMC3    C8 6274   2.651   2.021  12.585  0.4825 -0.0166  0.4656
  420TMC3    O1 6275   2.893   1.672  12.992 -0.0105 -0.7555  0.5489
  420TMC3    O2 6276   2.680   2.081  12.482 -0.1859 -0.0331  0.1045
  421TMC3    C1 6277   4.356   3.733  13.644  1.1177 -0.1082  0.3430
  421TMC3    C2 6278   4.420   3.830  13.719  0.3410 -0.1430 -0.3102
  421TMC3    C3 6279   4.499   3.792  13.825 -0.4397  0.0316 -0.2685
  421TMC3    C4 6280   4.354   3.603  13.679  0.3627 -0.3039  0.3270
  421TMC3    C5 6281   4.421   3.570  13.795  0.6459 -0.3348  0.5533
  421TMC3    C6 6282   4.495   3.665  13.869 -0.0340 -0.2053 -0.0200
  421TMC3     C 6283   4.302   3.770  13.509 -0.2584 -0.0362  0.5010
  421TMC3     O 6284   4.308   3.890  13.479  0.2971 -0.1409 -0.0692
  421TMC3     H 6285   4.430   3.928  13.673  0.7123 -1.0495 -2.1728
  421TMC3    H1 6286   4.335   3.523  13.609 -0.5555  0.4918 -0.3325
  421TMC3    H2 6287   4.551   3.637  13.958  1.8265 -2.9301 -2.0458
  421TMC3    C7 6288   4.455   3.435  13.820 -0.8477  0.2300 -0.8552
  421TMC3    C8 6289   4.612   3.877  13.862 -0.3307  0.1029  0.4907
  421TMC3    O1 6290   4.556   3.412  13.883  0.5010  0.1265 -0.1311
  421TMC3    O2 6291   4.682   3.815  13.939 -0.3364  0.2743  0.4848
  422TMC3    C1 6292   2.036   4.120  12.429  0.1275 -0.1849  0.5025
  422TMC3    C2 6293   2.058   4.197  12.546  0.5796 -0.8620 -0.3114
  422TMC3    C3 6294   1.947   4.247  12.610  0.7615 -0.0102 -0.2861
  422TMC3    C4 6295   1.914   4.086  12.388  0.3231 -0.0966  0.0406
  422TMC3    C5 6296   1.805   4.133  12.456  0.5862  1.1517 -0.1001
  422TMC3    C6 6297   1.819   4.213  12.569  0.5569  1.3563 -0.1311
  422TMC3     C 6298   2.128   4.167  12.330 -0.0681 -0.3852 -0.3608
  422TMC3     O 6299   2.178   4.275  12.368 -0.6956 -0.1103  0.0873
  422TMC3     H 6300   2.157   4.213  12.585  1.6618 -0.0897 -3.3587
  422TMC3    H1 6301   1.900   4.024  12.301  0.5964  0.7574 -0.6099
  422TMC3    H2 6302   1.733   4.262  12.613  1.5287  0.6891  2.5226
  422TMC3    C7 6303   1.683   4.144  12.375 -0.5012 -0.5717 -0.1110
  422TMC3    C8 6304   1.970   4.387  12.635 -0.6343 -0.1162  0.1974
  422TMC3    O1 6305   1.706   4.137  12.253 -0.7537  0.4427  0.1891
  422TMC3    O2 6306   1.881   4.455  12.686 -0.4514 -0.4135 -0.8493
  423MPD2     C 6307   2.799   0.857   0.219  0.1886 -0.1497  0.4963
  423MPD2    C1 6308   2.752   0.722   0.237 -0.2169 -0.1595 -0.0497
  423MPD2    C2 6309   2.784   0.628   0.142  0.9499  0.3975  0.2103
  423MPD2    C3 6310   2.862   0.656   0.030 -0.2825 -0.5690  0.2620
  423MPD2    C4 6311   2.902   0.785   0.006  0.0765 -0.1691 -0.2170
  423MPD2    C5 6312   2.870   0.886   0.101 -0.0320  0.5127  0.5274
  423MPD2     H 6313   2.766   0.525   0.170  0.8932  0.4745  0.4636
  423MPD2    H1 6314   2.972   0.804  17.632 -2.5668  2.4074 -1.9333
  423MPD2    H2 6315   2.784   0.937   0.290 -2.6578 -1.4132  1.3292
  423MPD2    H3 6316   2.904   0.988   0.087 -0.7474  0.8885  1.5166
  423MPD2     N 6317   2.895   0.563  17.636  0.4524 -0.5252  0.1394
  423MPD2    H5 6318   2.960   0.597  17.566 -0.6901  0.6374 -0.3608
  423MPD2    N1 6319   2.686   0.680   0.351  0.3201 -0.2660  0.5134
  423MPD2    H7 6320   2.690   0.583   0.382  1.0423 -0.5172 -0.3648
  424TMC3    C1 6321   2.613   0.712   0.568  0.1761  0.6210 -0.6018
  424TMC3    C2 6322   2.694   0.608   0.602  0.5641  1.0780 -0.2648
  424TMC3    C3 6323   2.681   0.564   0.730 -0.3287  0.0748 -0.0212
  424TMC3    C4 6324   2.514   0.769   0.645 -0.8913 -0.8611  0.1430
  424TMC3    C5 6325   2.511   0.725   0.772 -0.5823 -0.2431  0.0342
  424TMC3    C6 6326   2.597   0.623   0.817  0.2360 -0.4927  0.2541
  424TMC3     C 6327   2.639   0.767   0.439 -0.1860 -0.2401  0.1061
  424TMC3     O 6328   2.597   0.877   0.418 -0.0434  0.1420 -0.2643
  424TMC3     H 6329   2.764   0.562   0.534 -0.5072 -3.8177  1.9942
  424TMC3    H1 6330   2.441   0.836   0.603  0.2068  0.8746  0.9567
  424TMC3    H2 6331   2.606   0.593   0.921  1.7492 -0.3415  0.1697
  424TMC3    C7 6332   2.435   0.780   0.882 -1.1776  0.1702 -0.4587
  424TMC3    C8 6333   2.754   0.456   0.784  0.3388  0.0436 -0.3502
  424TMC3    O1 6334   2.437   0.725   0.991 -0.0604  0.1202 -0.9417
  424TMC3    O2 6335   2.707   0.375   0.867 -0.5496  0.9210  0.1328
  425MPD2     C 6336   2.594   0.057  16.917 -0.0393  0.2752 -0.1786
  425MPD2    C1 6337   2.527   4.667  16.941 -0.4293  0.4736 -0.0619
  425MPD2    C2 6338   2.436   4.661  17.045  0.4478  1.0667 -0.0799
  425MPD2    C3 6339   2.421   0.042  17.132 -0.3395 -0.3964 -0.3484
  425MPD2    C4 6340   2.496   0.158  17.110  0.4399  0.7823  0.2006
  425MPD2    C5 6341   2.579   0.159  17.003 -0.1038 -0.1136  0.2556
  425MPD2     H 6342   2.378   4.572  17.067  1.6352 -0.0753 -1.5931
  425MPD2    H1 6343   2.499   0.244  17.176  0.1833  1.1005 -0.2040
  425MPD2    H2 6344   2.663   0.062  16.834 -1.2245  0.6798 -1.1320
  425MPD2    H3 6345   2.637   0.248  16.983 -0.5424  0.2222  0.4818
  425MPD2     N 6346   2.327   0.031  17.238  0.0553 -0.1646 -0.0065
  425MPD2    H5 6347   2.289   4.665  17.258 -1.4550  0.7022  1.0725
  425MPD2    N1 6348   2.564   4.551  16.869 -0.5548 -0.7453 -0.6912
  425MPD2    H7 6349   2.632   4.562  16.794  1.0647 -1.2813  0.6778
  426TMC3    C1 6350   2.596   4.317  16.828 -1.2137  0.8163  0.9213
  426TMC3    C2 6351   2.615   4.332  16.696 -1.2793 -0.8090  0.4862
  426TMC3    C3 6352   2.666   4.227  16.625  0.1796 -0.7391 -0.1113
  426TMC3    C4 6353   2.630   4.206  16.896  0.1412 -0.1041  0.9118
  426TMC3    C5 6354   2.687   4.102  16.825  0.4174 -0.3591 -0.4885
  426TMC3    C6 6355   2.711   4.117  16.690  0.1119  0.5839  0.3524
  426TMC3     C 6356   2.528   4.419  16.907  0.2211  0.4182  0.4124
  426TMC3     O 6357   2.464   4.375  17.001 -0.0377 -0.3118 -0.0482
  426TMC3     H 6358   2.577   4.419  16.644 -3.4138 -1.1201  1.4922
  426TMC3    H1 6359   2.607   4.204  17.002  1.2118  1.2562  1.1698
  426TMC3    H2 6360   2.754   4.028  16.645  2.0840  0.8251  1.7476
  426TMC3    C7 6361   2.666   3.967  16.875 -0.2930  0.2140 -0.5878
  426TMC3    C8 6362   2.629   4.204  16.491  0.2721  0.2499 -0.2602
  426TMC3    O1 6363   2.742   3.875  16.841  0.2724  0.5569 -0.3790
  426TMC3    O2 6364   2.706   4.129  16.431  0.1036 -0.3678  0.1993
  427MPD2     C 6365   0.857   2.086  14.486 -0.1869  0.2258  0.1366
  427MPD2    C1 6366   0.831   1.995  14.586  0.0616 -0.0562  0.1562
  427MPD2    C2 6367   0.708   1.999  14.652 -0.4624 -0.4653 -1.0924
  427MPD2    C3 6368   0.618   2.094  14.606 -0.2467  0.0900  0.8227
  427MPD2    C4 6369   0.637   2.181  14.507 -0.3583 -0.2741 -0.5120
  427MPD2    C5 6370   0.758   2.173  14.442  0.2243  0.3248  0.3704
  427MPD2     H 6371   0.692   1.940  14.742  3.8081  2.3202  1.5171
  427MPD2    H1 6372   0.566   2.256  14.475 -1.9245 -0.9894  1.2730
  427MPD2    H2 6373   0.953   2.084  14.434  0.0731  1.8969  0.5603
  427MPD2    H3 6374   0.790   2.248  14.371 -1.1464  1.4179  0.9166
  427MPD2     N 6375   0.487   2.109  14.668  0.1940 -0.1651  0.0988
  427MPD2    H5 6376   0.432   2.190  14.643  1.5846 -0.1675 -2.9355
  427MPD2    N1 6377   0.922   1.895  14.627  0.5215 -0.2302  0.0815
  427MPD2    H7 6378   0.899   1.831  14.703 -0.3250 -0.4640 -0.3698
  428TMC3    C1 6379   1.117   1.781  14.645 -0.3739 -0.5238  0.7586
  428TMC3    C2 6380   1.070   1.656  14.662  0.0900  1.0029  0.8541
  428TMC3    C3 6381   1.150   1.567  14.731  0.8115  0.8189  0.6529
  428TMC3    C4 6382   1.232   1.823  14.702 -0.9615  0.2626  0.3100
  428TMC3    C5 6383   1.297   1.734  14.782  0.7328  0.7189  0.1117
  428TMC3    C6 6384   1.256   1.606  14.802  0.1846 -0.1050 -0.1768
  428TMC3     C 6385   1.043   1.871  14.567 -0.0102  0.0607 -0.1663
  428TMC3     O 6386   1.112   1.936  14.490  0.5181 -0.5682  0.0681
  428TMC3     H 6387   0.998   1.618  14.591  0.2322  0.9744  0.7242
  428TMC3    H1 6388   1.261   1.927  14.693  0.6850 -0.1903  0.3539
  428TMC3    H2 6389   1.308   1.536  14.866 -0.7230 -1.0498 -0.4629
  428TMC3    C7 6390   1.423   1.774  14.844 -0.3355 -0.6865  0.0939
  428TMC3    C8 6391   1.142   1.426  14.708 -0.2446  0.1309 -0.5540
  428TMC3    O1 6392   1.448   1.722  14.955 -0.4168 -0.1300 -0.4970
  428TMC3    O2 6393   1.244   1.363  14.726 -0.7476 -0.3782 -0.1788
  429MPD2     C 6394   1.356   1.727  17.555 -0.3322 -0.5119 -1.3111
  429MPD2    C1 6395   1.481   1.666  17.535 -0.1371  0.5671 -0.3306
  429MPD2    C2 6396   1.574   1.731  17.451  0.2874 -0.2768 -0.0609
  429MPD2    C3 6397   1.546   1.844  17.376  0.3661 -0.4582  0.3138
  429MPD2    C4 6398   1.419   1.900  17.397 -0.4478  0.0298 -0.4556
  429MPD2    C5 6399   1.330   1.844  17.485 -0.7360 -0.2222  1.0067
  429MPD2     H 6400   1.670   1.686  17.430 -0.4023 -0.5499 -2.6521
  429MPD2    H1 6401   1.388   1.997  17.360  2.3559  0.9619 -0.4002
  429MPD2    H2 6402   1.272   1.695  17.614  0.0480  1.2121  0.1785
  429MPD2    H3 6403   1.233   1.888  17.502 -0.2763  1.1008  0.1905
  429MPD2     N 6404   1.655   1.906  17.303  0.1764 -0.3829  0.2247
  429MPD2    H5 6405   1.748   1.865  17.300 -0.2013 -1.1066 -2.0443
  429MPD2    N1 6406   1.515   1.552  17.602 -0.1882  0.3904  0.4569
  429MPD2    H7 6407   1.612   1.523  17.593  0.1283  1.8580 -0.8872
  430TMC3    C1 6408   1.762   2.097  17.196 -0.4078  0.2849  0.3299
  430TMC3    C2 6409   1.738   2.188  17.092  0.3682 -0.4869  0.7540
  430TMC3    C3 6410   1.848   2.240  17.027 -0.4273 -0.0568 -0.0247
  430TMC3    C4 6411   1.885   2.058  17.228 -0.0639  0.6378  0.0781
  430TMC3    C5 6412   1.995   2.121  17.168  0.0387 -0.5325 -0.1115
  430TMC3    C6 6413   1.977   2.218  17.068  0.2615 -0.8670 -0.0172
  430TMC3     C 6414   1.643   2.034  17.249 -0.1650  0.5746 -0.0128
  430TMC3     O 6415   1.536   2.092  17.223 -0.2938 -0.1895 -0.0476
  430TMC3     H 6416   1.636   2.203  17.059  1.5605  1.8332 -1.9486
  430TMC3    H1 6417   1.902   1.993  17.312  1.3136 -0.3389 -0.9473
  430TMC3    H2 6418   2.057   2.257  17.008  0.3875 -1.6275 -0.3444
  430TMC3    C7 6419   2.101   2.034  17.145  0.0293 -0.0256  0.2781
  430TMC3    C8 6420   1.832   2.295  16.891  0.1528  0.6267 -0.3617
  430TMC3    O1 6421   2.072   1.915  17.144  0.0076  0.0965 -0.4959
  430TMC3    O2 6422   1.752   2.235  16.818 -0.3969  0.0975  0.0049
  431MPD2     C 6423   2.981   2.229  12.204  0.1351 -0.1515  0.0905
  431MPD2    C1 6424   3.048   2.279  12.090  0.0840  0.4672 -0.2520
  431MPD2    C2 6425   3.044   2.206  11.979 -0.6784 -0.4642  0.5039
  431MPD2    C3 6426   2.963   2.094  11.974  0.1258  0.3746 -0.5353
  431MPD2    C4 6427   2.897   2.049  12.077 -0.1108  0.4619  0.2835
  431MPD2    C5 6428   2.917   2.110  12.201  0.4458 -0.7056  0.4899
  431MPD2     H 6429   3.106   2.235  11.896  0.8967  0.0078  1.8619
  431MPD2    H1 6430   2.835   1.960  12.080  2.0032 -1.0237 -0.1526
  431MPD2    H2 6431   2.982   2.285  12.297  1.7162  1.4778 -0.9084
  431MPD2    H3 6432   2.868   2.077  12.292 -0.7119 -1.0186 -0.2464
  431MPD2     N 6433   2.944   2.019  11.856 -0.7551  0.5314 -0.0490
  431MPD2    H5 6434   2.888   1.934  11.855  0.0562 -0.0025  0.8778
  431MPD2    N1 6435   3.113   2.407  12.092 -0.5311  0.0847  0.3804
  431MPD2    H7 6436   3.145   2.442  12.002  2.1684  0.1061  1.3531
  432TMC3    C1 6437   2.992   1.938  11.643 -0.3378 -0.0573 -0.4737
  432TMC3    C2 6438   3.076   1.957  11.535 -0.1128 -0.1843 -0.3550
  432TMC3    C3 6439   3.134   1.846  11.486 -0.7392 -0.1471  0.5887
  432TMC3    C4 6440   2.962   1.809  11.695  0.3280  0.1464  0.2965
  432TMC3    C5 6441   3.044   1.707  11.654  0.0715 -0.8024 -0.4792
  432TMC3    C6 6442   3.132   1.728  11.558 -0.0912 -0.0220  0.5286
  432TMC3     C 6443   2.995   2.054  11.736  0.5169  0.2345 -0.3177
  432TMC3     O 6444   3.041   2.157  11.691  0.1391  0.7766 -0.7985
  432TMC3     H 6445   3.110   2.056  11.506 -2.5829  0.3496 -1.4513
  432TMC3    H1 6446   2.891   1.794  11.776  0.0435  0.7590  0.1597
  432TMC3    H2 6447   3.184   1.648  11.507  1.4060  1.3484 -0.1087
  432TMC3    C7 6448   3.123   1.658  11.762 -0.6448  0.6612 -0.6051
  432TMC3    C8 6449   3.270   1.868  11.448 -0.5543 -0.7128  0.3750
  432TMC3    O1 6450   3.245   1.660  11.741 -0.4172 -0.0830  0.4940
  432TMC3    O2 6451   3.282   1.958  11.362  1.0007 -0.4542  0.7199
  433MPD2     C 6452   1.567   0.785  10.239  0.0515 -0.4646 -0.1331
  433MPD2    C1 6453   1.583   0.705  10.349 -0.4359 -0.3445 -0.2397
  433MPD2    C2 6454   1.592   0.769  10.475  0.1705  0.4980  0.1294
  433MPD2    C3 6455   1.602   0.907  10.486 -0.1045 -0.0021 -0.8240
  433MPD2    C4 6456   1.587   0.984  10.377 -0.3985  0.6842 -0.8021
  433MPD2    C5 6457   1.568   0.922  10.255  0.7234  0.3415  0.3076
  433MPD2     H 6458   1.610   0.708  10.562  0.9606 -1.0671 -1.1444
  433MPD2    H1 6459   1.575   1.092  10.379 -0.3810  0.6596  0.5379
  433MPD2    H2 6460   1.563   0.754  10.135  0.0013 -2.2581  0.4009
  433MPD2    H3 6461   1.561   0.998  10.178  0.1358  1.5442  1.5472
  433MPD2     N 6462   1.624   0.953  10.613 -0.0201  0.2411 -0.8980
  433MPD2    H5 6463   1.631   0.892  10.694 -2.0465  1.3713  0.1514
  433MPD2    N1 6464   1.596   0.565  10.329 -0.4179  0.2226  0.5664
  433MPD2    H7 6465   1.592   0.527  10.234  0.1099  2.6417 -0.4035
  434TMC3    C1 6466   1.703   0.359  10.382 -0.4174  0.1215  0.2131
  434TMC3    C2 6467   1.739   0.271  10.482  0.3172  0.4220 -0.1770
  434TMC3    C3 6468   1.815   0.159  10.445 -0.6706 -0.3628  0.4537
  434TMC3    C4 6469   1.716   0.325  10.248 -0.2720  0.5217  0.4250
  434TMC3    C5 6470   1.794   0.221  10.214 -0.0582 -0.0185 -0.3405
  434TMC3    C6 6471   1.833   0.132  10.316 -0.3837 -0.0155 -0.2559
  434TMC3     C 6472   1.635   0.476  10.429 -0.5677 -0.0753 -0.5489
  434TMC3     O 6473   1.643   0.498  10.553 -0.7608  0.6143 -0.3835
  434TMC3     H 6474   1.744   0.307  10.584 -0.1931  0.3059 -0.1137
  434TMC3    H1 6475   1.682   0.392  10.170  1.3563 -1.5873 -2.1000
  434TMC3    H2 6476   1.898   0.049  10.288  1.1402  0.4281  1.9293
  434TMC3    C7 6477   1.794   0.179  10.080  0.1812 -0.1820 -0.2838
  434TMC3    C8 6478   1.903   0.102  10.549  0.3577 -0.3581 -0.1384
  434TMC3    O1 6479   1.742   0.256  10.002 -0.2749  0.0560  0.8194
  434TMC3    O2 6480   1.858   0.111  10.664  0.1661 -0.0894  0.1229
  435MPD2     C 6481   3.662   0.440  15.184 -0.1016 -0.2194  0.5056
  435MPD2    C1 6482   3.632   0.511  15.302  0.2594 -0.4568 -0.1436
  435MPD2    C2 6483   3.736   0.548  15.384 -0.1066  0.5825  0.0055
  435MPD2    C3 6484   3.865   0.515  15.337  0.1200 -0.6977  0.4236
  435MPD2    C4 6485   3.896   0.457  15.218  0.1636 -0.2499  0.9086
  435MPD2    C5 6486   3.792   0.424  15.142  0.6291  0.2624  0.0536
  435MPD2     H 6487   3.724   0.610  15.472 -0.4254  0.9496 -0.2984
  435MPD2    H1 6488   3.999   0.444  15.185  0.2500  1.4373  0.5122
  435MPD2    H2 6489   3.583   0.415  15.115 -1.3839  3.1096  0.7500
  435MPD2    H3 6490   3.808   0.375  15.047  1.9191  0.4685  0.1715
  435MPD2     N 6491   3.968   0.553  15.431  0.2124 -0.3473 -0.2522
  435MPD2    H5 6492   3.929   0.581  15.520 -2.7540 -0.4575 -1.5257
  435MPD2    N1 6493   3.503   0.557  15.337  0.0525  0.1780 -0.1606
  435MPD2    H7 6494   3.501   0.617  15.419  0.7228  1.1391 -0.8466
  436TMC3    C1 6495   3.157   0.687  15.508  0.0747 -0.6045  0.5500
  436TMC3    C2 6496   3.271   0.652  15.442  0.4123  0.4424  0.6655
  436TMC3    C3 6497   3.268   0.590  15.326  0.6616  0.0189 -0.5306
  436TMC3    C4 6498   3.033   0.649  15.457 -0.1925  0.2381  0.1074
  436TMC3    C5 6499   3.038   0.590  15.334 -1.0524  0.3083 -0.0606
  436TMC3    C6 6500   3.149   0.548  15.266 -0.0144 -0.2788  0.3118
  436TMC3     C 6501   3.169   0.714  15.652  0.0098 -0.3902 -0.5637
  436TMC3     O 6502   3.276   0.701  15.712 -0.0629 -0.2701 -0.0246
  436TMC3     H 6503   3.365   0.691  15.478  1.6110 -1.6475 -0.2359
  436TMC3    H1 6504   2.933   0.661  15.498 -0.7413 -0.4596 -1.0056
  436TMC3    H2 6505   3.148   0.483  15.179  0.6904  1.1326 -0.7668
  436TMC3    C7 6506   2.910   0.536  15.273  0.2126 -0.0845  0.3938
  436TMC3    C8 6507   3.384   0.537  15.266 -0.3173  0.8230  0.1074
  436TMC3    O1 6508   2.814   0.507  15.340  0.1623 -0.2082 -0.1427
  436TMC3    O2 6509   3.364   0.448  15.182  0.3365 -0.1647  0.0573
  437TMC3    C1 6510   2.340   3.123  12.474 -0.3369 -0.0176 -0.4571
  437TMC3    C2 6511   2.223   3.189  12.466  0.2154 -0.0879  0.5845
  437TMC3    C3 6512   2.211   3.284  12.366 -0.1825 -0.5319 -0.4929
  437TMC3    C4 6513   2.451   3.172  12.409 -0.3137  0.1050 -0.1591
  437TMC3    C5 6514   2.431   3.251  12.302  0.0537  0.2233 -0.1166
  437TMC3    C6 6515   2.318   3.315  12.288  0.3485  0.1483  0.0060
  437TMC3     C 6516   2.363   3.026  12.576  0.1771 -0.0350 -0.4740
  437TMC3     O 6517   2.475   2.983  12.601 -0.1064  0.4585  0.2447
  437TMC3     H 6518   2.131   3.161  12.518  0.3498  1.6162  1.7584
  437TMC3    H1 6519   2.547   3.122  12.421 -0.0077  0.5567 -0.7739
  437TMC3    H2 6520   2.315   3.397  12.218  0.0002 -1.5557 -1.9643
  437TMC3    C7 6521   2.544   3.306  12.232  0.3295  0.6884 -0.6794
  437TMC3    C8 6522   2.098   3.364  12.352 -0.0402 -0.6188  0.6673
  437TMC3    O1 6523   2.513   3.363  12.128  0.2394  0.2354 -0.6361
  437TMC3    O2 6524   2.070   3.400  12.238  0.1388 -0.5608 -0.0178
  438MPD2     C 6525   4.716   3.011  16.469 -0.3369 -0.2991  0.4735
  438MPD2    C1 6526   0.088   3.058  16.555 -0.7871 -0.3858 -0.1155
  438MPD2    C2 6527   0.081   3.014  16.681  0.2385  0.5410 -0.2537
  438MPD2    C3 6528   0.001   2.908  16.723  1.0429 -0.5174 -0.3403
  438MPD2    C4 6529   4.651   2.846  16.630  0.8692  0.1731  0.0827
  438MPD2    C5 6530   4.643   2.900  16.502 -0.4453 -0.6468 -0.6242
  438MPD2     H 6531   0.149   3.063  16.750 -0.6044  0.3822  0.6797
  438MPD2    H1 6532   4.600   2.754  16.656  0.5071  1.0739  2.5058
  438MPD2    H2 6533   4.710   3.031  16.363 -0.4817 -0.6533  0.4149
  438MPD2    H3 6534   4.595   2.844  16.423 -1.6188  0.1615 -0.4822
  438MPD2     N 6535   0.016   2.852  16.851  0.4398 -0.2756  0.1839
  438MPD2    H5 6536   4.709   2.758  16.869 -1.0716 -0.3251 -2.9401
  438MPD2    N1 6537   0.188   3.149  16.522  0.8652 -0.3877 -0.2109
  438MPD2    H7 6538   0.263   3.166  16.588 -0.3942  0.1864  1.0583
  439TMC3    C1 6539   0.319   3.284  16.373  0.4407 -0.7293  0.0357
  439TMC3    C2 6540   0.330   3.353  16.258  0.0374  0.1628  0.4007
  439TMC3    C3 6541   0.446   3.377  16.199 -0.8483  0.9556 -0.4938
  439TMC3    C4 6542   0.429   3.230  16.433 -0.5871  0.6399  0.7381
  439TMC3    C5 6543   0.547   3.243  16.365  0.0581 -0.2978  0.2885
  439TMC3    C6 6544   0.558   3.325  16.258 -0.2577  0.3440 -0.6200
  439TMC3     C 6545   0.191   3.218  16.400 -0.2326 -0.4282  0.1471
  439TMC3     O 6546   0.110   3.217  16.311 -0.2434 -0.2636 -0.2071
  439TMC3     H 6547   0.237   3.383  16.211  0.6498  1.3713 -0.0324
  439TMC3    H1 6548   0.427   3.148  16.504 -2.1256 -0.4169 -0.5151
  439TMC3    H2 6549   0.655   3.360  16.225 -1.1938  1.6535 -1.9496
  439TMC3    C7 6550   0.669   3.184  16.407 -0.1312  0.8295  0.2544
  439TMC3    C8 6551   0.449   3.369  16.058 -0.2159 -0.0220 -0.2441
  439TMC3    O1 6552   0.692   3.162  16.528 -0.3997 -0.4113  0.3438
  439TMC3    O2 6553   0.385   3.446  15.985 -0.1087  0.4095  0.0381
  440MPD2     C 6554   3.856   3.717  14.516  0.4624  0.2204 -0.1081
  440MPD2    C1 6555   3.876   3.761  14.646 -0.2277  0.6695 -0.7987
  440MPD2    C2 6556   4.000   3.798  14.682  0.0605  0.1071  0.3427
  440MPD2    C3 6557   4.102   3.796  14.593  0.3052 -0.4794 -0.1924
  440MPD2    C4 6558   4.086   3.743  14.460  0.3797  0.2146 -0.4016
  440MPD2    C5 6559   3.962   3.706  14.426  0.3309 -0.6626  1.2209
  440MPD2     H 6560   4.025   3.799  14.787 -2.0058 -2.1433  0.8607
  440MPD2    H1 6561   4.169   3.727  14.392 -1.0502  0.4545 -2.1880
  440MPD2    H2 6562   3.760   3.677  14.485  0.6152 -0.3976  0.2005
  440MPD2    H3 6563   3.946   3.670  14.325  1.5448 -0.5439  0.9881
  440MPD2     N 6564   4.238   3.817  14.638  0.2745  0.0589 -0.1291
  440MPD2    H5 6565   4.315   3.797  14.575  1.2554  0.7842  0.8407
  440MPD2    N1 6566   3.769   3.774  14.738  0.0028 -0.3428 -0.0690
  440MPD2    H7 6567   3.794   3.822  14.824 -0.0352 -1.6272  0.6522
  441TMC3    C1 6568   4.406   3.876  14.785  0.4054 -0.2156  0.9088
  441TMC3    C2 6569   4.428   3.981  14.870 -0.1009  0.5636 -0.3622
  441TMC3    C3 6570   4.488   3.960  14.994  0.4427  0.6425  0.4341
  441TMC3    C4 6571   4.443   3.744  14.829 -1.1809  0.1269  0.2032
  441TMC3    C5 6572   4.493   3.724  14.953  0.2799  0.4444 -0.2721
  441TMC3    C6 6573   4.525   3.829  15.031 -0.2525 -0.4201 -0.0213
  441TMC3     C 6574   4.264   3.870  14.758 -0.3207 -0.5186  0.0677
  441TMC3     O 6575   4.195   3.936  14.836  0.2993  0.4869  0.1608
  441TMC3     H 6576   4.395   4.083  14.852 -1.1722 -0.2684 -3.0371
  441TMC3    H1 6577   4.423   3.660  14.765  2.2070  0.7100 -1.5656
  441TMC3    H2 6578   4.545   3.831  15.138  1.5410  1.2264 -0.3889
  441TMC3    C7 6579   4.437   3.598  15.017  1.4034 -0.2099  0.3398
  441TMC3    C8 6580   4.423   4.026  15.101 -0.0118  0.6570 -0.4958
  441TMC3    O1 6581   4.368   3.528  14.950  0.2626 -0.4608 -0.5445
  441TMC3    O2 6582   4.477   4.031  15.211  0.2601  0.1738  0.1387
  442MPD2     C 6583   1.843   4.342  16.324 -1.2315  0.1437 -0.7176
  442MPD2    C1 6584   1.720   4.276  16.322 -0.4098  0.0013 -0.1817
  442MPD2    C2 6585   1.713   4.146  16.269  0.5997 -0.3857  0.1787
  442MPD2    C3 6586   1.823   4.089  16.203 -0.6296  0.1399  0.1258
  442MPD2    C4 6587   1.942   4.159  16.198 -0.0924  0.6539  0.4369
  442MPD2    C5 6588   1.947   4.282  16.260 -0.0773 -1.4040 -0.2862
  442MPD2     H 6589   1.628   4.080  16.281 -1.2408  1.5445 -2.2710
  442MPD2    H1 6590   2.033   4.111  16.162  0.8113  2.7347 -0.0214
  442MPD2    H2 6591   1.860   4.438  16.370 -3.6449  0.1114  0.2433
  442MPD2    H3 6592   2.045   4.326  16.274 -0.8431 -0.4917  2.2140
  442MPD2     N 6593   1.831   3.957  16.158  0.2067  0.6004 -0.4313
  442MPD2    H5 6594   1.924   3.931  16.127  0.0223 -1.1185  0.4564
  442MPD2    N1 6595   1.607   4.329  16.399 -0.0707  0.2883  0.6505
  442MPD2    H7 6596   1.520   4.277  16.397 -0.0326  0.3025 -0.9903
  443TMC3    C1 6597   1.468   4.477  16.524 -0.0480  0.3554  0.1198
  443TMC3    C2 6598   1.406   4.585  16.499  0.4456  0.2224  0.1848
  443TMC3    C3 6599   1.273   4.586  16.500 -0.3511  0.4182  0.5673
  443TMC3    C4 6600   1.412   4.361  16.574 -0.1017 -0.2432 -0.6310
  443TMC3    C5 6601   1.275   4.375  16.586 -0.6139  0.1334 -0.6070
  443TMC3    C6 6602   1.194   4.483  16.552 -0.3190  0.2938 -0.4181
  443TMC3     C 6603   1.597   4.456  16.456  0.1743  0.0527  0.0006
  443TMC3     O 6604   1.659   4.557  16.429 -0.0770 -0.4254  0.0004
  443TMC3     H 6605   1.467   4.657  16.444  2.3377 -0.3196  1.5676
  443TMC3    H1 6606   1.463   4.266  16.589  0.1485  0.0221  0.2164
  443TMC3    H2 6607   1.087   4.491  16.567 -0.1189  1.3171  0.4313
  443TMC3    C7 6608   1.208   4.275  16.667  0.2578 -0.3617  0.8335
  443TMC3    C8 6609   1.194   4.710  16.476  0.5711 -0.1815 -0.8138
  443TMC3    O1 6610   1.086   4.259  16.666 -0.4177  0.0030  0.4026
  443TMC3    O2 6611   1.131   0.023  16.576 -0.3906  0.1451 -0.4308
  444MPD2     C 6612   2.272   3.772  16.773 -0.6270 -0.1132 -0.5416
  444MPD2    C1 6613   2.185   3.673  16.792 -0.1736 -0.3191 -0.0610
  444MPD2    C2 6614   2.224   3.542  16.749  0.1069  0.4147 -0.6968
  444MPD2    C3 6615   2.343   3.520  16.682  0.1982  0.2654 -0.0743
  444MPD2    C4 6616   2.432   3.626  16.672  0.1370  0.3796 -0.5840
  444MPD2    C5 6617   2.393   3.747  16.713  0.3978 -0.5138 -0.0351
  444MPD2     H 6618   2.166   3.455  16.778  0.7049  1.2989  3.1958
  444MPD2    H1 6619   2.540   3.623  16.664  0.2332  0.4752  0.5800
  444MPD2    H2 6620   2.245   3.873  16.801  0.5073  0.3912 -1.2580
  444MPD2    H3 6621   2.459   3.833  16.706 -0.2176 -0.0706 -0.3488
  444MPD2     N 6622   2.379   3.389  16.640  0.0315 -0.1534 -0.1000
  444MPD2    H5 6623   2.316   3.317  16.673  1.5264 -0.6592  1.6669
  444MPD2    N1 6624   2.062   3.686  16.860 -0.1200  1.1477  0.3892
  444MPD2    H7 6625   2.007   3.602  16.876 -1.3264  1.9216  0.3170
  445TMC3    C1 6626   2.520   3.220  16.555 -0.6633  0.2591 -0.7035
  445TMC3    C2 6627   2.487   3.141  16.658 -0.6962 -0.1524  0.1525
  445TMC3    C3 6628   2.559   3.020  16.665 -0.3323 -0.6137 -0.1325
  445TMC3    C4 6629   2.625   3.196  16.459  0.6299 -0.5341  0.2907
  445TMC3    C5 6630   2.690   3.075  16.480  0.0085  0.4737  0.6604
  445TMC3    C6 6631   2.654   2.988  16.577 -0.4659 -0.5960  0.1275
  445TMC3     C 6632   2.496   3.358  16.570  0.1227  1.1662  0.5910
  445TMC3     O 6633   2.588   3.434  16.540 -0.6087  0.5770 -0.0327
  445TMC3     H 6634   2.413   3.166  16.733  0.2682 -2.5564  1.9160
  445TMC3    H1 6635   2.662   3.278  16.400 -1.3825 -0.6060 -1.0557
  445TMC3    H2 6636   2.696   2.889  16.582 -1.5430 -1.1011 -0.6945
  445TMC3    C7 6637   2.816   3.064  16.412  0.8722  0.2008 -0.7226
  445TMC3    C8 6638   2.543   2.932  16.779  0.0259  0.3044  0.3805
  445TMC3    O1 6639   2.829   3.141  16.319  0.0723  0.5742 -0.1402
  445TMC3    O2 6640   2.644   2.878  16.824  0.6257  0.1148  0.0810
  446MPD2     C 6641   1.572   0.098  11.103  0.1518  0.1835  0.0831
  446MPD2    C1 6642   1.561   0.118  10.969 -0.0778 -0.0088  0.0534
  446MPD2    C2 6643   1.648   0.202  10.905 -0.0514 -0.3427  0.1680
  446MPD2    C3 6644   1.752   0.270  10.970 -0.1416  0.1162 -0.0859
  446MPD2    C4 6645   1.760   0.252  11.109  0.5809  0.2867  0.2097
  446MPD2    C5 6646   1.665   0.178  11.171 -0.3035  0.1360  0.0271
  446MPD2     H 6647   1.654   0.202  10.796  4.4034  1.6998  0.4460
  446MPD2    H1 6648   1.831   0.305  11.172  1.2362 -2.0276  1.4131
  446MPD2    H2 6649   1.498   0.051  11.166  0.9783 -0.3133  0.6672
  446MPD2    H3 6650   1.666   0.162  11.279  2.5490 -1.9171 -0.2953
  446MPD2     N 6651   1.842   0.345  10.892 -0.0495 -0.1769  0.0812
  446MPD2    H5 6652   1.820   0.345  10.793  1.9299  1.4306 -0.3423
  446MPD2    N1 6653   1.466   0.059  10.882  0.2939 -0.0462 -0.0545
  446MPD2    H7 6654   1.461   0.075  10.781  1.0357 -1.9204 -0.3910
  447TMC3    C1 6655   2.051   0.459  10.830  1.0728  0.6044 -0.0266
  447TMC3    C2 6656   2.048   0.407  10.698  0.3264 -0.2557 -0.1182
  447TMC3    C3 6657   2.162   0.402  10.621 -0.2874  0.3377  0.2105
  447TMC3    C4 6658   2.173   0.515  10.873  0.2060 -0.1603  1.1178
  447TMC3    C5 6659   2.292   0.493  10.799 -1.1948 -1.0142 -0.1897
  447TMC3    C6 6660   2.288   0.430  10.675  0.4717  0.3851  1.0051
  447TMC3     C 6661   1.958   0.408  10.932  0.5084  0.4269 -0.2850
  447TMC3     O 6662   1.995   0.419  11.048 -0.5461  0.2211  0.1590
  447TMC3     H 6663   1.954   0.374  10.655 -0.0112 -0.7590  1.0082
  447TMC3    H1 6664   2.189   0.548  10.975  1.5646  2.4620  0.0618
  447TMC3    H2 6665   2.384   0.410  10.629 -1.3048 -0.9750 -2.0626
  447TMC3    C7 6666   2.411   0.487  10.878 -0.1761 -0.1289  0.1244
  447TMC3    C8 6667   2.146   0.387  10.479  0.2881 -0.1377 -0.6939
  447TMC3    O1 6668   2.488   0.394  10.855 -0.2113  0.1589  0.4300
  447TMC3    O2 6669   2.042   0.437  10.434 -0.1670  0.3226 -0.4332
  448TMC3    C1 6670   4.657   0.126  16.500 -0.0134  0.0870 -0.1233
  448TMC3    C2 6671   4.610   0.024  16.425  0.1104 -0.0886 -0.1085
  448TMC3    C3 6672   4.670   4.626  16.448 -0.0136 -0.2427  0.3785
  448TMC3    C4 6673   0.028   0.105  16.597  0.1322  0.5402 -0.3010
  448TMC3    C5 6674   0.075   4.704  16.618  0.1565 -0.0901  0.0056
  448TMC3    C6 6675   0.026   4.596  16.550 -0.1586 -0.2170  0.1134
  448TMC3     C 6676   4.594   0.254  16.495 -0.5003 -0.6165 -0.0725
  448TMC3     O 6677   4.481   0.253  16.449 -0.1132  0.4658 -0.3826
  448TMC3     H 6678   4.528   0.038  16.355 -0.4322 -1.1827  0.3119
  448TMC3    H1 6679   0.059   0.176  16.673  4.4104 -2.2122  0.5258
  448TMC3    H2 6680   0.076   4.500  16.559 -1.7116 -1.1146 -0.9199
  448TMC3    C7 6681   0.207   4.691  16.684  0.4243 -0.1783 -0.0557
  448TMC3    C8 6682   4.645   4.518  16.350  0.9032 -0.0723  0.2083
  448TMC3    O1 6683   0.265   0.070  16.712 -0.2355  0.3073 -0.1094
  448TMC3    O2 6684   4.679   4.403  16.374  0.2644 -0.4659  0.3258
  449MPD2     C 6685   1.419   3.480  13.740  0.5571 -0.5301  0.0256
  449MPD2    C1 6686   1.296   3.424  13.711 -0.1706 -0.2547  0.3482
  449MPD2    C2 6687   1.251   3.334  13.803 -0.4437  0.5743  0.4965
  449MPD2    C3 6688   1.330   3.287  13.911  0.8981  0.2675 -0.3863
  449MPD2    C4 6689   1.447   3.348  13.937  0.1756 -0.7214  0.1365
  449MPD2    C5 6690   1.493   3.434  13.842 -0.2438  0.4468 -0.4557
  449MPD2     H 6691   1.164   3.277  13.771 -1.3023  2.0338  0.1935
  449MPD2    H1 6692   1.520   3.319  14.012 -1.0582 -2.8165  0.4998
  449MPD2    H2 6693   1.464   3.563  13.687 -1.9461 -0.1935 -1.5909
  449MPD2    H3 6694   1.586   3.489  13.855 -0.0568  0.0343 -0.0293
  449MPD2     N 6695   1.278   3.183  13.981 -0.4634 -0.2510 -0.2979
  449MPD2    H5 6696   1.197   3.135  13.942 -0.3042 -0.8050  0.0385
  449MPD2    N1 6697   1.216   3.465  13.603 -0.3206 -0.1704  0.3724
  449MPD2    H7 6698   1.127   3.416  13.600 -0.0314 -0.3469 -4.0216
  450TMC3    C1 6699   1.167   3.521  13.387 -0.4958  0.0552 -0.5115
  450TMC3    C2 6700   1.221   3.449  13.285  0.2621 -0.0124 -0.3829
  450TMC3    C3 6701   1.148   3.344  13.231  0.7804 -0.1223  0.4043
  450TMC3    C4 6702   1.043   3.483  13.429  1.1689 -0.0383 -0.5710
  450TMC3    C5 6703   0.976   3.379  13.382  0.1909 -0.5572 -0.2866
  450TMC3    C6 6704   1.021   3.318  13.268 -0.1971 -0.1526 -0.0905
  450TMC3     C 6705   1.265   3.535  13.497  0.4403  0.0184 -0.0454
  450TMC3     O 6706   1.381   3.531  13.452  0.2943 -0.6244 -0.1904
  450TMC3     H 6707   1.312   3.486  13.240 -0.0374  1.2503  0.0634
  450TMC3    H1 6708   0.998   3.532  13.515 -0.1743  2.1551 -2.5231
  450TMC3    H2 6709   0.960   3.248  13.213  1.2850 -0.4667 -1.3367
  450TMC3    C7 6710   0.942   3.287  13.483 -0.1611  0.1991 -0.5031
  450TMC3    C8 6711   1.200   3.278  13.114  0.2644 -0.4464  0.2267
  450TMC3    O1 6712   0.996   3.317  13.591  0.3633 -0.3630 -0.5711
  450TMC3    O2 6713   1.115   3.238  13.034  0.5642 -0.1622 -0.3026
  451MPD2     C 6714   3.311   2.804   0.620 -0.5016  1.0322 -0.1773
  451MPD2    C1 6715   3.279   2.766   0.747 -0.7855  0.4004 -0.7365
  451MPD2    C2 6716   3.291   2.637   0.783 -0.2408  0.3434  0.0977
  451MPD2    C3 6717   3.333   2.549   0.685  1.0850 -0.5613  0.0468
  451MPD2    C4 6718   3.368   2.589   0.556 -0.7197  0.1109  0.6286
  451MPD2    C5 6719   3.354   2.722   0.529 -0.0761  0.0529  0.4163
  451MPD2     H 6720   3.261   2.598   0.880 -0.9349  0.3552 -0.1096
  451MPD2    H1 6721   3.420   2.520   0.491  0.9314  1.3471  0.6236
  451MPD2    H2 6722   3.292   2.906   0.591  0.4706  1.1238 -0.4972
  451MPD2    H3 6723   3.389   2.764   0.435 -1.8742  0.5577 -0.0326
  451MPD2     N 6724   3.345   2.406   0.707  0.7983 -0.1655  0.0263
  451MPD2    H5 6725   3.380   2.357   0.625  0.8663 -0.8311  0.4510
  451MPD2    N1 6726   3.229   2.867   0.837 -0.5599 -0.1883 -0.2847
  451MPD2    H7 6727   3.215   2.960   0.798  0.3052 -0.0162 -0.1843
  452TMC3    C1 6728   3.320   2.189   0.808 -0.0497  0.5607 -0.1500
  452TMC3    C2 6729   3.354   2.118   0.916  0.0297 -0.2226 -0.0247
  452TMC3    C3 6730   3.357   1.981   0.900 -0.8927 -0.1128 -0.1286
  452TMC3    C4 6731   3.296   2.137   0.683  0.2163  0.0657  0.1044
  452TMC3    C5 6732   3.297   2.002   0.673 -1.2407  0.6742 -0.4294
  452TMC3    C6 6733   3.329   1.927   0.777  0.4084 -0.4099  0.3816
  452TMC3     C 6734   3.317   2.337   0.824  0.6876  0.3034  0.4433
  452TMC3     O 6735   3.291   2.389   0.932 -0.4185  0.4964  0.0447
  452TMC3     H 6736   3.380   2.167   1.010  1.5661 -2.5627  0.7730
  452TMC3    H1 6737   3.273   2.199   0.598 -1.0904  0.5662  0.8372
  452TMC3    H2 6738   3.337   1.819   0.770 -0.6597 -0.3516 -1.7121
  452TMC3    C7 6739   3.249   1.942   0.549  0.5916 -0.2614 -0.2611
  452TMC3    C8 6740   3.356   1.899   1.021 -0.0635  0.6400 -0.6717
  452TMC3    O1 6741   3.244   2.022   0.458 -0.0494 -0.0818 -0.3673
  452TMC3    O2 6742   3.303   1.790   1.006  0.2538 -1.0470 -0.0792
  453TMC3    C1 6743   3.984   4.290  11.555  0.2413  0.1161 -0.3813
  453TMC3    C2 6744   3.902   4.192  11.590  0.1385 -0.8770 -0.3002
  453TMC3    C3 6745   3.806   4.163  11.506  0.4114  0.1089  0.1904
  453TMC3    C4 6746   3.980   4.367  11.441  0.5889 -0.0489 -0.5378
  453TMC3    C5 6747   3.871   4.343  11.362 -0.5809  0.1966 -0.3185
  453TMC3    C6 6748   3.779   4.238  11.395  0.1260  0.1820 -0.2641
  453TMC3     C 6749   4.086   4.337  11.646  0.4090 -0.0530  0.0744
  453TMC3     O 6750   4.183   4.396  11.594  0.2941 -0.3336 -0.9526
  453TMC3     H 6751   3.910   4.146  11.688 -0.8799  0.5088  0.4362
  453TMC3    H1 6752   4.041   4.455  11.428  2.9607 -2.3118 -4.5972
  453TMC3    H2 6753   3.695   4.225  11.328  0.0970 -0.1876 -0.1539
  453TMC3    C7 6754   3.909   4.343  11.223 -0.5268  0.0200 -0.3260
  453TMC3    C8 6755   3.728   4.041  11.528  0.3343 -1.3390 -0.1692
  453TMC3    O1 6756   3.870   4.247  11.153  0.1036 -0.0405 -0.1348
  453TMC3    O2 6757   3.614   4.049  11.488 -0.2257  0.2412 -0.3650
  454MPD2     C 6758   2.988   3.372  16.063  0.1292  0.3925  0.6186
  454MPD2    C1 6759   2.973   3.502  15.998  0.1512 -0.7505 -0.1372
  454MPD2    C2 6760   2.994   3.622  16.072  0.6722  0.3841  0.5166
  454MPD2    C3 6761   3.019   3.618  16.207 -0.0170  0.2391  0.3788
  454MPD2    C4 6762   3.027   3.498  16.277 -0.1007 -0.0781 -0.5358
  454MPD2    C5 6763   3.017   3.387  16.202 -0.8767  0.1946 -0.1509
  454MPD2     H 6764   2.974   3.716  16.023 -2.1682 -0.5121 -0.0117
  454MPD2    H1 6765   3.048   3.488  16.383  2.1400  2.1912 -0.7745
  454MPD2    H2 6766   2.985   3.273  16.018 -1.8121  1.1541 -0.9063
  454MPD2    H3 6767   3.029   3.292  16.253  2.7118 -0.9952 -3.2007
  454MPD2     N 6768   3.027   3.739  16.286  0.0973 -0.4947 -0.5647
  454MPD2    H5 6769   3.073   3.734  16.376  1.7229  0.9960 -1.3090
  454MPD2    N1 6770   2.950   3.520  15.858  0.0618 -0.1783  0.3043
  454MPD2    H7 6771   2.952   3.616  15.824 -1.2684 -0.3521 -0.2307
  455TMC3    C1 6772   2.860   3.872  16.173  0.2943 -0.6027  0.1903
  455TMC3    C2 6773   2.845   3.997  16.119 -0.2362  0.3411 -0.5528
  455TMC3    C3 6774   2.720   4.015  16.063  0.0908 -0.3001 -0.5727
  455TMC3    C4 6775   2.761   3.779  16.179 -0.4088  0.3658  0.3842
  455TMC3    C5 6776   2.642   3.796  16.117 -0.2845 -0.5318  0.4585
  455TMC3    C6 6777   2.629   3.915  16.050 -0.3174  0.3172 -0.4098
  455TMC3     C 6778   2.988   3.866  16.241 -0.9789  0.2163 -0.6751
  455TMC3     O 6779   3.046   3.969  16.276 -0.2239 -0.0787 -0.0549
  455TMC3     H 6780   2.929   4.066  16.118  0.2756 -0.3127 -2.3873
  455TMC3    H1 6781   2.774   3.697  16.249 -1.5151 -0.2021 -0.0753
  455TMC3    H2 6782   2.537   3.938  15.998 -2.0776 -0.6606  2.2888
  455TMC3    C7 6783   2.589   3.688  16.038 -0.1866  0.0021  0.5489
  455TMC3    C8 6784   2.719   4.109  15.952 -0.6446  0.5488  0.0134
  455TMC3    O1 6785   2.613   3.696  15.923  0.1318  0.0870  0.5231
  455TMC3    O2 6786   2.777   4.070  15.848  0.3435  0.4185 -0.5851
  456MPD2     C 6787   0.537   3.852  15.407  0.8673 -0.6172  0.1982
  456MPD2    C1 6788   0.555   3.756  15.501  0.1007  0.0403 -0.0720
  456MPD2    C2 6789   0.462   3.743  15.601 -0.1202  0.4400  0.5803
  456MPD2    C3 6790   0.349   3.829  15.605  0.4200 -0.3029 -0.3620
  456MPD2    C4 6791   0.341   3.938  15.513 -0.0138 -0.5086 -0.2326
  456MPD2    C5 6792   0.441   3.955  15.425  0.1809  0.1041  0.0749
  456MPD2     H 6793   0.473   3.666  15.677  1.7284 -0.0121 -0.1543
  456MPD2    H1 6794   0.254   4.003  15.515  0.4969  0.2071 -1.4219
  456MPD2    H2 6795   0.616   3.871  15.336  0.9530  0.5618  0.6148
  456MPD2    H3 6796   0.434   4.040  15.358  0.9186 -0.1153 -0.2830
  456MPD2     N 6797   0.260   3.802  15.711  0.6348 -0.4507 -1.0693
  456MPD2    H5 6798   0.285   3.719  15.763 -2.4875 -0.6664  0.0585
  456MPD2    N1 6799   0.661   3.670  15.478 -0.1300  0.3263  0.3438
  456MPD2    H7 6800   0.716   3.664  15.393  2.5122  2.6525  1.8960
  457TMC3    C1 6801   0.081   3.854  15.867 -0.1826  0.5317 -0.4963
  457TMC3    C2 6802   4.693   3.929  15.889  0.1593 -0.3000  0.1273
  457TMC3    C3 6803   4.635   3.927  16.012  0.0886 -1.0531  0.5120
  457TMC3    C4 6804   0.131   3.770  15.966 -0.1454 -0.1738  0.5937
  457TMC3    C5 6805   0.061   3.764  16.087 -0.1428  0.3901  0.0741
  457TMC3    C6 6806   4.672   3.836  16.107  0.7215  0.0399  0.2164
  457TMC3     C 6807   0.156   3.886  15.745  0.2089 -0.9801  0.8526
  457TMC3     O 6808   0.117   3.990  15.688 -0.1881  0.2900 -0.7878
  457TMC3     H 6809   4.672   4.001  15.810 -0.8298  0.4577  1.0793
  457TMC3    H1 6810   0.223   3.717  15.942 -0.9405 -1.5615  0.6180
  457TMC3    H2 6811   4.627   3.836  16.206  2.3980  0.4498  0.9812
  457TMC3    C7 6812   0.131   3.730  16.208  0.2336  1.0626 -0.1845
  457TMC3    C8 6813   4.600   4.059  16.072 -0.2452 -0.1937  0.3547
  457TMC3    O1 6814   0.067   3.721  16.316  0.5380 -0.1519  0.2996
  457TMC3    O2 6815   4.603   4.069  16.194 -0.2368 -0.5959 -0.0027
  458MPD2     C 6816   3.016   3.505  12.230 -0.1289  0.1267 -0.1212
  458MPD2    C1 6817   2.997   3.425  12.340 -0.9733 -0.7769  0.4547
  458MPD2    C2 6818   2.888   3.351  12.360 -0.1277 -0.2486  0.5152
  458MPD2    C3 6819   2.783   3.362  12.267  0.0716 -0.5318 -0.4577
  458MPD2    C4 6820   2.798   3.443  12.157 -0.3509 -0.1604  0.5081
  458MPD2    C5 6821   2.912   3.520  12.146 -0.3890 -0.1325  0.5033
  458MPD2     H 6822   2.880   3.292  12.451 -0.0020 -1.6259 -0.3848
  458MPD2    H1 6823   2.725   3.444  12.077 -0.0167 -2.8406  0.1655
  458MPD2    H2 6824   3.111   3.557  12.215 -0.0907 -0.3363 -1.5252
  458MPD2    H3 6825   2.923   3.591  12.065  0.9943 -1.4181 -0.4193
  458MPD2     N 6826   2.660   3.303  12.304 -0.0192  0.3754  0.7696
  458MPD2    H5 6827   2.649   3.263  12.396 -0.0284 -1.8270 -0.2061
  458MPD2    N1 6828   3.111   3.410  12.424  0.4992 -0.1124  0.4007
  458MPD2    H7 6829   3.193   3.460  12.390  1.2157 -0.8306  1.0880
  459TMC3    C1 6830   3.258   3.343  12.590 -0.6678  0.1387  0.3402
  459TMC3    C2 6831   3.368   3.387  12.527  0.7508 -0.2239  0.8790
  459TMC3    C3 6832   3.490   3.391  12.596 -0.2775  0.0404  0.1783
  459TMC3    C4 6833   3.276   3.286  12.714 -0.2058 -0.1115 -0.0586
  459TMC3    C5 6834   3.396   3.278  12.778 -0.0485 -0.2890 -0.5823
  459TMC3    C6 6835   3.510   3.329  12.718  0.3112 -0.0662  0.1516
  459TMC3     C 6836   3.123   3.346  12.545 -0.2035  0.0828 -0.8226
  459TMC3     O 6837   3.035   3.314  12.625  0.0785  0.6756  0.1034
  459TMC3     H 6838   3.356   3.401  12.421 -0.7914  0.5262  1.1556
  459TMC3    H1 6839   3.196   3.226  12.755 -0.1432 -0.1056  0.0721
  459TMC3    H2 6840   3.612   3.319  12.753  0.0573  1.5216  1.3688
  459TMC3    C7 6841   3.408   3.179  12.879  0.6346  0.0114 -0.1779
  459TMC3    C8 6842   3.616   3.417  12.525  0.2633  1.2680  0.3228
  459TMC3    O1 6843   3.347   3.076  12.856  0.8327 -0.3455 -0.0499
  459TMC3    O2 6844   3.720   3.427  12.584  0.4702  0.2173 -0.1711
  460MPD2     C 6845   2.348   0.177  10.258  0.1759 -0.3432  0.3003
  460MPD2    C1 6846   2.250   0.269  10.284 -0.4048 -0.0758 -0.2761
  460MPD2    C2 6847   2.165   0.304  10.178  0.2800 -0.4179 -0.4457
  460MPD2    C3 6848   2.180   0.248  10.058 -0.4111 -0.1591  0.0425
  460MPD2    C4 6849   2.278   0.164  10.031 -0.1049  0.3411 -0.5904
  460MPD2    C5 6850   2.366   0.124  10.133 -0.2963  0.7750 -0.0229
  460MPD2     H 6851   2.089   0.381  10.187  1.1517  0.3408  0.3973
  460MPD2    H1 6852   2.292   0.123   9.932 -1.0530  1.3682 -1.1430
  460MPD2    H2 6853   2.401   0.136  10.344  0.0322 -1.0388  0.0621
  460MPD2    H3 6854   2.438   0.044  10.130 -0.5336  0.5577  0.1128
  460MPD2     N 6855   2.096   0.283   9.948 -0.2908 -0.6754  0.3786
  460MPD2    H5 6856   2.029   0.358   9.961 -0.3912 -0.8827  1.0525
  460MPD2    N1 6857   2.245   0.317  10.423  0.3050  0.0384 -0.7164
  460MPD2    H7 6858   2.318   0.280  10.483 -0.2604 -0.0789 -0.1002
  461TMC3    C1 6859   2.015   0.290   9.718  0.3554 -0.2802 -0.3638
  461TMC3    C2 6860   1.973   0.217   9.611 -0.2118 -0.3819 -0.6460
  461TMC3    C3 6861   1.910   0.285   9.513 -1.3432  0.5843  0.6349
  461TMC3    C4 6862   1.987   0.422   9.725 -0.8620 -0.1772  0.3083
  461TMC3    C5 6863   1.901   0.484   9.632 -0.4641 -0.4148  0.2862
  461TMC3    C6 6864   1.877   0.419   9.514 -0.9915  0.0359  0.1829
  461TMC3     C 6865   2.087   0.221   9.827  0.1313  0.3483 -0.2257
  461TMC3     O 6866   2.137   0.116   9.785 -0.1019 -0.3960 -0.5437
  461TMC3     H 6867   1.998   0.112   9.608 -1.0279 -0.5159 -2.1895
  461TMC3    H1 6868   2.045   0.476   9.798 -0.3815 -0.6145  0.2516
  461TMC3    H2 6869   1.811   0.468   9.442 -0.4883 -0.5247 -0.6643
  461TMC3    C7 6870   1.895   0.629   9.635 -0.2994  0.5392  0.4316
  461TMC3    C8 6871   1.952   0.239   9.380  0.4053  0.1232 -0.9699
  461TMC3    O1 6872   1.868   0.685   9.528  0.2249 -0.1134 -0.2432
  461TMC3    O2 6873   2.063   0.183   9.369  0.0521  0.3641 -0.2834
  462TMC3    C1 6874   1.828   1.282  17.240  0.9074 -0.3500 -0.4138
  462TMC3    C2 6875   1.785   1.177  17.158 -0.3677 -0.0501  0.1408
  462TMC3    C3 6876   1.824   1.052  17.202 -0.3129 -0.0894 -0.3083
  462TMC3    C4 6877   1.896   1.270  17.362  0.9382  0.8487 -0.0040
  462TMC3    C5 6878   1.937   1.141  17.400 -0.3615 -0.2242  0.3504
  462TMC3    C6 6879   1.901   1.031  17.314 -0.0563 -0.5691  0.3473
  462TMC3     C 6880   1.851   1.410  17.178  0.5882 -0.2015  0.4833
  462TMC3     O 6881   1.922   1.495  17.228 -0.3917 -0.2308  0.6729
  462TMC3     H 6882   1.740   1.188  17.061 -2.8045 -0.4850  1.2323
  462TMC3    H1 6883   1.925   1.362  17.410 -2.7237  2.4784 -0.8756
  462TMC3    H2 6884   1.903   0.930  17.354  0.3159 -1.1036 -1.0157
  462TMC3    C7 6885   1.933   1.112  17.545 -0.0157 -0.2888 -2.0248
  462TMC3    C8 6886   1.782   0.943  17.116  0.0617 -0.2199 -0.2249
  462TMC3    O1 6887   1.931   0.994  17.582 -0.2649 -0.6975  0.0951
  462TMC3    O2 6888   1.687   0.943  17.041 -0.4443 -0.3907 -0.0578
  463MPD2     C 6889   2.769   4.508   1.394  0.1325  0.4896  0.3046
  463MPD2    C1 6890   2.707   4.628   1.397  0.3608 -0.0256  0.6407
  463MPD2    C2 6891   2.767   0.019   1.352 -0.4172  0.0778 -0.0320
  463MPD2    C3 6892   2.894   0.022   1.288  0.8690  0.1779 -0.1036
  463MPD2    C4 6893   2.952   4.623   1.282  1.2641  0.4329 -0.2640
  463MPD2    C5 6894   2.892   4.510   1.334 -0.4005  0.8970 -0.6272
  463MPD2     H 6895   2.718   0.115   1.350 -0.0522  0.2878  0.8343
  463MPD2    H1 6896   3.050   4.611   1.238  1.7599 -0.0815  0.9695
  463MPD2    H2 6897   2.726   4.412   1.421 -1.6552  1.4304  0.8462
  463MPD2    H3 6898   2.949   4.418   1.329  1.2114  1.9419 -1.9252
  463MPD2     N 6899   2.970   0.131   1.238 -0.3980  0.2836 -0.1272
  463MPD2    H5 6900   3.065   0.114   1.208  0.1161  1.4604  0.8055
  463MPD2    N1 6901   2.577   4.652   1.450 -0.0659 -0.2965 -0.9098
  463MPD2    H7 6902   2.529   0.013   1.430 -1.4218 -0.5222  1.2805
  464TMC3    C1 6903   2.373   4.612   1.552 -0.5934  0.4110  0.2749
  464TMC3    C2 6904   2.357   0.019   1.591 -0.1277  0.3601 -0.1140
  464TMC3    C3 6905   2.249   0.050   1.683  0.8135  0.5021 -0.6625
  464TMC3    C4 6906   2.290   4.520   1.605 -0.0122  0.0935  0.5315
  464TMC3    C5 6907   2.190   4.555   1.691 -0.6309  0.1060  0.4560
  464TMC3    C6 6908   2.166   4.683   1.731  0.6679 -0.1032 -0.3623
  464TMC3     C 6909   2.503   4.562   1.518 -0.0308 -0.3815 -0.2926
  464TMC3     O 6910   2.545   4.463   1.575  0.0504  0.4685 -0.3493
  464TMC3     H 6911   2.427   0.090   1.550  1.5979 -1.1991  0.1621
  464TMC3    H1 6912   2.312   4.417   1.578 -1.2720 -0.1485  0.4596
  464TMC3    H2 6913   2.080   4.710   1.791 -1.2860 -0.1194 -3.1517
  464TMC3    C7 6914   2.091   4.457   1.721 -0.0668 -0.7915 -0.1010
  464TMC3    C8 6915   2.218   0.193   1.703  0.4400 -0.1734  0.4800
  464TMC3    O1 6916   2.022   4.467   1.823  0.1346 -0.4395 -0.4377
  464TMC3    O2 6917   2.169   0.229   1.810 -0.3477 -0.6058 -0.1808
  465MPD2     C 6918   4.434   3.465  16.327  0.2851 -0.3896 -0.1335
  465MPD2    C1 6919   4.301   3.427  16.348 -0.4894  0.1517 -0.6446
  465MPD2    C2 6920   4.198   3.474  16.269 -0.5285 -0.1379  0.0416
  465MPD2    C3 6921   4.221   3.563  16.169  0.5850  0.9166 -0.3008
  465MPD2    C4 6922   4.354   3.594  16.138 -0.4286 -0.9342  0.6145
  465MPD2    C5 6923   4.458   3.546  16.221 -0.2955  0.1083 -0.8995
  465MPD2     H 6924   4.102   3.436  16.302 -1.9775  0.9924 -2.8457
  465MPD2    H1 6925   4.383   3.661  16.058  3.2643 -1.4090  1.5762
  465MPD2    H2 6926   4.526   3.451  16.383  0.4056 -2.1291 -0.7439
  465MPD2    H3 6927   4.564   3.562  16.202 -0.1530 -0.8092 -0.8782
  465MPD2     N 6928   4.106   3.607  16.094 -0.1973  0.0320 -0.0740
  465MPD2    H5 6929   4.022   3.553  16.113 -1.0502  1.3492 -0.0894
  465MPD2    N1 6930   4.263   3.345  16.456 -0.4470 -0.5104  0.3365
  465MPD2    H7 6931   4.165   3.322  16.468 -0.7145  1.0757  1.1851
  466TMC3    C1 6932   3.752   3.749  16.040  0.8884  0.2618  0.1784
  466TMC3    C2 6933   3.743   3.883  16.005 -0.1562  0.4583 -0.6304
  466TMC3    C3 6934   3.853   3.938  15.939 -0.3769 -0.1903 -0.0370
  466TMC3    C4 6935   3.860   3.677  16.009  0.1171 -0.0840 -0.3436
  466TMC3    C5 6936   3.968   3.743  15.950 -0.3892 -0.4579 -0.7158
  466TMC3    C6 6937   3.965   3.873  15.904 -0.1683  0.6804  0.7764
  466TMC3     C 6938   3.675   3.713  16.159  0.1637 -0.3661 -0.1164
  466TMC3     O 6939   3.636   3.803  16.236  0.6730  0.3733  0.5623
  466TMC3     H 6940   3.654   3.943  16.019  0.8878  1.4314  1.7976
  466TMC3    H1 6941   3.877   3.578  16.049 -0.1227  0.5440  1.3263
  466TMC3    H2 6942   4.044   3.911  15.840 -1.2680  0.6445 -0.5988
  466TMC3    C7 6943   4.099   3.724  16.021 -0.4466  0.1848 -0.9881
  466TMC3    C8 6944   3.857   4.079  15.901 -0.3105 -0.2897  0.6560
  466TMC3    O1 6945   4.183   3.815  16.032  0.1716 -0.0060  0.0823
  466TMC3    O2 6946   3.947   4.110  15.826  0.3691 -0.0253 -0.2032
  467TMC3    C1 6947   0.260   2.298  13.075  0.7969 -0.6548 -0.1821
  467TMC3    C2 6948   0.231   2.421  13.134 -0.0169  0.1356  0.1591
  467TMC3    C3 6949   0.123   2.417  13.217  0.1899 -1.4483 -0.4964
  467TMC3    C4 6950   0.187   2.185  13.091 -0.2832  0.5180  0.0049
  467TMC3    C5 6951   0.088   2.181  13.189 -0.1549 -0.2431  0.5234
  467TMC3    C6 6952   0.054   2.302  13.245 -0.1326  0.1387  0.5125
  467TMC3     C 6953   0.404   2.282  13.057  0.4332  0.6963 -0.2039
  467TMC3     O 6954   0.468   2.385  13.058  0.4600  0.3083 -0.6022
  467TMC3     H 6955   0.289   2.511  13.125  1.0315 -0.4530  0.9527
  467TMC3    H1 6956   0.202   2.099  13.027  2.3933  2.7788 -2.3986
  467TMC3    H2 6957   4.710   2.313  13.327 -0.1715  0.4285  0.4402
  467TMC3    C7 6958   0.079   2.059  13.273  0.4697  0.1039  0.6072
  467TMC3    C8 6959   0.139   2.491  13.335  0.2592 -0.1531 -0.0770
  467TMC3    O1 6960   0.151   1.964  13.242 -0.5504 -0.0923  0.0850
  467TMC3    O2 6961   0.034   2.526  13.389  0.8389  0.4113 -0.2407
  468MPD2     C 6962   3.563   0.529  10.231 -0.1391 -0.0820 -0.0441
  468MPD2    C1 6963   3.667   0.555  10.322 -0.7316  0.1864 -0.3282
  468MPD2    C2 6964   3.725   0.448  10.393  0.8144  0.1943 -0.0445
  468MPD2    C3 6965   3.678   0.320  10.381  0.3028 -0.0112 -0.3386
  468MPD2    C4 6966   3.569   0.290  10.298 -1.2369  0.4318  0.0924
  468MPD2    C5 6967   3.518   0.398  10.224 -0.1249  0.0942  0.1770
  468MPD2     H 6968   3.815   0.466  10.450  0.6952  0.4540  0.0632
  468MPD2    H1 6969   3.548   0.186  10.279  2.9528 -0.0670 -1.8373
  468MPD2    H2 6970   3.529   0.607  10.165 -1.2296 -0.7774 -0.3165
  468MPD2    H3 6971   3.435   0.377  10.158 -0.3600 -1.1554  0.8582
  468MPD2     N 6972   3.733   0.211  10.453 -0.0918  1.0159  0.0543
  468MPD2    H5 6973   3.677   0.127  10.447  1.5368 -0.1133  0.6253
  468MPD2    N1 6974   3.722   0.686  10.341  0.2243 -0.3013  0.2324
  468MPD2    H7 6975   3.813   0.696  10.385  0.4365  0.5393 -0.3915
  469TMC3    C1 6976   3.714   0.925  10.364 -0.6248  0.2503 -0.2981
  469TMC3    C2 6977   3.846   0.926  10.379 -0.3306 -0.1180  0.4751
  469TMC3    C3 6978   3.903   1.023  10.455 -0.6210  0.0879 -0.2679
  469TMC3    C4 6979   3.633   1.014  10.429 -0.0775 -0.2596  0.0559
  469TMC3    C5 6980   3.690   1.108  10.511  0.9496 -0.3494 -0.8521
  469TMC3    C6 6981   3.825   1.122  10.517  0.2139 -0.1091 -0.1490
  469TMC3     C 6982   3.651   0.803  10.319  1.5132 -0.1633  0.0294
  469TMC3     O 6983   3.537   0.819  10.274  0.0535  0.6820 -0.2942
  469TMC3     H 6984   3.908   0.860  10.319 -2.4038 -1.9885  0.4164
  469TMC3    H1 6985   3.526   1.002  10.414  0.0902  1.1128 -2.2905
  469TMC3    H2 6986   3.882   1.194  10.576 -1.1454  0.8468  0.0012
  469TMC3    C7 6987   3.620   1.203  10.592 -0.1061 -0.1286  0.6093
  469TMC3    C8 6988   4.029   0.983  10.523 -0.8339  0.0280  0.2461
  469TMC3    O1 6989   3.684   1.280  10.656 -0.1258 -0.2839 -0.0214
  469TMC3    O2 6990   4.088   0.894  10.466  0.0649  0.2455  0.1907
  470TMC3    C1 6991   2.288   1.817   0.381 -0.3259 -0.1230  0.4000
  470TMC3    C2 6992   2.338   1.913   0.470  0.5957  0.6046  0.3097
  470TMC3    C3 6993   2.376   1.869   0.596 -0.2531 -0.7897  0.1327
  470TMC3    C4 6994   2.267   1.693   0.419 -0.5179  0.8588  0.3025
  470TMC3    C5 6995   2.299   1.651   0.542 -0.6402  0.9679  0.4802
  470TMC3    C6 6996   2.340   1.740   0.638  0.2599  0.1488  0.5761
  470TMC3     C 6997   2.280   1.851   0.242  0.0474 -0.5510 -0.0176
  470TMC3     O 6998   2.200   1.779   0.175  0.0290  0.2075 -0.0115
  470TMC3     H 6999   2.334   2.019   0.449 -0.5113 -0.0196 -2.5728
  470TMC3    H1 7000   2.233   1.615   0.352  0.0684  0.1019  0.8830
  470TMC3    H2 7001   2.375   1.701   0.733  0.1236 -1.2005  0.0683
  470TMC3    C7 7002   2.314   1.509   0.551  0.2522  0.0915  0.6929
  470TMC3    C8 7003   2.404   1.968   0.703  0.4368 -0.5817 -0.1211
  470TMC3    O1 7004   2.319   1.442   0.446 -0.2984 -0.0154  0.0831
  470TMC3    O2 7005   2.373   1.933   0.814  0.1369 -0.1308 -0.4600
  471MPD2     C 7006   1.906   2.648  16.528 -0.6530  0.3319 -0.4959
  471MPD2    C1 7007   1.869   2.517  16.515  0.2174  0.0450 -0.5179
  471MPD2    C2 7008   1.848   2.441  16.632  0.0552  0.5038  0.0314
  471MPD2    C3 7009   1.882   2.500  16.756 -0.1916  0.0250 -0.0403
  471MPD2    C4 7010   1.919   2.634  16.766  0.5062 -0.2636 -0.5764
  471MPD2    C5 7011   1.939   2.697  16.646 -0.0883  0.2232  0.1621
  471MPD2     H 7012   1.798   2.345  16.623  0.8360  0.0964  0.0580
  471MPD2    H1 7013   1.961   2.670  16.859 -0.9611 -1.9952  0.7610
  471MPD2    H2 7014   1.942   2.711  16.447 -0.0382  3.1997  2.0369
  471MPD2    H3 7015   1.980   2.795  16.667 -0.6529  0.4958 -0.0101
  471MPD2     N 7016   1.878   2.427  16.882  0.2229 -0.4321 -0.1394
  471MPD2    H5 7017   1.932   2.468  16.957 -0.8579 -0.1568  0.4908
  471MPD2    N1 7018   1.851   2.459  16.392 -0.7352  0.4703 -0.1062
  471MPD2    H7 7019   1.790   2.378  16.404  0.3149 -0.2692  0.2120
  472TMC3    C1 7020   1.877   2.407  16.170 -0.3702 -0.4869 -0.3046
  472TMC3    C2 7021   1.760   2.348  16.171  0.1344  0.5178  0.4007
  472TMC3    C3 7022   1.756   2.214  16.185 -0.1113  0.0636  0.8555
  472TMC3    C4 7023   1.992   2.336  16.182 -0.3812 -0.3378 -0.2815
  472TMC3    C5 7024   1.991   2.205  16.193  0.6999  0.3937  0.0630
  472TMC3    C6 7025   1.870   2.139  16.200  0.6963 -0.3052  0.0407
  472TMC3     C 7026   1.889   2.509  16.268 -0.1270 -0.0090  0.0864
  472TMC3     O 7027   1.975   2.595  16.247 -0.1264  0.0020 -0.5505
  472TMC3     H 7028   1.670   2.403  16.198 -1.2801 -1.3028 -0.6160
  472TMC3    H1 7029   2.086   2.388  16.198 -0.5359 -0.8362  2.2792
  472TMC3    H2 7030   1.866   2.034  16.225  0.1843 -0.4916 -0.8323
  472TMC3    C7 7031   2.073   2.136  16.296  0.6264 -0.5783 -0.2429
  472TMC3    C8 7032   1.634   2.160  16.136 -0.1164  0.0974 -0.4303
  472TMC3    O1 7033   2.093   2.014  16.276 -0.3281 -0.2964 -0.1847
  472TMC3    O2 7034   1.591   2.216  16.032 -0.2358  0.7955  0.0032
  473MPD2     C 7035   1.501   4.690  13.745  0.2852 -0.4095  0.5900
  473MPD2    C1 7036   1.584   0.025  13.655 -0.2548 -0.0004  0.2402
  473MPD2    C2 7037   1.682   0.107  13.700 -0.5378  0.5254 -0.1144
  473MPD2    C3 7038   1.690   0.144  13.834 -0.0755  0.1388  0.0287
  473MPD2    C4 7039   1.596   0.086  13.922  0.4700 -0.6196 -0.4272
  473MPD2    C5 7040   1.506   4.725  13.876  0.4857 -0.5348  0.2366
  473MPD2     H 7041   1.754   0.150  13.632 -1.1097 -0.7199 -1.5006
  473MPD2    H1 7042   1.587   0.114  14.027 -0.8530 -0.7323 -0.5084
  473MPD2    H2 7043   1.429   4.610  13.726  1.6461 -1.4090 -0.3613
  473MPD2    H3 7044   1.430   4.679  13.938  0.1362  0.3057  0.4387
  473MPD2     N 7045   1.769   0.262  13.877  0.1981  0.7685  0.3084
  473MPD2    H5 7046   1.816   0.312  13.803  0.1564  1.0300  0.4569
  473MPD2    N1 7047   1.583   4.709  13.513  0.2374  0.1293 -0.1407
  473MPD2    H7 7048   1.654   0.024  13.454 -0.6473 -2.6403 -3.1453
  474TMC3    C1 7049   1.852   0.430  14.017 -0.0928  0.3904  0.2454
  474TMC3    C2 7050   1.835   0.513  13.915 -0.4740 -0.2061 -0.2673
  474TMC3    C3 7051   1.915   0.622  13.906 -0.1391 -0.3035  0.5437
  474TMC3    C4 7052   1.942   0.452  14.119  0.1419 -1.5992 -0.5427
  474TMC3    C5 7053   2.033   0.552  14.102 -0.1486  0.3739 -0.0224
  474TMC3    C6 7054   2.022   0.640  13.996 -0.2505  0.4488 -0.0543
  474TMC3     C 7055   1.790   0.299  14.006 -0.8636 -0.1230  0.8303
  474TMC3     O 7056   1.775   0.230  14.105  0.4933  0.0941 -0.0823
  474TMC3     H 7057   1.751   0.502  13.848 -1.3657 -2.2794  1.2012
  474TMC3    H1 7058   1.956   0.373  14.192 -2.3738 -0.9830  0.5965
  474TMC3    H2 7059   2.107   0.704  13.975  0.7168 -0.4838  1.0871
  474TMC3    C7 7060   2.167   0.519  14.153 -0.1406 -0.0310 -0.0763
  474TMC3    C8 7061   1.883   0.724  13.804 -0.2093 -0.3943  0.3899
  474TMC3    O1 7062   2.256   0.532  14.068  0.4076 -0.4570  0.6159
  474TMC3    O2 7063   1.850   0.682  13.695  0.2664 -0.4184 -0.2236
  475MPD2     C 7064   0.618   2.828   9.948  0.0447  0.4118 -0.0894
  475MPD2    C1 7065   0.598   2.947  10.014 -0.3076 -0.0844 -0.5055
  475MPD2    C2 7066   0.466   2.976  10.034 -0.1710  0.2465 -0.6171
  475MPD2    C3 7067   0.367   2.890  10.003  0.6162 -0.0251 -0.3881
  475MPD2    C4 7068   0.393   2.765   9.957 -0.1463 -0.5597  0.0564
  475MPD2    C5 7069   0.520   2.735   9.923  0.6135 -0.1252  0.3492
  475MPD2     H 7070   0.444   3.075  10.072 -0.7572 -0.3836  0.7055
  475MPD2    H1 7071   0.319   2.691   9.928 -1.1867 -0.6078  2.7495
  475MPD2    H2 7072   0.720   2.811   9.917  0.2760  1.9240 -0.1151
  475MPD2    H3 7073   0.546   2.641   9.874 -0.8853 -0.7523  0.7304
  475MPD2     N 7074   0.231   2.941  10.009 -0.1135  0.6231 -0.1643
  475MPD2    H5 7075   0.225   3.039  10.038  2.1927  0.5600  0.5528
  475MPD2    N1 7076   0.693   3.044  10.056  0.2677  0.1621  0.1578
  475MPD2    H7 7077   0.657   3.124  10.106 -1.2495 -1.2073  1.2732
  476TMC3    C1 7078   0.862   3.188  10.019 -0.1008 -0.2311 -0.0136
  476TMC3    C2 7079   0.825   3.268   9.915 -0.2969  0.7748 -0.5467
  476TMC3    C3 7080   0.759   3.384   9.941 -0.3238 -0.2046 -0.1352
  476TMC3    C4 7081   0.838   3.223  10.152  0.6612 -0.6227 -0.4922
  476TMC3    C5 7082   0.779   3.343  10.176 -0.2500 -0.1116 -0.1117
  476TMC3    C6 7083   0.744   3.425  10.072  0.7354  0.7705  0.1514
  476TMC3     C 7084   0.818   3.049   9.995  0.5475 -0.1344  0.3296
  476TMC3     O 7085   0.872   2.996   9.899 -0.3511  0.2296 -0.3063
  476TMC3     H 7086   0.823   3.224   9.815  0.1957 -2.1019  0.6908
  476TMC3    H1 7087   0.852   3.147  10.229 -1.2188 -0.5591 -0.0737
  476TMC3    H2 7088   0.671   3.502  10.094 -1.5647 -1.3945  0.0067
  476TMC3    C7 7089   0.674   3.325  10.273 -0.1341  0.5462  0.5245
  476TMC3    C8 7090   0.638   3.402   9.868  0.8751 -0.2452  0.1640
  476TMC3    O1 7091   0.601   3.228  10.248 -0.5578  0.0749 -0.1772
  476TMC3    O2 7092   0.589   3.512   9.868 -0.2133  0.4765  0.1243
  477MPD2     C 7093   2.729   0.176  11.719 -0.7251  0.7393 -0.2739
  477MPD2    C1 7094   2.678   0.090  11.631  0.0357  0.6467  0.0960
  477MPD2    C2 7095   2.690   4.679  11.666 -0.0280  0.7729 -0.4466
  477MPD2    C3 7096   2.737   4.629  11.786 -0.4420  0.5589 -0.1230
  477MPD2    C4 7097   2.779   4.717  11.878 -0.0076  0.2346 -0.3441
  477MPD2    C5 7098   2.784   0.122  11.833 -0.2757 -0.9180  0.7215
  477MPD2     H 7099   2.651   4.603  11.599 -2.5199  0.0574  1.8170
  477MPD2    H1 7100   2.830   4.703  11.972  0.4897 -1.2642 -0.8370
  477MPD2    H2 7101   2.741   0.283  11.702 -0.7759  0.8243  0.2149
  477MPD2    H3 7102   2.822   0.196  11.903 -0.2849 -0.6854  0.4762
  477MPD2     N 7103   2.715   4.490  11.811  0.5455  0.5510 -0.6048
  477MPD2    H5 7104   2.659   4.442  11.742  1.7066 -0.2407 -0.9987
  477MPD2    N1 7105   2.607   0.133  11.513  0.4129 -0.0813 -1.0340
  477MPD2    H7 7106   2.603   0.233  11.493  1.1808  0.1247 -0.1104
  478TMC3    C1 7107   2.441   0.117  11.346 -0.5542  1.2299 -0.0357
  478TMC3    C2 7108   2.371   0.223  11.391  0.6147  0.4507 -0.3089
  478TMC3    C3 7109   2.282   0.287  11.306  0.0377 -0.9254 -0.7329
  478TMC3    C4 7110   2.419   0.073  11.218  0.5958  0.4558 -0.4449
  478TMC3    C5 7111   2.330   0.141  11.131  0.2022 -0.4383 -0.5725
  478TMC3    C6 7112   2.259   0.251  11.176 -0.3080 -0.7892 -0.1730
  478TMC3     C 7113   2.539   0.051  11.428  0.0528  0.3085 -0.1069
  478TMC3     O 7114   2.561   4.665  11.392  0.0547  0.2785  0.1200
  478TMC3     H 7115   2.399   0.260  11.489  0.4291 -1.5499  0.4983
  478TMC3    H1 7116   2.475   4.716  11.175  0.2616 -0.8578  1.6636
  478TMC3    H2 7117   2.199   0.307  11.104 -0.3896  0.3217  0.7579
  478TMC3    C7 7118   2.371   0.139  10.992  0.4402 -0.4273  0.5044
  478TMC3    C8 7119   2.243   0.421  11.354 -0.1232  0.0885 -0.2202
  478TMC3    O1 7120   2.490   0.116  10.962  0.1056  0.3667 -0.2091
  478TMC3    O2 7121   2.310   0.446  11.453 -0.2155  0.0709  0.4774
  479MPD2     C 7122   1.660   2.021  14.720  0.6584 -0.1651  0.9106
  479MPD2    C1 7123   1.614   1.927  14.812  0.2383 -0.4785  0.6516
  479MPD2    C2 7124   1.675   1.907  14.930 -0.1394  0.3441 -0.3115
  479MPD2    C3 7125   1.786   1.983  14.960 -0.7625 -0.5732  0.4679
  479MPD2    C4 7126   1.830   2.073  14.864  0.1041  0.1278 -0.0903
  479MPD2    C5 7127   1.769   2.094  14.746  0.8700  0.3798 -0.0142
  479MPD2     H 7128   1.628   1.843  15.004  1.8965  0.6080  1.2327
  479MPD2    H1 7129   1.909   2.144  14.887  0.2501 -0.1982  0.4125
  479MPD2    H2 7130   1.600   2.036  14.630  0.0099  0.7888  1.5010
  479MPD2    H3 7131   1.796   2.177  14.682  2.3209  1.2488  1.7178
  479MPD2     N 7132   1.844   1.985  15.092  0.1704  0.5410 -0.0169
  479MPD2    H5 7133   1.938   2.022  15.091  0.5554 -0.5465 -2.5530
  479MPD2    N1 7134   1.500   1.861  14.768 -0.1105  0.1365  0.7814
  479MPD2    H7 7135   1.469   1.867  14.671  0.3004 -0.7786  0.5908
  480TMC3    C1 7136   1.465   1.870  15.365 -0.0383 -0.4478 -0.4261
  480TMC3    C2 7137   1.394   1.976  15.313  0.5627 -0.3188 -0.9995
  480TMC3    C3 7138   1.450   2.062  15.224 -0.6752 -0.3058  0.7152
  480TMC3    C4 7139   1.596   1.861  15.338 -0.3545 -0.0975 -0.0409
  480TMC3    C5 7140   1.650   1.944  15.237 -0.4531 -0.2278 -0.3414
  480TMC3    C6 7141   1.584   2.054  15.188 -0.1811 -0.7793 -0.9718
  480TMC3     C 7142   1.404   1.774  15.468  0.4362  0.5621  0.7308
  480TMC3     O 7143   1.485   1.715  15.530 -0.3588 -0.4299  0.2162
  480TMC3     H 7144   1.288   1.989  15.332  0.3873 -1.6375 -1.0702
  480TMC3    H1 7145   1.657   1.778  15.373 -1.7404 -2.1341 -2.4425
  480TMC3    H2 7146   1.630   2.125  15.120  0.2208  0.3401  0.4563
  480TMC3    C7 7147   1.794   1.941  15.212 -0.3051  0.2000  0.0090
  480TMC3    C8 7148   1.353   2.102  15.132 -0.5730 -0.3826  0.2048
  480TMC3    O1 7149   1.851   1.925  15.319  0.2742 -0.1207  0.0648
  480TMC3    O2 7150   1.239   2.127  15.169  0.9753  0.2096 -0.2600
  481MPD2     C 7151   3.321   1.838  14.166  0.2948 -0.0240  0.3614
  481MPD2    C1 7152   3.223   1.743  14.169  0.1036  0.6244 -0.0963
  481MPD2    C2 7153   3.187   1.683  14.292 -0.4831 -0.2440 -0.0200
  481MPD2    C3 7154   3.254   1.720  14.405  0.4263  0.0214 -1.0852
  481MPD2    C4 7155   3.363   1.801  14.405 -0.3883 -0.8919 -0.0832
  481MPD2    C5 7156   3.394   1.861  14.284  0.3265 -0.2249 -0.4684
  481MPD2     H 7157   3.108   1.611  14.310 -2.1463  1.5265 -0.2706
  481MPD2    H1 7158   3.412   1.828  14.498 -1.1951 -0.3273  0.1748
  481MPD2    H2 7159   3.345   1.905  14.084  1.0779 -0.9041 -0.1237
  481MPD2    H3 7160   3.476   1.932  14.291  1.0123 -0.8759 -1.8133
  481MPD2     N 7161   3.229   1.665  14.532  0.3861 -0.1120  0.0782
  481MPD2    H5 7162   3.288   1.699  14.607  0.3269  0.0793  0.0382
  481MPD2    N1 7163   3.148   1.721  14.048 -0.4520 -0.1696 -0.2667
  481MPD2    H7 7164   3.188   1.769  13.968 -1.1492  1.3596  0.2861
  482TMC3    C1 7165   2.960   1.668  13.903  0.6503 -0.5979 -0.2533
  482TMC3    C2 7166   2.849   1.589  13.881  0.2135 -0.5776 -0.1400
  482TMC3    C3 7167   2.810   1.576  13.746  0.6965 -0.8223  0.0396
  482TMC3    C4 7168   3.032   1.731  13.800  0.5988 -0.1220  0.3579
  482TMC3    C5 7169   2.978   1.723  13.676  0.7115 -0.2660 -0.2506
  482TMC3    C6 7170   2.865   1.652  13.651  0.1248  0.2434  0.8233
  482TMC3     C 7171   3.021   1.657  14.041  0.4395 -0.4946 -0.4352
  482TMC3     O 7172   2.960   1.594  14.130  0.2476  0.1799  0.3497
  482TMC3     H 7173   2.816   1.534  13.968 -1.9044  0.3626 -0.3527
  482TMC3    H1 7174   3.106   1.810  13.809 -0.0044  0.8631 -3.0217
  482TMC3    H2 7175   2.821   1.643  13.552 -1.0734  1.0584  1.2916
  482TMC3    C7 7176   3.006   1.835  13.585 -0.5769  0.1246  0.0849
  482TMC3    C8 7177   2.730   1.463  13.703  0.7597  0.8028 -0.1116
  482TMC3    O1 7178   3.067   1.930  13.631 -0.4459 -0.2532 -0.7472
  482TMC3    O2 7179   2.712   1.378  13.790  0.6504 -0.1023  0.4077
  483TMC3    C1 7180   1.910   0.006   1.444 -0.0656 -0.5751  0.0788
  483TMC3    C2 7181   1.935   0.141   1.423  0.0604  0.2297  0.2418
  483TMC3    C3 7182   2.001   0.180   1.305 -0.0456  0.0134  0.2072
  483TMC3    C4 7183   1.963   4.640   1.362 -0.0516 -0.3795 -0.5093
  483TMC3    C5 7184   2.036   4.676   1.261  0.4170  0.3060 -0.0424
  483TMC3    C6 7185   2.051   0.079   1.235  0.2949  0.2473 -1.0421
  483TMC3     C 7186   1.827   4.694   1.554 -0.0392 -0.1441  0.0978
  483TMC3     O 7187   1.844   0.032   1.658 -0.0646 -0.8071  0.8907
  483TMC3     H 7188   1.892   0.212   1.492  0.5007 -0.8758  1.6594
  483TMC3    H1 7189   1.939   4.536   1.379 -0.7674 -0.4390 -1.9122
  483TMC3    H2 7190   2.109   0.117   1.152 -0.7364 -1.7414 -2.6763
  483TMC3    C7 7191   2.015   4.587   1.150 -0.2135 -0.0836 -0.7728
  483TMC3    C8 7192   1.935   0.275   1.217 -0.2433  0.3084 -0.3777
  483TMC3    O1 7193   2.005   4.467   1.171  0.3349 -0.7712  0.0196
  483TMC3    O2 7194   1.936   0.249   1.096  0.0637 -0.3457  0.1643
  484MPD2     C 7195   3.663   3.374  12.158  0.6552 -0.3067  0.3715
  484MPD2    C1 7196   3.705   3.399  12.289 -0.5644  0.9305  0.3050
  484MPD2    C2 7197   3.832   3.439  12.308  0.0043 -0.6512  0.0218
  484MPD2    C3 7198   3.921   3.451  12.200 -0.9507  0.0180  0.2861
  484MPD2    C4 7199   3.878   3.419  12.069 -0.0400 -0.4932  0.7347
  484MPD2    C5 7200   3.748   3.387  12.052 -0.0532  0.3772  0.4022
  484MPD2     H 7201   3.874   3.477  12.400 -1.7970  2.2204 -0.3515
  484MPD2    H1 7202   3.946   3.404  11.986 -0.6463  0.6508  0.0376
  484MPD2    H2 7203   3.565   3.339  12.125  0.6627 -0.5470  0.6066
  484MPD2    H3 7204   3.708   3.359  11.956  0.2257 -0.2309  0.4563
  484MPD2     N 7205   4.054   3.494  12.206 -0.1586 -0.3458  0.1980
  484MPD2    H5 7206   4.102   3.498  12.116  1.0716  0.4135  0.8911
  484MPD2    N1 7207   3.604   3.399  12.387 -0.5846 -0.3010 -0.4201
  484MPD2    H7 7208   3.512   3.384  12.347 -1.8773 -0.5442  2.6866
  485TMC3    C1 7209   4.234   3.597  12.295 -0.6839 -0.0511 -0.0583
  485TMC3    C2 7210   4.347   3.540  12.352 -0.0509  0.7168 -0.2347
  485TMC3    C3 7211   4.469   3.560  12.286  0.2637 -0.2864  0.3446
  485TMC3    C4 7212   4.238   3.661  12.170 -0.4286 -0.0463  0.6662
  485TMC3    C5 7213   4.363   3.667  12.107 -0.3625 -0.5761 -0.3506
  485TMC3    C6 7214   4.477   3.642  12.174  1.2608  0.1341 -0.2680
  485TMC3     C 7215   4.119   3.520  12.325  1.0494  1.0269 -0.4844
  485TMC3     O 7216   4.089   3.492  12.442  0.7285  0.5168 -0.1779
  485TMC3     H 7217   4.347   3.481  12.443 -0.3441  0.4562 -0.4072
  485TMC3    H1 7218   4.151   3.704  12.122  0.2469 -3.2711 -3.4869
  485TMC3    H2 7219   4.566   3.632  12.113  1.0015  0.1684 -0.6518
  485TMC3    C7 7220   4.346   3.588  11.982  0.1429 -0.0565  0.1518
  485TMC3    C8 7221   4.565   3.461  12.299 -0.3531 -0.0317  0.2046
  485TMC3    O1 7222   4.252   3.511  11.981 -0.1215 -0.1791  0.4234
  485TMC3    O2 7223   4.588   3.405  12.193  0.3029 -0.0127 -0.2276
  486MPD2     C 7224   0.871   2.135  12.300 -0.2099 -0.1714 -0.3899
  486MPD2    C1 7225   0.778   2.056  12.363 -0.4248  0.2493  0.5043
  486MPD2    C2 7226   0.657   2.112  12.402 -0.2904 -0.1574 -0.0701
  486MPD2    C3 7227   0.649   2.247  12.396  0.0167  0.2500 -0.1519
  486MPD2    C4 7228   0.740   2.322  12.320 -0.4145  0.2419  0.5634
  486MPD2    C5 7229   0.849   2.265  12.265 -1.0084 -0.4335 -0.2913
  486MPD2     H 7230   0.581   2.055  12.454 -0.0629 -0.3295  0.0709
  486MPD2    H1 7231   0.741   2.429  12.305 -1.6715  0.4732  2.1045
  486MPD2    H2 7232   0.961   2.092  12.258  1.1324  0.9778  1.3478
  486MPD2    H3 7233   0.910   2.325  12.197  1.3057 -1.1683  1.1386
  486MPD2     N 7234   0.536   2.298  12.466  0.0001 -0.1645 -0.1086
  486MPD2    H5 7235   0.481   2.230  12.518  1.6167 -1.4730 -0.1560
  486MPD2    N1 7236   0.805   1.921  12.397 -0.2049  0.4686  0.0209
  486MPD2    H7 7237   0.896   1.883  12.375 -0.6277  1.4946 -3.5377
  487TMC3    C1 7238   0.782   1.700  12.481 -0.1026 -0.3257 -0.0708
  487TMC3    C2 7239   0.709   1.620  12.562  0.0442 -0.5127 -0.3584
  487TMC3    C3 7240   0.724   1.484  12.537  0.4424 -0.2439 -0.2717
  487TMC3    C4 7241   0.882   1.653  12.400 -0.6308  0.4230 -0.0138
  487TMC3    C5 7242   0.896   1.521  12.385 -0.3274 -0.4937  0.0201
  487TMC3    C6 7243   0.810   1.430  12.447 -0.2984  0.3670  0.4088
  487TMC3     C 7244   0.720   1.828  12.456 -0.3934 -0.5310  0.6699
  487TMC3     O 7245   0.608   1.842  12.500 -0.0665 -0.2041  0.2693
  487TMC3     H 7246   0.636   1.661  12.630  0.5700 -0.1263 -0.0251
  487TMC3    H1 7247   0.942   1.716  12.337 -0.8204  1.9909  1.3679
  487TMC3    H2 7248   0.817   1.321  12.448 -0.1433  0.3547 -2.5865
  487TMC3    C7 7249   1.036   1.497  12.418  0.3667 -0.0997  0.3100
  487TMC3    C8 7250   0.616   1.394  12.576 -0.1422 -0.3026  0.3586
  487TMC3    O1 7251   1.101   1.588  12.470 -0.1792  0.2891  0.0460
  487TMC3    O2 7252   0.635   1.273  12.587  0.0328  0.2168 -0.2173
  488MPD2     C 7253   0.974   3.715  15.965  0.2089  0.6251  0.3007
  488MPD2    C1 7254   1.028   3.806  16.053  0.3362 -0.1339 -0.4028
  488MPD2    C2 7255   0.994   3.782  16.187 -0.0723  0.4780 -1.1889
  488MPD2    C3 7256   0.925   3.674  16.231 -0.2803  0.0112 -0.3300
  488MPD2    C4 7257   0.878   3.580  16.134  0.6276 -0.7142  0.1490
  488MPD2    C5 7258   0.893   3.610  16.002 -0.0300  0.3571 -0.4992
  488MPD2     H 7259   1.027   3.853  16.262 -1.0860 -2.1521  1.7476
  488MPD2    H1 7260   0.823   3.492  16.167 -0.2466  0.5105  1.9360
  488MPD2    H2 7261   1.011   3.717  15.863  0.1420  2.2194  0.3179
  488MPD2    H3 7262   0.863   3.537  15.928 -1.7037  1.3438 -0.7850
  488MPD2     N 7263   0.917   3.663  16.372  0.8977 -0.1841 -0.5221
  488MPD2    H5 7264   0.962   3.732  16.432  0.2298  0.9189 -1.3095
  488MPD2    N1 7265   1.116   3.911  16.022 -0.3264 -0.4614 -0.1644
  488MPD2    H7 7266   1.141   3.971  16.100  0.3821  0.2481 -0.9279
  489TMC3    C1 7267   0.866   3.558  16.574 -0.1400 -0.4346  0.6699
  489TMC3    C2 7268   0.881   3.682  16.625 -0.1108  0.2404  0.2351
  489TMC3    C3 7269   0.924   3.697  16.754 -0.1537 -0.6101  0.0006
  489TMC3    C4 7270   0.886   3.446  16.643  0.5900  0.8238 -0.6252
  489TMC3    C5 7271   0.937   3.456  16.771  0.2812 -0.4922  0.1396
  489TMC3    C6 7272   0.949   3.583  16.829 -0.3747  0.4490  0.2366
  489TMC3     C 7273   0.861   3.550  16.429 -1.0178  0.0926 -0.2614
  489TMC3     O 7274   0.843   3.441  16.379  0.3732 -0.0506 -0.0550
  489TMC3     H 7275   0.860   3.778  16.578  0.6826 -0.0675 -0.7447
  489TMC3    H1 7276   0.882   3.350  16.594 -1.7898  0.8936 -0.5330
  489TMC3    H2 7277   0.967   3.575  16.936  1.0088  1.9155  0.1162
  489TMC3    C7 7278   0.955   3.334  16.854 -0.0280  0.2447 -0.5402
  489TMC3    C8 7279   0.944   3.836  16.794 -0.0997 -0.2965 -0.0835
  489TMC3    O1 7280   1.004   3.349  16.965  0.0054 -0.0976  0.1739
  489TMC3    O2 7281   0.907   3.930  16.727 -0.5190 -0.3103  0.4439
  490MPD2     C 7282   1.621   2.866  16.671  0.4399  0.7232 -0.5525
  490MPD2    C1 7283   1.651   2.837  16.809 -0.1899 -0.5579 -0.3057
  490MPD2    C2 7284   1.717   2.930  16.884 -0.0769  0.0431 -0.1772
  490MPD2    C3 7285   1.760   3.046  16.829 -0.9593 -0.0717 -0.0769
  490MPD2    C4 7286   1.742   3.071  16.695  0.8534 -0.1525 -0.6813
  490MPD2    C5 7287   1.663   2.985  16.622  0.1648  0.2283  0.0191
  490MPD2     H 7288   1.744   2.902  16.985 -1.2483 -2.6157 -0.5872
  490MPD2    H1 7289   1.782   3.161  16.650 -1.0885  1.5885  1.1129
  490MPD2    H2 7290   1.573   2.800  16.600 -2.1534  0.1476  1.7407
  490MPD2    H3 7291   1.652   3.005  16.516 -0.7328  3.4738  0.7183
  490MPD2     N 7292   1.839   3.141  16.898  0.2397  0.4782 -0.1774
  490MPD2    H5 7293   1.876   3.217  16.842  0.7183  0.8469  0.6282
  490MPD2    N1 7294   1.614   2.717  16.874  0.4732  0.0520  0.1818
  490MPD2    H7 7295   1.643   2.699  16.970  0.0760  0.3837  0.3598
  491TMC3    C1 7296   1.527   2.503  16.887 -0.3048  0.1021  0.3299
  491TMC3    C2 7297   1.495   2.523  17.016 -0.0366  0.4440  0.3953
  491TMC3    C3 7298   1.429   2.425  17.091 -0.6218 -0.3390  0.2266
  491TMC3    C4 7299   1.504   2.384  16.824 -0.4164  0.1080 -0.2682
  491TMC3    C5 7300   1.441   2.285  16.900  0.0072 -0.8227  0.7048
  491TMC3    C6 7301   1.396   2.307  17.026 -0.1335  0.1997  0.1186
  491TMC3     C 7302   1.567   2.609  16.802 -0.5637 -0.2803  0.3952
  491TMC3     O 7303   1.541   2.593  16.684  0.1222 -0.1426 -0.3639
  491TMC3     H 7304   1.499   2.619  17.067 -0.3322 -0.1054  1.4528
  491TMC3    H1 7305   1.532   2.365  16.721  2.2875  2.0178  0.0973
  491TMC3    H2 7306   1.334   2.238  17.082  0.4788 -0.1408  0.3780
  491TMC3    C7 7307   1.440   2.150  16.843  0.2666 -0.0605 -0.3422
  491TMC3    C8 7308   1.385   2.449  17.230  0.4105  0.2548  0.1769
  491TMC3    O1 7309   1.448   2.139  16.723 -0.4684 -0.1049 -0.7451
  491TMC3    O2 7310   1.358   2.563  17.267 -0.3499  0.0628  0.0760
  492MPD2     C 7311   2.529   3.139  11.147 -0.2408 -0.6123  0.4028
  492MPD2    C1 7312   2.466   3.054  11.059 -0.0802 -0.1183 -0.2817
  492MPD2    C2 7313   2.356   2.979  11.108 -0.3103 -0.2626  0.6132
  492MPD2    C3 7314   2.312   2.980  11.236  0.6990  0.0055  0.0987
  492MPD2    C4 7315   2.366   3.070  11.311  0.7144 -0.3593 -0.3238
  492MPD2    C5 7316   2.474   3.141  11.274 -0.4568 -0.0815  0.2268
  492MPD2     H 7317   2.300   2.913  11.043 -0.2630 -1.0349  1.3585
  492MPD2    H1 7318   2.331   3.084  11.413  0.3684  0.7232 -0.5869
  492MPD2    H2 7319   2.612   3.205  11.121 -1.1063  0.8785  1.4013
  492MPD2    H3 7320   2.508   3.215  11.346  1.9709 -0.3602 -0.6392
  492MPD2     N 7321   2.202   2.911  11.288 -0.3732  0.0525 -0.2795
  492MPD2    H5 7322   2.184   2.929  11.387 -1.7680  0.1552 -0.5422
  492MPD2    N1 7323   2.502   3.058  10.917 -0.1664 -0.3961 -0.7239
  492MPD2    H7 7324   2.580   3.119  10.895 -0.0503  0.4807  2.1314
  493TMC3    C1 7325   2.463   3.083  10.688 -0.4250  0.2326 -0.4259
  493TMC3    C2 7326   2.496   3.216  10.705  1.3131 -0.2742  0.1269
  493TMC3    C3 7327   2.483   3.298  10.596 -0.2823  0.2796  0.0287
  493TMC3    C4 7328   2.398   3.037  10.568  0.1308 -0.6070  0.1641
  493TMC3    C5 7329   2.375   3.129  10.468 -0.4795  0.0509 -0.3315
  493TMC3    C6 7330   2.415   3.260  10.484  1.2044  0.1995 -0.7013
  493TMC3     C 7331   2.436   3.003  10.809 -0.3018 -0.0333  0.5539
  493TMC3     O 7332   2.342   2.921  10.803 -0.7696 -0.4612  0.1805
  493TMC3     H 7333   2.545   3.252  10.794  0.5005  1.0293  0.0383
  493TMC3    H1 7334   2.365   2.934  10.574 -2.4442  0.0076 -3.1847
  493TMC3    H2 7335   2.401   3.328  10.400  0.7856  2.0738  0.8910
  493TMC3    C7 7336   2.273   3.090  10.365 -0.5567  0.0387 -0.9747
  493TMC3    C8 7337   2.532   3.432  10.623 -1.0736  0.3324  0.2565
  493TMC3    O1 7338   2.228   3.180  10.297 -0.3540 -0.3467 -0.4653
  493TMC3    O2 7339   2.519   3.478  10.736  0.0260 -0.5134  0.2591
  494TMC3    C1 7340   2.408   0.512   0.187  0.2078  0.4120  0.1536
  494TMC3    C2 7341   2.384   0.382   0.165 -0.3721  0.1747  0.2511
  494TMC3    C3 7342   2.407   0.338   0.035  0.1617  0.4921  0.4692
  494TMC3    C4 7343   2.451   0.593   0.092  0.2749 -0.8528 -0.5226
  494TMC3    C5 7344   2.467   0.544  17.672  0.4346 -0.9935 -0.0734
  494TMC3    C6 7345   2.456   0.412  17.643  0.5404  0.4307  0.2233
  494TMC3     C 7346   2.355   0.564   0.305  0.2931  0.3714  1.0385
  494TMC3     O 7347   2.320   0.492   0.397  0.7689 -0.1905 -0.1864
  494TMC3     H 7348   2.333   0.327   0.244 -1.7163  2.5942  1.0748
  494TMC3    H1 7349   2.477   0.697   0.112 -1.1979 -0.3866 -1.0367
  494TMC3    H2 7350   2.461   0.368  17.544  2.3013 -2.4019  1.5501
  494TMC3    C7 7351   2.533   0.608  17.562 -0.1774  0.1969 -0.6387
  494TMC3    C8 7352   2.451   0.199   0.040 -0.0424  0.4476  0.2143
  494TMC3    O1 7353   2.553   0.538  17.464  0.1296 -0.2158 -0.0409
  494TMC3    O2 7354   2.408   0.127   0.125 -0.4663  0.1862 -0.3642
  495TMC3    C1 7355   1.508   2.183  14.179 -0.0465  0.6025 -0.7235
  495TMC3    C2 7356   1.402   2.232  14.107  1.0487  0.0973  0.3665
  495TMC3    C3 7357   1.331   2.326  14.169  0.3354 -0.0517 -0.0491
  495TMC3    C4 7358   1.552   2.238  14.297  0.4751 -0.1872  0.0448
  495TMC3    C5 7359   1.471   2.325  14.358  1.0934  0.4565 -0.3026
  495TMC3    C6 7360   1.363   2.376  14.295  0.7701  0.5694 -0.1141
  495TMC3     C 7361   1.560   2.050  14.139 -0.2552 -0.5473  0.2554
  495TMC3     O 7362   1.521   2.008  14.033 -0.4894 -0.4193  0.1706
  495TMC3     H 7363   1.374   2.179  14.016  1.4479 -0.0735  0.3381
  495TMC3    H1 7364   1.632   2.195  14.357 -0.6887  0.1869  1.8894
  495TMC3    H2 7365   1.297   2.445  14.348  0.5624  0.9135 -0.8095
  495TMC3    C7 7366   1.466   2.311  14.501 -0.1772 -0.1293 -0.5920
  495TMC3    C8 7367   1.188   2.312  14.138 -0.0339  0.1901 -0.1500
  495TMC3    O1 7368   1.570   2.313  14.561  0.3450  0.5109 -0.5333
  495TMC3    O2 7369   1.111   2.309  14.231 -0.7389 -0.6406  0.3904
  496MPD2     C 7370   3.298   2.187  14.973 -0.4651  0.6850 -0.0131
  496MPD2    C1 7371   3.369   2.103  15.057  0.4728  0.5935 -0.0285
  496MPD2    C2 7372   3.326   2.093  15.188 -0.8096 -0.1162 -0.2673
  496MPD2    C3 7373   3.210   2.146  15.231  0.2891  0.3302  0.4824
  496MPD2    C4 7374   3.137   2.224  15.140 -0.0156  0.0169 -0.0281
  496MPD2    C5 7375   3.182   2.248  15.019 -0.1219  0.4246 -1.1283
  496MPD2     H 7376   3.385   2.036  15.258 -0.6980 -1.0368 -1.1092
  496MPD2    H1 7377   3.040   2.269  15.160 -0.4801 -1.3195  0.6761
  496MPD2    H2 7378   3.333   2.200  14.871  2.7065  0.3654  1.0452
  496MPD2    H3 7379   3.117   2.299  14.949 -2.0323  0.3190  0.5667
  496MPD2     N 7380   3.164   2.119  15.362 -0.1743  0.3237 -0.3607
  496MPD2    H5 7381   3.229   2.070  15.423  2.4569  2.2491 -1.6414
  496MPD2    N1 7382   3.484   2.027  15.011 -0.3733  0.1838 -0.1599
  496MPD2    H7 7383   3.505   2.050  14.914  0.0079  1.4459  0.2150
  497TMC3    C1 7384   3.028   2.074  15.545 -0.3392 -0.7022 -0.2499
  497TMC3    C2 7385   2.942   1.970  15.541  0.1677 -0.4856 -0.1125
  497TMC3    C3 7386   2.961   1.865  15.623 -0.4460  0.2560  0.2103
  497TMC3    C4 7387   3.137   2.069  15.626  0.3149  0.8248  0.5977
  497TMC3    C5 7388   3.163   1.963  15.706 -0.1395  0.1694 -0.3121
  497TMC3    C6 7389   3.074   1.851  15.699  0.0563 -1.0400 -0.1001
  497TMC3     C 7390   3.040   2.141  15.416  0.1603  0.2783  0.6703
  497TMC3     O 7391   2.931   2.164  15.362  0.1466  0.0639 -0.3067
  497TMC3     H 7392   2.845   1.972  15.492  0.8179  2.0530 -1.3286
  497TMC3    H1 7393   3.207   2.150  15.642  0.8701  0.6687 -1.0628
  497TMC3    H2 7394   3.072   1.775  15.776 -0.7036 -0.6402  0.2754
  497TMC3    C7 7395   3.170   2.000  15.845 -0.2710 -0.2350 -0.1656
  497TMC3    C8 7396   2.883   1.747  15.613  0.0174 -0.5129  0.0520
  497TMC3    O1 7397   3.097   1.939  15.923  0.4840 -0.6319 -0.1611
  497TMC3    O2 7398   2.766   1.763  15.583 -0.3776 -0.3772  0.5415
  498MPD2     C 7399   4.703   2.743   9.239  0.1762  0.3316 -0.2336
  498MPD2    C1 7400   4.667   2.846   9.324 -0.1649  0.4689 -0.0083
  498MPD2    C2 7401   4.548   2.834   9.395 -0.3221 -0.1844 -0.0869
  498MPD2    C3 7402   4.469   2.726   9.374  0.2023 -0.8353  0.6349
  498MPD2    C4 7403   4.504   2.621   9.288 -0.1601  0.9267 -0.3841
  498MPD2    C5 7404   4.622   2.637   9.222  0.4089 -0.1990  0.7467
  498MPD2     H 7405   4.526   2.907   9.472  0.6710  0.1252 -0.0939
  498MPD2    H1 7406   4.448   2.529   9.281  1.7851 -0.3129  0.4416
  498MPD2    H2 7407   0.069   2.741   9.183 -0.8111  0.1490 -1.8424
  498MPD2    H3 7408   4.669   2.561   9.161 -1.0401 -1.2419  0.9393
  498MPD2     N 7409   4.356   2.717   9.464 -0.0045  0.7555 -0.4265
  498MPD2    H5 7410   4.337   2.788   9.533 -1.6565  0.1649 -0.2834
  498MPD2    N1 7411   0.023   2.963   9.345 -0.4963 -0.6881  0.3467
  498MPD2    H7 7412   4.708   3.034   9.404  1.2597  1.6088 -1.2111
  499TMC3    C1 7413   0.207   3.109   9.334  0.0684  0.5229  0.5654
  499TMC3    C2 7414   0.345   3.118   9.339  0.2837  0.6001  0.3211
  499TMC3    C3 7415   0.401   3.238   9.373 -0.4644 -0.5933 -0.5141
  499TMC3    C4 7416   0.125   3.220   9.347  0.0115 -0.1438 -0.5404
  499TMC3    C5 7417   0.196   3.339   9.377 -0.4977  0.0529 -0.3249
  499TMC3    C6 7418   0.332   3.352   9.386 -0.4593 -0.3879  0.5315
  499TMC3     C 7419   0.152   2.976   9.303 -0.0434  1.3096  0.0051
  499TMC3     O 7420   0.235   2.891   9.266  0.2758  0.2010  0.2914
  499TMC3     H 7421   0.406   3.038   9.300  0.0874 -0.3270  1.9203
  499TMC3    H1 7422   0.017   3.225   9.332 -0.1610  2.8916  1.4690
  499TMC3    H2 7423   0.380   3.436   9.435 -1.4029  1.8665 -2.4178
  499TMC3    C7 7424   0.114   3.460   9.397 -0.1340  0.5110  0.6909
  499TMC3    C8 7425   0.545   3.255   9.403  0.3799  0.2240  0.2641
  499TMC3    O1 7426   0.177   3.565   9.388 -0.5570 -0.1067  0.3566
  499TMC3    O2 7427   0.602   3.358   9.373  0.6534  0.1183 -0.2672
  500MPD2     C 7428   1.352   4.111  10.296 -0.1893  0.2234  0.7401
  500MPD2    C1 7429   1.365   4.082  10.163  0.1056 -0.6011 -0.2191
  500MPD2    C2 7430   1.260   4.114  10.074 -0.2830  0.3495  0.0682
  500MPD2    C3 7431   1.134   4.151  10.120 -0.0362 -0.2791 -0.6841
  500MPD2    C4 7432   1.121   4.181  10.254 -0.1625 -0.5331 -0.4795
  500MPD2    C5 7433   1.228   4.157  10.349 -1.0756 -0.1066 -0.1330
  500MPD2     H 7434   1.276   4.088   9.970  0.8229  1.8397 -0.1363
  500MPD2    H1 7435   1.021   4.201  10.291 -0.4096 -1.4472 -0.6585
  500MPD2    H2 7436   1.439   4.106  10.360  0.5026  0.3404 -0.1931
  500MPD2    H3 7437   1.224   4.178  10.455 -0.8264  0.3379 -0.2122
  500MPD2     N 7438   1.010   4.177  10.046  0.5692 -0.3851  0.2318
  500MPD2    H5 7439   0.931   4.214  10.098  0.6369  1.1036 -0.7272
  500MPD2    N1 7440   1.494   4.047  10.104 -0.1087 -0.7411  0.4321
  500MPD2    H7 7441   1.505   4.045  10.003  0.2595  0.0471  0.4587
  501TMC3    C1 7442   1.724   3.978  10.076 -0.5730  0.5650  0.2937
  501TMC3    C2 7443   1.731   4.086   9.990 -0.0142 -0.3860  0.2017
  501TMC3    C3 7444   1.855   4.139   9.957  0.1444 -1.3523 -0.1566
  501TMC3    C4 7445   1.834   3.934  10.141 -0.0201  0.4797  0.1345
  501TMC3    C5 7446   1.952   4.002  10.118  1.1357  0.8580  0.6572
  501TMC3    C6 7447   1.965   4.087  10.011 -0.5095 -0.2529  1.2780
  501TMC3     C 7448   1.605   3.992  10.171  0.4527 -0.3448 -0.2205
  501TMC3     O 7449   1.622   3.977  10.293  0.3124  0.1547 -0.5714
  501TMC3     H 7450   1.642   4.122   9.939 -0.1663 -0.2995  0.5281
  501TMC3    H1 7451   1.812   3.879  10.232 -2.0368  0.3685 -0.4298
  501TMC3    H2 7452   2.064   4.123   9.986 -0.2366 -0.0964  2.6296
  501TMC3    C7 7453   2.035   4.028  10.229  0.2170 -0.1416  0.3711
  501TMC3    C8 7454   1.867   4.282   9.965 -0.0355  0.0308 -0.4072
  501TMC3    O1 7455   2.039   3.940  10.314 -0.3732  0.4006  0.3279
  501TMC3    O2 7456   1.945   4.330  10.047 -0.5005  0.2501 -0.1444
  502TMC3    C1 7457   0.662   2.397  14.722  0.3493 -0.0134 -0.4003
  502TMC3    C2 7458   0.701   2.496  14.636 -0.0076 -0.6085  0.2708
  502TMC3    C3 7459   0.634   2.612  14.637  0.3269  0.5693 -0.1499
  502TMC3    C4 7460   0.541   2.408  14.789 -0.0205 -0.7282  0.1091
  502TMC3    C5 7461   0.479   2.528  14.784  0.2094 -0.0005 -0.2124
  502TMC3    C6 7462   0.525   2.633  14.710  0.6328 -0.8858  1.3144
  502TMC3     C 7463   0.774   2.373  14.816 -0.3793  0.0243  0.5064
  502TMC3     O 7464   0.884   2.369  14.764 -0.3148 -0.1181  0.0397
  502TMC3     H 7465   0.790   2.476  14.578 -0.6904 -0.6795 -0.7455
  502TMC3    H1 7466   0.513   2.324  14.853 -2.0089 -0.0472  0.1075
  502TMC3    H2 7467   0.485   2.733  14.707  3.5585  0.2864  1.5224
  502TMC3    C7 7468   0.397   2.550  14.905  0.0488 -0.1527 -0.4606
  502TMC3    C8 7469   0.718   2.727  14.651  0.1328  0.3028  0.7405
  502TMC3    O1 7470   0.400   2.451  14.980 -0.0629  0.3796 -0.8982
  502TMC3    O2 7471   0.668   2.834  14.625  0.2050  0.6295 -0.3782
  503MPD2     C 7472   2.915   3.552  16.646 -0.4095 -0.7935 -0.3660
  503MPD2    C1 7473   3.024   3.590  16.718  0.5905  0.4922 -0.5124
  503MPD2    C2 7474   3.116   3.492  16.761 -0.2052 -0.1012  0.6287
  503MPD2    C3 7475   3.096   3.357  16.740  0.0183  0.9877  0.5703
  503MPD2    C4 7476   2.988   3.323  16.664 -0.7201 -0.4227  0.0419
  503MPD2    C5 7477   2.903   3.417  16.617 -0.3104 -0.8461  0.3059
  503MPD2     H 7478   3.209   3.518  16.809  0.6349 -2.2366  0.1744
  503MPD2    H1 7479   2.963   3.218  16.655  0.8361 -0.6179 -1.8937
  503MPD2    H2 7480   2.854   3.623  16.592  1.2199 -0.9249 -2.3688
  503MPD2    H3 7481   2.819   3.382  16.558 -0.0249  2.4950 -2.0158
  503MPD2     N 7482   3.198   3.263  16.771 -0.4626  0.2712  0.4588
  503MPD2    H5 7483   3.295   3.292  16.780 -0.8197  1.4250  0.5564
  503MPD2    N1 7484   3.058   3.726  16.745 -0.0348 -1.0274 -0.2430
  503MPD2    H7 7485   3.130   3.744  16.815  0.0475  1.0542 -0.8478
  504TMC3    C1 7486   3.283   3.059  16.837  0.2881 -0.0806  0.2775
  504TMC3    C2 7487   3.272   2.983  16.951 -0.2293  0.0902 -0.0453
  504TMC3    C3 7488   3.373   2.902  16.985 -0.1604  0.1329 -0.2757
  504TMC3    C4 7489   3.402   3.059  16.762  0.7762 -0.4317 -0.7075
  504TMC3    C5 7490   3.498   2.975  16.807  0.6997 -0.1627  0.5303
  504TMC3    C6 7491   3.487   2.893  16.913 -0.1294  0.0571 -0.2270
  504TMC3     C 7492   3.168   3.130  16.791  0.3655  0.2573  0.0763
  504TMC3     O 7493   3.069   3.065  16.817 -0.1399 -0.3525  0.0083
  504TMC3     H 7494   3.181   2.990  17.009  0.4085  0.2276  0.9387
  504TMC3    H1 7495   3.414   3.122  16.675  2.3805  1.8385  1.1613
  504TMC3    H2 7496   3.565   2.820  16.928  0.3080  1.0409  2.3413
  504TMC3    C7 7497   3.627   2.968  16.736  0.1024  0.3614  0.8939
  504TMC3    C8 7498   3.338   2.787  17.059  0.0913 -0.7408  0.4396
  504TMC3    O1 7499   3.626   3.011  16.619 -0.3113  0.2480 -0.1527
  504TMC3    O2 7500   3.225   2.739  17.044  0.2082 -0.3727 -0.2514
  505MPD2     C 7501   3.602   2.915  10.537  0.2721  0.2486 -0.9920
  505MPD2    C1 7502   3.630   2.791  10.577  0.3018 -0.5278 -1.2244
  505MPD2    C2 7503   3.748   2.763  10.634 -0.3700  0.4877  0.5862
  505MPD2    C3 7504   3.834   2.860  10.669 -0.1439  0.3037 -0.6634
  505MPD2    C4 7505   3.809   2.990  10.628  0.1043  0.0583 -0.4049
  505MPD2    C5 7506   3.694   3.015  10.571 -0.0861  0.3799  0.1058
  505MPD2     H 7507   3.775   2.658  10.639  1.7473  0.9536 -1.0461
  505MPD2    H1 7508   3.874   3.076  10.637 -0.8565  0.7318  0.1109
  505MPD2    H2 7509   3.505   2.934  10.493  0.9115  1.2502 -1.9850
  505MPD2    H3 7510   3.674   3.118  10.544 -0.6517  0.2159 -0.0954
  505MPD2     N 7511   3.959   2.827  10.730  0.3102 -0.3812 -0.5127
  505MPD2    H5 7512   4.033   2.897  10.736 -0.9767  0.8855  0.5517
  505MPD2    N1 7513   3.543   2.684  10.552 -0.3455 -0.4058  0.0455
  505MPD2    H7 7514   3.567   2.605  10.610  0.0852 -1.4599 -1.5610
  506TMC3    C1 7515   3.380   2.537  10.447  0.5582  0.2343 -0.6436
  506TMC3    C2 7516   3.348   2.496  10.317 -0.8766  0.0870  0.4444
  506TMC3    C3 7517   3.320   2.364  10.286  0.4048  0.0905 -0.0623
  506TMC3    C4 7518   3.384   2.442  10.540 -0.3957  0.3875  0.2216
  506TMC3    C5 7519   3.359   2.307  10.509 -0.3963  0.7968 -0.3679
  506TMC3    C6 7520   3.320   2.269  10.378  0.2661 -0.4619  0.1912
  506TMC3     C 7521   3.430   2.672  10.470 -0.5398 -0.1413  0.4361
  506TMC3     O 7522   3.372   2.755  10.399  1.2603  0.0982 -0.3200
  506TMC3     H 7523   3.347   2.574  10.242 -1.7470 -1.6189 -1.3078
  506TMC3    H1 7524   3.411   2.483  10.637 -0.9283  2.2009 -0.3991
  506TMC3    H2 7525   3.310   2.166  10.346  0.5667 -0.6984  0.8581
  506TMC3    C7 7526   3.454   2.214  10.569  0.7648  0.2351 -0.0209
  506TMC3    C8 7527   3.334   2.322  10.150 -0.3998  0.6043 -0.4117
  506TMC3    O1 7528   3.464   2.107  10.510  0.0506  0.5524  0.2332
  506TMC3    O2 7529   3.268   2.228  10.108  0.4089 -0.3056  0.0705
  507TMC3    C1 7530   3.674   3.292  14.413 -0.1922  0.8718  0.1463
  507TMC3    C2 7531   3.546   3.280  14.354 -0.1074 -0.2981 -0.2161
  507TMC3    C3 7532   3.547   3.238  14.221 -0.6365 -0.4610  0.9783
  507TMC3    C4 7533   3.791   3.259  14.346  0.1931  0.5234  0.4848
  507TMC3    C5 7534   3.783   3.218  14.213  0.6469  0.3358  0.3721
  507TMC3    C6 7535   3.664   3.192  14.157 -0.1329  0.4045 -0.2325
  507TMC3     C 7536   3.684   3.341  14.550 -0.5034 -0.1150  0.0120
  507TMC3     O 7537   3.787   3.319  14.612 -0.7547  0.4001  0.0733
  507TMC3     H 7538   3.457   3.317  14.402  1.2174  0.5147  1.6270
  507TMC3    H1 7539   3.882   3.284  14.399  1.0126 -2.0564  0.2852
  507TMC3    H2 7540   3.662   3.163  14.053 -0.8033 -0.5008  0.0371
  507TMC3    C7 7541   3.872   3.279  14.122  0.4253  0.4511  0.4420
  507TMC3    C8 7542   3.453   3.316  14.143  0.3110  0.1838  0.1768
  507TMC3    O1 7543   3.818   3.312  14.015  0.4251 -0.0869  0.5479
  507TMC3    O2 7544   3.333   3.308  14.157 -0.7880  0.2860  0.0638
  508MPD2     C 7545   0.368   0.521  15.292 -0.0788  0.8285  0.2368
  508MPD2    C1 7546   0.375   0.646  15.354  0.5961 -0.0078 -0.0628
  508MPD2    C2 7547   0.341   0.759  15.279  0.4226  0.3426  0.9348
  508MPD2    C3 7548   0.324   0.752  15.146 -0.0705 -0.4631  0.1794
  508MPD2    C4 7549   0.326   0.632  15.083 -0.0000 -0.0577 -0.3743
  508MPD2    C5 7550   0.358   0.518  15.152 -0.8813 -0.1220 -0.1028
  508MPD2     H 7551   0.355   0.856  15.325 -0.2619  0.7303  0.3052
  508MPD2    H1 7552   0.326   0.626  14.975  0.5623 -1.1271 -0.3119
  508MPD2    H2 7553   0.373   0.426  15.345 -0.2588  0.7796  0.1689
  508MPD2    H3 7554   0.369   0.422  15.104  0.1800  0.1085 -0.3312
  508MPD2     N 7555   0.317   0.873  15.080  0.2619  0.6331 -0.4464
  508MPD2    H5 7556   0.301   0.958  15.132  2.2331  0.2446  0.8222
  508MPD2    N1 7557   0.402   0.652  15.490 -0.1932 -0.6657 -0.0047
  508MPD2    H7 7558   0.440   0.570  15.536 -0.1613  0.4682  1.9911
  509TMC3    C1 7559   0.193   1.211  14.960 -0.2543  0.4104 -0.0339
  509TMC3    C2 7560   0.306   1.280  14.978  0.1590 -0.3324  0.4640
  509TMC3    C3 7561   0.421   1.215  14.955 -1.0371 -0.1502  0.4020
  509TMC3    C4 7562   0.193   1.078  14.920  0.1161  0.3170 -0.6888
  509TMC3    C5 7563   0.311   1.017  14.899  0.5605 -0.1433  0.4562
  509TMC3    C6 7564   0.429   1.080  14.928 -0.7440  0.8270  0.7416
  509TMC3     C 7565   0.082   1.288  14.906  0.0390 -0.1537  0.5532
  509TMC3     O 7566   0.018   1.219  14.826  0.6113  0.2988  0.0752
  509TMC3     H 7567   0.300   1.387  14.996  1.4437 -0.2189  0.2734
  509TMC3    H1 7568   0.114   1.024  14.870 -1.5341  1.5059  0.6609
  509TMC3    H2 7569   0.521   1.023  14.918 -1.6928 -0.6088  0.1469
  509TMC3    C7 7570   0.314   0.882  14.942 -0.4757  0.1222  0.2298
  509TMC3    C8 7571   0.550   1.273  14.974 -0.0656  0.2127 -0.4541
  509TMC3    O1 7572   0.336   0.805  14.849  0.3502 -0.6151 -0.3816
  509TMC3    O2 7573   0.633   1.195  15.015 -0.6680  0.4902  0.4875
  510MPD2     C 7574   2.898   2.544  14.079  0.3704 -0.3565 -0.6500
  510MPD2    C1 7575   2.972   2.519  14.187 -1.0522 -0.5961 -0.1076
  510MPD2    C2 7576   3.104   2.532  14.180  0.2532  0.0770  0.5598
  510MPD2    C3 7577   3.163   2.579  14.058  0.1793 -0.0639 -0.6045
  510MPD2    C4 7578   3.087   2.616  13.954  0.2122  0.4680  0.0080
  510MPD2    C5 7579   2.954   2.596  13.966  0.0787  0.0039 -0.2158
  510MPD2     H 7580   3.166   2.504  14.264 -2.0762  1.0516  2.5865
  510MPD2    H1 7581   3.120   2.653  13.857  1.9880  2.7340  1.4818
  510MPD2    H2 7582   2.790   2.540  14.081  0.3565 -1.0323 -2.8096
  510MPD2    H3 7583   2.896   2.617  13.877  0.1178 -0.9336 -0.4617
  510MPD2     N 7584   3.304   2.566  14.047  1.2767 -0.2931  0.4960
  510MPD2    H5 7585   3.353   2.528  14.128  1.0794 -1.1386  0.2255
  510MPD2    N1 7586   2.902   2.476  14.299  0.0289 -0.2771 -0.1330
  510MPD2    H7 7587   2.803   2.461  14.288  0.1060 -2.0519  1.5237
  511TMC3    C1 7588   2.865   2.400  14.517 -0.5324  0.0108  0.0987
  511TMC3    C2 7589   2.840   2.465  14.635 -0.2532  0.8330  0.3989
  511TMC3    C3 7590   2.746   2.415  14.720 -0.1672 -0.7921 -0.0987
  511TMC3    C4 7591   2.799   2.290  14.482 -0.4377  0.0162  0.2373
  511TMC3    C5 7592   2.711   2.234  14.575  0.2487 -0.7798  0.7021
  511TMC3    C6 7593   2.681   2.300  14.691  0.1335  0.2323 -0.9567
  511TMC3     C 7594   2.962   2.457  14.423  0.0835  0.5221 -0.4039
  511TMC3     O 7595   3.076   2.463  14.467  0.0070  0.1012  0.1437
  511TMC3     H 7596   2.910   2.538  14.675  0.5472 -0.0525  0.6044
  511TMC3    H1 7597   2.834   2.240  14.392 -0.4614 -2.4889  1.5993
  511TMC3    H2 7598   2.594   2.274  14.751 -0.2648  1.6294 -0.9299
  511TMC3    C7 7599   2.654   2.111  14.536 -0.4764 -0.6325  0.0728
  511TMC3    C8 7600   2.743   2.469  14.849 -0.1604 -0.6944  0.1724
  511TMC3    O1 7601   2.650   2.089  14.417 -0.0625 -0.1804 -0.7352
  511TMC3    O2 7602   2.790   2.579  14.863 -0.3752  0.2012 -0.1785
  512TMC3    C1 7603   1.515   1.719  12.961 -0.2904 -0.9373 -0.0623
  512TMC3    C2 7604   1.608   1.708  13.061  0.2900 -0.0038  0.1528
  512TMC3    C3 7605   1.668   1.589  13.072  0.6117 -0.0273 -0.3069
  512TMC3    C4 7606   1.482   1.617  12.885 -0.2802 -0.4322 -0.2280
  512TMC3    C5 7607   1.550   1.498  12.897 -0.3508  0.7816 -0.7385
  512TMC3    C6 7608   1.651   1.485  12.984 -0.6449 -0.0704 -0.6142
  512TMC3     C 7609   1.433   1.836  12.948  0.5262 -0.0482 -0.0602
  512TMC3     O 7610   1.315   1.805  12.939 -0.1559  0.4504  0.3232
  512TMC3     H 7611   1.619   1.795  13.124  1.3130  0.3071 -0.4585
  512TMC3    H1 7612   1.396   1.628  12.819 -2.5622 -0.7992  2.6630
  512TMC3    H2 7613   1.727   1.411  12.961 -1.5408 -0.7372 -1.4346
  512TMC3    C7 7614   1.544   1.405  12.784 -0.0491  0.2426 -0.8373
  512TMC3    C8 7615   1.788   1.581  13.155 -0.6813  0.0550  0.1633
  512TMC3    O1 7616   1.499   1.457  12.681  0.1287  0.0506  0.2566
  512TMC3    O2 7617   1.815   1.462  13.186  0.0780  0.9175  0.0726
  513MPD2     C 7618   3.580   2.200  13.191  0.7470 -0.3714 -0.3898
  513MPD2    C1 7619   3.533   2.083  13.238  0.6788 -0.0966 -0.1244
  513MPD2    C2 7620   3.611   2.010  13.329 -0.0182 -0.8647  0.6160
  513MPD2    C3 7621   3.730   2.056  13.385  0.4784 -0.2667 -0.2869
  513MPD2    C4 7622   3.764   2.186  13.343 -0.3322 -0.0328 -0.4074
  513MPD2    C5 7623   3.695   2.256  13.247 -0.1759 -0.1041 -0.4295
  513MPD2     H 7624   3.574   1.920  13.376 -2.0190 -0.6587 -0.5946
  513MPD2    H1 7625   3.862   2.220  13.375 -0.3107 -0.6730  0.2103
  513MPD2    H2 7626   3.533   2.259  13.113 -1.0843  0.0853  1.0939
  513MPD2    H3 7627   3.731   2.349  13.206 -0.9828  1.0175  1.4311
  513MPD2     N 7628   3.787   1.974  13.483 -0.9606  0.3567  0.2897
  513MPD2    H5 7629   3.747   1.882  13.500  2.0833 -0.8519  0.9169
  513MPD2    N1 7630   3.418   2.029  13.182 -0.5651  0.3600 -0.0239
  513MPD2    H7 7631   3.368   2.093  13.122 -1.4073  0.0941  0.3977
  514TMC3    C1 7632   3.266   1.858  13.117  0.3108  0.3383 -0.7474
  514TMC3    C2 7633   3.270   1.913  12.992 -0.4606  0.3399 -0.2470
  514TMC3    C3 7634   3.278   1.831  12.884 -0.3234  0.6462  0.0508
  514TMC3    C4 7635   3.240   1.724  13.133 -0.0451  0.6232 -0.2797
  514TMC3    C5 7636   3.245   1.641  13.021 -1.0063  0.0375  0.3863
  514TMC3    C6 7637   3.272   1.696  12.905 -0.0901  0.4759 -0.1544
  514TMC3     C 7638   3.374   1.898  13.200 -0.3529  0.4122  0.6164
  514TMC3     O 7639   3.418   1.805  13.266 -0.2204  0.6766 -1.2681
  514TMC3     H 7640   3.249   2.018  12.978 -2.9459 -0.2052 -0.6413
  514TMC3    H1 7641   3.238   1.677  13.230  0.1663  2.3120  0.5304
  514TMC3    H2 7642   3.269   1.631  12.819 -1.8572 -0.0580  0.3172
  514TMC3    C7 7643   3.334   1.533  13.037 -0.0225 -0.1117  0.2714
  514TMC3    C8 7644   3.237   1.877  12.749  0.3968 -0.7312 -0.2623
  514TMC3    O1 7645   3.353   1.459  12.940 -0.0301 -0.5871 -0.4266
  514TMC3    O2 7646   3.158   1.970  12.742  0.5942  0.4270 -0.2881
  515MPD2     C 7647   1.682   3.673  15.146  0.4448 -0.4961 -0.1339
  515MPD2    C1 7648   1.689   3.627  15.016 -0.1425  0.1090  0.3033
  515MPD2    C2 7649   1.774   3.699  14.935  0.8888  0.6325 -0.5931
  515MPD2    C3 7650   1.849   3.808  14.978 -0.5324 -0.3343  0.1237
  515MPD2    C4 7651   1.834   3.849  15.107  0.1835  0.3654 -0.9735
  515MPD2    C5 7652   1.749   3.786  15.187 -0.0160 -0.1353  0.0671
  515MPD2     H 7653   1.777   3.665  14.832  0.5514  0.2944 -0.4903
  515MPD2    H1 7654   1.894   3.931  15.145 -0.9221 -0.2972  2.1472
  515MPD2    H2 7655   1.617   3.623  15.216 -1.6245  3.9759  1.1658
  515MPD2    H3 7656   1.728   3.825  15.286  1.5324  0.2270  0.2580
  515MPD2     N 7657   1.941   3.886  14.896 -0.2009  0.9185 -0.0170
  515MPD2    H5 7658   1.989   3.961  14.946 -1.8048  2.6421 -1.0325
  515MPD2    N1 7659   1.612   3.524  14.962 -0.1863  0.0317  0.0754
  515MPD2    H7 7660   1.623   3.498  14.865  0.3927 -1.3942  0.5267
  516TMC3    C1 7661   1.497   3.325  14.948 -0.6803  0.4414  0.2942
  516TMC3    C2 7662   1.470   3.340  14.808  0.5641 -0.1716 -0.8999
  516TMC3    C3 7663   1.429   3.231  14.733  0.5673 -0.6067  0.6145
  516TMC3    C4 7664   1.487   3.203  15.007  0.0658  0.4094 -0.2173
  516TMC3    C5 7665   1.454   3.097  14.928 -0.1648  0.0042 -0.3746
  516TMC3    C6 7666   1.414   3.113  14.793 -0.1367  0.2721  0.3008
  516TMC3     C 7667   1.536   3.438  15.034  0.4184  0.0189 -0.0928
  516TMC3     O 7668   1.532   3.423  15.150 -0.0325  0.6766  0.3425
  516TMC3     H 7669   1.474   3.439  14.764  2.8229  0.9637  1.8726
  516TMC3    H1 7670   1.497   3.192  15.114  1.4690 -0.9859 -0.4929
  516TMC3    H2 7671   1.385   3.023  14.739  2.2807  1.6263 -3.2435
  516TMC3    C7 7672   1.495   2.970  14.981 -0.1994  0.2818 -0.6568
  516TMC3    C8 7673   1.371   3.262  14.596 -0.0814  0.2718 -0.2615
  516TMC3    O1 7674   1.508   2.960  15.101  0.0008  0.2895 -0.3177
  516TMC3    O2 7675   1.285   3.187  14.553 -0.5564  0.1030  0.0271
  517MPD2     C 7676   2.108   0.090   0.295 -0.1762 -0.3795 -0.1658
  517MPD2    C1 7677   2.058   0.193   0.209 -0.1755  0.2978  0.4331
  517MPD2    C2 7678   2.004   0.310   0.261  0.1833  0.6852  0.4213
  517MPD2    C3 7679   1.996   0.321   0.398 -0.1274 -0.0700  0.0206
  517MPD2    C4 7680   2.050   0.230   0.483  0.2365  0.2041  0.0530
  517MPD2    C5 7681   2.111   0.120   0.429  0.1648 -0.3065 -0.1752
  517MPD2     H 7682   1.961   0.382   0.192  0.4484  0.6311  0.2006
  517MPD2    H1 7683   2.044   0.245   0.590  2.2692 -2.2832  0.5298
  517MPD2    H2 7684   2.164   0.009   0.251 -0.1552  0.5045 -1.7725
  517MPD2    H3 7685   2.153   0.044   0.494 -0.4700 -0.0454  0.5433
  517MPD2     N 7686   1.942   0.437   0.467 -0.1818 -0.2117 -0.5013
  517MPD2    H5 7687   1.936   0.421   0.567 -0.9745  0.2321 -0.4718
  517MPD2    N1 7688   2.066   0.169   0.074  0.2934 -0.1659 -0.6666
  517MPD2    H7 7689   2.046   0.248   0.014 -0.5335  1.4635  1.7809
  518TMC3    C1 7690   2.033   0.078  17.572  0.5435 -0.3292  0.4361
  518TMC3    C2 7691   1.951   4.723  17.504 -0.5821  0.0590  0.5904
  518TMC3    C3 7692   1.965   4.709  17.365 -0.1626  0.4225 -0.2602
  518TMC3    C4 7693   2.147   0.130  17.517 -0.1208  0.5017 -0.4375
  518TMC3    C5 7694   2.164   0.105  17.387  0.8156 -0.1714  0.5216
  518TMC3    C6 7695   2.078   0.033  17.303 -0.6193 -0.6087 -0.2150
  518TMC3     C 7696   2.065   0.049   0.009 -0.3067  0.3697 -0.1721
  518TMC3     O 7697   2.043   4.657   0.048 -0.1179  0.5579 -0.0490
  518TMC3     H 7698   1.882   4.669  17.567  1.2516 -1.1018  1.6263
  518TMC3    H1 7699   2.223   0.175  17.581 -3.3819  1.6754  2.5880
  518TMC3    H2 7700   2.086   0.026  17.195  0.7089  0.2608 -0.1708
  518TMC3    C7 7701   2.292   0.130  17.327  0.1659  0.5762 -0.7540
  518TMC3    C8 7702   1.909   4.590  17.312  0.6467  0.5205  0.3875
  518TMC3    O1 7703   2.355   0.219  17.372  0.2134  0.5571 -0.4568
  518TMC3    O2 7704   1.989   4.519  17.259  0.0386  0.2572  0.6816
  519MPD2     C 7705   3.027   3.734  14.079 -0.4575  0.2356  0.0932
  519MPD2    C1 7706   2.909   3.670  14.092 -0.0684  0.3070 -0.4517
  519MPD2    C2 7707   2.926   3.541  14.156  0.6709 -0.7366 -0.6323
  519MPD2    C3 7708   3.044   3.483  14.185  0.1514 -0.2175  0.1435
  519MPD2    C4 7709   3.158   3.563  14.164 -0.1522  0.4132  1.0980
  519MPD2    C5 7710   3.143   3.693  14.131  0.4998 -0.1665  0.3037
  519MPD2     H 7711   2.838   3.479  14.170 -0.3521  0.8192 -0.1704
  519MPD2    H1 7712   3.258   3.528  14.186 -0.5014 -0.1174  1.8296
  519MPD2    H2 7713   3.020   3.838  14.048 -3.8388 -0.1047 -0.3486
  519MPD2    H3 7714   3.232   3.756  14.135  0.9868 -0.7894 -0.6442
  519MPD2     N 7715   3.071   3.346  14.191 -0.3383 -0.2178  0.4048
  519MPD2    H5 7716   3.170   3.329  14.182 -0.5160  0.3961 -3.0805
  519MPD2    N1 7717   2.786   3.719  14.038  0.3782 -0.6147  0.2146
  519MPD2    H7 7718   2.784   3.815  14.003 -0.2090 -1.2634 -1.5039
  520TMC3    C1 7719   3.014   3.119  14.157  0.2742 -0.1180 -0.1712
  520TMC3    C2 7720   2.920   3.061  14.073  0.1104  0.5242  0.2615
  520TMC3    C3 7721   2.970   2.986  13.968  0.0440  0.3770 -0.3945
  520TMC3    C4 7722   3.148   3.085  14.147 -0.5095  0.0280 -0.4913
  520TMC3    C5 7723   3.191   3.018  14.046  0.3299 -0.1234  0.1472
  520TMC3    C6 7724   3.102   2.966  13.955  0.3453 -0.6683 -0.3975
  520TMC3     C 7725   2.973   3.252  14.206 -0.2139 -0.1889 -0.0521
  520TMC3     O 7726   2.854   3.270  14.224  0.3262  0.0994  0.3295
  520TMC3     H 7727   2.816   3.089  14.087 -0.6293 -1.5264 -1.1988
  520TMC3    H1 7728   3.223   3.114  14.220 -0.9607 -0.7951  0.3123
  520TMC3    H2 7729   3.136   2.892  13.883  0.9312 -0.1974 -0.6062
  520TMC3    C7 7730   3.328   2.978  14.054  0.1101  0.6258 -0.4296
  520TMC3    C8 7731   2.881   2.925  13.873  0.5303 -0.1290 -0.5872
  520TMC3    O1 7732   3.387   2.961  14.164  0.1280  0.3820 -0.2747
  520TMC3    O2 7733   2.929   2.865  13.778  0.7157 -0.3658  0.4383
  521MPD2     C 7734   4.182   1.611  17.224 -0.0045  0.0270 -0.4718
  521MPD2    C1 7735   4.101   1.533  17.140  0.1523 -0.4967 -0.3492
  521MPD2    C2 7736   4.166   1.452  17.046  0.1545  0.2566  0.1834
  521MPD2    C3 7737   4.299   1.447  17.026  0.5254 -0.4840  0.2083
  521MPD2    C4 7738   4.381   1.526  17.107 -0.6917  0.0255 -0.3828
  521MPD2    C5 7739   4.320   1.603  17.207 -0.2619 -0.1880  0.2290
  521MPD2     H 7740   4.108   1.384  16.984  2.4435 -0.9018 -0.7037
  521MPD2    H1 7741   4.487   1.508  17.101 -1.0903 -3.0109  1.3092
  521MPD2    H2 7742   4.138   1.662  17.309 -1.3685  0.4308 -1.4059
  521MPD2    H3 7743   4.379   1.660  17.278 -1.4169 -0.7224  1.5968
  521MPD2     N 7744   4.349   1.351  16.936  0.0950 -0.0555  0.6577
  521MPD2    H5 7745   4.281   1.281  16.908 -0.6174  1.0853 -0.4160
  521MPD2    N1 7746   3.960   1.538  17.161  0.4188 -0.3795  0.3652
  521MPD2    H7 7747   3.925   1.597  17.236 -0.2328  0.0566 -0.2856
  522TMC3    C1 7748   4.469   1.234  16.785  0.6946 -0.2832 -0.3841
  522TMC3    C2 7749   4.592   1.187  16.747 -0.6532 -0.3135  0.0179
  522TMC3    C3 7750   4.610   1.130  16.624  0.3001 -0.6914  0.6374
  522TMC3    C4 7751   4.365   1.236  16.695  0.0994  0.6106 -0.0306
  522TMC3    C5 7752   4.389   1.172  16.578 -0.1743 -0.1472  0.2778
  522TMC3    C6 7753   4.511   1.126  16.536  0.0221 -0.3176 -0.3704
  522TMC3     C 7754   4.477   1.333  16.895 -0.4695 -0.1321  0.0353
  522TMC3     O 7755   4.581   1.391  16.925  0.3732  0.1135 -0.4292
  522TMC3     H 7756   4.676   1.185  16.816 -1.8815 -0.8349  1.4969
  522TMC3    H1 7757   4.266   1.274  16.715 -1.1161 -1.0982 -2.7231
  522TMC3    H2 7758   4.514   1.053  16.457  1.9665  0.4997 -1.0451
  522TMC3    C7 7759   4.276   1.099  16.533  0.0940 -0.1553  1.0062
  522TMC3    C8 7760   0.020   1.090  16.587  0.6057 -0.5700  0.0707
  522TMC3    O1 7761   4.296   0.999  16.465 -0.3061  0.4135  0.2105
  522TMC3    O2 7762   0.103   1.074  16.678 -0.4961 -0.3022  0.3236
  523MPD2     C 7763   1.854   0.831   9.940 -0.3596 -0.1607 -0.7474
  523MPD2    C1 7764   1.861   0.806   9.804  0.1005  0.3565  0.2469
  523MPD2    C2 7765   1.822   0.907   9.714 -0.2709 -0.0128 -0.5674
  523MPD2    C3 7766   1.775   1.025   9.762 -0.1180  0.0498  0.2531
  523MPD2    C4 7767   1.767   1.046   9.900 -0.3170 -0.5178  0.8363
  523MPD2    C5 7768   1.801   0.949   9.990 -0.1512 -0.2423  0.4185
  523MPD2     H 7769   1.817   0.891   9.606  0.3534  2.3336 -0.9275
  523MPD2    H1 7770   1.740   1.141   9.945 -1.7005 -0.6832  0.3315
  523MPD2    H2 7771   1.869   0.750  10.011 -0.4952  0.2082 -0.2985
  523MPD2    H3 7772   1.793   0.963  10.097 -0.5066  1.4869  0.1660
  523MPD2     N 7773   1.705   1.125   9.689  0.2757  0.4704  0.3307
  523MPD2    H5 7774   1.671   1.204   9.743 -0.1605  0.8212 -0.4617
  523MPD2    N1 7775   1.884   0.672   9.759  0.3315  0.3256  0.7195
  523MPD2    H7 7776   1.891   0.605   9.835  1.8156  0.6405  0.8605
  524TMC3    C1 7777   1.637   1.266   9.514 -0.7324 -0.1310  0.4578
  524TMC3    C2 7778   1.630   1.291   9.377 -1.3720 -0.3768 -0.5573
  524TMC3    C3 7779   1.575   1.413   9.342  0.0413  0.1340 -0.2580
  524TMC3    C4 7780   1.557   1.344   9.600  0.0478 -0.1027 -0.3054
  524TMC3    C5 7781   1.492   1.460   9.557  0.2183 -0.1353 -0.7910
  524TMC3    C6 7782   1.501   1.499   9.426  1.2170 -0.6894 -0.2844
  524TMC3     C 7783   1.701   1.131   9.553 -0.3693  0.0688 -0.0204
  524TMC3     O 7784   1.782   1.085   9.473  0.3132  0.0938 -0.4406
  524TMC3     H 7785   1.699   1.245   9.307  2.0797  2.7871  0.7264
  524TMC3    H1 7786   1.562   1.318   9.705 -1.8094  0.3260 -0.1190
  524TMC3    H2 7787   1.447   1.584   9.385 -0.1299 -2.2237 -1.6963
  524TMC3    C7 7788   1.474   1.563   9.658  0.0300 -0.6646 -0.2507
  524TMC3    C8 7789   1.579   1.464   9.204 -0.1766  0.4754  0.8385
  524TMC3    O1 7790   1.462   1.510   9.771  0.4698 -0.2315  0.0937
  524TMC3    O2 7791   1.522   1.571   9.178 -0.1897  0.0010  0.6006
  525MPD2     C 7792   4.403   3.051  14.299  0.6269 -0.4341  0.5977
  525MPD2    C1 7793   4.537   3.032  14.324  0.3243  0.6283 -0.4192
  525MPD2    C2 7794   4.629   3.120  14.257  0.6605 -0.0368  0.6828
  525MPD2    C3 7795   4.585   3.215  14.165 -0.2180 -0.8666 -0.7582
  525MPD2    C4 7796   4.450   3.221  14.134  0.2912 -0.0270 -0.3559
  525MPD2    C5 7797   4.363   3.142  14.206 -1.0446  0.7297  0.2720
  525MPD2     H 7798   0.003   3.123  14.299 -0.3697  2.6653  2.9703
  525MPD2    H1 7799   4.406   3.290  14.062 -1.8860 -0.3238  0.6834
  525MPD2    H2 7800   4.328   2.986  14.342  0.4243 -0.6189 -0.0335
  525MPD2    H3 7801   4.258   3.139  14.176 -1.5125  1.6310  1.8543
  525MPD2     N 7802   4.681   3.307  14.104  0.0494  0.6126  0.1915
  525MPD2    H5 7803   4.640   3.372  14.038  0.5886  0.3008 -0.4453
  525MPD2    N1 7804   4.587   2.932  14.408 -0.0344  0.3544  0.2582
  525MPD2    H7 7805   4.688   2.928  14.409 -0.0376 -0.3424 -1.6356
  526TMC3    C1 7806   4.589   2.760  14.580 -0.6024 -0.0285 -0.3852
  526TMC3    C2 7807   4.543   2.747  14.708  0.1952  0.3219 -0.6662
  526TMC3    C3 7808   4.618   2.672  14.803 -0.2976  0.1322 -0.3071
  526TMC3    C4 7809   4.717   2.714  14.539 -0.3599 -0.3456 -0.0591
  526TMC3    C5 7810   0.062   2.651  14.633  1.0100 -0.5272 -0.1279
  526TMC3    C6 7811   0.016   2.629  14.768  0.1547  0.5575 -0.6812
  526TMC3     C 7812   4.513   2.849  14.489  0.2058  1.0391  0.3591
  526TMC3     O 7813   4.396   2.856  14.515 -0.0764  0.2119 -0.4732
  526TMC3     H 7814   4.440   2.770  14.733 -0.2707  0.8982 -3.1480
  526TMC3    H1 7815   0.009   2.714  14.432  2.9248  1.5489  0.5051
  526TMC3    H2 7816   0.068   2.562  14.835  3.5610  2.1481 -1.7428
  526TMC3    C7 7817   0.187   2.584  14.590 -0.1734 -0.1669 -0.1340
  526TMC3    C8 7818   4.587   2.671  14.948  0.0592 -0.9467  0.6740
  526TMC3    O1 7819   0.224   2.489  14.659  0.4323  0.1110 -0.2106
  526TMC3    O2 7820   4.666   2.620  15.024 -0.4000 -0.2048  0.2607
  527MPD2     C 7821   2.162   1.159   1.089  0.0700 -0.0221 -0.0156
  527MPD2    C1 7822   2.220   1.049   1.150  0.5540 -0.6147  0.1492
  527MPD2    C2 7823   2.271   0.951   1.066 -0.3700 -0.6815 -0.4012
  527MPD2    C3 7824   2.289   0.976   0.935  0.2051 -0.5302  0.2410
  527MPD2    C4 7825   2.229   1.085   0.875  0.5534 -0.3957 -0.1505
  527MPD2    C5 7826   2.165   1.179   0.950  0.1577 -0.0613 -0.4253
  527MPD2     H 7827   2.307   0.866   1.122 -0.1465  0.0523  0.5743
  527MPD2    H1 7828   2.255   1.116   0.775  0.6380  0.6655  0.2040
  527MPD2    H2 7829   2.125   1.235   1.157  0.7224  0.7636 -0.5310
  527MPD2    H3 7830   2.140   1.276   0.909 -0.6237  0.5634  1.5468
  527MPD2     N 7831   2.371   0.898   0.848  0.3923  0.6763  0.0646
  527MPD2    H5 7832   2.386   0.938   0.756  0.9977  0.2610 -0.0207
  527MPD2    N1 7833   2.202   1.031   1.289 -0.2079 -0.5401  0.2665
  527MPD2    H7 7834   2.265   0.961   1.329  0.8411  0.4420  0.3427
  528TMC3    C1 7835   2.131   1.057   1.510  0.3985 -0.0198  0.5882
  528TMC3    C2 7836   2.260   1.034   1.546  0.1497  0.2775 -0.8587
  528TMC3    C3 7837   2.293   1.003   1.680 -0.2973  0.0854 -0.2675
  528TMC3    C4 7838   2.026   1.055   1.591  0.4096  0.2412 -0.3167
  528TMC3    C5 7839   2.055   1.026   1.720  0.9677  0.2685  0.3472
  528TMC3    C6 7840   2.187   1.003   1.770 -0.1772 -1.0449  0.2356
  528TMC3     C 7841   2.107   1.087   1.371 -0.4185  0.3781  0.8730
  528TMC3     O 7842   1.994   1.122   1.337  0.0293 -0.3623 -0.0365
  528TMC3     H 7843   2.346   1.058   1.484  0.6874  2.4935  0.7359
  528TMC3    H1 7844   1.929   1.090   1.556  1.6064  0.6390 -3.2443
  528TMC3    H2 7845   2.194   0.984   1.877  2.0742  2.4634  0.7096
  528TMC3    C7 7846   1.959   1.054   1.816  0.4054 -0.4956  0.4851
  528TMC3    C8 7847   2.438   1.011   1.711  0.6637  0.1980  0.7491
  528TMC3    O1 7848   1.994   1.050   1.935 -0.3139 -0.3948  0.2847
  528TMC3    O2 7849   2.518   0.994   1.623 -0.0805  0.0393  0.0004
  529MPD2     C 7850   0.653   4.005   0.296  0.4504  0.5814 -0.4256
  529MPD2    C1 7851   0.592   3.888   0.253 -0.4546 -0.2075 -0.2495
  529MPD2    C2 7852   0.547   3.894   0.117 -0.5370 -0.0171  0.3552
  529MPD2    C3 7853   0.564   4.001   0.027 -0.6719 -0.5693  0.0712
  529MPD2    C4 7854   0.629   4.109   0.078 -1.0252  0.1277 -0.5293
  529MPD2    C5 7855   0.663   4.108   0.209 -0.1257 -0.9880  0.2452
  529MPD2     H 7856   0.494   3.807   0.079  0.9935 -0.1017 -1.5370
  529MPD2    H1 7857   0.657   4.195   0.018  1.5096 -0.8306 -0.7496
  529MPD2    H2 7858   0.677   4.029   0.399  0.0726  0.9690 -0.4253
  529MPD2    H3 7859   0.710   4.203   0.231 -1.2065 -0.2497 -0.6568
  529MPD2     N 7860   0.523   4.002  17.596 -0.3228  0.0799 -0.7730
  529MPD2    H5 7861   0.545   4.093  17.555  2.0464 -0.5518 -0.8690
  529MPD2    N1 7862   0.568   3.770   0.334 -0.0768 -0.0185  0.0949
  529MPD2    H7 7863   0.523   3.690   0.292  0.4649 -0.2815  0.0210
  530TMC3    C1 7864   0.565   3.629   0.532 -0.2271 -0.2710  0.4454
  530TMC3    C2 7865   0.500   3.611   0.652 -0.0992 -0.0219  0.2142
  530TMC3    C3 7866   0.466   3.486   0.702 -0.3305 -0.2544 -0.1436
  530TMC3    C4 7867   0.590   3.524   0.449 -0.2822 -0.5118 -0.1701
  530TMC3    C5 7868   0.559   3.400   0.498 -0.3616  0.5167 -0.2081
  530TMC3    C6 7869   0.504   3.380   0.619 -0.0467  0.0538 -0.7581
  530TMC3     C 7870   0.589   3.766   0.476  0.0243  0.0650  0.5940
  530TMC3     O 7871   0.613   3.864   0.547 -0.2022  0.4071 -0.6516
  530TMC3     H 7872   0.454   3.694   0.705 -1.2268 -0.2944 -0.3442
  530TMC3    H1 7873   0.608   3.537   0.343  1.9028  0.6965  0.3475
  530TMC3    H2 7874   0.488   3.279   0.654 -1.8465  0.2026 -1.1114
  530TMC3    C7 7875   0.537   3.295   0.396 -0.5767 -0.4709 -0.1307
  530TMC3    C8 7876   0.468   3.476   0.850 -0.0327 -0.0685 -0.1901
  530TMC3    O1 7877   0.610   3.303   0.295  0.3677  0.5421  0.4777
  530TMC3    O2 7878   0.482   3.584   0.910  0.0544  0.2696  0.5600
  531MPD2     C 7879   3.765   1.343  13.272 -1.1281  0.0406 -0.5497
  531MPD2    C1 7880   3.721   1.458  13.338  0.0624 -0.2146  0.6365
  531MPD2    C2 7881   3.596   1.511  13.302  0.1635 -0.6112  0.3769
  531MPD2    C3 7882   3.527   1.467  13.197  0.7586 -0.3397  0.5716
  531MPD2    C4 7883   3.575   1.360  13.129  0.9610 -0.0157  0.4807
  531MPD2    C5 7884   3.691   1.299  13.169  0.5058 -0.8151  0.5229
  531MPD2     H 7885   3.553   1.597  13.354 -2.3155 -0.2055 -2.3133
  531MPD2    H1 7886   3.531   1.318  13.039 -0.5095  1.3744  0.5549
  531MPD2    H2 7887   3.849   1.281  13.302 -0.8239 -0.5476 -2.6383
  531MPD2    H3 7888   3.730   1.212  13.116  0.2019  0.0788 -1.1704
  531MPD2     N 7889   3.415   1.544  13.157 -0.4072 -0.2945  0.5672
  531MPD2    H5 7890   3.392   1.632  13.202  0.4051 -0.1097  0.6063
  531MPD2    N1 7891   3.807   1.515  13.435 -0.1336  0.1432  0.2561
  531MPD2    H7 7892   3.903   1.483  13.428 -0.1892 -0.2322  1.1612
  532TMC3    C1 7893   3.872   1.668  13.601 -0.2446  0.3882 -0.1314
  532TMC3    C2 7894   3.839   1.796  13.652 -0.7547  0.4351  0.9566
  532TMC3    C3 7895   3.937   1.893  13.643  0.5956 -0.2515 -0.6953
  532TMC3    C4 7896   4.002   1.634  13.579 -0.6250  0.0468 -0.0258
  532TMC3    C5 7897   4.097   1.727  13.601 -0.2190  0.0591 -0.1861
  532TMC3    C6 7898   4.070   1.853  13.621  0.8361 -0.5911 -0.0374
  532TMC3     C 7899   3.771   1.617  13.511  0.0387  0.6439 -0.0185
  532TMC3     O 7900   3.665   1.678  13.506  0.4434 -0.2410  0.2137
  532TMC3     H 7901   3.734   1.813  13.674 -0.6866  1.2260  0.6914
  532TMC3    H1 7902   4.028   1.529  13.568 -0.0231  0.3810 -1.7520
  532TMC3    H2 7903   4.146   1.929  13.607 -1.2111  1.5371  0.3442
  532TMC3    C7 7904   4.223   1.694  13.656 -0.1717 -0.4190  0.4816
  532TMC3    C8 7905   3.898   1.999  13.556  0.1202 -1.6894 -0.0896
  532TMC3    O1 7906   4.299   1.788  13.685 -0.1428  0.0427  0.6800
  532TMC3    O2 7907   3.987   2.083  13.540 -0.0125 -0.0831 -0.3814
  533TMC3    C1 7908   0.152   3.450  14.109 -0.6936  0.8251  0.4027
  533TMC3    C2 7909   0.283   3.462  14.102  0.2834 -0.1446 -0.1294
  533TMC3    C3 7910   0.344   3.580  14.097 -0.3232  0.7341  0.3667
  533TMC3    C4 7911   0.069   3.558  14.129 -0.2901  0.6234 -0.1779
  533TMC3    C5 7912   0.139   3.677  14.141 -0.2781  0.6311  0.0608
  533TMC3    C6 7913   0.269   3.695  14.117 -0.1440 -0.5467 -0.8180
  533TMC3     C 7914   0.091   3.316  14.136  0.4105  0.5762 -0.6792
  533TMC3     O 7915   0.162   3.232  14.185  0.2958  0.0252 -0.1206
  533TMC3     H 7916   0.350   3.377  14.095  0.3184 -0.1587  0.3822
  533TMC3    H1 7917   4.688   3.556  14.140 -0.1869 -1.0278  0.4435
  533TMC3    H2 7918   0.312   3.794  14.133 -1.5013 -0.3711  1.7987
  533TMC3    C7 7919   0.106   3.755  14.259  0.4845 -0.9337  0.3485
  533TMC3    C8 7920   0.463   3.600  14.169  0.2452  0.7948  0.2329
  533TMC3    O1 7921   0.156   3.867  14.265 -0.6262 -0.4395 -0.0730
  533TMC3    O2 7922   0.487   3.524  14.268  0.4047  0.1519  0.6259
  534MPD2     C 7923   1.883   4.234   1.712  0.0949 -0.1359  0.1884
  534MPD2    C1 7924   1.978   4.256   1.614 -0.8279 -0.2881 -0.2403
  534MPD2    C2 7925   1.976   4.167   1.506 -0.0843 -0.0828 -0.2884
  534MPD2    C3 7926   1.870   4.082   1.484  0.0857  0.1522  0.5804
  534MPD2    C4 7927   1.779   4.059   1.578  0.6222 -0.0441  0.2095
  534MPD2    C5 7928   1.791   4.134   1.693  0.4876  0.0102  0.1107
  534MPD2     H 7929   2.059   4.175   1.437  0.5655 -0.6880  0.4219
  534MPD2    H1 7930   1.707   3.979   1.567 -0.5036  0.9005  0.6598
  534MPD2    H2 7931   1.882   4.283   1.808 -1.0748 -1.9448  1.1027
  534MPD2    H3 7932   1.723   4.131   1.778 -0.9822  0.3171 -1.0433
  534MPD2     N 7933   1.854   4.014   1.367 -0.2054 -0.1180 -0.2696
  534MPD2    H5 7934   1.784   3.940   1.363 -1.1048  0.7905 -1.2526
  534MPD2    N1 7935   2.070   4.367   1.615 -0.3368  0.5503  0.0800
  534MPD2    H7 7936   2.130   4.381   1.535  1.0263  0.6739  1.1268
  535TMC3    C1 7937   1.879   3.954   1.139 -0.5868  0.3141 -0.1428
  535TMC3    C2 7938   1.852   3.822   1.168  0.1092  0.3424 -0.0408
  535TMC3    C3 7939   1.855   3.733   1.059  0.3470  0.1677  0.7555
  535TMC3    C4 7940   1.897   3.998   1.013  0.6486  0.0560  0.0163
  535TMC3    C5 7941   1.906   3.908   0.912  0.2947 -0.1424 -0.6370
  535TMC3    C6 7942   1.883   3.773   0.931  0.8655  0.5641  0.6856
  535TMC3     C 7943   1.920   4.046   1.249  0.5611 -0.1565 -0.3649
  535TMC3     O 7944   1.984   4.147   1.220 -0.2869 -0.1365 -0.1170
  535TMC3     H 7945   1.850   3.786   1.270 -0.0548 -0.6694 -0.4055
  535TMC3    H1 7946   1.922   4.103   1.006  0.4316  0.0227 -1.1343
  535TMC3    H2 7947   1.868   3.714   0.841 -2.6787  1.3910  0.7114
  535TMC3    C7 7948   1.934   3.964   0.778  0.5352 -0.8806  0.6505
  535TMC3    C8 7949   1.816   3.594   1.082  0.1807 -0.1676 -0.3306
  535TMC3    O1 7950   1.906   3.885   0.688  0.0597 -0.0604 -0.2614
  535TMC3    O2 7951   1.767   3.565   1.191  0.0854  0.0267 -0.0262
  536MPD2     C 7952   1.222   2.244  16.210  0.3556  0.7157  0.2747
  536MPD2    C1 7953   1.093   2.196  16.217 -0.1571 -0.0672  1.2259
  536MPD2    C2 7954   1.000   2.253  16.133  0.2795 -0.1677 -0.7380
  536MPD2    C3 7955   1.038   2.345  16.039  0.6028  0.2684 -0.1987
  536MPD2    C4 7956   1.176   2.368  16.018 -0.1667  0.0932  0.1509
  536MPD2    C5 7957   1.269   2.320  16.108  0.2288  0.2254 -0.6490
  536MPD2     H 7958   0.895   2.226  16.136  0.1334  0.5014  0.0149
  536MPD2    H1 7959   1.221   2.430  15.942 -1.2399  0.1341 -0.4496
  536MPD2    H2 7960   1.302   2.212  16.276 -0.5367  0.7257  1.3678
  536MPD2    H3 7961   1.373   2.344  16.095  0.0760  2.0606  1.5982
  536MPD2     N 7962   0.934   2.409  15.966  0.0860 -0.3284  0.0029
  536MPD2    H5 7963   0.843   2.366  15.973 -0.8491  1.3222 -2.3839
  536MPD2    N1 7964   1.056   2.116  16.327 -0.5613 -0.7257  0.0696
  536MPD2    H7 7965   1.139   2.090  16.380 -1.1333 -1.1586  0.7521
  537TMC3    C1 7966   0.929   1.956  16.450 -0.2302 -0.0564 -0.5759
  537TMC3    C2 7967   1.019   1.859  16.426 -0.0425  0.0588 -0.7910
  537TMC3    C3 7968   1.037   1.775  16.530 -0.8881  0.4762 -0.1082
  537TMC3    C4 7969   0.855   1.973  16.567  0.5480  0.4450  0.6966
  537TMC3    C5 7970   0.859   1.878  16.661  0.2858  0.0485  0.0913
  537TMC3    C6 7971   0.945   1.773  16.638  0.4337 -0.3325  0.5485
  537TMC3     C 7972   0.930   2.065  16.350  0.5948 -0.0347 -0.8759
  537TMC3     O 7973   0.816   2.086  16.310  0.7171 -0.6546 -0.5122
  537TMC3     H 7974   1.082   1.855  16.337 -0.8554  1.4353 -1.4163
  537TMC3    H1 7975   0.777   2.048  16.579 -0.4302 -0.5005  0.2454
  537TMC3    H2 7976   0.957   1.696  16.713  0.3766 -0.9276 -0.0517
  537TMC3    C7 7977   0.828   1.915  16.797  0.3880  0.0004 -0.2087
  537TMC3    C8 7978   1.174   1.788  16.573 -0.2830 -0.0862 -0.2110
  537TMC3    O1 7979   0.763   2.019  16.812  0.0398 -0.1743  0.4694
  537TMC3    O2 7980   1.249   1.867  16.523 -0.3485  0.3584 -0.1314
  538TMC3    C1 7981   2.214   1.166  11.070 -0.3340  0.0348  0.4989
  538TMC3    C2 7982   2.260   1.053  11.015 -0.0212 -0.6189 -0.1196
  538TMC3    C3 7983   2.247   1.037  10.884 -0.7377 -0.1301 -0.1588
  538TMC3    C4 7984   2.142   1.256  10.994 -0.0944 -0.9895  0.4080
  538TMC3    C5 7985   2.130   1.238  10.863 -0.1638  0.1285  0.6789
  538TMC3    C6 7986   2.186   1.126  10.799 -0.6422  0.0329  0.3061
  538TMC3     C 7987   2.217   1.174  11.212  0.3696 -0.7584  0.2291
  538TMC3     O 7988   2.138   1.250  11.268  0.2176  0.1985  0.8939
  538TMC3     H 7989   2.315   0.977  11.069  1.2450  0.8509  0.6862
  538TMC3    H1 7990   2.096   1.339  11.047  0.2616 -2.5069  3.1049
  538TMC3    H2 7991   2.174   1.100  10.694 -0.3743  0.2944  0.2090
  538TMC3    C7 7992   2.032   1.314  10.783 -0.2776  1.0173 -0.2950
  538TMC3    C8 7993   2.319   0.931  10.825  0.2054 -0.0632  0.4505
  538TMC3    O1 7994   1.973   1.261  10.688  0.8998 -0.2815  0.1966
  538TMC3    O2 7995   2.347   0.832  10.897 -0.6238  0.1284 -0.1627
  539MPD2     C 7996   2.206   0.710  11.397  0.0455  0.0087 -0.3555
  539MPD2    C1 7997   2.153   0.645  11.286  0.2921 -0.0918 -0.3793
  539MPD2    C2 7998   2.073   0.705  11.192  0.0845 -0.1340  0.2525
  539MPD2    C3 7999   2.038   0.841  11.219  0.1131 -0.0492 -0.0722
  539MPD2    C4 8000   2.084   0.905  11.330 -0.6348  0.3793  0.0484
  539MPD2    C5 8001   2.169   0.839  11.415  0.0544  0.1932  0.1970
  539MPD2     H 8002   2.038   0.659  11.100 -2.8558  1.0582  0.7752
  539MPD2    H1 8003   2.053   1.007  11.351 -0.4561  0.0504  1.9027
  539MPD2    H2 8004   2.273   0.676  11.475  0.5691 -0.2161 -0.9010
  539MPD2    H3 8005   2.195   0.881  11.512 -0.0817  1.0372 -0.1347
  539MPD2     N 8006   1.952   0.912  11.136 -0.2041 -0.5392  0.3040
  539MPD2    H5 8007   1.940   1.012  11.140 -0.2567 -0.5639  0.7415
  539MPD2    N1 8008   2.176   0.504  11.264  0.2120 -0.2016  0.5942
  539MPD2    H7 8009   2.133   0.458  11.185 -0.7317 -1.1226  1.6555
  540TMC3    C1 8010   1.794   0.971  10.979 -0.0914 -0.1994  0.2252
  540TMC3    C2 8011   1.769   0.966  10.841 -0.3206  0.2492  0.4030
  540TMC3    C3 8012   1.716   1.085  10.785  0.1128 -0.1179 -0.1067
  540TMC3    C4 8013   1.798   1.091  11.048  0.1009  0.2541  0.3118
  540TMC3    C5 8014   1.754   1.204  10.984 -0.4178  0.0107 -0.1127
  540TMC3    C6 8015   1.714   1.205  10.853  0.1138 -0.6002  0.8010
  540TMC3     C 8016   1.881   0.867  11.034  0.3951 -0.1061 -0.3203
  540TMC3     O 8017   1.889   0.758  10.974  0.3751 -0.2320 -0.2212
  540TMC3     H 8018   1.784   0.880  10.777 -0.4323 -0.1669  0.9345
  540TMC3    H1 8019   1.813   1.090  11.155  0.9327  0.0606  0.1970
  540TMC3    H2 8020   1.678   1.296  10.809 -1.9109 -1.3055  1.0220
  540TMC3    C7 8021   1.716   1.314  11.067 -0.1451  0.3782 -0.5159
  540TMC3    C8 8022   1.647   1.085  10.651 -0.4232  0.2296  0.5708
  540TMC3    O1 8023   1.717   1.287  11.186 -0.2946 -0.1958  0.3862
  540TMC3    O2 8024   1.636   1.191  10.595 -0.2976 -0.2129  0.4220
  541MPD2     C 8025   0.814   1.176  12.900  0.0990 -0.0891 -0.0532
  541MPD2    C1 8026   0.746   1.239  12.995  0.4089 -0.0706 -0.0068
  541MPD2    C2 8027   0.733   1.374  12.989 -0.3245 -0.5699 -0.7965
  541MPD2    C3 8028   0.795   1.453  12.894 -0.0086  0.5162  0.3199
  541MPD2    C4 8029   0.861   1.387  12.797 -0.5210 -0.0921  0.6216
  541MPD2    C5 8030   0.877   1.254  12.803 -0.1467 -0.0734 -0.6173
  541MPD2     H 8031   0.668   1.423  13.061 -1.9897 -4.7003  0.4857
  541MPD2    H1 8032   0.910   1.447  12.722 -0.4453  0.8766  1.4345
  541MPD2    H2 8033   0.824   1.068  12.897 -1.6105 -0.2231 -0.8315
  541MPD2    H3 8034   0.938   1.201  12.731  0.3283  1.4170 -1.3105
  541MPD2     N 8035   0.782   1.597  12.883  0.2223  0.2493  0.3701
  541MPD2    H5 8036   0.834   1.645  12.810 -1.9313  2.0840  0.0185
  541MPD2    N1 8037   0.684   1.157  13.094 -0.4949  0.2955  0.0266
  541MPD2    H7 8038   0.698   1.057  13.083  0.3000  0.0015  3.7175
  542TMC3    C1 8039   0.664   1.799  12.871  0.4727 -0.0968  1.1221
  542TMC3    C2 8040   0.541   1.849  12.837  0.1774  0.6726 -0.1816
  542TMC3    C3 8041   0.525   1.973  12.778  0.1266 -0.0826 -0.6401
  542TMC3    C4 8042   0.775   1.868  12.842 -0.1891 -0.3726 -0.1250
  542TMC3    C5 8043   0.768   1.988  12.773  0.4504 -0.6542  0.6443
  542TMC3    C6 8044   0.642   2.042  12.741 -0.3091 -0.7644 -0.3274
  542TMC3     C 8045   0.682   1.676  12.937 -0.1224  0.5607  0.0178
  542TMC3     O 8046   0.582   1.647  13.005  0.3302  0.3532  0.5121
  542TMC3     H 8047   0.457   1.790  12.872  0.7315  0.0235  0.0566
  542TMC3    H1 8048   0.868   1.815  12.862 -1.1241 -2.8020 -2.3058
  542TMC3    H2 8049   0.642   2.136  12.687  1.7524 -2.2815 -2.9505
  542TMC3    C7 8050   0.886   2.071  12.747  1.0728 -0.2795  0.2140
  542TMC3    C8 8051   0.399   2.022  12.724 -0.3091 -0.2840  0.5920
  542TMC3    O1 8052   0.866   2.192  12.735  0.1348 -0.6672 -0.6173
  542TMC3    O2 8053   0.409   2.114  12.642 -0.1228 -0.3542  0.2006
  543TMC3    C1 8054   0.098   2.850  17.071 -0.2953 -0.2118  0.8547
  543TMC3    C2 8055   0.114   2.717  17.064 -0.1472  0.4768 -0.0772
  543TMC3    C3 8056   0.196   2.672  17.165  0.2965 -0.4030 -0.0179
  543TMC3    C4 8057   0.150   2.938  17.172  0.2395  0.0611 -0.2122
  543TMC3    C5 8058   0.233   2.880  17.265  0.6409  0.1637  0.0067
  543TMC3    C6 8059   0.250   2.747  17.262 -0.1037 -0.9548 -0.2195
  543TMC3     C 8060   0.061   2.929  16.957 -0.2590 -0.4320 -0.0627
  543TMC3     O 8061   0.062   3.049  16.960  0.3008  0.0885  0.5141
  543TMC3     H 8062   0.086   2.651  16.983 -1.3570 -1.7555  2.1565
  543TMC3    H1 8063   0.126   3.043  17.176 -1.2038 -0.3135  0.9773
  543TMC3    H2 8064   0.319   2.698  17.330  1.2690  0.2734 -0.7235
  543TMC3    C7 8065   0.298   2.962  17.365  0.0998 -0.7327 -0.4832
  543TMC3    C8 8066   0.194   2.529  17.178  0.0495 -0.4066  0.0105
  543TMC3    O1 8067   0.414   2.931  17.388 -0.3985  0.4092 -0.9610
  543TMC3    O2 8068   0.172   2.469  17.076 -0.2179 -0.4888  0.2193
  544MPD2     C 8069   0.250   2.108  17.475  0.0966  0.2405 -0.4163
  544MPD2    C1 8070   0.279   2.122  17.337  0.4654  0.5526 -0.3076
  544MPD2    C2 8071   0.264   2.248  17.283 -0.0133  0.5814 -0.3931
  544MPD2    C3 8072   0.214   2.358  17.360  0.6053  0.7464  0.5188
  544MPD2    C4 8073   0.182   2.335  17.497 -0.3050 -0.0577 -0.2860
  544MPD2    C5 8074   0.205   2.213  17.549  0.2760 -0.6750  0.1660
  544MPD2     H 8075   0.289   2.261  17.178  0.7528 -0.4936 -0.3387
  544MPD2    H1 8076   0.152   2.415  17.563  1.0576  0.3867 -0.2048
  544MPD2    H2 8077   0.288   2.027  17.536  1.4223  1.3075  0.1910
  544MPD2    H3 8078   0.180   2.204  17.654 -2.5267  2.0507 -0.2632
  544MPD2     N 8079   0.198   2.492  17.310 -0.2590 -0.1624 -0.1124
  544MPD2    H5 8080   0.180   2.557  17.385 -1.7492 -0.1989 -0.4306
  544MPD2    N1 8081   0.331   2.015  17.264  0.6345 -0.1648 -0.7255
  544MPD2    H7 8082   0.339   1.933  17.324 -1.0442 -1.1328 -1.8408
  545TMC3    C1 8083   0.448   1.889  17.110 -0.7026 -1.1310  0.5176
  545TMC3    C2 8084   0.453   1.851  16.979 -0.4713  0.1265 -0.4268
  545TMC3    C3 8085   0.520   1.733  16.939  0.3869  0.1239 -0.0054
  545TMC3    C4 8086   0.503   1.813  17.209 -0.0178  0.7673  0.4180
  545TMC3    C5 8087   0.561   1.694  17.171 -0.4025 -0.5790 -0.4913
  545TMC3    C6 8088   0.566   1.651  17.037 -0.6267 -0.5090  0.3795
  545TMC3     C 8089   0.374   2.007  17.135  0.7966 -0.6772 -0.1139
  545TMC3     O 8090   0.377   2.100  17.053  0.1194 -0.2377  0.1935
  545TMC3     H 8091   0.435   1.928  16.905  1.6185  0.9857 -0.0407
  545TMC3    H1 8092   0.506   1.847  17.312 -1.1455  1.9126  0.0617
  545TMC3    H2 8093   0.621   1.561  17.012  0.9439  0.6426 -0.3657
  545TMC3    C7 8094   0.593   1.599  17.273  0.0593 -0.2553  0.2481
  545TMC3    C8 8095   0.566   1.709  16.795  0.2387  0.1214 -0.0530
  545TMC3    O1 8096   0.585   1.487  17.231 -0.1118 -0.1308  0.2911
  545TMC3    O2 8097   0.632   1.610  16.776  0.1454  0.0092  0.1109
  546MPD2     C 8098   1.439   3.146  17.368  0.0544  0.0312  0.7284
  546MPD2    C1 8099   1.457   3.179  17.234 -0.1645  0.3051  0.1631
  546MPD2    C2 8100   1.527   3.291  17.200  0.1211 -0.3908  0.5833
  546MPD2    C3 8101   1.572   3.379  17.299 -0.1463 -0.2970 -0.1223
  546MPD2    C4 8102   1.545   3.352  17.429 -0.1863 -0.7035  0.4396
  546MPD2    C5 8103   1.481   3.235  17.461  0.0547  0.6974 -1.1321
  546MPD2     H 8104   1.549   3.312  17.096  2.5142  0.0987  1.1777
  546MPD2    H1 8105   1.573   3.420  17.508 -1.6707 -1.0889  1.2980
  546MPD2    H2 8106   1.383   3.057  17.395  0.0082  0.3891  1.8080
  546MPD2    H3 8107   1.459   3.222  17.567 -0.0553 -0.1741 -1.2594
  546MPD2     N 8108   1.651   3.485  17.279  0.1567 -0.4289 -0.4722
  546MPD2    H5 8109   1.653   3.552  17.355  0.9383 -1.5837  0.5430
  546MPD2    N1 8110   1.394   3.103  17.140 -0.3906 -0.0856  0.1703
  546MPD2    H7 8111   1.347   3.019  17.171 -1.0099 -0.3566 -1.4991
  547TMC3    C1 8112   1.301   3.041  16.924 -0.0953  0.4845 -0.5455
  547TMC3    C2 8113   1.267   3.083  16.798 -0.1241 -0.6900 -0.1164
  547TMC3    C3 8114   1.223   2.990  16.702  0.3123 -0.5927 -0.4286
  547TMC3    C4 8115   1.277   2.911  16.967  0.2702 -0.1622 -0.5392
  547TMC3    C5 8116   1.232   2.824  16.871 -0.3672 -0.9189  0.6294
  547TMC3    C6 8117   1.203   2.861  16.742 -0.1066  0.7530 -0.2751
  547TMC3     C 8118   1.366   3.145  17.004 -0.1974 -1.2653  0.6995
  547TMC3     O 8119   1.397   3.251  16.950  0.0543  0.7859  0.3383
  547TMC3     H 8120   1.289   3.182  16.761  2.8488 -1.0153  0.7718
  547TMC3    H1 8121   1.337   2.881  17.052 -0.0481 -0.9154 -0.5872
  547TMC3    H2 8122   1.154   2.796  16.670 -2.2617  0.6135  1.3350
  547TMC3    C7 8123   1.185   2.695  16.911  0.2409 -0.1528  0.7958
  547TMC3    C8 8124   1.151   3.048  16.588 -0.5707  0.1112 -0.4910
  547TMC3    O1 8125   1.164   2.683  17.031  0.1900  0.0239 -0.5878
  547TMC3    O2 8126   1.123   3.170  16.583 -0.0247  0.4924  0.0216
  548MPD2     C 8127   0.623   3.541  11.758 -0.0338  0.5846  0.1948
  548MPD2    C1 8128   0.649   3.494  11.883 -0.6504 -0.9388  0.0070
  548MPD2    C2 8129   0.775   3.453  11.918  0.2306 -0.6089  0.0736
  548MPD2    C3 8130   0.870   3.435  11.818 -0.2293 -1.0592 -0.3335
  548MPD2    C4 8131   0.835   3.487  11.685  0.3365  0.4267 -0.1202
  548MPD2    C5 8132   0.714   3.544  11.664 -0.7839  0.2615  0.3014
  548MPD2     H 8133   0.787   3.412  12.018  1.0922  0.1533  0.2791
  548MPD2    H1 8134   0.899   3.478  11.598  1.2817  0.8411  0.5232
  548MPD2    H2 8135   0.527   3.587  11.734 -1.6770 -2.1128  1.6576
  548MPD2    H3 8136   0.681   3.594  11.573  1.0589 -0.6464 -0.8623
  548MPD2     N 8137   0.982   3.361  11.850 -0.1287 -0.7445  0.4255
  548MPD2    H5 8138   0.982   3.333  11.948  0.5775 -0.9418  0.3660
  548MPD2    N1 8139   0.538   3.504  11.973 -0.1247 -0.1517 -0.3762
  548MPD2    H7 8140   0.460   3.561  11.943  0.8386  0.9966 -0.6879
  549TMC3    C1 8141   0.426   3.481  12.186 -0.1508 -0.0473 -0.1471
  549TMC3    C2 8142   0.393   3.614  12.179  0.5316  0.2700  0.4989
  549TMC3    C3 8143   0.310   3.653  12.275 -0.1309  0.3617  1.1030
  549TMC3    C4 8144   0.387   3.396  12.291 -0.5351  0.3529  0.3756
  549TMC3    C5 8145   0.301   3.447  12.381 -0.7789  0.3346 -0.7437
  549TMC3    C6 8146   0.258   3.574  12.376 -0.1341 -0.0790  0.0923
  549TMC3     C 8147   0.522   3.426  12.091  0.0409 -0.2573  0.8814
  549TMC3     O 8148   0.594   3.333  12.124 -0.6643  0.0129  0.1757
  549TMC3     H 8149   0.420   3.680  12.097 -1.1728 -1.7890 -1.7435
  549TMC3    H1 8150   0.420   3.293  12.286  3.4387  1.7116 -1.3541
  549TMC3    H2 8151   0.187   3.612  12.449 -2.2538 -3.1012 -0.3918
  549TMC3    C7 8152   0.285   3.390  12.512  0.3390  0.1440  0.0732
  549TMC3    C8 8153   0.269   3.792  12.280  0.0408  0.4763  0.6887
  549TMC3    O1 8154   0.268   3.461  12.607  0.1404 -1.2074 -0.0924
  549TMC3    O2 8155   0.158   3.837  12.295  0.1253  0.1081  0.4004
  550TMC3    C1 8156   4.083   1.830  13.136 -0.1643  0.7313 -0.3262
  550TMC3    C2 8157   4.018   1.945  13.150 -0.8875 -0.3498 -0.2432
  550TMC3    C3 8158   4.067   2.061  13.099  0.1269  0.1558 -0.2526
  550TMC3    C4 8159   4.205   1.828  13.066 -0.4784  0.0852  0.4770
  550TMC3    C5 8160   4.256   1.943  13.013 -0.5770  0.2033 -0.4208
  550TMC3    C6 8161   4.194   2.061  13.036  0.1758  0.2598  0.4582
  550TMC3     C 8162   3.997   1.722  13.096 -0.7792  0.5278 -0.0102
  550TMC3     O 8163   3.892   1.701  13.155  0.1122 -0.4261 -0.0341
  550TMC3     H 8164   3.919   1.942  13.192  0.0719  1.2173  2.1504
  550TMC3    H1 8165   4.249   1.730  13.050  0.9363  1.1230 -2.0664
  550TMC3    H2 8166   4.242   2.150  12.996  1.9452 -0.8392  0.1240
  550TMC3    C7 8167   4.277   1.915  12.875  0.3723 -0.3841 -0.0157
  550TMC3    C8 8168   3.983   2.151  13.024 -0.2246  0.1319  0.1710
  550TMC3    O1 8169   4.226   1.811  12.839  1.3060 -0.5903 -0.0715
  550TMC3    O2 8170   4.038   2.242  12.966 -0.0821  0.4914 -0.5804
  551TMC3    C1 8171   2.015   3.908  13.062  0.1159  0.5219 -0.3617
  551TMC3    C2 8172   2.143   3.860  13.037  0.5063 -0.4155 -0.1378
  551TMC3    C3 8173   2.238   3.892  13.123  0.3579 -0.0403 -0.0833
  551TMC3    C4 8174   1.976   3.981  13.175  0.3790  0.2204  0.2082
  551TMC3    C5 8175   2.070   4.002  13.265  0.4617  0.4268  0.3743
  551TMC3    C6 8176   2.200   3.955  13.238 -0.7476  0.4323  0.2099
  551TMC3     C 8177   1.912   3.897  12.962 -0.3463 -0.1351  0.5482
  551TMC3     O 8178   1.801   3.914  13.008 -0.0334  0.0770  0.1864
  551TMC3     H 8179   2.178   3.833  12.938 -0.0583  0.4585 -0.5783
  551TMC3    H1 8180   1.877   4.021  13.190 -0.0636 -0.2656 -1.4613
  551TMC3    H2 8181   2.277   3.984  13.309 -1.1825  2.1744 -0.0356
  551TMC3    C7 8182   2.053   4.072  13.392  0.2971  0.7073 -0.0734
  551TMC3    C8 8183   2.351   3.952  13.052  0.8295  0.1457  0.2035
  551TMC3    O1 8184   2.131   4.051  13.483 -0.2689 -0.1872 -0.0455
  551TMC3    O2 8185   2.409   3.883  12.974 -0.3203  0.0422 -0.0031
  552MPD2     C 8186   3.960   1.557  13.962 -0.8745  0.1720  0.4540
  552MPD2    C1 8187   3.926   1.442  14.036 -0.0757 -0.5557 -0.5859
  552MPD2    C2 8188   4.011   1.402  14.134  0.2018  0.3623  0.3929
  552MPD2    C3 8189   4.129   1.466  14.156 -0.0426  0.3177  0.1569
  552MPD2    C4 8190   4.159   1.585  14.095 -0.5782 -0.1017 -0.4680
  552MPD2    C5 8191   4.073   1.635  14.000 -0.5707 -0.4383  0.3914
  552MPD2     H 8192   3.987   1.307  14.181 -1.9576 -0.1851 -1.8620
  552MPD2    H1 8193   4.247   1.643  14.121  0.7484 -1.6245 -1.5859
  552MPD2    H2 8194   3.902   1.608  13.886 -0.3711  1.1777  0.7344
  552MPD2    H3 8195   4.076   1.737  13.965  1.3061 -0.9630 -0.9901
  552MPD2     N 8196   4.232   1.406  14.235  0.0432  0.0677 -0.6561
  552MPD2    H5 8197   4.321   1.455  14.237  0.3112 -0.3937 -1.2558
  552MPD2    N1 8198   3.822   1.358  13.998  0.0738 -0.0036  0.0978
  552MPD2    H7 8199   3.822   1.265  14.038  1.3841 -0.0339  0.0442
  553TMC3    C1 8200   3.656   1.272  13.860 -0.2499  0.3851  1.0213
  553TMC3    C2 8201   3.644   1.261  13.728  0.1993 -0.7691  0.3489
  553TMC3    C3 8202   3.662   1.136  13.673  0.1441 -0.2188  0.0318
  553TMC3    C4 8203   3.652   1.152  13.937  0.1004  0.4456  0.1087
  553TMC3    C5 8204   3.680   1.030  13.878 -0.6644 -0.2470  0.0978
  553TMC3    C6 8205   3.675   1.019  13.746  0.2855  0.3339  0.5957
  553TMC3     C 8206   3.733   1.391  13.901 -0.0827  0.5029 -0.0390
  553TMC3     O 8207   3.702   1.496  13.850  0.3263 -0.3892  0.3530
  553TMC3     H 8208   3.641   1.347  13.662  0.7513  0.0528  1.3701
  553TMC3    H1 8209   3.685   1.161  14.040  0.8599 -2.0709  0.0848
  553TMC3    H2 8210   3.711   0.928  13.700  0.5003  0.7109  0.0211
  553TMC3    C7 8211   3.803   0.963  13.926 -0.8959  0.6438  0.2315
  553TMC3    C8 8212   3.773   1.145  13.584  0.3307 -0.4390 -0.5233
  553TMC3    O1 8213   3.801   0.901  14.030 -0.2972  0.6537 -0.2826
  553TMC3    O2 8214   3.871   1.197  13.635  0.1408  0.0201  0.4772
  554TMC3    C1 8215   1.395   0.443  11.111 -0.0679  0.4291  0.4024
  554TMC3    C2 8216   1.359   0.361  11.005 -0.7374  0.1570 -0.3490
  554TMC3    C3 8217   1.389   0.411  10.880 -0.4377 -0.3125  0.3707
  554TMC3    C4 8218   1.446   0.567  11.092 -0.0196 -0.1738  0.1892
  554TMC3    C5 8219   1.477   0.608  10.962  0.1399 -0.1289 -0.1900
  554TMC3    C6 8220   1.460   0.526  10.859 -0.3186 -0.4393 -0.0597
  554TMC3     C 8221   1.390   0.402  11.252 -0.3940  0.5530  0.1620
  554TMC3     O 8222   1.457   0.457  11.335  0.1341 -0.0354  0.1684
  554TMC3     H 8223   1.318   0.262  11.022  0.1291  0.2724  2.5424
  554TMC3    H1 8224   1.470   0.625  11.180  0.1058  2.5049 -1.6009
  554TMC3    H2 8225   1.482   0.556  10.758  1.5317  2.2520  1.1314
  554TMC3    C7 8226   1.470   0.748  10.927  0.6167  0.1375 -0.7813
  554TMC3    C8 8227   1.317   0.349  10.768  0.3809 -1.3217 -0.3061
  554TMC3    O1 8228   1.486   0.783  10.812 -0.8583  0.8330 -0.0325
  554TMC3    O2 8229   1.364   0.399  10.666 -0.3585 -0.2085  0.3751
  555TMC3    C1 8230   0.109   0.275  14.985  0.7625 -0.4842 -1.1495
  555TMC3    C2 8231   0.067   0.315  15.105  0.2756 -0.1417  0.5554
  555TMC3    C3 8232   0.115   0.260  15.222  0.3664  0.8347  0.3848
  555TMC3    C4 8233   0.190   0.158  14.984  0.1817  0.0111 -0.1359
  555TMC3    C5 8234   0.217   0.090  15.102  0.8060 -0.1540 -1.0763
  555TMC3    C6 8235   0.182   0.142  15.222  0.0211  0.1288  0.3944
  555TMC3     C 8236   0.093   0.356  14.862  0.0483  0.0339 -0.5525
  555TMC3     O 8237   0.183   0.362  14.780 -0.6868  0.4779 -0.0969
  555TMC3     H 8238   0.010   0.407  15.097 -1.7599 -1.4672 -0.1531
  555TMC3    H1 8239   0.209   0.113  14.887 -1.6324  0.0337 -0.4993
  555TMC3    H2 8240   0.215   0.086  15.309 -0.9025 -0.2818  0.4824
  555TMC3    C7 8241   0.239   4.670  15.101  0.2788 -0.0148 -0.0191
  555TMC3    C8 8242   0.077   0.329  15.344 -0.1605  0.0214 -0.6553
  555TMC3    O1 8243   0.189   4.606  15.197  0.2622 -0.0244  0.1091
  555TMC3    O2 8244   4.716   0.415  15.331  0.0444 -0.0270  0.0990
  556MPD2     C 8245   3.432   1.639  10.519 -0.1257 -0.6253 -0.0673
  556MPD2    C1 8246   3.297   1.646  10.552 -0.1391 -0.3377 -0.0965
  556MPD2    C2 8247   3.204   1.573  10.488  0.8596 -0.2235  0.4870
  556MPD2    C3 8248   3.238   1.489  10.387 -0.4577 -0.3176  0.8551
  556MPD2    C4 8249   3.370   1.475  10.361  0.0190  0.3994  0.3636
  556MPD2    C5 8250   3.467   1.551  10.423 -0.4301 -0.1431  0.0613
  556MPD2     H 8251   3.100   1.578  10.518  0.6658  1.0202 -0.3973
  556MPD2    H1 8252   3.401   1.395  10.295 -1.4645  0.3726 -0.2935
  556MPD2    H2 8253   3.518   1.676  10.573 -0.2876 -0.1437 -0.1414
  556MPD2    H3 8254   3.568   1.539  10.385 -0.0793 -1.9150  1.5497
  556MPD2     N 8255   3.132   1.414  10.320 -0.5927 -0.0566 -0.6608
  556MPD2    H5 8256   3.037   1.427  10.350  0.3855  1.3303  1.8262
  556MPD2    N1 8257   3.257   1.737  10.662 -0.0665  0.0098 -0.4548
  556MPD2    H7 8258   3.157   1.744  10.676  0.2941  3.2126  0.6102
  557TMC3    C1 8259   3.023   1.255  10.180  0.3880 -0.7067  0.1132
  557TMC3    C2 8260   3.033   1.185  10.066 -0.3346 -0.0404  0.4599
  557TMC3    C3 8261   2.949   1.086  10.057  0.6887  0.3242  0.1048
  557TMC3    C4 8262   2.935   1.228  10.282 -0.0827 -0.0054  0.5621
  557TMC3    C5 8263   2.852   1.126  10.262 -0.9569  0.2650  0.1108
  557TMC3    C6 8264   2.851   1.056  10.142 -0.2695  0.0424  0.3282
  557TMC3     C 8265   3.144   1.327  10.211 -0.0035 -0.0777  0.2084
  557TMC3     O 8266   3.241   1.319  10.138 -0.2797 -0.1916 -0.2955
  557TMC3     H 8267   3.114   1.197   9.995  1.7910  0.5088  2.9807
  557TMC3    H1 8268   2.940   1.277  10.378  1.9626 -0.0322  0.4646
  557TMC3    H2 8269   2.764   0.996  10.115 -0.3318  0.0876  0.4300
  557TMC3    C7 8270   2.755   1.101  10.366 -0.3506  0.3358  1.0675
  557TMC3    C8 8271   2.951   1.030   9.923 -0.4085 -0.4030 -0.1412
  557TMC3    O1 8272   2.730   1.190  10.445 -0.7241  0.4882 -0.3196
  557TMC3    O2 8273   2.999   1.102   9.838  0.5423 -0.3447 -0.0188
  558TMC3    C1 8274   0.857   4.179   9.850  0.5685 -0.5350  0.5092
  558TMC3    C2 8275   0.746   4.194   9.932 -0.0220 -0.1714 -0.1328
  558TMC3    C3 8276   0.617   4.195   9.878  0.4687 -0.1793  0.0269
  558TMC3    C4 8277   0.840   4.156   9.718 -0.4875 -0.2655 -0.4215
  558TMC3    C5 8278   0.713   4.158   9.665 -0.7649 -0.3737 -0.4701
  558TMC3    C6 8279   0.605   4.183   9.747  0.4274  0.7786 -1.0499
  558TMC3     C 8280   0.986   4.140   9.913  0.3069  0.7900 -0.2182
  558TMC3     O 8281   1.066   4.086   9.835  0.0025 -0.0112  0.2719
  558TMC3     H 8282   0.762   4.202  10.039  0.1305  0.3318 -0.1925
  558TMC3    H1 8283   0.929   4.142   9.657  0.3019  1.0047  0.4298
  558TMC3    H2 8284   0.506   4.180   9.704 -0.4410  1.5396  0.8890
  558TMC3    C7 8285   0.702   4.184   9.519  0.1773  0.1155 -0.1138
  558TMC3    C8 8286   0.500   4.214   9.960 -0.3203 -0.2703  0.8364
  558TMC3    O1 8287   0.804   4.204   9.454  0.0391  0.1186 -0.8866
  558TMC3    O2 8288   0.405   4.267   9.901 -0.2137 -0.1642 -0.6467
  559MPD2     C 8289   0.832   0.112  10.150 -0.0458  0.1663 -0.4468
  559MPD2    C1 8290   0.767   0.031  10.239  0.1592 -0.6473  0.4671
  559MPD2    C2 8291   0.839   4.687  10.332  0.1150  0.5152 -0.0461
  559MPD2    C3 8292   0.977   4.707  10.335 -0.3293 -0.0354 -0.4409
  559MPD2    C4 8293   1.041   0.056  10.240  0.2627  0.8789 -0.2215
  559MPD2    C5 8294   0.969   0.134  10.151  0.2381 -1.0296  0.2198
  559MPD2     H 8295   0.792   4.621  10.405  1.5287 -0.2949  0.1373
  559MPD2    H1 8296   1.149   0.067  10.241  0.4111 -0.6421  0.6369
  559MPD2    H2 8297   0.782   0.174  10.076 -1.5202 -0.8113 -0.2770
  559MPD2    H3 8298   1.015   0.195  10.074 -2.8322 -0.1392 -0.9383
  559MPD2     N 8299   1.050   4.642  10.437  0.1239  0.7748 -0.2935
  559MPD2    H5 8300   0.992   4.573  10.484 -0.2574  0.3589 -1.3738
  559MPD2    N1 8301   0.628   0.009  10.234 -0.6806 -0.5148  0.1114
  559MPD2    H7 8302   0.563   0.083  10.212  1.7814  1.4579 -0.4641
  560TMC3    C1 8303   1.230   4.604  10.607  0.1993  0.1909  0.1159
  560TMC3    C2 8304   1.222   4.465  10.618 -0.3035 -0.0576  0.4305
  560TMC3    C3 8305   1.267   4.403  10.730 -0.2792  0.5558 -0.0110
  560TMC3    C4 8306   1.294   4.676  10.701  0.0394  0.6454  0.0631
  560TMC3    C5 8307   1.339   4.614  10.813  0.1056 -0.2581 -0.2644
  560TMC3    C6 8308   1.326   4.477  10.831  0.3236 -0.5615 -0.1286
  560TMC3     C 8309   1.168   4.683  10.493  0.6224 -0.1236 -0.0067
  560TMC3     O 8310   1.223   0.060  10.461 -0.6373 -0.3326  0.2519
  560TMC3     H 8311   1.181   4.414  10.531 -0.6881  1.3036 -0.1821
  560TMC3    H1 8312   1.304   0.057  10.686  1.3050  0.4023 -0.8676
  560TMC3    H2 8313   1.360   4.434  10.925  1.2333  3.1228  1.2238
  560TMC3    C7 8314   1.386   4.685  10.929  0.9181  0.0643  0.3936
  560TMC3    C8 8315   1.184   4.287  10.765 -0.4803  0.6353 -1.0413
  560TMC3    O1 8316   1.367   4.638  11.044  0.3420  0.2047 -0.0010
  560TMC3    O2 8317   1.094   4.263  10.682  0.1893 -0.2441 -0.3310
  561TMC3    C1 8318   3.372   3.902  10.969  0.2186 -0.5374  0.6945
  561TMC3    C2 8319   3.245   3.871  11.008 -0.3912 -0.0426  0.0264
  561TMC3    C3 8320   3.189   3.927  11.127  0.5309  0.0926  0.4364
  561TMC3    C4 8321   3.442   4.002  11.031  0.0196 -0.7303 -0.0805
  561TMC3    C5 8322   3.382   4.056  11.142  0.0392 -1.2132 -0.1650
  561TMC3    C6 8323   3.259   4.021  11.195  0.3540  1.0514  0.3177
  561TMC3     C 8324   3.416   3.867  10.830 -0.4628  0.5674  0.6209
  561TMC3     O 8325   3.326   3.830  10.757  0.0546 -0.4105  0.2966
  561TMC3     H 8326   3.177   3.813  10.947 -0.9315  1.1851 -0.5334
  561TMC3    H1 8327   3.543   4.031  11.003 -0.0311 -0.3636  0.1147
  561TMC3    H2 8328   3.217   4.077  11.278 -1.3936 -1.8997  1.3980
  561TMC3    C7 8329   3.440   4.179  11.192 -0.0980 -0.3011  0.7224
  561TMC3    C8 8330   3.049   3.891  11.160  0.1547  0.3349  0.0320
  561TMC3    O1 8331   3.409   4.215  11.305 -0.1498 -0.2470 -0.1176
  561TMC3    O2 8332   3.006   3.800  11.101  0.7293  0.6705 -0.0246
  562TMC3    C1 8333   0.143   0.586  16.336 -0.6035 -0.5088 -0.7189
  562TMC3    C2 8334   0.067   0.700  16.332 -0.0618  0.6104  0.7912
  562TMC3    C3 8335   4.686   0.703  16.245 -0.6555  0.7991  0.6214
  562TMC3    C4 8336   0.102   0.468  16.283  0.2693 -0.4525 -0.3661
  562TMC3    C5 8337   4.712   0.474  16.207  0.1456  0.2938  0.4906
  562TMC3    C6 8338   4.639   0.591  16.188 -0.2970  0.0945 -0.4153
  562TMC3     C 8339   0.266   0.582  16.419  0.1728 -0.2029 -0.3082
  562TMC3     O 8340   0.355   0.503  16.392 -0.8884 -0.1651 -0.4675
  562TMC3     H 8341   0.103   0.795  16.371  1.7676  0.4510 -0.5048
  562TMC3    H1 8342   0.170   0.386  16.303  1.2679  0.9329  2.0028
  562TMC3    H2 8343   4.539   0.596  16.148 -0.2645  0.1222 -0.4923
  562TMC3    C7 8344   4.668   0.374  16.111  0.1400 -0.0153 -0.6902
  562TMC3    C8 8345   4.610   0.830  16.233  0.1057 -0.5643 -0.7595
  562TMC3    O1 8346   4.574   0.394  16.038 -0.5641 -0.4867 -0.2891
  562TMC3    O2 8347   4.617   0.916  16.316 -0.2402  0.1060 -0.0990
  563MPD2     C 8348   1.838   1.549  15.495  0.0088  1.1145 -0.2640
  563MPD2    C1 8349   1.870   1.650  15.584 -0.2600 -0.5318 -0.1016
  563MPD2    C2 8350   2.004   1.660  15.624  0.3860 -0.2108 -0.1231
  563MPD2    C3 8351   2.095   1.565  15.595 -0.4240  0.4013 -0.4539
  563MPD2    C4 8352   2.061   1.466  15.516 -0.4284  0.1277  0.2204
  563MPD2    C5 8353   1.929   1.455  15.463  0.4843  0.0626 -0.4097
  563MPD2     H 8354   2.042   1.743  15.681 -1.1129 -0.0838  0.6924
  563MPD2    H1 8355   2.132   1.384  15.506 -0.2171  0.6067 -2.1204
  563MPD2    H2 8356   1.738   1.546  15.453  0.7438  0.9028 -1.9967
  563MPD2    H3 8357   1.912   1.369  15.400 -1.5711  0.2912 -0.1459
  563MPD2     N 8358   2.218   1.575  15.662 -0.6006 -0.0635 -0.6966
  563MPD2    H5 8359   2.225   1.662  15.715 -2.7799 -1.5080  2.0122
  563MPD2    N1 8360   1.777   1.750  15.622 -0.0302  0.2838  0.0566
  563MPD2    H7 8361   1.679   1.723  15.614  0.3017 -1.1142  0.6678
  564TMC3    C1 8362   1.738   1.843  15.818 -0.1324  1.2032 -0.5565
  564TMC3    C2 8363   1.625   1.767  15.825  0.0281  0.0497 -0.3148
  564TMC3    C3 8364   1.608   1.679  15.927  0.1941  0.0498 -0.0392
  564TMC3    C4 8365   1.837   1.834  15.909  0.2844 -0.3622  0.3916
  564TMC3    C5 8366   1.824   1.735  16.009  0.9457  0.5526 -0.8661
  564TMC3    C6 8367   1.708   1.659  16.020  0.2295 -0.2180 -0.1122
  564TMC3     C 8368   1.806   1.864  15.689 -0.0333 -0.5816 -0.3121
  564TMC3     O 8369   1.901   1.938  15.683  0.3311 -0.2190 -0.6865
  564TMC3     H 8370   1.539   1.794  15.764  0.0248 -1.4878 -0.9791
  564TMC3    H1 8371   1.941   1.859  15.889  1.0474 -2.1344  2.0908
  564TMC3    H2 8372   1.701   1.587  16.100  0.0077 -0.0974 -0.0250
  564TMC3    C7 8373   1.941   1.660  15.996 -0.0684 -0.0754  0.4806
  564TMC3    C8 8374   1.526   1.557  15.906 -0.2691  1.0841  0.4392
  564TMC3    O1 8375   2.053   1.696  16.036 -0.4885  0.0948 -0.3811
  564TMC3    O2 8376   1.500   1.490  16.005 -0.2145 -0.7352  0.7204
  565TMC3    C1 8377   2.934   2.929  10.137 -0.2202  0.6494 -0.5224
  565TMC3    C2 8378   2.967   2.927  10.265  0.4310 -0.3616 -0.7145
  565TMC3    C3 8379   2.951   2.817  10.339 -0.0138 -0.6820 -0.2296
  565TMC3    C4 8380   2.876   2.828  10.075 -0.5202 -0.0837 -0.2913
  565TMC3    C5 8381   2.847   2.722  10.157 -0.3451 -0.5395  0.6071
  565TMC3    C6 8382   2.883   2.714  10.288  0.8294  0.1754 -0.2836
  565TMC3     C 8383   3.003   3.020  10.049 -0.3213  0.2578 -0.2440
  565TMC3     O 8384   2.932   3.039   9.951 -0.0289 -0.0983  0.6295
  565TMC3     H 8385   3.012   3.012  10.316 -1.2813 -0.3951  0.8450
  565TMC3    H1 8386   2.859   2.829   9.968 -1.3289 -1.0786 -0.1745
  565TMC3    H2 8387   2.846   2.629  10.345 -0.9967 -0.3852 -2.3211
  565TMC3    C7 8388   2.771   2.614  10.096 -0.1277  0.3108  0.4033
  565TMC3    C8 8389   2.990   2.806  10.476 -0.3212 -0.6878  0.7130
  565TMC3    O1 8390   2.767   2.513  10.168  0.3537 -0.2413 -0.5296
  565TMC3    O2 8391   3.004   2.906  10.545  0.1575 -0.2894 -0.1500
  566MPD2     C 8392   4.251   0.254  13.972 -0.7316 -0.1064  0.4137
  566MPD2    C1 8393   4.308   0.294  13.858 -0.3458 -0.2301  0.1148
  566MPD2    C2 8394   4.234   0.316  13.749 -0.3576  0.1686  0.3191
  566MPD2    C3 8395   4.099   0.280  13.748 -0.5570 -0.5228  0.1863
  566MPD2    C4 8396   4.039   0.229  13.859 -0.2992 -0.0577  0.2009
  566MPD2    C5 8397   4.113   0.234  13.974  0.0337  0.6743  0.1926
  566MPD2     H 8398   4.276   0.350  13.655 -0.3990  1.0774  0.6270
  566MPD2    H1 8399   3.932   0.212  13.867  0.0381 -1.8237  0.9497
  566MPD2    H2 8400   4.310   0.239  14.062  1.0684 -2.2274 -1.1274
  566MPD2    H3 8401   4.080   0.192  14.068  3.0146 -3.3247 -0.5435
  566MPD2     N 8402   4.031   0.267  13.623  0.0433  0.3849 -0.3717
  566MPD2    H5 8403   3.975   0.182  13.618  1.0616 -0.2013 -1.7078
  566MPD2    N1 8404   4.451   0.311  13.868  0.4198  0.0584 -0.3465
  566MPD2    H7 8405   4.487   0.285  13.959  2.9604  1.9980 -0.7864
  567TMC3    C1 8406   4.672   0.365  13.791 -0.4758 -0.1271 -0.0005
  567TMC3    C2 8407   0.023   0.361  13.676  0.6084  0.0930  0.2072
  567TMC3    C3 8408   0.152   0.332  13.687 -0.4243  0.1604 -0.1964
  567TMC3    C4 8409   4.725   0.347  13.922 -0.2350 -0.0486 -0.0795
  567TMC3    C5 8410   0.129   0.316  13.922  0.2836  0.3817  0.0721
  567TMC3    C6 8411   0.215   0.324  13.809 -0.2335 -0.4524 -0.2335
  567TMC3     C 8412   4.527   0.354  13.762  0.2663 -0.4496  0.2077
  567TMC3     O 8413   4.494   0.401  13.655 -0.5149  0.8939  0.3404
  567TMC3     H 8414   4.698   0.326  13.587 -0.3508  0.3807  0.6505
  567TMC3    H1 8415   4.671   0.362  14.015 -1.5792  0.7283 -0.9901
  567TMC3    H2 8416   0.318   0.293  13.815  0.3350  1.7101  1.2049
  567TMC3    C7 8417   0.195   0.305  14.050 -0.3557  0.4498 -0.8492
  567TMC3    C8 8418   0.219   0.330  13.559 -0.1801  0.0078  0.1765
  567TMC3    O1 8419   0.312   0.340  14.051 -0.3847 -0.2825 -0.9360
  567TMC3    O2 8420   0.157   0.362  13.461 -0.2788 -0.0469  0.1598
  568MPD2     C 8421   2.523   0.491  15.927 -0.3900 -0.5345 -0.5608
  568MPD2    C1 8422   2.403   0.441  15.975  0.0089 -0.8602 -0.0242
  568MPD2    C2 8423   2.288   0.518  15.963 -0.0496  0.0233  0.0483
  568MPD2    C3 8424   2.290   0.637  15.898 -0.1734 -0.1137 -0.1654
  568MPD2    C4 8425   2.405   0.681  15.838 -0.7559  0.4900  0.3474
  568MPD2    C5 8426   2.519   0.608  15.854  0.0671  0.2866 -0.0242
  568MPD2     H 8427   2.190   0.482  15.993  0.3005 -0.6549  0.3873
  568MPD2    H1 8428   2.403   0.777  15.787  1.2098 -1.6107 -3.5992
  568MPD2    H2 8429   2.618   0.443  15.947  0.6426  1.8794  0.2533
  568MPD2    H3 8430   2.616   0.653  15.837  1.1751 -2.1459 -0.0818
  568MPD2     N 8431   2.174   0.712  15.877  0.1541  0.1967  0.2980
  568MPD2    H5 8432   2.091   0.661  15.904  0.9905  0.1818  2.8060
  568MPD2    N1 8433   2.404   0.313  16.036  0.3402  0.1277  0.1342
  568MPD2    H7 8434   2.491   0.260  16.035 -2.1824 -4.0965  1.2697
  569TMC3    C1 8435   2.041   0.888  15.948  0.4664  0.8221  0.1608
  569TMC3    C2 8436   2.044   0.966  16.057  0.7871 -0.0542 -0.1132
  569TMC3    C3 8437   1.921   1.007  16.110 -0.1799  0.1334 -0.2989
  569TMC3    C4 8438   1.926   0.853  15.878  0.2089 -0.5745  0.0401
  569TMC3    C5 8439   1.805   0.908  15.917  0.5465 -0.6096  0.5068
  569TMC3    C6 8440   1.806   0.983  16.032 -0.3415  0.4719  0.4248
  569TMC3     C 8441   2.172   0.847  15.900  0.3441 -0.4245  0.3597
  569TMC3     O 8442   2.255   0.931  15.924  0.0810  0.3352  0.5914
  569TMC3     H 8443   2.139   1.003  16.094  0.1628  0.4645  0.9716
  569TMC3    H1 8444   1.937   0.779  15.799 -1.9085  1.9037 -2.5993
  569TMC3    H2 8445   1.716   1.014  16.085 -0.1223  1.7538  0.0527
  569TMC3    C7 8446   1.730   0.961  15.807 -0.2052  0.5512 -0.3681
  569TMC3    C8 8447   1.913   1.143  16.172  0.5832 -0.5046  0.1366
  569TMC3    O1 8448   1.752   0.903  15.703 -1.0017 -0.0119 -0.2288
  569TMC3    O2 8449   1.830   1.225  16.137 -0.2529  0.6719 -0.1043
  570TMC3    C1 8450   1.283   4.026  15.908 -0.1157  0.7476 -0.1331
  570TMC3    C2 8451   1.414   4.000  15.861  0.4756 -0.2111  0.5872
  570TMC3    C3 8452   1.505   4.088  15.909  0.3183 -0.1479  0.0337
  570TMC3    C4 8453   1.259   4.129  15.993  0.4410  0.1681 -0.3511
  570TMC3    C5 8454   1.361   4.207  16.033 -0.0418 -0.3641  0.5373
  570TMC3    C6 8455   1.490   4.188  16.000 -0.0927 -0.1984  0.2511
  570TMC3     C 8456   1.194   3.911  15.906  0.0456  0.1495  0.4379
  570TMC3     O 8457   1.210   3.824  15.821 -0.3095  0.0516 -0.2566
  570TMC3     H 8458   1.415   3.935  15.775  2.8122  0.3770  0.1856
  570TMC3    H1 8459   1.159   4.148  16.030  0.2673 -1.4260 -0.0115
  570TMC3    H2 8460   1.556   4.273  16.009 -0.0045 -0.1329 -1.0600
  570TMC3    C7 8461   1.321   4.321  16.107  0.0092 -0.4194  0.5872
  570TMC3    C8 8462   1.629   4.090  15.843 -0.3328 -0.3903 -0.0216
  570TMC3    O1 8463   1.239   4.313  16.200  0.1353  0.4130 -0.0422
  570TMC3    O2 8464   1.694   4.194  15.854  0.3227  0.4668 -0.1743
  571MPD2     C 8465   4.689   0.709  16.977  0.4243 -0.4149  0.1705
  571MPD2    C1 8466   4.558   0.710  16.990  0.2485  0.5282  0.6165
  571MPD2    C2 8467   4.504   0.829  17.034 -0.2362  0.1133  0.4691
  571MPD2    C3 8468   4.581   0.929  17.084  0.3627 -0.1072 -0.1787
  571MPD2    C4 8469   4.720   0.922  17.077  0.4709  0.0656 -0.2161
  571MPD2    C5 8470   0.045   0.810  17.015  0.6836  0.3859  0.3193
  571MPD2     H 8471   4.399   0.851  17.024 -0.1863 -0.7705 -1.8363
  571MPD2    H1 8472   0.056   0.998  17.121 -0.5474  0.4767  0.5070
  571MPD2    H2 8473   0.006   0.619  16.935  2.2557  0.2911  0.5537
  571MPD2    H3 8474   0.154   0.805  17.010  0.6641 -0.1343  0.4273
  571MPD2     N 8475   4.526   1.032  17.162 -0.0096 -0.3272  0.7755
  571MPD2    H5 8476   4.594   1.083  17.218  0.6353 -0.9621  0.5730
  571MPD2    N1 8477   4.481   0.593  16.944 -0.1763 -0.0856 -1.2103
  571MPD2    H7 8478   4.533   0.512  16.912 -3.2156 -2.0891 -1.0160
  572TMC3    C1 8479   4.367   1.169  17.271  0.4696 -0.3040  0.1982
  572TMC3    C2 8480   4.236   1.195  17.305 -0.5009 -0.1566  0.6822
  572TMC3    C3 8481   4.203   1.285  17.402  0.3938 -0.2819  0.0447
  572TMC3    C4 8482   4.476   1.237  17.318  0.6179  0.0291  0.1458
  572TMC3    C5 8483   4.432   1.333  17.412  0.3868  0.3249 -0.1902
  572TMC3    C6 8484   4.303   1.360  17.463 -0.1069  0.1683 -0.7789
  572TMC3     C 8485   4.393   1.056  17.188 -0.2257  0.4721 -0.9697
  572TMC3     O 8486   4.300   0.991  17.143  0.2070 -0.1076 -0.1718
  572TMC3     H 8487   4.153   1.134  17.272  0.0340  0.3246 -1.5761
  572TMC3    H1 8488   4.582   1.214  17.310  0.3139 -1.5824  0.8535
  572TMC3    H2 8489   4.283   1.436  17.538 -1.0162 -0.4858 -0.3584
  572TMC3    C7 8490   4.532   1.433  17.441 -0.1527  0.2216  0.5041
  572TMC3    C8 8491   4.071   1.279  17.472 -0.1166  0.0519 -0.6007
  572TMC3    O1 8492   4.618   1.445  17.355 -0.3433  0.4974 -0.4242
  572TMC3    O2 8493   4.054   1.349  17.569  0.0278 -0.1695 -0.5490
  573MPD2     C 8494   0.898   1.528   1.144  0.1929  0.2156  0.0284
  573MPD2    C1 8495   1.010   1.591   1.110 -0.3366  0.1767 -0.0662
  573MPD2    C2 8496   1.033   1.600   0.979 -0.1641  0.6734 -0.3321
  573MPD2    C3 8497   0.937   1.568   0.881  0.2133  0.7107 -0.4670
  573MPD2    C4 8498   0.820   1.510   0.921  0.4578  0.8659 -0.3109
  573MPD2    C5 8499   0.803   1.491   1.052 -0.5024 -0.3637  0.4512
  573MPD2     H 8500   1.128   1.634   0.939 -0.3667  0.4448 -1.0162
  573MPD2    H1 8501   0.745   1.477   0.850 -0.0056  1.0943  0.0681
  573MPD2    H2 8502   0.873   1.519   1.249  0.9729 -2.1238  0.0090
  573MPD2    H3 8503   0.713   1.443   1.086 -0.8471  1.3910  2.0002
  573MPD2     N 8504   0.961   1.591   0.744  0.2496  0.1081  0.3181
  573MPD2    H5 8505   0.886   1.575   0.677  1.2735 -1.3571 -0.4745
  573MPD2    N1 8506   1.099   1.616   1.216 -0.1672 -0.4101 -0.3940
  573MPD2    H7 8507   1.073   1.594   1.311 -0.3269  0.4256 -0.2458
  574TMC3    C1 8508   1.003   1.721   0.557  0.2179  1.0440  0.4470
  574TMC3    C2 8509   0.952   1.633   0.467  0.1859  0.3669 -0.8696
  574TMC3    C3 8510   0.918   1.685   0.346 -0.4791  0.0436 -0.2052
  574TMC3    C4 8511   1.026   1.854   0.530  0.3231  0.4442  0.0803
  574TMC3    C5 8512   0.993   1.894   0.401 -0.3240 -0.1405 -0.2091
  574TMC3    C6 8513   0.940   1.813   0.310  0.1726 -0.0464 -0.1658
  574TMC3     C 8514   1.056   1.675   0.691 -0.0372 -0.9154 -0.7718
  574TMC3     O 8515   1.145   1.743   0.749  0.4427 -0.4786 -0.0373
  574TMC3     H 8516   0.944   1.527   0.489 -1.2066  1.0004  1.6690
  574TMC3    H1 8517   1.066   1.921   0.605 -0.5425 -2.0087  2.7100
  574TMC3    H2 8518   0.957   1.834   0.205  1.2514  0.2093  0.0650
  574TMC3    C7 8519   1.013   2.031   0.356 -0.5427  0.6395 -0.2750
  574TMC3    C8 8520   0.868   1.584   0.245  0.8422  0.1195  0.2065
  574TMC3    O1 8521   0.945   2.081   0.265 -0.5671  0.1116 -0.3147
  574TMC3    O2 8522   0.857   1.471   0.288 -0.4323  0.0010  0.3526
  575TMC3    C1 8523   3.148   3.025  11.365  0.8486 -0.1476  0.1685
  575TMC3    C2 8524   3.101   2.931  11.452  0.4791 -0.3799 -0.5506
  575TMC3    C3 8525   3.060   2.819  11.396 -0.3244  0.7947 -0.2405
  575TMC3    C4 8526   3.144   3.013  11.226  0.2272 -0.5508 -0.0793
  575TMC3    C5 8527   3.090   2.897  11.171 -0.1109 -0.4311 -0.2113
  575TMC3    C6 8528   3.060   2.795  11.261  0.1768  0.4150  0.2082
  575TMC3     C 8529   3.176   3.156  11.419  0.3938  0.3760  0.0005
  575TMC3     O 8530   3.224   3.244  11.348 -0.0208  0.1928 -0.1310
  575TMC3     H 8531   3.129   2.938  11.556  1.0962 -0.3210 -0.7181
  575TMC3    H1 8532   3.185   3.091  11.163 -0.9545 -1.0741 -1.5073
  575TMC3    H2 8533   3.022   2.697  11.234 -1.1469  1.4208 -1.5455
  575TMC3    C7 8534   3.111   2.874  11.029  0.2299  0.2249 -0.4390
  575TMC3    C8 8535   3.035   2.706  11.484 -0.2369  0.3899 -0.0266
  575TMC3    O1 8536   3.100   2.967  10.956 -0.3557 -0.4130 -0.1594
  575TMC3    O2 8537   3.064   2.592  11.446 -0.6839 -0.2793  0.4987
  576MPD2     C 8538   2.486   4.056  12.488  0.1246 -0.1199 -0.5712
  576MPD2    C1 8539   2.490   4.176  12.419 -0.8470 -0.3660 -0.3540
  576MPD2    C2 8540   2.462   4.293  12.483  0.3165 -0.4483  0.7991
  576MPD2    C3 8541   2.429   4.290  12.616  0.1080 -0.1313  0.6270
  576MPD2    C4 8542   2.426   4.168  12.686 -0.3141 -0.6513 -0.4260
  576MPD2    C5 8543   2.451   4.052  12.618 -0.9902 -0.7157  0.0761
  576MPD2     H 8544   2.449   4.390  12.435  0.3474 -1.5233 -1.3643
  576MPD2    H1 8545   2.415   4.164  12.793  0.4597  1.5521 -0.2603
  576MPD2    H2 8546   2.498   3.961  12.437 -0.7279 -0.4314 -0.1967
  576MPD2    H3 8547   2.465   3.959  12.672  0.4115 -1.1604 -1.0457
  576MPD2     N 8548   2.397   4.416  12.661 -0.3572 -0.2182 -0.6204
  576MPD2    H5 8549   2.433   4.496  12.609  0.7647 -0.3580 -0.0645
  576MPD2    N1 8550   2.516   4.186  12.282 -0.4614 -0.2645  0.0319
  576MPD2    H7 8551   2.512   4.277  12.238 -0.2194  0.6081  1.8154
  577TMC3    C1 8552   2.588   4.140  12.065 -0.0659  0.3984  0.0712
  577TMC3    C2 8553   2.558   4.070  11.952  0.3308 -0.5966 -0.3977
  577TMC3    C3 8554   2.596   4.117  11.830 -0.0651 -0.3217  0.1794
  577TMC3    C4 8555   2.676   4.239  12.059 -0.5919  0.2056  0.1080
  577TMC3    C5 8556   2.712   4.289  11.931 -0.1722  0.0073 -0.2865
  577TMC3    C6 8557   2.682   4.220  11.823 -0.6120  0.4635 -1.0564
  577TMC3     C 8558   2.547   4.086  12.198  0.5091 -0.0341  0.4766
  577TMC3     O 8559   2.523   3.966  12.224  0.0171  0.5651 -0.2100
  577TMC3     H 8560   2.495   3.982  11.958  1.1434 -1.2277 -1.1360
  577TMC3    H1 8561   2.704   4.295  12.148 -2.7141 -0.2905  1.0833
  577TMC3    H2 8562   2.723   4.253  11.729 -0.0269  0.4153 -0.8205
  577TMC3    C7 8563   2.759   4.423  11.921 -0.4378  0.2865  0.2236
  577TMC3    C8 8564   2.589   4.020  11.718 -0.3778  0.7454  0.3302
  577TMC3    O1 8565   2.803   4.467  12.024  0.3396 -0.1776  0.1441
  577TMC3    O2 8566   2.483   3.961  11.703 -0.5456 -0.3174  0.4800
  578MPD2     C 8567   0.910   3.644   1.487  0.1126  0.3404 -0.1908
  578MPD2    C1 8568   1.030   3.654   1.421  0.1603  0.2461  0.7022
  578MPD2    C2 8569   1.088   3.544   1.358  0.4929  0.2318  0.0420
  578MPD2    C3 8570   1.029   3.419   1.378  0.2033  0.7836 -0.4472
  578MPD2    C4 8571   0.914   3.406   1.455  0.1052  0.5698  0.1454
  578MPD2    C5 8572   0.855   3.520   1.507 -0.3960  0.1721  0.0531
  578MPD2     H 8573   1.183   3.555   1.306 -1.0391 -0.1742 -2.8950
  578MPD2    H1 8574   0.863   3.310   1.466  3.7561 -1.0964  2.4323
  578MPD2    H2 8575   0.852   3.719   1.538 -1.1365  0.1001 -1.2654
  578MPD2    H3 8576   0.760   3.509   1.558  0.5299 -0.3374  1.6765
  578MPD2     N 8577   1.100   3.308   1.319 -0.0027 -1.2405 -0.0348
  578MPD2    H5 8578   1.192   3.327   1.281 -0.2419  0.7027  0.3631
  578MPD2    N1 8579   1.081   3.783   1.403 -0.4433  0.3057 -0.0363
  578MPD2    H7 8580   1.047   3.860   1.460 -0.7941 -1.0317  1.5595
  579TMC3    C1 8581   1.166   3.090   1.268 -0.6776  0.1773  0.4903
  579TMC3    C2 8582   1.294   3.139   1.265  0.3305 -0.0830 -0.2441
  579TMC3    C3 8583   1.382   3.079   1.174  0.3768  0.0086 -0.4439
  579TMC3    C4 8584   1.118   3.008   1.162 -0.7910  0.0904 -0.1378
  579TMC3    C5 8585   1.209   2.962   1.066  0.1807  0.2954  0.3572
  579TMC3    C6 8586   1.344   2.997   1.078 -0.1187 -0.4965 -0.1857
  579TMC3     C 8587   1.065   3.176   1.319  0.2368 -0.0050 -0.5553
  579TMC3     O 8588   0.953   3.128   1.350  0.7713  0.2338  0.0722
  579TMC3     H 8589   1.323   3.205   1.346  1.3650 -0.3636 -0.3737
  579TMC3    H1 8590   1.017   2.969   1.167 -0.4777 -0.5326  1.3389
  579TMC3    H2 8591   1.420   2.943   1.024  1.2689  0.7958  0.4812
  579TMC3    C7 8592   1.168   2.873   0.959 -0.6388  0.1346 -0.1416
  579TMC3    C8 8593   1.496   3.167   1.145 -0.6935 -0.4232  0.0492
  579TMC3    O1 8594   1.256   2.805   0.910  0.0514  0.1320 -0.1243
  579TMC3    O2 8595   1.514   3.257   1.229  0.4720 -0.1940 -0.1303
  580TMC3    C1 8596   0.343   2.994  11.813  0.1986  0.1051  0.1786
  580TMC3    C2 8597   0.359   2.954  11.682  0.7509 -0.6235  0.7611
  580TMC3    C3 8598   0.315   2.836  11.647  0.1750 -0.5894 -0.1207
  580TMC3    C4 8599   0.278   2.921  11.904  0.1659 -0.0147 -0.4354
  580TMC3    C5 8600   0.219   2.801  11.863  0.3166  0.5041  0.2674
  580TMC3    C6 8601   0.238   2.764  11.732 -0.1704 -0.1146  0.5685
  580TMC3     C 8602   0.358   3.144  11.840 -0.3262  0.5296  0.3501
  580TMC3     O 8603   0.444   3.193  11.767 -0.7425  0.9012  0.3101
  580TMC3     H 8604   0.414   3.009  11.607 -0.7568 -2.0183 -1.3668
  580TMC3    H1 8605   0.276   2.953  12.008 -3.7164  1.5598 -0.9931
  580TMC3    H2 8606   0.187   2.675  11.697 -0.0306 -0.4036  1.1184
  580TMC3    C7 8607   0.154   2.718  11.969 -0.3865  0.2629 -0.5937
  580TMC3    C8 8608   0.319   2.792  11.508  0.0201  0.2958  0.8656
  580TMC3    O1 8609   0.187   2.737  12.087 -0.2012  0.1826 -0.6979
  580TMC3    O2 8610   0.214   2.748  11.460  0.1333  0.5690 -0.4030
  581MPD2     C 8611   3.264   2.851  14.419  0.0675  0.4610  0.1153
  581MPD2    C1 8612   3.303   2.955  14.502  0.5042  0.6100 -0.5711
  581MPD2    C2 8613   3.197   3.041  14.550  0.2108 -0.1208  0.2093
  581MPD2    C3 8614   3.070   3.014  14.506  1.1552  0.5042 -0.2949
  581MPD2    C4 8615   3.041   2.910  14.423 -0.2572 -0.4335  0.1974
  581MPD2    C5 8616   3.138   2.828  14.372  0.4675 -0.0849 -0.2336
  581MPD2     H 8617   3.205   3.121  14.623  0.6723 -1.9779  2.2234
  581MPD2    H1 8618   2.938   2.881  14.407 -0.3047  0.4758 -1.1036
  581MPD2    H2 8619   3.327   2.768  14.388  1.0370  1.2047  0.1194
  581MPD2    H3 8620   3.108   2.751  14.303 -0.7625  0.9954 -0.8986
  581MPD2     N 8621   2.974   3.102  14.556  0.6285  0.6595 -0.0742
  581MPD2    H5 8622   3.004   3.172  14.623  2.7450 -0.1021 -0.2137
  581MPD2    N1 8623   3.435   2.965  14.553 -0.1486  0.3955  0.0762
  581MPD2    H7 8624   3.505   2.907  14.509 -0.0147  0.5661  0.0605
  582TMC3    C1 8625   3.597   2.997  14.723  0.3390  0.7484 -0.1723
  582TMC3    C2 8626   3.612   3.042  14.848 -0.1731 -0.0627 -0.3837
  582TMC3    C3 8627   3.673   2.963  14.938  0.3118 -0.6256 -0.5358
  582TMC3    C4 8628   3.643   2.873  14.682 -0.3514  0.2068 -0.0536
  582TMC3    C5 8629   3.690   2.783  14.780  0.4470  0.2637  0.1040
  582TMC3    C6 8630   3.704   2.828  14.906  0.1270 -0.3268 -0.5155
  582TMC3     C 8631   3.474   3.044  14.661 -0.8916 -0.4221 -0.2460
  582TMC3     O 8632   3.400   3.114  14.728 -0.4455  0.7237  0.3457
  582TMC3     H 8633   3.570   3.135  14.883 -2.3249 -1.4786  0.8018
  582TMC3    H1 8634   3.642   2.831  14.582 -2.0277 -0.4983  0.2732
  582TMC3    H2 8635   3.733   2.766  14.990 -1.1363 -3.2637 -2.2408
  582TMC3    C7 8636   3.592   2.673  14.774 -0.1827 -1.2271 -0.5652
  582TMC3    C8 8637   3.681   3.007  15.072 -0.5023  0.5643 -0.0159
  582TMC3    O1 8638   3.561   2.623  14.666 -0.0166  0.5884  0.0316
  582TMC3    O2 8639   3.609   3.098  15.111 -0.6026  0.3718  0.4123
  583MPD2     C 8640   3.055   4.711  16.430 -0.6376  0.7573 -1.3817
  583MPD2    C1 8641   3.122   0.103  16.391 -0.3184 -0.3452 -0.2319
  583MPD2    C2 8642   3.114   0.215  16.477 -0.1176 -0.6991  0.6400
  583MPD2    C3 8643   3.045   0.210  16.595 -0.0155 -0.3517  0.2738
  583MPD2    C4 8644   2.976   0.092  16.630  0.2219  0.3339 -0.2913
  583MPD2    C5 8645   2.988   4.710  16.548 -0.4065  0.6672  0.4534
  583MPD2     H 8646   3.151   0.307  16.434 -1.6327 -0.5588 -0.3671
  583MPD2    H1 8647   2.922   0.070  16.721  0.5762 -1.6758 -0.5613
  583MPD2    H2 8648   3.039   4.618  16.376 -0.9338 -0.5706  0.9913
  583MPD2    H3 8649   2.940   4.616  16.573  1.4574 -0.5123 -0.4342
  583MPD2     N 8650   3.033   0.331  16.664 -0.0854 -0.0763  0.1358
  583MPD2    H5 8651   3.072   0.413  16.619 -0.1999  0.5735  1.2404
  583MPD2    N1 8652   3.184   0.111  16.260 -0.3518  0.1264  0.4339
  583MPD2    H7 8653   3.219   0.201  16.228 -0.3631 -0.2385 -0.6174
  584TMC3    C1 8654   2.985   0.485  16.842  0.2182 -0.0402  0.5111
  584TMC3    C2 8655   3.055   0.580  16.779 -0.1801  0.1535 -0.0076
  584TMC3    C3 8656   3.041   0.707  16.823  0.7196 -0.0735 -0.0946
  584TMC3    C4 8657   2.904   0.510  16.951 -0.4703  0.0338 -0.0512
  584TMC3    C5 8658   2.893   0.639  16.993  0.2074  0.2691  0.3462
  584TMC3    C6 8659   2.966   0.740  16.935  0.1131 -0.6429  0.0676
  584TMC3     C 8660   2.971   0.347  16.782  0.2242  0.1513 -0.4255
  584TMC3     O 8661   2.906   0.267  16.846 -0.3039  0.0696 -0.2784
  584TMC3     H 8662   3.123   0.567  16.695 -0.6502 -1.8789 -0.0760
  584TMC3    H1 8663   2.847   0.430  16.999 -0.8603 -0.3803 -1.2017
  584TMC3    H2 8664   2.945   0.842  16.964  1.2736 -0.3156 -0.2508
  584TMC3    C7 8665   2.834   0.658  17.124  0.1487 -0.5127  0.1678
  584TMC3    C8 8666   3.118   0.810  16.757  0.7130  0.4336 -0.4564
  584TMC3    O1 8667   2.770   0.563  17.166 -0.4517  0.4732 -0.7287
  584TMC3    O2 8668   3.128   0.793  16.635  0.4241  0.0358 -0.7802
  585MPD2     C 8669   1.864   3.526   0.109  0.5004  0.0051 -0.4817
  585MPD2    C1 8670   1.966   3.564   0.026  0.3602  0.2088  0.3881
  585MPD2    C2 8671   1.992   3.475  17.626  0.2108  0.2770  0.2717
  585MPD2    C3 8672   1.920   3.359  17.600  0.0200  0.3881 -0.2711
  585MPD2    C4 8673   1.808   3.340  17.678  0.0005 -0.5067 -0.4000
  585MPD2    C5 8674   1.789   3.416   0.086 -0.6467  0.5608 -0.4167
  585MPD2     H 8675   2.070   3.500  17.555  0.2932  0.3226  0.3778
  585MPD2    H1 8676   1.748   3.251  17.662  1.7836 -1.2185 -3.0415
  585MPD2    H2 8677   1.845   3.578   0.202 -0.1711  1.0105 -1.1805
  585MPD2    H3 8678   1.712   3.393   0.159 -1.1485  2.8037 -0.2335
  585MPD2     N 8679   1.943   3.284  17.484  0.0061 -0.3603  0.3539
  585MPD2    H5 8680   1.869   3.220  17.457 -1.8991  1.7456  0.6147
  585MPD2    N1 8681   2.035   3.686   0.055 -0.6716  0.4127  1.2123
  585MPD2    H7 8682   2.000   3.750   0.126 -1.3764  1.6352 -0.2345
  586TMC3    C1 8683   2.055   3.235  17.298 -0.1937  0.4226  0.4701
  586TMC3    C2 8684   2.174   3.257  17.231  0.3865 -0.1791  0.0183
  586TMC3    C3 8685   2.174   3.269  17.097 -0.7285 -0.3943  0.7498
  586TMC3    C4 8686   1.939   3.215  17.232  0.3374  0.0657 -0.0474
  586TMC3    C5 8687   1.943   3.224  17.095 -0.5031 -0.1952 -0.4432
  586TMC3    C6 8688   2.057   3.262  17.027 -0.8949  0.5818 -0.4737
  586TMC3     C 8689   2.067   3.270  17.434 -0.7221  0.2989  0.2302
  586TMC3     O 8690   2.174   3.288  17.491 -0.5902  0.0482 -0.2395
  586TMC3     H 8691   2.263   3.291  17.283 -0.0371  0.1008  0.5486
  586TMC3    H1 8692   1.840   3.212  17.276  1.4045  1.6068  2.4658
  586TMC3    H2 8693   2.054   3.275  16.920  0.1426  0.2843 -0.5388
  586TMC3    C7 8694   1.861   3.129  17.033 -0.0475  0.3673  0.3757
  586TMC3    C8 8695   2.298   3.249  17.026  0.2828  0.4149 -0.0147
  586TMC3    O1 8696   1.810   3.059  17.118  0.3067 -0.6798  0.0418
  586TMC3    O2 8697   2.301   3.264  16.907 -0.0906  0.2571 -0.0816
  587TMC3    C1 8698   0.110   2.118  15.695 -0.2235  0.7956 -0.0192
  587TMC3    C2 8699   0.121   2.244  15.754 -0.1186  0.2116 -0.3682
  587TMC3    C3 8700   0.244   2.283  15.795  0.6626  0.3368 -0.1520
  587TMC3    C4 8701   0.224   2.047  15.673  0.3116 -0.0343  0.9394
  587TMC3    C5 8702   0.344   2.094  15.711  0.3280  0.2512  0.1501
  587TMC3    C6 8703   0.360   2.212  15.782  0.0488  0.2594 -0.0090
  587TMC3     C 8704   4.710   2.061  15.651 -0.5762  0.1713  0.1497
  587TMC3     O 8705   4.710   1.986  15.553  0.8374  0.4390  0.3174
  587TMC3     H 8706   0.041   2.317  15.751  0.5681  0.9868  0.3435
  587TMC3    H1 8707   0.215   1.946  15.635 -0.9567  0.4015  0.0595
  587TMC3    H2 8708   0.459   2.237  15.818 -0.4443  0.0128  1.5436
  587TMC3    C7 8709   0.467   2.031  15.662 -0.1550  0.2258  0.0316
  587TMC3    C8 8710   0.273   2.413  15.856 -0.3269  0.6242 -1.0293
  587TMC3    O1 8711   0.573   2.069  15.714 -0.3728 -0.4746  0.3606
  587TMC3    O2 8712   0.392   2.447  15.868  0.0773  0.3506  0.2253
  588TMC3    C1 8713   2.480   0.225   9.337 -0.4332  0.2650  0.5107
  588TMC3    C2 8714   2.407   0.109   9.306 -0.4155  0.7869  0.1889
  588TMC3    C3 8715   2.371   0.028   9.408  0.0516  0.2723 -0.0385
  588TMC3    C4 8716   2.505   0.265   9.471 -0.2586  0.3522  0.6783
  588TMC3    C5 8717   2.467   0.176   9.565  1.2795 -0.0340 -0.7021
  588TMC3    C6 8718   2.402   0.063   9.534  0.0544 -0.3174 -1.1938
  588TMC3     C 8719   2.454   0.329   9.236  0.8133 -1.1294  0.4553
  588TMC3     O 8720   2.418   0.295   9.124 -0.2851  0.1468 -0.7289
  588TMC3     H 8721   2.405   0.078   9.202  2.1395  2.1400 -0.2662
  588TMC3    H1 8722   2.571   0.347   9.495  4.0075 -2.5739 -0.8378
  588TMC3    H2 8723   2.355   0.012   9.617 -1.0475  0.7382 -1.1660
  588TMC3    C7 8724   2.448   0.234   9.691 -0.6980 -0.3932  0.1411
  588TMC3    C8 8725   2.369   4.609   9.387  0.2464 -0.2370 -0.6439
  588TMC3    O1 8726   2.470   0.171   9.797  0.3833 -0.1958  0.4620
  588TMC3    O2 8727   2.311   4.573   9.285 -0.4113  0.1326 -0.5770
  589TMC3    C1 8728   2.052   2.496   1.323  0.0012 -0.5002  0.8162
  589TMC3    C2 8729   2.126   2.576   1.404  0.0224 -0.4803  0.5030
  589TMC3    C3 8730   2.252   2.608   1.354  0.4932  0.0845 -0.2629
  589TMC3    C4 8731   2.103   2.430   1.213 -0.2511  0.1926 -0.0822
  589TMC3    C5 8732   2.238   2.445   1.182  0.1143 -0.5846 -0.3633
  589TMC3    C6 8733   2.304   2.541   1.248  0.4830  0.2051 -0.2436
  589TMC3     C 8734   1.908   2.478   1.348 -0.3669  0.8482 -0.6900
  589TMC3     O 8735   1.845   2.412   1.267 -0.0112 -0.4543 -0.6532
  589TMC3     H 8736   2.081   2.650   1.469  0.6298  0.6328 -0.3530
  589TMC3    H1 8737   2.040   2.359   1.161 -0.1595  0.9450 -1.2351
  589TMC3    H2 8738   2.411   2.555   1.235  0.1412  2.4544 -0.4916
  589TMC3    C7 8739   2.282   2.376   1.066 -0.0952 -0.8030  0.7019
  589TMC3    C8 8740   2.314   2.722   1.422  0.2098 -0.5974  0.0983
  589TMC3    O1 8741   2.211   2.287   1.022 -0.6265 -0.3747 -0.0918
  589TMC3    O2 8742   2.248   2.791   1.497 -0.4721  0.0531 -0.3258
  590MPD2     C 8743   0.679   0.732  16.312  0.2406  0.3928 -1.1161
  590MPD2    C1 8744   0.708   0.718  16.171  0.3661 -0.1611 -0.1583
  590MPD2    C2 8745   0.824   0.774  16.122  0.1681  0.1207 -0.5276
  590MPD2    C3 8746   0.903   0.853  16.201  0.5671  0.2948 -0.2644
  590MPD2    C4 8747   0.870   0.863  16.335 -0.5973  0.4548 -0.2743
  590MPD2    C5 8748   0.758   0.805  16.393  0.4082 -0.3566  0.0388
  590MPD2     H 8749   0.838   0.761  16.016 -0.0283  1.3487 -0.7038
  590MPD2    H1 8750   0.928   0.922  16.406  0.2258  0.6032 -1.0711
  590MPD2    H2 8751   0.584   0.697  16.349  1.0175 -1.2796 -0.7169
  590MPD2    H3 8752   0.731   0.818  16.497 -0.0413 -1.0781  0.0094
  590MPD2     N 8753   1.011   0.923  16.142 -0.1924 -0.4901 -0.0697
  590MPD2    H5 8754   1.018   0.913  16.041  1.2729  0.3500 -0.0546
  590MPD2    N1 8755   0.606   0.659  16.098  0.5337 -0.1059 -0.2033
  590MPD2    H7 8756   0.520   0.641  16.149  1.2336  1.0210  1.3910
  591TMC3    C1 8757   1.183   1.072  16.106 -0.5617 -0.4047 -0.4321
  591TMC3    C2 8758   1.250   0.999  16.011 -0.4383  1.0047 -0.5407
  591TMC3    C3 8759   1.301   1.062  15.902  0.2302 -0.1869 -0.4125
  591TMC3    C4 8760   1.172   1.208  16.083 -0.3202  0.6843  0.4163
  591TMC3    C5 8761   1.229   1.271  15.974 -0.5928 -0.3474  0.2609
  591TMC3    C6 8762   1.291   1.194  15.880 -0.2669  0.1037 -0.1313
  591TMC3     C 8763   1.096   1.012  16.201 -0.4287 -0.1020 -0.4392
  591TMC3     O 8764   1.109   1.053  16.315  0.6979  0.2444 -0.2329
  591TMC3     H 8765   1.250   0.893  16.032 -0.6274  1.6606  2.7665
  591TMC3    H1 8766   1.118   1.268  16.156  2.5911  2.7562  0.8521
  591TMC3    H2 8767   1.350   1.238  15.800 -0.4433  1.3117  0.4192
  591TMC3    C7 8768   1.191   1.410  15.957  0.3318 -0.7051 -0.3957
  591TMC3    C8 8769   1.349   0.978  15.791  0.4585  0.4112 -0.4842
  591TMC3    O1 8770   1.141   1.479  16.047 -0.4149  0.5513 -0.4603
  591TMC3    O2 8771   1.405   0.873  15.808  0.2204  0.6054  0.0829
  592MPD2     C 8772   1.595   2.789  11.136 -0.0585 -0.9691  0.2169
  592MPD2    C1 8773   1.529   2.833  11.251 -0.7547  0.1205  0.6702
  592MPD2    C2 8774   1.453   2.742  11.318 -0.1201 -0.0573  0.2823
  592MPD2    C3 8775   1.449   2.607  11.276  0.1475 -0.4721  0.4076
  592MPD2    C4 8776   1.507   2.566  11.161 -0.7276  0.1005 -0.3075
  592MPD2    C5 8777   1.583   2.658  11.088 -0.1733 -0.4092 -0.5632
  592MPD2     H 8778   1.389   2.767  11.402 -0.3925  3.0816 -0.8880
  592MPD2    H1 8779   1.508   2.463  11.127  0.8907  0.6639 -1.9494
  592MPD2    H2 8780   1.669   2.849  11.085 -0.0209 -0.2956  1.0653
  592MPD2    H3 8781   1.653   2.629  11.011  1.0390  0.1496  0.3298
  592MPD2     N 8782   1.375   2.508  11.353 -0.3180 -0.1157  0.3302
  592MPD2    H5 8783   1.321   2.544  11.431 -0.9030 -0.2150 -0.0284
  592MPD2    N1 8784   1.536   2.972  11.285  0.2440 -0.3196 -0.7270
  592MPD2    H7 8785   1.600   3.021  11.224 -0.9693  3.3993  1.0053
  593TMC3    C1 8786   1.534   3.171  11.417  0.2138 -0.0967  0.2874
  593TMC3    C2 8787   1.510   3.231  11.538  0.4154  0.1055 -0.0987
  593TMC3    C3 8788   1.544   3.362  11.556 -0.1140  0.1133  0.1191
  593TMC3    C4 8789   1.606   3.233  11.317 -0.1916  0.6114 -0.0085
  593TMC3    C5 8790   1.640   3.363  11.346  0.3533  0.3228  0.8302
  593TMC3    C6 8791   1.614   3.427  11.459 -0.5458  0.1308 -0.2094
  593TMC3     C 8792   1.485   3.033  11.398  0.1358 -0.3410 -0.2604
  593TMC3     O 8793   1.408   2.983  11.478 -0.1971  0.0195  0.2156
  593TMC3     H 8794   1.458   3.174  11.614  0.7902  1.7422  1.3633
  593TMC3    H1 8795   1.637   3.184  11.226 -1.7164 -0.8365  0.2390
  593TMC3    H2 8796   1.644   3.530  11.476  0.6350 -0.4130  0.9253
  593TMC3    C7 8797   1.747   3.431  11.273 -0.1321  0.9741 -0.7237
  593TMC3    C8 8798   1.541   3.423  11.690  0.1145 -0.8320 -1.1921
  593TMC3    O1 8799   1.760   3.551  11.298 -0.1139  0.1764  0.0400
  593TMC3    O2 8800   1.442   3.399  11.766  0.4577 -0.3435  0.5317
  594MPD2     C 8801   0.273   1.265  14.570 -0.3710  0.0205 -0.1300
  594MPD2    C1 8802   0.179   1.347  14.500  0.0872 -0.0250 -0.3589
  594MPD2    C2 8803   0.213   1.478  14.469  0.0567  0.8192 -0.3894
  594MPD2    C3 8804   0.346   1.520  14.489  0.3491  0.4929 -0.3511
  594MPD2    C4 8805   0.440   1.426  14.535 -0.1297 -0.2188  0.5524
  594MPD2    C5 8806   0.403   1.302  14.581  0.4449 -0.0291 -0.2463
  594MPD2     H 8807   0.144   1.553  14.433  0.7637  1.0686 -1.2302
  594MPD2    H1 8808   0.547   1.438  14.543 -0.2443  0.3658  1.1329
  594MPD2    H2 8809   0.234   1.169  14.602 -1.5703  0.6210  0.2261
  594MPD2    H3 8810   0.482   1.248  14.633 -1.0338 -1.9727 -0.0197
  594MPD2     N 8811   0.387   1.646  14.451 -0.3988 -0.2427 -0.8965
  594MPD2    H5 8812   0.317   1.703  14.405 -0.6679 -0.8446 -1.2291
  594MPD2    N1 8813   0.048   1.298  14.480  0.2331  0.4921  0.0330
  594MPD2    H7 8814   0.027   1.204  14.512 -0.1695  0.8631  0.8451
  595TMC3    C1 8815   0.615   1.933  14.184 -0.0358  0.1188 -0.0161
  595TMC3    C2 8816   0.628   1.842  14.286  0.4919  0.2043 -0.0914
  595TMC3    C3 8817   0.525   1.826  14.372 -0.2477  0.4568 -0.4708
  595TMC3    C4 8818   0.510   2.020  14.169  0.3649 -0.7363  0.3804
  595TMC3    C5 8819   0.418   2.012  14.272  0.2999 -0.1806  0.8073
  595TMC3    C6 8820   0.419   1.915  14.371 -0.3548  0.7775  0.0143
  595TMC3     C 8821   0.738   1.981  14.130 -0.5066 -0.4309  0.6407
  595TMC3     O 8822   0.837   1.956  14.190 -0.2989 -0.2510  0.3407
  595TMC3     H 8823   0.717   1.781  14.295  0.3464 -0.2144 -1.5597
  595TMC3    H1 8824   0.496   2.086  14.084  0.8910 -0.1213  0.7725
  595TMC3    H2 8825   0.336   1.909  14.441 -0.2196 -0.9492  0.0269
  595TMC3    C7 8826   0.357   2.137  14.313 -0.3974 -0.3335  0.7196
  595TMC3    C8 8827   0.518   1.702  14.448 -0.1659  0.7458  0.1439
  595TMC3    O1 8828   0.282   2.136  14.410  0.5639 -0.1328 -0.4397
  595TMC3    O2 8829   0.623   1.647  14.470  0.4293 -0.0470  0.2432
  596MPD2     C 8830   4.028   4.473  16.496 -0.6230  0.1209 -0.1469
  596MPD2    C1 8831   3.999   4.586  16.425  0.0509 -0.7040  0.9142
  596MPD2    C2 8832   4.028   4.598  16.289 -0.8713  0.1951 -0.8750
  596MPD2    C3 8833   4.096   4.497  16.220  0.1631 -0.5699 -0.0536
  596MPD2    C4 8834   4.124   4.386  16.295  0.3627 -0.3510 -0.2489
  596MPD2    C5 8835   4.085   4.374  16.427  0.3171 -0.4104 -0.2464
  596MPD2     H 8836   4.006   4.694  16.243  0.7997  1.3766  0.7306
  596MPD2    H1 8837   4.182   4.305  16.252 -1.0564 -1.2668 -0.4414
  596MPD2    H2 8838   3.985   4.455  16.594 -1.5259 -1.0401 -0.7606
  596MPD2    H3 8839   4.099   4.281  16.481  0.3052 -0.0190  0.4184
  596MPD2     N 8840   4.138   4.495  16.087  0.5990 -0.4158  0.5592
  596MPD2    H5 8841   4.161   4.405  16.046  2.9819  0.7309 -0.5805
  596MPD2    N1 8842   3.950   4.702  16.477 -0.1493  0.3629 -0.1902
  596MPD2    H7 8843   3.955   0.056  16.415  1.8758 -0.2481 -0.8085
  597TMC3    C1 8844   3.867   0.139  16.620 -0.4437 -0.2370 -0.5680
  597TMC3    C2 8845   3.937   0.228  16.547 -0.2501 -0.4551 -0.6533
  597TMC3    C3 8846   3.895   0.361  16.561  0.7076 -0.2899 -0.0701
  597TMC3    C4 8847   3.765   0.172  16.707  1.0651 -0.4713 -0.5656
  597TMC3    C5 8848   3.733   0.304  16.722 -0.1707  0.6712 -0.4201
  597TMC3    C6 8849   3.800   0.402  16.649 -0.2093 -0.0674  0.4075
  597TMC3     C 8850   3.887   4.721  16.590 -0.2682 -0.3290 -0.2283
  597TMC3     O 8851   3.819   4.641  16.656  0.1900 -0.2697  0.1284
  597TMC3     H 8852   4.009   0.209  16.469 -0.2595 -1.1196 -0.4996
  597TMC3    H1 8853   3.710   0.103  16.770  4.2746  0.0633  2.8374
  597TMC3    H2 8854   3.775   0.507  16.660 -1.6257 -0.6607  2.9383
  597TMC3    C7 8855   3.629   0.343  16.816  0.5906 -0.5430  0.2621
  597TMC3    C8 8856   3.962   0.465  16.484  0.0081  0.3170 -0.3087
  597TMC3    O1 8857   3.536   0.263  16.806 -0.5655  0.0833  0.2446
  597TMC3    O2 8858   3.900   0.565  16.462  0.4860 -0.5007 -0.2821
  598TMC3    C1 8859   2.484   1.430  15.209  0.1793 -0.6102 -0.3038
  598TMC3    C2 8860   2.380   1.381  15.273  0.0938  0.4472 -0.2660
  598TMC3    C3 8861   2.252   1.397  15.220  0.0574  0.3068 -0.9054
  598TMC3    C4 8862   2.470   1.509  15.100 -0.2301 -0.1873 -0.2575
  598TMC3    C5 8863   2.345   1.520  15.045 -0.3239 -0.2864 -0.2726
  598TMC3    C6 8864   2.229   1.463  15.103 -0.0620 -0.3949 -0.0770
  598TMC3     C 8865   2.603   1.345  15.198  0.1696 -0.2271  0.0002
  598TMC3     O 8866   2.701   1.398  15.149  0.1243  0.2638 -0.2340
  598TMC3     H 8867   2.390   1.329  15.367  0.4031 -0.6140 -0.8796
  598TMC3    H1 8868   2.559   1.536  15.045 -0.8570 -0.8473 -1.5855
  598TMC3    H2 8869   2.135   1.478  15.051 -0.3008  1.9764  1.0519
  598TMC3    C7 8870   2.333   1.567  14.901  0.1941 -0.9778  0.3985
  598TMC3    C8 8871   2.172   1.284  15.248 -0.1134  0.2881  1.0115
  598TMC3    O1 8872   2.238   1.537  14.835  0.0040 -0.0460 -0.4983
  598TMC3    O2 8873   2.233   1.185  15.282 -0.1449 -0.0856  0.0216
  599MPD2     C 8874   2.463   3.875  15.700 -0.2766  0.3870  0.3201
  599MPD2    C1 8875   2.428   3.740  15.680 -0.0536 -1.0073 -0.0991
  599MPD2    C2 8876   2.304   3.694  15.728 -0.0157 -0.3703 -0.0735
  599MPD2    C3 8877   2.220   3.778  15.796 -0.3369 -0.2084  0.0426
  599MPD2    C4 8878   2.255   3.910  15.821 -1.1714  0.3105  0.0577
  599MPD2    C5 8879   2.373   3.961  15.766  0.0266  0.6803 -0.3823
  599MPD2     H 8880   2.280   3.590  15.712  0.6617 -0.9561  2.6540
  599MPD2    H1 8881   2.181   3.971  15.871 -1.7641  0.5196 -1.0659
  599MPD2    H2 8882   2.561   3.903  15.663 -1.4379  3.1367 -0.6788
  599MPD2    H3 8883   2.389   4.068  15.771 -1.5176  0.8646  0.6158
  599MPD2     N 8884   2.091   3.746  15.847  0.5005  0.3240  0.3382
  599MPD2    H5 8885   2.042   3.822  15.894 -1.1277 -0.2159 -0.5217
  599MPD2    N1 8886   2.535   3.656  15.635 -0.0745 -0.1057  0.2672
  599MPD2    H7 8887   2.627   3.699  15.635  0.9189 -2.2130  0.3639
  600TMC3    C1 8888   1.896   3.644  15.910 -0.2215  0.0990  0.3373
  600TMC3    C2 8889   1.830   3.523  15.926  0.7009 -0.1910  0.6510
  600TMC3    C3 8890   1.724   3.532  16.004 -0.2586 -0.5405  0.4386
  600TMC3    C4 8891   1.861   3.763  15.977 -0.3236 -0.7374  0.5407
  600TMC3    C5 8892   1.747   3.762  16.048  0.0529  0.5617  0.0847
  600TMC3    C6 8893   1.682   3.648  16.070 -0.3460  0.2239  0.2731
  600TMC3     C 8894   2.025   3.628  15.839 -0.1139 -0.1327 -0.2221
  600TMC3     O 8895   2.051   3.515  15.791  0.2800 -0.6141 -0.2090
  600TMC3     H 8896   1.869   3.432  15.883  0.2030  0.1594 -0.5515
  600TMC3    H1 8897   1.914   3.856  15.957 -1.4196 -0.2369  0.0093
  600TMC3    H2 8898   1.615   3.646  16.156 -1.6308 -2.1710 -0.7789
  600TMC3    C7 8899   1.725   3.878  16.132 -0.4486 -0.4016 -0.0748
  600TMC3    C8 8900   1.654   3.407  16.024  0.2168 -0.1324  0.6042
  600TMC3    O1 8901   1.609   3.884  16.168 -0.2658 -0.1546 -0.3218
  600TMC3    O2 8902   1.714   3.303  16.049 -0.1081  0.2521  0.2331
  601MPD2     C 8903   4.680   1.885  17.633  0.8287  0.4634  0.0875
  601MPD2    C1 8904   4.656   1.842  17.499  0.1597 -0.5547  0.1549
  601MPD2    C2 8905   4.610   1.714  17.472 -0.3997  0.1180 -0.5204
  601MPD2    C3 8906   4.570   1.636  17.572 -0.2584 -0.5651  0.4223
  601MPD2    C4 8907   4.595   1.670  17.702  0.6242 -0.0216 -0.4602
  601MPD2    C5 8908   4.662   1.787   0.025  0.2008 -0.3103  0.3206
  601MPD2     H 8909   4.589   1.680  17.371 -1.5320  0.0490 -0.2611
  601MPD2    H1 8910   4.565   1.614   0.084  0.1310  0.4653 -0.3145
  601MPD2    H2 8911   0.011   1.972  17.662 -0.7535  1.5675 -0.0644
  601MPD2    H3 8912   4.690   1.818   0.125 -1.1920  2.1562 -0.0457
  601MPD2     N 8913   4.499   1.516  17.548  0.5364  0.6933 -0.1761
  601MPD2    H5 8914   4.460   1.481  17.635 -0.3724  1.4805 -0.2634
  601MPD2    N1 8915   4.684   1.937  17.395 -0.4475  0.1529  0.1457
  601MPD2    H7 8916   4.713   2.025  17.436  0.5791  0.1401 -0.5475
  602TMC3    C1 8917   4.694   2.021  17.169 -0.1089  0.4437  0.5203
  602TMC3    C2 8918   4.661   2.146  17.216  0.3135  0.6908 -0.3624
  602TMC3    C3 8919   4.682   2.247  17.127 -0.1493 -0.3609 -0.2653
  602TMC3    C4 8920   4.720   1.997  17.041 -0.1893 -0.0052 -0.2371
  602TMC3    C5 8921   0.017   2.098  16.957  0.3591  0.1323  0.2111
  602TMC3    C6 8922   4.725   2.225  17.000  0.3092  0.1647 -0.1197
  602TMC3     C 8923   4.690   1.905  17.261  0.2294  0.3618  0.4432
  602TMC3     O 8924   4.667   1.796  17.215 -0.2138 -0.0887 -0.0196
  602TMC3     H 8925   4.621   2.169  17.314 -1.5354  1.7713 -1.3673
  602TMC3    H1 8926   0.005   1.895  17.007 -1.2080  0.1586 -1.0909
  602TMC3    H2 8927   0.015   2.311  16.936 -1.6678  2.1837  2.0890
  602TMC3    C7 8928   4.683   2.082  16.826  0.7142 -0.3417  0.1648
  602TMC3    C8 8929   4.579   2.349  17.132 -0.0126 -0.2077  0.5890
  602TMC3    O1 8930   4.714   1.977  16.767 -0.6178 -0.0898 -0.3396
  602TMC3    O2 8931   4.572   2.412  17.027 -0.7602  0.1289  0.3855
  603TMC3    C1 8932   2.645   2.373  10.663 -0.2243 -0.2311 -0.7074
  603TMC3    C2 8933   2.674   2.401  10.794 -0.0924  0.0012  0.4957
  603TMC3    C3 8934   2.661   2.530  10.838  0.1092  0.0556  0.6306
  603TMC3    C4 8935   2.603   2.472  10.579  0.4461 -0.0113 -0.8092
  603TMC3    C5 8936   2.608   2.602  10.624 -0.3475 -0.4429 -1.0011
  603TMC3    C6 8937   2.634   2.636  10.755  0.0519  0.7944 -0.0296
  603TMC3     C 8938   2.625   2.233  10.620 -0.0633 -0.2139  0.0609
  603TMC3     O 8939   2.579   2.214  10.509 -0.4381  0.4643 -0.2901
  603TMC3     H 8940   2.694   2.328  10.872 -1.6814  0.7591  1.6213
  603TMC3    H1 8941   2.569   2.442  10.481  2.0370  0.7026 -1.5864
  603TMC3    H2 8942   2.591   2.730  10.789  2.0241  1.6845 -0.0054
  603TMC3    C7 8943   2.610   2.715  10.532  0.2792 -0.1783  0.8189
  603TMC3    C8 8944   2.688   2.550  10.980  0.1043 -0.0523 -0.1806
  603TMC3    O1 8945   2.660   2.820  10.568 -0.2755 -0.5112 -0.0058
  603TMC3    O2 8946   2.706   2.453  11.057 -0.1820  0.5501 -0.0680
  604MPD2     C 8947   2.987   0.771  16.122 -0.0647  0.9075  0.2337
  604MPD2    C1 8948   2.891   0.834  16.040 -0.6618  0.1939 -0.1404
  604MPD2    C2 8949   2.910   0.820  15.900 -0.0441  0.5822  0.7411
  604MPD2    C3 8950   3.022   0.749  15.854  0.2277 -0.1007 -0.0980
  604MPD2    C4 8951   3.104   0.681  15.936 -0.3017  0.4416 -0.0901
  604MPD2    C5 8952   3.092   0.700  16.070  0.8597 -0.7212  0.1730
  604MPD2     H 8953   2.846   0.868  15.827  0.2476  0.0227  0.1187
  604MPD2    H1 8954   3.184   0.617  15.901  0.0338  0.1833  1.1592
  604MPD2    H2 8955   2.981   0.780  16.230 -1.7723 -1.4413  0.3349
  604MPD2    H3 8956   3.159   0.647  16.136  1.3469  1.7988  1.7055
  604MPD2     N 8957   3.044   0.746  15.715 -0.2554 -0.3320  0.1900
  604MPD2    H5 8958   2.968   0.779  15.657 -0.8212 -2.2069 -0.1084
  604MPD2    N1 8959   2.798   0.915  16.104 -0.0684  0.8189 -0.5124
  604MPD2    H7 8960   2.807   0.921  16.205  0.4384  1.8904 -0.6215
  605TMC3    C1 8961   2.613   1.061  16.133  0.6036  0.0186 -0.4661
  605TMC3    C2 8962   2.665   1.103  16.248 -0.0508  0.5952 -0.5666
  605TMC3    C3 8963   2.617   1.213  16.307  0.5576  0.2279 -0.1545
  605TMC3    C4 8964   2.502   1.127  16.080  0.1989  0.9434 -0.0417
  605TMC3    C5 8965   2.458   1.243  16.138 -0.2273 -0.0982  0.1745
  605TMC3    C6 8966   2.514   1.287  16.257  0.4700  0.1709  0.6355
  605TMC3     C 8967   2.689   0.976  16.049  0.0061 -0.5475 -0.0884
  605TMC3     O 8968   2.671   0.973  15.929  0.0071 -0.1271 -0.1270
  605TMC3     H 8969   2.763   1.069  16.279  0.1146  0.1917 -1.5091
  605TMC3    H1 8970   2.470   1.088  15.984 -0.7318 -1.3236  1.1857
  605TMC3    H2 8971   2.468   1.366  16.315  1.9155  1.2990  0.2593
  605TMC3    C7 8972   2.354   1.316  16.080 -0.4091 -0.4064 -0.6610
  605TMC3    C8 8973   2.699   1.286  16.402  0.4604  0.1414  0.2713
  605TMC3    O1 8974   2.361   1.437  16.103  0.4911 -0.0818  0.1300
  605TMC3    O2 8975   2.785   1.213  16.456  0.2847 -0.3928  0.1305
  606TMC3    C1 8976   4.570   3.581  16.655 -0.0729 -0.1516  0.1549
  606TMC3    C2 8977   4.688   3.516  16.642  0.3158 -0.4073 -0.4546
  606TMC3    C3 8978   4.704   3.409  16.722 -0.1905  0.8610  0.5343
  606TMC3    C4 8979   4.464   3.559  16.743 -0.5148  0.2349  0.9092
  606TMC3    C5 8980   4.490   3.446  16.824  0.3915 -0.4672  0.3391
  606TMC3    C6 8981   4.609   3.372  16.818 -0.1653 -0.2957  0.8316
  606TMC3     C 8982   4.587   3.721  16.618 -0.3924 -0.1877 -0.7004
  606TMC3     O 8983   4.493   3.779  16.564 -1.0513 -0.0381 -0.2959
  606TMC3     H 8984   0.039   3.539  16.569  1.0647  2.4353  1.2294
  606TMC3    H1 8985   4.375   3.621  16.745 -0.1798  0.7323  0.5174
  606TMC3    H2 8986   4.621   3.282  16.878 -3.4684 -1.9739 -1.0199
  606TMC3    C7 8987   4.407   3.426  16.942  0.2836 -0.0705  0.0062
  606TMC3    C8 8988   0.110   3.399  16.778 -0.0478  0.1485  0.1787
  606TMC3    O1 8989   4.443   3.342  17.021 -0.2124 -0.4095 -0.2715
  606TMC3    O2 8990   0.188   3.483  16.728 -0.0176 -0.1113  0.0432
  607MPD2     C 8991   1.665   2.281  11.555 -0.2969  0.5848  0.2007
  607MPD2    C1 8992   1.678   2.415  11.598 -0.0215  0.4856 -0.3888
  607MPD2    C2 8993   1.642   2.439  11.734  0.0570  0.0437 -0.0021
  607MPD2    C3 8994   1.594   2.339  11.825 -0.0035 -0.3980 -0.1989
  607MPD2    C4 8995   1.587   2.212  11.771  0.1662 -0.2917 -0.8490
  607MPD2    C5 8996   1.618   2.189  11.641  0.1157 -0.4098  0.0134
  607MPD2     H 8997   1.648   2.543  11.766  0.6700  0.8947 -2.9174
  607MPD2    H1 8998   1.556   2.131  11.835  1.2798 -0.2207 -0.2358
  607MPD2    H2 8999   1.703   2.247  11.459  1.7757  2.2737  0.4176
  607MPD2    H3 9000   1.620   2.087  11.607 -3.4131 -0.6337  0.5404
  607MPD2     N 9001   1.567   2.381  11.959 -0.3232  0.8966  0.4753
  607MPD2    H5 9002   1.567   2.482  11.959  0.4549  0.8954 -1.9098
  607MPD2    N1 9003   1.732   2.529  11.528  0.3973 -0.1093 -0.2021
  607MPD2    H7 9004   1.735   2.616  11.581  1.0217  0.5611 -1.3235
  608TMC3    C1 9005   1.825   2.667  11.369  0.6678 -0.2124  0.3419
  608TMC3    C2 9006   1.779   2.764  11.452  0.3508 -0.1109  0.0109
  608TMC3    C3 9007   1.850   2.884  11.447 -0.0117 -0.2367 -1.0610
  608TMC3    C4 9008   1.930   2.685  11.287 -0.1541  0.2170  0.4066
  608TMC3    C5 9009   2.000   2.803  11.293  0.0578 -0.6365 -0.6127
  608TMC3    C6 9010   1.960   2.906  11.375  0.3374 -0.1798 -0.1092
  608TMC3     C 9011   1.783   2.535  11.397  0.0373 -0.9392  0.1355
  608TMC3     O 9012   1.823   2.446  11.326 -0.1443 -0.1813 -0.5091
  608TMC3     H 9013   1.683   2.757  11.502  0.7066 -2.3928  0.3682
  608TMC3    H1 9014   1.978   2.598  11.244 -1.0088 -0.0866  0.0539
  608TMC3    H2 9015   1.998   3.007  11.386  0.4239 -0.3162  0.9176
  608TMC3    C7 9016   2.130   2.814  11.229 -0.1503 -0.6639  0.0176
  608TMC3    C8 9017   1.808   2.985  11.543  0.2165 -0.3782  0.1610
  608TMC3    O1 9018   2.148   2.751  11.125 -0.1486 -0.5231 -0.0905
  608TMC3    O2 9019   1.815   3.100  11.514 -0.5532 -0.3856 -0.1953
  609TMC3    C1 9020   0.296   1.929   8.912  0.0899  0.8612  0.0828
  609TMC3    C2 9021   0.212   1.940   8.804  0.2080 -0.1352 -0.3076
  609TMC3    C3 9022   0.247   1.863   8.697  0.3297 -0.3678  0.3630
  609TMC3    C4 9023   0.407   1.850   8.917  0.0664 -0.1064 -0.4453
  609TMC3    C5 9024   0.446   1.786   8.804  0.2654  0.0250  0.0018
  609TMC3    C6 9025   0.360   1.786   8.691  0.0319 -0.5939  0.2512
  609TMC3     C 9026   0.242   1.982   9.034 -0.6686  0.6165 -0.2011
  609TMC3     O 9027   0.123   2.005   9.031 -0.3960 -0.4114  0.1585
  609TMC3     H 9028   0.122   2.000   8.798  0.3470  0.1008 -0.0561
  609TMC3    H1 9029   0.468   1.842   9.006  0.2402 -2.3338 -0.7633
  609TMC3    H2 9030   0.395   1.751   8.595  1.6705 -0.8643  0.9475
  609TMC3    C7 9031   0.536   1.669   8.815 -0.0343  0.3686  0.0639
  609TMC3    C8 9032   0.146   1.858   8.593  0.6504 -0.0261  0.2961
  609TMC3    O1 9033   0.583   1.656   8.927  0.3548  0.1157 -0.1276
  609TMC3    O2 9034   0.034   1.898   8.618 -0.4590 -0.1817  0.1587
  610TMC3    C1 9035   2.458   2.791  12.232 -0.2831 -0.3169 -0.1381
  610TMC3    C2 9036   2.570   2.869  12.230 -0.1230 -0.4780 -0.5159
  610TMC3    C3 9037   2.665   2.850  12.324  0.5307 -0.1339 -0.1516
  610TMC3    C4 9038   2.441   2.691  12.323 -0.0229  0.4401  0.6951
  610TMC3    C5 9039   2.537   2.682  12.423 -0.2216  0.4136  0.3929
  610TMC3    C6 9040   2.650   2.759  12.427 -0.5256  0.2403  0.6980
  610TMC3     C 9041   2.338   2.861  12.192 -0.3270 -0.1454 -0.5945
  610TMC3     O 9042   2.348   2.945  12.104  0.1887 -0.8418  0.4856
  610TMC3     H 9043   2.581   2.948  12.156 -3.4603 -0.1586 -0.6562
  610TMC3    H1 9044   2.357   2.624  12.314  0.6836 -0.1976 -0.9936
  610TMC3    H2 9045   2.740   2.739  12.484  0.9075  0.7638 -1.3816
  610TMC3    C7 9046   2.540   2.554  12.503  0.0240  0.4780  0.0939
  610TMC3    C8 9047   2.796   2.904  12.285  0.3433 -0.8090  0.7860
  610TMC3    O1 9048   2.648   2.515  12.545  0.2228  0.0575 -0.3381
  610TMC3    O2 9049   2.794   2.961  12.174  0.4952 -0.6214 -0.1103
  611MPD2     C 9050   1.606   2.176  10.044 -0.1760 -0.1686  0.2876
  611MPD2    C1 9051   1.598   2.308  10.066 -1.3497 -0.1296  0.1235
  611MPD2    C2 9052   1.703   2.386  10.009 -0.5498  0.4275 -0.1800
  611MPD2    C3 9053   1.808   2.335   9.929  0.3873 -0.0331  0.5497
  611MPD2    C4 9054   1.811   2.199   9.916  0.3705 -0.0402  0.5449
  611MPD2    C5 9055   1.710   2.123   9.973  0.0945 -0.7151 -0.2739
  611MPD2     H 9056   1.707   2.492  10.033 -1.2300  0.4218 -0.0566
  611MPD2    H1 9057   1.895   2.146   9.873 -0.9511 -1.1773 -0.6337
  611MPD2    H2 9058   1.531   2.104  10.073 -0.2945  0.5699  1.8092
  611MPD2    H3 9059   1.705   2.015   9.978  1.8109 -0.7349  0.9928
  611MPD2     N 9060   1.919   2.409   9.873 -0.2114 -0.4412  0.4310
  611MPD2    H5 9061   1.994   2.367   9.818  1.3501  1.5145  1.0588
  611MPD2    N1 9062   1.492   2.370  10.132 -0.5461 -0.2651 -0.1677
  611MPD2    H7 9063   1.509   2.468  10.155 -3.9014 -0.0681  1.5465
  612TMC3    C1 9064   2.063   2.592   9.810 -0.4719  0.0878 -0.1161
  612TMC3    C2 9065   2.117   2.705   9.862  0.0205 -0.9760 -0.3268
  612TMC3    C3 9066   2.222   2.764   9.796 -0.1043  0.0992  0.0001
  612TMC3    C4 9067   2.099   2.543   9.689 -0.5035 -0.4396  0.1652
  612TMC3    C5 9068   2.199   2.610   9.623  0.1189 -0.4471 -0.3117
  612TMC3    C6 9069   2.260   2.720   9.671 -0.4453 -0.4349  0.2686
  612TMC3     C 9070   1.933   2.547   9.874  0.0640 -0.0769  0.3059
  612TMC3     O 9071   1.855   2.633   9.913 -0.2217  0.0337  0.0056
  612TMC3     H 9072   2.093   2.738   9.963  3.2689 -2.0457  0.8073
  612TMC3    H1 9073   2.057   2.455   9.640  0.8978  0.0125 -1.8544
  612TMC3    H2 9074   2.349   2.758   9.622 -1.3260  0.7205 -0.4160
  612TMC3    C7 9075   2.273   2.539   9.518 -0.3115  0.1705  1.1076
  612TMC3    C8 9076   2.321   2.836   9.878 -0.0434  1.1205  0.1108
  612TMC3    O1 9077   2.356   2.601   9.452  0.9780  0.5654  0.2492
  612TMC3    O2 9078   2.396   2.902   9.807  0.2359  0.2548  0.0042
  613MPD2     C 9079   0.651   4.561  16.591  0.4288  0.0126  0.2247
  613MPD2    C1 9080   0.568   4.638  16.512  0.2268  0.2262  0.0640
  613MPD2    C2 9081   0.464   4.580  16.447  0.0396  0.0278  0.5572
  613MPD2    C3 9082   0.434   4.446  16.469  0.2780 -0.6042 -0.3262
  613MPD2    C4 9083   0.509   4.385  16.566  0.0902 -0.8684  0.1435
  613MPD2    C5 9084   0.621   4.433  16.621  0.4545  0.4897 -0.6864
  613MPD2     H 9085   0.411   4.635  16.370  1.3365  0.3901 -0.0812
  613MPD2    H1 9086   0.487   4.283  16.594  0.3146 -1.8623 -3.3039
  613MPD2    H2 9087   0.738   4.606  16.636 -0.9652  1.0609  1.8327
  613MPD2    H3 9088   0.691   4.380  16.685 -0.4016  1.6633  1.2496
  613MPD2     N 9089   0.355   4.363  16.386  0.4965  0.3708  0.2176
  613MPD2    H5 9090   0.363   4.263  16.400  1.4297  0.4907  0.5321
  613MPD2    N1 9091   0.613   0.043  16.480 -0.2346 -0.0516  0.9098
  613MPD2    H7 9092   0.710   0.070  16.494  0.0027 -0.2142 -0.4373
  614TMC3    C1 9093   0.584   0.145  16.268 -0.1598 -0.2344 -0.3872
  614TMC3    C2 9094   0.640   0.039  16.210 -0.7172  0.5048 -0.2274
  614TMC3    C3 9095   0.624   0.014  16.078  0.4157  0.5500  0.0976
  614TMC3    C4 9096   0.521   0.236  16.195  0.0471  0.3348 -0.1075
  614TMC3    C5 9097   0.508   0.225  16.059 -0.6050  0.1112 -0.6296
  614TMC3    C6 9098   0.560   0.110  15.999  0.1047  0.0078  0.7122
  614TMC3     C 9099   0.531   0.127  16.403 -1.3404 -0.0271  0.0147
  614TMC3     O 9100   0.421   0.171  16.426  0.0918  0.1186 -0.1014
  614TMC3     H 9101   0.682   4.682  16.266  0.3683 -0.0225 -1.8308
  614TMC3    H1 9102   0.475   0.324  16.238 -1.0951 -0.6272  0.6131
  614TMC3    H2 9103   0.535   0.090  15.896  0.2314  2.7105  0.1344
  614TMC3    C7 9104   0.411   0.306  16.000  0.9695  0.3125 -0.6724
  614TMC3    C8 9105   0.605   4.601  16.032  0.5508  0.3922  0.4693
  614TMC3    O1 9106   0.344   0.386  16.065  0.0537 -0.0269  0.0633
  614TMC3    O2 9107   0.589   4.509  16.110  0.2049  0.4782  0.1904
  615MPD2     C 9108   0.350   1.342  15.963 -0.4413  0.1423  0.3984
  615MPD2    C1 9109   0.223   1.391  15.983 -0.4872 -0.0884  0.6673
  615MPD2    C2 9110   0.114   1.348  15.903  0.0829 -0.3195 -0.8250
  615MPD2    C3 9111   0.137   1.272  15.792  0.3784  0.2187 -0.0924
  615MPD2    C4 9112   0.269   1.245  15.767  0.6238 -0.5043 -0.1079
  615MPD2    C5 9113   0.379   1.269  15.851 -0.1979 -0.5078  0.2735
  615MPD2     H 9114   0.011   1.371  15.926 -0.1340 -0.3500 -1.7565
  615MPD2    H1 9115   0.306   1.183  15.686 -0.9008  0.9877 -1.9428
  615MPD2    H2 9116   0.430   1.343  16.036  1.6386 -2.1867 -1.8233
  615MPD2    H3 9117   0.480   1.248  15.817 -0.8100 -1.0789 -1.1827
  615MPD2     N 9118   0.035   1.227  15.705  0.9326 -0.3641 -0.2288
  615MPD2    H5 9119   0.075   1.172  15.630 -0.4799 -1.4684 -0.1767
  615MPD2    N1 9120   0.191   1.463  16.099  0.0278 -0.2732 -0.6467
  615MPD2    H7 9121   0.091   1.460  16.117  0.1914  0.7505  0.4505
  616TMC3    C1 9122   0.219   1.554  16.315 -0.5819  0.5731 -0.3217
  616TMC3    C2 9123   0.303   1.549  16.424  0.0858 -0.2399  0.9469
  616TMC3    C3 9124   0.263   1.509  16.545 -0.3786  0.1161  0.1141
  616TMC3    C4 9125   0.082   1.539  16.336 -0.5775  0.4880 -0.4263
  616TMC3    C5 9126   0.039   1.511  16.468  0.3586  0.2077  0.2944
  616TMC3    C6 9127   0.131   1.490  16.568  0.5046  0.3875  0.5435
  616TMC3     C 9128   0.280   1.518  16.187  0.0313  0.2537 -0.2851
  616TMC3     O 9129   0.399   1.541  16.171  0.3633  0.2382 -0.3290
  616TMC3     H 9130   0.402   1.593  16.424  0.3403 -0.8323 -0.2066
  616TMC3    H1 9131   0.012   1.562  16.257 -1.7984 -1.6710  0.0433
  616TMC3    H2 9132   0.095   1.453  16.664  1.3509 -0.9434  0.3438
  616TMC3    C7 9133   4.622   1.527  16.508 -0.2947  0.4119 -0.1042
  616TMC3    C8 9134   0.354   1.433  16.633 -0.3014  0.3369  0.3195
  616TMC3    O1 9135   4.610   1.567  16.620 -0.2602 -0.4340  0.1188
  616TMC3    O2 9136   0.307   1.405  16.740 -0.1806 -0.2611 -0.2564
  617MPD2     C 9137   2.709   4.099  13.446 -0.1326  0.1636 -0.2526
  617MPD2    C1 9138   2.727   4.035  13.567  0.3296  0.3101 -0.2567
  617MPD2    C2 9139   2.613   4.011  13.640 -0.5021 -0.1263 -0.2508
  617MPD2    C3 9140   2.484   4.039  13.596  0.0879 -0.1586 -0.9340
  617MPD2    C4 9141   2.478   4.101  13.473  0.4083 -0.0917 -0.1589
  617MPD2    C5 9142   2.589   4.133  13.402  0.3578 -0.1524  0.6257
  617MPD2     H 9143   2.623   3.954  13.731 -0.9880 -1.9847 -1.3713
  617MPD2    H1 9144   2.383   4.136  13.432  1.2725  1.7284 -0.6429
  617MPD2    H2 9145   2.787   4.124  13.375  0.8670  1.2688  1.2363
  617MPD2    H3 9146   2.564   4.187  13.311 -0.6986 -0.4295  0.7491
  617MPD2     N 9147   2.369   4.015  13.673  0.5482 -0.9159  0.3932
  617MPD2    H5 9148   2.280   4.019  13.624  0.7321 -4.8224 -0.2815
  617MPD2    N1 9149   2.853   3.996  13.608  0.1079 -0.0783  0.3423
  617MPD2    H7 9150   2.931   4.006  13.544 -1.1883  0.1930 -1.1963
  618TMC3    C1 9151   3.029   3.916  13.749  0.0924  0.2424  0.1234
  618TMC3    C2 9152   3.082   3.846  13.643 -0.5325 -1.0678  0.6197
  618TMC3    C3 9153   3.214   3.878  13.600  0.5778 -0.7152  0.0635
  618TMC3    C4 9154   3.101   4.005  13.818 -0.5349 -0.7539  0.6476
  618TMC3    C5 9155   3.225   4.035  13.775 -0.2288  0.4912  0.6708
  618TMC3    C6 9156   3.279   3.977  13.662  0.3667  1.2952  0.5220
  618TMC3     C 9157   2.889   3.944  13.730 -0.3072  0.0549 -0.2949
  618TMC3     O 9158   2.824   3.930  13.836  0.5346  0.8040 -0.1818
  618TMC3     H 9159   3.012   3.784  13.589 -1.5453 -0.5728  1.3604
  618TMC3    H1 9160   3.057   4.056  13.903  0.6739 -3.1386  2.7138
  618TMC3    H2 9161   3.378   4.010  13.633 -0.0296  0.5682 -1.6345
  618TMC3    C7 9162   3.284   4.147  13.852 -0.6103  0.0199  0.4224
  618TMC3    C8 9163   3.240   3.848  13.462  0.2003 -0.2910 -0.6006
  618TMC3    O1 9164   3.255   4.150  13.970 -0.2417 -0.4505 -0.6334
  618TMC3    O2 9165   3.145   3.817  13.396 -0.8742 -0.2307  0.0693
  619MPD2     C 9166   4.207   0.602  14.043  0.1281  0.4847 -0.1877
  619MPD2    C1 9167   4.183   0.639  13.913 -0.0400  0.2485 -1.1029
  619MPD2    C2 9168   4.055   0.648  13.862 -0.5981 -0.2088 -0.0888
  619MPD2    C3 9169   3.948   0.611  13.940  0.2354 -0.1904 -0.4727
  619MPD2    C4 9170   3.973   0.567  14.071 -0.3285 -0.3393 -0.1745
  619MPD2    C5 9171   4.099   0.565  14.118  1.2035 -0.1520 -0.4291
  619MPD2     H 9172   4.038   0.667  13.756  0.7174  0.4245 -0.1809
  619MPD2    H1 9173   3.893   0.534  14.137 -0.5090  0.6175  0.0878
  619MPD2    H2 9174   4.310   0.588  14.075 -0.2604 -0.7847  0.5076
  619MPD2    H3 9175   4.114   0.552  14.225 -1.7373 -0.3558 -0.0346
  619MPD2     N 9176   3.816   0.604  13.872  0.1872 -0.1828  0.0669
  619MPD2    H5 9177   3.818   0.635  13.776 -1.9622 -2.2130 -0.6047
  619MPD2    N1 9178   4.287   0.666  13.817  0.0882 -0.3150 -0.1681
  619MPD2    H7 9179   4.251   0.686  13.724 -0.7614 -3.3009 -0.4878
  620TMC3    C1 9180   4.479   0.737  13.730  0.6568 -0.1576 -0.4824
  620TMC3    C2 9181   4.416   0.738  13.610  0.4876 -1.4872 -0.0567
  620TMC3    C3 9182   4.418   0.854  13.539 -0.5062 -0.0476 -0.0781
  620TMC3    C4 9183   4.565   0.842  13.772 -0.0004 -0.2355 -0.3126
  620TMC3    C5 9184   4.571   0.947  13.695  0.0620  0.1690 -0.8671
  620TMC3    C6 9185   4.501   0.950  13.583 -0.3579  0.1643  0.1967
  620TMC3     C 9186   4.425   0.662  13.835 -0.3879  0.1580 -0.2167
  620TMC3     O 9187   4.488   0.658  13.941  0.2350 -0.7549 -0.1608
  620TMC3     H 9188   4.358   0.655  13.571  0.3939 -0.8428 -1.3142
  620TMC3    H1 9189   4.606   0.838  13.872 -0.2233  0.5548 -0.1936
  620TMC3    H2 9190   4.500   1.046  13.532 -0.4810  0.7109  1.2303
  620TMC3    C7 9191   4.596   1.073  13.766 -0.4915  0.2368  0.4389
  620TMC3    C8 9192   4.289   0.908  13.523 -0.7392  0.0259 -0.9989
  620TMC3    O1 9193   4.666   1.072  13.865  0.0030  0.3364  0.3466
  620TMC3    O2 9194   4.263   1.013  13.584  0.4111 -0.2048 -0.4522
  621MPD2     C 9195   4.523   0.548  10.180  0.4168  0.6718 -0.6979
  621MPD2    C1 9196   4.606   0.511  10.074  0.2060  0.0199  0.6368
  621MPD2    C2 9197   4.665   0.618  10.001 -0.1373  0.4924  0.5075
  621MPD2    C3 9198   4.656   0.745  10.047 -0.2828 -0.0100 -0.1029
  621MPD2    C4 9199   4.575   0.772  10.156 -0.5553  0.0420 -0.3511
  621MPD2    C5 9200   4.508   0.677  10.215  0.1632  0.1491  0.4187
  621MPD2     H 9201   0.006   0.599   9.917 -0.4276  2.9952 -0.2872
  621MPD2    H1 9202   4.563   0.871  10.200 -0.0341  0.0642 -0.2614
  621MPD2    H2 9203   4.463   0.477  10.236  1.6701 -0.1780 -0.4359
  621MPD2    H3 9204   4.461   0.694  10.311  0.2608 -3.5185  1.1010
  621MPD2     N 9205   0.010   0.842   9.981  0.0500  0.5163 -0.0516
  621MPD2    H5 9206   0.074   0.805   9.912  1.5136  1.2464  0.9003
  621MPD2    N1 9207   4.621   0.373  10.030 -0.1789  1.1692  0.2577
  621MPD2    H7 9208   4.674   0.356   9.945 -2.1333  2.2551 -1.1616
  622TMC3    C1 9209   4.578   0.142  10.006 -0.5422 -0.7459 -0.4034
  622TMC3    C2 9210   4.505   0.042  10.064  0.6317 -0.0054  0.0772
  622TMC3    C3 9211   4.418   4.683  10.000 -0.1952  0.0514 -0.4494
  622TMC3    C4 9212   4.557   0.166   9.869  0.1810  0.3286 -0.2582
  622TMC3    C5 9213   4.476   0.071   9.805  0.4612  0.2231  0.3473
  622TMC3    C6 9214   4.409   4.700   9.874  0.2679 -0.0252  0.4323
  622TMC3     C 9215   4.568   0.263  10.092  0.2849 -0.2389 -1.1181
  622TMC3     O 9216   4.501   0.252  10.194  0.0250  0.4313 -0.9767
  622TMC3     H 9217   4.509   0.019  10.170  3.1410 -1.4185 -0.3096
  622TMC3    H1 9218   4.597   0.258   9.829  0.3679  1.1467  1.8407
  622TMC3    H2 9219   4.348   4.635   9.813 -1.7370  0.7698  1.5907
  622TMC3    C7 9220   4.461   0.077   9.653  0.5042 -0.6150 -0.7619
  622TMC3    C8 9221   4.286   4.697  10.062  0.1371 -0.1069  0.3397
  622TMC3    O1 9222   4.420   4.695   9.608 -0.3378 -0.5973  0.3175
  622TMC3    O2 9223   4.199   4.626  10.019 -1.1417 -0.2165 -0.0012
  623MPD2     C 9224   2.910   1.170  15.855 -0.3691 -0.2318  0.5127
  623MPD2    C1 9225   2.872   1.268  15.936  0.1933  0.4708 -0.3715
  623MPD2    C2 9226   2.961   1.302  16.043 -0.5436  0.5161 -0.3498
  623MPD2    C3 9227   3.085   1.250  16.052  0.5598 -0.1417 -0.1980
  623MPD2    C4 9228   3.128   1.155  15.960  0.1537 -0.2230  0.5085
  623MPD2    C5 9229   3.040   1.118  15.866 -0.0441  0.1062  0.3564
  623MPD2     H 9230   2.926   1.368  16.122  0.0268  2.6146 -1.8564
  623MPD2    H1 9231   3.226   1.108  15.958  0.0593 -0.2670 -4.2282
  623MPD2    H2 9232   2.851   1.131  15.772 -1.5206 -0.9632  1.6815
  623MPD2    H3 9233   3.071   1.036  15.801  1.0194 -0.9301  2.1689
  623MPD2     N 9234   3.171   1.309  16.148 -0.2284  0.2489  0.2314
  623MPD2    H5 9235   3.122   1.378  16.204 -0.1898  1.6099 -1.4002
  623MPD2    N1 9236   2.765   1.344  15.891 -0.2968  0.0040  0.1903
  623MPD2    H7 9237   2.717   1.315  15.806  1.3890  0.7494 -1.0243
  624TMC3    C1 9238   3.560   1.417  16.383  0.4358  0.4007  0.5263
  624TMC3    C2 9239   3.488   1.483  16.482  0.2685 -0.1206  0.3544
  624TMC3    C3 9240   3.351   1.501  16.454 -0.4541  0.1527  0.7184
  624TMC3    C4 9241   3.511   1.380  16.267 -0.3159 -0.2980  0.6935
  624TMC3    C5 9242   3.372   1.381  16.251  0.3105  0.5923  0.0443
  624TMC3    C6 9243   3.292   1.445  16.340  0.5755  0.4852 -0.4048
  624TMC3     C 9244   3.690   1.376  16.425  0.1317  0.1533  0.0942
  624TMC3     O 9245   3.759   1.462  16.486  0.1768 -0.0139  0.7400
  624TMC3     H 9246   3.530   1.509  16.578 -1.6438 -1.4164  1.5299
  624TMC3    H1 9247   3.582   1.341  16.195 -0.2264 -1.4042  1.3748
  624TMC3    H2 9248   3.193   1.472  16.303  0.5842 -0.5934 -1.2270
  624TMC3    C7 9249   3.309   1.306  16.143  1.2293  0.4266 -0.2612
  624TMC3    C8 9250   3.265   1.537  16.565 -0.1483  0.0530 -0.3410
  624TMC3    O1 9251   3.384   1.255  16.061 -0.0563 -0.5194  0.0540
  624TMC3    O2 9252   3.302   1.639  16.622 -0.7251  0.1348  0.2244
  625MPD2     C 9253   3.897   1.843   0.018 -0.1483  0.3250 -0.1237
  625MPD2    C1 9254   3.950   1.931   0.103 -0.1352 -0.5866 -0.4978
  625MPD2    C2 9255   3.962   1.893   0.235 -0.2747 -1.1550  0.2190
  625MPD2    C3 9256   3.936   1.758   0.271  0.3299  0.5946  0.0450
  625MPD2    C4 9257   3.879   1.672   0.179 -0.4457  0.0088  0.0465
  625MPD2    C5 9258   3.860   1.715   0.056  0.2264 -0.3848  0.0606
  625MPD2     H 9259   3.997   1.962   0.311  0.1908 -0.2156 -0.8649
  625MPD2    H1 9260   3.860   1.566   0.193 -2.0251  0.3710  0.5877
  625MPD2    H2 9261   3.885   1.862  17.618 -1.2826 -2.0555 -0.4399
  625MPD2    H3 9262   3.827   1.638  17.693 -1.1473 -2.5525  3.1520
  625MPD2     N 9263   3.958   1.720   0.407  1.4322 -0.0788  0.0172
  625MPD2    H5 9264   4.002   1.782   0.474  0.2797 -2.1515  2.7037
  625MPD2    N1 9265   3.972   2.068   0.074  0.7278 -0.0937 -0.0515
  625MPD2    H7 9266   3.987   2.132   0.151 -1.1693  0.2699  0.0180
  626TMC3    C1 9267   3.974   2.271  17.653 -0.4768  0.2282 -0.4000
  626TMC3    C2 9268   3.895   2.330  17.559  0.3415  0.5237  0.1208
  626TMC3    C3 9269   3.887   2.464  17.567 -0.3066 -0.0899  0.0384
  626TMC3    C4 9270   4.035   2.344   0.049  0.0975  1.0787  0.6449
  626TMC3    C5 9271   4.027   2.477   0.047  0.2481 -0.1076 -0.4464
  626TMC3    C6 9272   3.952   2.540  17.662  0.2821  0.8282 -0.1417
  626TMC3     C 9273   3.960   2.127  17.655 -0.1739 -0.4600  0.1611
  626TMC3     O 9274   3.921   2.071  17.552  0.1899  0.3109  0.4398
  626TMC3     H 9275   3.863   2.271  17.473 -0.1445  1.4678 -0.3350
  626TMC3    H1 9276   4.098   2.296   0.123 -0.3599 -0.5426 -0.0370
  626TMC3    H2 9277   3.928   2.646  17.664  0.8679  0.9610 -0.3338
  626TMC3    C7 9278   4.107   2.559   0.145 -0.0540  0.8508 -0.1291
  626TMC3    C8 9279   3.798   2.531  17.479  0.2171  0.0002 -0.8665
  626TMC3    O1 9280   4.208   2.508   0.190  0.5803  0.2218  0.3074
  626TMC3    O2 9281   3.801   2.649  17.453 -0.0478 -0.3030 -0.5836
  627MPD2     C 9282   2.117   3.200  14.471 -0.6447  0.7431  0.5427
  627MPD2    C1 9283   2.205   3.119  14.546 -0.3473 -0.0959 -0.5727
  627MPD2    C2 9284   2.158   2.996  14.586 -0.1229 -0.1293  0.5215
  627MPD2    C3 9285   2.027   2.955  14.552 -0.5549  1.0529  0.4037
  627MPD2    C4 9286   1.947   3.037  14.480 -0.1887  0.2692 -0.1914
  627MPD2    C5 9287   1.987   3.162  14.445 -0.1003  0.1084  0.4446
  627MPD2     H 9288   2.230   2.930  14.634  0.8881 -0.7126 -1.8032
  627MPD2    H1 9289   1.850   3.000  14.447  0.7149 -0.3787 -2.0993
  627MPD2    H2 9290   2.135   3.299  14.431  1.2441 -0.0494 -0.5939
  627MPD2    H3 9291   1.926   3.228  14.384  0.4555  0.3779  0.1786
  627MPD2     N 9292   1.987   2.827  14.604  0.6334  0.5403  0.3399
  627MPD2    H5 9293   2.062   2.785  14.658  1.4111  1.3689 -0.0807
  627MPD2    N1 9294   2.342   3.151  14.580  0.6000 -0.0735 -0.2231
  627MPD2    H7 9295   2.392   3.088  14.641  0.5536  0.2413  0.1366
  628TMC3    C1 9296   2.534   3.286  14.586 -0.2051 -0.2537 -0.4181
  628TMC3    C2 9297   2.622   3.184  14.568  0.6788  0.4780 -0.0516
  628TMC3    C3 9298   2.759   3.211  14.569  0.1698 -0.9895 -0.3676
  628TMC3    C4 9299   2.574   3.413  14.577 -0.7037  0.0168  0.6774
  628TMC3    C5 9300   2.709   3.433  14.555 -0.0231  1.1130 -0.6490
  628TMC3    C6 9301   2.800   3.334  14.570  0.3760 -0.1586 -0.1164
  628TMC3     C 9302   2.393   3.275  14.556  0.4257 -0.1494 -0.3442
  628TMC3     O 9303   2.332   3.375  14.515  0.6469  0.5891  0.4087
  628TMC3     H 9304   2.586   3.086  14.542  0.2266  0.5099  0.4665
  628TMC3    H1 9305   2.503   3.490  14.602  0.8356  1.3004  1.0923
  628TMC3    H2 9306   2.899   3.356  14.533 -0.4457  0.5052 -1.9357
  628TMC3    C7 9307   2.753   3.572  14.531 -0.2803 -0.0675 -0.2044
  628TMC3    C8 9308   2.836   3.101  14.526 -0.3998 -0.2270 -0.9261
  628TMC3    O1 9309   2.872   3.596  14.550  0.3008  0.1345 -0.3794
  628TMC3    O2 9310   2.781   3.019  14.453  0.4633 -0.1744 -0.5077
  629MPD2     C 9311   0.775   1.135  16.679 -0.0382  0.5341  0.1755
  629MPD2    C1 9312   0.801   1.244  16.598  0.4890 -0.1553  0.0428
  629MPD2    C2 9313   0.700   1.343  16.570 -0.0393  0.2796 -0.2662
  629MPD2    C3 9314   0.580   1.325  16.630  0.1148 -0.3899  0.2124
  629MPD2    C4 9315   0.553   1.219  16.718  0.1865  1.0439  0.1972
  629MPD2    C5 9316   0.653   1.124  16.744 -0.1172  0.3311  0.4880
  629MPD2     H 9317   0.720   1.437  16.520  0.0098  0.6660  0.4875
  629MPD2    H1 9318   0.451   1.195  16.748  1.6768 -2.9218  2.1305
  629MPD2    H2 9319   0.852   1.059  16.690 -1.1281 -0.6737 -0.5879
  629MPD2    H3 9320   0.628   1.042  16.810  1.2216 -0.7238 -0.3129
  629MPD2     N 9321   0.482   1.415  16.584 -0.1362 -0.2091  0.0537
  629MPD2    H5 9322   0.511   1.474  16.507 -3.8478 -0.6145 -1.6652
  629MPD2    N1 9323   0.929   1.242  16.539  0.3688 -0.1153 -1.1428
  629MPD2    H7 9324   0.982   1.158  16.557  1.6253  1.2608  1.5486
  630TMC3    C1 9325   1.128   1.350  16.463  0.0929 -0.8078 -0.6790
  630TMC3    C2 9326   1.188   1.437  16.389  0.1382  0.6509  0.1540
  630TMC3    C3 9327   1.322   1.466  16.413 -0.0349  0.1019  0.6011
  630TMC3    C4 9328   1.200   1.257  16.537  0.0993 -0.5998  0.0475
  630TMC3    C5 9329   1.331   1.279  16.564 -0.1679  0.2253 -0.1585
  630TMC3    C6 9330   1.391   1.389  16.506 -1.1653 -0.1108 -0.5852
  630TMC3     C 9331   0.984   1.352  16.475  0.4051 -0.3150  0.0650
  630TMC3     O 9332   0.928   1.450  16.433  0.5455 -0.1078 -0.2546
  630TMC3     H 9333   1.141   1.504  16.317  0.6721  0.8933  0.0271
  630TMC3    H1 9334   1.146   1.210  16.618 -1.8094  2.1237  0.3576
  630TMC3    H2 9335   1.497   1.409  16.514 -1.0680 -2.0031  2.9236
  630TMC3    C7 9336   1.376   1.237  16.694 -0.3974  0.3592 -0.2751
  630TMC3    C8 9337   1.395   1.584  16.369 -0.2483 -0.3876  0.3851
  630TMC3    O1 9338   1.445   1.317  16.757  0.3049  0.0442  0.3374
  630TMC3    O2 9339   1.491   1.617  16.435 -0.2300  0.1531 -0.0750
  631MPD2     C 9340   3.762   1.405  15.323  0.6195  0.4452  0.2920
  631MPD2    C1 9341   3.859   1.461  15.243 -0.2164 -0.2372 -0.7281
  631MPD2    C2 9342   3.988   1.401  15.255  0.3414  0.4821 -0.1913
  631MPD2    C3 9343   4.015   1.320  15.368 -0.4398  0.8871 -0.6522
  631MPD2    C4 9344   3.917   1.269  15.449 -0.3591  0.2277  0.2701
  631MPD2    C5 9345   3.789   1.314  15.421  0.5128  0.2711 -0.0357
  631MPD2     H 9346   4.070   1.432  15.191 -0.6332 -1.1567 -2.2340
  631MPD2    H1 9347   3.931   1.205  15.535  1.2023  0.3430  0.0966
  631MPD2    H2 9348   3.660   1.443  15.316  0.4358 -0.4265 -1.5654
  631MPD2    H3 9349   3.710   1.293  15.492 -0.1690  0.6350 -0.6947
  631MPD2     N 9350   4.150   1.270  15.389  0.4522  0.1480  0.4776
  631MPD2    H5 9351   4.214   1.292  15.314 -0.7452  2.0385  0.0034
  631MPD2    N1 9352   3.823   1.575  15.172 -0.8573 -0.1266  0.3524
  631MPD2    H7 9353   3.728   1.606  15.185 -0.6538  0.3628  0.6789
  632TMC3    C1 9354   3.857   1.766  15.035 -0.2639  0.3974 -0.2229
  632TMC3    C2 9355   3.719   1.777  15.047 -0.4946  0.3322  0.2033
  632TMC3    C3 9356   3.654   1.874  14.979 -0.2576 -0.1451 -0.5222
  632TMC3    C4 9357   3.934   1.851  14.964  0.3590  0.0521  0.1674
  632TMC3    C5 9358   3.867   1.954  14.906 -0.1001 -0.6007 -0.2563
  632TMC3    C6 9359   3.730   1.962  14.901 -0.4484  0.2082  0.6301
  632TMC3     C 9360   3.916   1.657  15.104  0.2927 -0.4728 -0.0949
  632TMC3     O 9361   4.039   1.648  15.090 -0.4486  0.2701 -0.2584
  632TMC3     H 9362   3.654   1.707  15.098  0.2735 -0.6084 -0.0937
  632TMC3    H1 9363   4.041   1.836  14.970 -0.1188 -3.5786 -0.4682
  632TMC3    H2 9364   3.681   2.031  14.834 -0.7912  0.4287  1.1029
  632TMC3    C7 9365   3.934   2.038  14.808 -0.0009  0.3422  0.5740
  632TMC3    C8 9366   3.560   1.935  15.077  0.6611 -0.6178 -0.1748
  632TMC3    O1 9367   3.870   2.087  14.715 -0.1739 -0.3446 -0.5780
  632TMC3    O2 9368   3.561   1.903  15.195 -0.2060  0.4367 -0.6580
  633MPD2     C 9369   3.471   4.462  17.065 -0.2580 -0.6677  0.1133
  633MPD2    C1 9370   3.471   4.407  16.944 -0.0474 -0.2279 -0.7180
  633MPD2    C2 9371   3.482   4.267  16.936  0.3245 -0.0868  0.3184
  633MPD2    C3 9372   3.494   4.188  17.047  0.5775  0.3650 -0.1988
  633MPD2    C4 9373   3.491   4.248  17.167 -0.9301 -0.3730 -0.0190
  633MPD2    C5 9374   3.476   4.385  17.173  0.7147 -0.2613  0.2587
  633MPD2     H 9375   3.476   4.229  16.834 -1.5997  0.4656  0.2106
  633MPD2    H1 9376   3.517   4.194  17.257  2.0973 -1.8196 -1.7536
  633MPD2    H2 9377   3.460   4.569  17.078  0.0954 -0.6688  0.4358
  633MPD2    H3 9378   3.474   4.426  17.273 -3.0115 -1.2068  0.5714
  633MPD2     N 9379   3.499   4.048  17.037  0.3257 -0.1507 -0.5696
  633MPD2    H5 9380   3.528   3.988  17.112 -0.5556  0.5728  0.3589
  633MPD2    N1 9381   3.467   4.478  16.816 -0.0664  0.2492 -0.0858
  633MPD2    H7 9382   3.473   4.418  16.735  1.7778 -0.8297  0.8528
  634TMC3    C1 9383   3.477   4.641  16.659 -0.1159  0.4414 -0.3492
  634TMC3    C2 9384   3.544   4.554  16.579 -0.9256 -0.7314 -0.7706
  634TMC3    C3 9385   3.546   4.587  16.448  0.5898 -0.1341 -0.3776
  634TMC3    C4 9386   3.440   0.038  16.621  0.2836 -0.0363  0.1651
  634TMC3    C5 9387   3.441   0.065  16.492  0.1160 -0.7332  0.5619
  634TMC3    C6 9388   3.489   4.703  16.396  0.4002  0.3886  0.1758
  634TMC3     C 9389   3.478   4.615  16.796  0.0360  0.5334  0.7251
  634TMC3     O 9390   3.452   4.700  16.878  0.5644 -0.7679  0.3579
  634TMC3     H 9391   3.577   4.457  16.614  0.5069 -0.7798 -2.2878
  634TMC3    H1 9392   3.402   0.104  16.698  1.0596  1.7606 -1.0004
  634TMC3    H2 9393   3.500   0.001  16.291 -1.2366  3.3594  0.7037
  634TMC3    C7 9394   3.438   0.205  16.440 -0.3490  0.5451  0.5562
  634TMC3    C8 9395   3.619   4.497  16.364 -0.2887 -0.2844 -0.3552
  634TMC3    O1 9396   3.469   0.213  16.320 -0.0832 -0.4515 -0.9500
  634TMC3    O2 9397   3.653   4.390  16.413  0.1413 -0.4745 -0.5575
  635TMC3    C1 9398   4.292   0.460  16.905 -0.3863  0.2797  0.2229
  635TMC3    C2 9399   4.375   0.368  16.847 -0.1776  0.1597  0.4505
  635TMC3    C3 9400   4.317   0.255  16.800  0.2906 -0.0681 -1.0923
  635TMC3    C4 9401   4.157   0.434  16.921 -0.2964  0.3963  0.3089
  635TMC3    C5 9402   4.105   0.315  16.877  0.7792 -0.3196 -0.1445
  635TMC3    C6 9403   4.185   0.223  16.812  0.3695  0.1220 -0.2606
  635TMC3     C 9404   4.341   0.588  16.946  0.3770  0.4064  0.0926
  635TMC3     O 9405   4.262   0.672  16.988  0.1258  0.7779  0.1575
  635TMC3     H 9406   4.477   0.387  16.815 -0.0093  0.8407  1.3942
  635TMC3    H1 9407   4.099   0.504  16.980 -0.1744  1.6335 -1.0319
  635TMC3    H2 9408   4.152   0.124  16.782 -0.1365  0.3734 -0.5276
  635TMC3    C7 9409   3.998   0.270  16.963 -0.0434  0.3179 -0.4619
  635TMC3    C8 9410   4.417   0.149  16.777 -0.9132  0.5255  0.3381
  635TMC3    O1 9411   3.918   0.352  17.005  0.6810 -0.2375 -1.0406
  635TMC3    O2 9412   4.534   0.165  16.822  0.4400 -1.0655 -0.0449
  636MPD2     C 9413   4.703   0.197  15.868 -0.4768  0.4057 -0.5064
  636MPD2    C1 9414   0.029   0.169  15.995 -0.4423  0.4481 -0.4866
  636MPD2    C2 9415   0.091   0.051  16.012 -0.1123  0.2704 -0.1167
  636MPD2    C3 9416   0.096   4.680  15.911 -0.1257  0.3332 -0.5819
  636MPD2    C4 9417   0.053   4.721  15.786  0.4584  0.2998  0.3724
  636MPD2    C5 9418   4.726   0.116  15.758  0.3966 -0.7887  0.6809
  636MPD2     H 9419   0.122   0.028  16.114  1.1349 -0.7679 -0.7184
  636MPD2    H1 9420   0.078   4.657  15.701 -2.0334  0.7731 -0.7375
  636MPD2    H2 9421   4.676   0.301  15.850 -1.8474 -0.0450 -1.0030
  636MPD2    H3 9422   4.704   0.136  15.654 -1.5058 -2.6855  0.7226
  636MPD2     N 9423   0.143   4.554  15.944 -0.2199 -0.1925  0.1672
  636MPD2    H5 9424   0.175   4.544  16.040  0.5158 -1.6737 -0.2345
  636MPD2    N1 9425   0.025   0.262  16.108  0.4837  0.6521  0.1965
  636MPD2    H7 9426   0.088   0.250  16.187  1.2530 -3.5297 -1.0613
  637TMC3    C1 9427   0.152   4.328  15.969 -0.3970  0.2009 -0.2231
  637TMC3    C2 9428   0.144   4.359  16.099 -0.3335 -0.1161 -0.4012
  637TMC3    C3 9429   0.236   4.309  16.188  0.2963 -0.3113  0.2686
  637TMC3    C4 9430   0.253   4.240  15.927 -0.3506 -0.6109 -0.2165
  637TMC3    C5 9431   0.334   4.182  16.020 -0.2017  0.1180  0.4135
  637TMC3    C6 9432   0.316   4.206  16.149  0.4030 -0.4775  0.0021
  637TMC3     C 9433   0.138   4.437  15.876  0.4894 -0.1646  0.3226
  637TMC3     O 9434   0.107   4.412  15.760 -0.3967 -0.0842 -1.4571
  637TMC3     H 9435   0.078   4.434  16.142  1.0708  0.2264  1.1277
  637TMC3    H1 9436   0.267   4.231  15.820 -0.5266  1.5705 -0.4258
  637TMC3    H2 9437   0.399   4.183  16.215  0.8478  1.4300  0.1168
  637TMC3    C7 9438   0.409   4.066  15.963 -0.0780 -0.7826 -0.3822
  637TMC3    C8 9439   0.279   4.409  16.278 -0.5163 -0.2950 -0.1412
  637TMC3    O1 9440   0.371   3.960  16.007  0.0489 -0.4657  0.1749
  637TMC3    O2 9441   0.255   4.527  16.254 -0.4481  0.4005 -0.6693
  638MPD2     C 9442   0.094   3.836  14.548 -0.1258 -0.6310 -0.8149
  638MPD2    C1 9443   0.072   3.707  14.503  0.0933  0.5148  0.1752
  638MPD2    C2 9444   0.062   3.599  14.591  0.6760 -0.1340 -0.3593
  638MPD2    C3 9445   0.053   3.628  14.723  0.0781 -0.4661 -0.1654
  638MPD2    C4 9446   0.072   3.760  14.771  0.4439 -0.3526 -0.6608
  638MPD2    C5 9447   0.083   3.867  14.680 -0.0197 -0.2516 -1.0772
  638MPD2     H 9448   0.053   3.500  14.548 -2.6587 -0.8303  1.9653
  638MPD2    H1 9449   0.063   3.789  14.875  2.5246 -0.6644 -0.3878
  638MPD2    H2 9450   0.096   3.927  14.489 -1.6024  0.5991  1.0270
  638MPD2    H3 9451   0.087   3.972  14.706  0.6495 -0.2462 -1.1942
  638MPD2     N 9452   0.047   3.517  14.812 -0.2031 -0.0517 -0.1636
  638MPD2    H5 9453   0.067   3.425  14.775 -2.9989 -0.8454  0.2542
  638MPD2    N1 9454   0.063   3.671  14.360 -0.4070 -0.0785 -0.3857
  638MPD2    H7 9455   0.033   3.579  14.331  2.1113 -1.5538  1.7221
  639TMC3    C1 9456   4.715   3.374  14.980  0.5389  0.5234  0.0442
  639TMC3    C2 9457   4.614   3.322  14.913 -0.3570 -0.3894  0.2800
  639TMC3    C3 9458   4.551   3.218  14.965  0.1805 -0.3593 -0.6235
  639TMC3    C4 9459   0.023   3.324  15.101 -0.0809 -0.3138 -0.4323
  639TMC3    C5 9460   4.683   3.223  15.158 -0.2971  0.6727  0.2679
  639TMC3    C6 9461   4.573   3.171  15.088 -0.2716  0.0249  0.0478
  639TMC3     C 9462   0.029   3.509  14.946  0.0114 -0.4775 -0.5391
  639TMC3     O 9463   0.048   3.593  15.038  0.4877 -0.5358 -0.1426
  639TMC3     H 9464   4.578   3.357  14.817  0.0520 -1.2170 -0.1726
  639TMC3    H1 9465   0.112   3.366  15.145 -1.9098  0.2380  2.7125
  639TMC3    H2 9466   4.538   3.075  15.125  0.1846 -0.0056  0.3853
  639TMC3    C7 9467   0.035   3.112  15.197  1.0589  0.2647  0.3188
  639TMC3    C8 9468   4.460   3.159  14.881  0.6767 -0.3360  0.5667
  639TMC3    O1 9469   0.043   3.105  15.316  0.0260 -0.3703  0.0179
  639TMC3    O2 9470   4.497   3.142  14.765 -0.2449 -0.2463 -0.2438
  640MPD2     C 9471   0.663   2.114   9.879  0.1948 -0.8985 -0.8928
  640MPD2    C1 9472   0.697   2.217   9.790  0.1345  1.2765 -0.1411
  640MPD2    C2 9473   0.612   2.313   9.765 -0.0200  0.0007 -0.0627
  640MPD2    C3 9474   0.482   2.311   9.821  0.2401 -0.5833 -0.4926
  640MPD2    C4 9475   0.445   2.213   9.909 -0.7892  0.2787  0.3627
  640MPD2    C5 9476   0.535   2.109   9.929  0.5958  0.0859 -0.3734
  640MPD2     H 9477   0.635   2.391   9.693 -3.2628  1.9608  1.0163
  640MPD2    H1 9478   0.347   2.204   9.955 -0.6837  2.4802  1.0307
  640MPD2    H2 9479   0.732   2.032   9.893 -1.7350 -2.1318  1.4063
  640MPD2    H3 9480   0.508   2.031  10.000 -1.7010  0.3656 -0.9296
  640MPD2     N 9481   0.381   2.407   9.786 -0.5348 -0.6501 -0.0784
  640MPD2    H5 9482   0.293   2.395   9.835 -1.8415  1.5488 -1.8896
  640MPD2    N1 9483   0.831   2.210   9.729 -0.6118  0.5858 -0.2319
  640MPD2    H7 9484   0.891   2.137   9.766 -0.6394  1.1631  0.9726
  641TMC3    C1 9485   1.006   2.247   9.570  0.4647  0.2589 -0.2435
  641TMC3    C2 9486   1.039   2.113   9.570 -0.1310 -0.0067  0.4771
  641TMC3    C3 9487   1.132   2.063   9.476 -1.1234  0.1034  0.1234
  641TMC3    C4 9488   1.070   2.338   9.494 -0.2643 -0.7671 -1.1170
  641TMC3    C5 9489   1.162   2.287   9.411  0.0719  0.3512 -0.4263
  641TMC3    C6 9490   1.194   2.154   9.400 -0.4243  0.1302 -0.5546
  641TMC3     C 9491   0.882   2.293   9.633 -0.1227 -0.1167 -0.8358
  641TMC3     O 9492   0.821   2.375   9.567  0.5558 -0.4057 -0.5926
  641TMC3     H 9493   0.995   2.043   9.640 -1.9180 -1.2646 -1.8838
  641TMC3    H1 9494   1.031   2.439   9.483 -0.4306 -0.4818  2.0919
  641TMC3    H2 9495   1.265   2.124   9.324  0.4473  1.8151 -0.4025
  641TMC3    C7 9496   1.222   2.379   9.315 -0.7197  0.6990  0.5639
  641TMC3    C8 9497   1.139   1.919   9.453  0.6508 -0.7088  0.1544
  641TMC3    O1 9498   1.157   2.479   9.293  0.3351  0.0236 -0.1048
  641TMC3    O2 9499   1.154   1.892   9.335 -0.5446 -0.1881 -0.4648
  642TMC3    C1 9500   1.210   3.272  11.835  0.5588 -0.0770  0.8809
  642TMC3    C2 9501   1.225   3.339  11.953 -0.1436 -0.8879 -0.2721
  642TMC3    C3 9502   1.261   3.267  12.062 -0.2623 -0.2986  0.2406
  642TMC3    C4 9503   1.226   3.138  11.824 -0.7571  0.0955  0.2361
  642TMC3    C5 9504   1.259   3.065  11.942  0.2543 -0.6238  0.2912
  642TMC3    C6 9505   1.270   3.129  12.064  0.5627 -0.4046  0.3921
  642TMC3     C 9506   1.085   3.318  11.766 -0.0127 -0.1385  0.8243
  642TMC3     O 9507   1.078   3.298  11.644 -0.1610  0.2481 -0.3529
  642TMC3     H 9508   1.201   3.445  11.956 -0.7161 -1.0352  0.4151
  642TMC3    H1 9509   1.215   3.084  11.731 -0.1303 -0.8073  0.6851
  642TMC3    H2 9510   1.306   3.076  12.151  0.1109 -1.2613  0.0620
  642TMC3    C7 9511   1.261   2.922  11.930  0.8494  0.1200  0.2802
  642TMC3    C8 9512   1.256   3.347  12.185 -0.4670  0.4539  0.5553
  642TMC3    O1 9513   1.285   2.876  11.821 -0.6939 -0.1471  0.3030
  642TMC3    O2 9514   1.269   3.470  12.170 -0.0514 -0.2204 -0.1488
  643TMC3    C1 9515   0.627   2.420  17.313 -0.0967  0.2242  0.1642
  643TMC3    C2 9516   0.541   2.451  17.206  0.0832  0.1756 -0.0975
  643TMC3    C3 9517   0.563   2.375  17.093  0.5879  0.2237  0.1870
  643TMC3    C4 9518   0.738   2.346  17.298 -0.3126  0.5984 -0.4480
  643TMC3    C5 9519   0.763   2.289  17.175  0.5088  0.0458 -0.4802
  643TMC3    C6 9520   0.671   2.291  17.082  0.0370 -0.2316 -0.1489
  643TMC3     C 9521   0.577   2.458  17.440 -0.5639  0.7487 -0.2872
  643TMC3     O 9522   0.496   2.548  17.435 -0.3167  0.3934 -0.1971
  643TMC3     H 9523   0.452   2.512  17.216 -0.2852 -0.4437  0.4704
  643TMC3    H1 9524   0.825   2.364  17.361 -0.7484 -1.9797  0.8879
  643TMC3    H2 9525   0.674   2.231  16.992 -0.1431 -0.6742  0.1408
  643TMC3    C7 9526   0.903   2.299  17.137  0.1439 -0.4454 -0.6154
  643TMC3    C8 9527   0.530   2.443  16.971  0.0340 -0.1277  0.0724
  643TMC3    O1 9528   0.972   2.380  17.195 -0.6987  0.0347  0.3927
  643TMC3    O2 9529   0.531   2.381  16.863 -0.6917 -0.5830 -0.3012
  644MPD2     C 9530   1.438   3.007   9.338  0.0709  0.0460  0.2530
  644MPD2    C1 9531   1.361   2.899   9.383 -0.3224  0.9644  1.0817
  644MPD2    C2 9532   1.234   2.881   9.325 -0.0648 -0.2565  0.3670
  644MPD2    C3 9533   1.177   2.977   9.234  0.4415  0.2273  0.2331
  644MPD2    C4 9534   1.254   3.083   9.191 -0.1219 -0.1533  0.4090
  644MPD2    C5 9535   1.387   3.088   9.237 -0.2240  0.2964 -0.2005
  644MPD2     H 9536   1.177   2.790   9.334  1.7251 -1.4562 -0.4528
  644MPD2    H1 9537   1.222   3.170   9.135  1.3708 -0.4983 -0.9978
  644MPD2    H2 9538   1.541   3.014   9.370  0.2806  2.1223 -0.8162
  644MPD2    H3 9539   1.444   3.177   9.214  0.9335 -0.7211 -1.1925
  644MPD2     N 9540   1.044   2.956   9.188  0.4483  0.0370 -0.7046
  644MPD2    H5 9541   0.993   2.874   9.220 -1.8334  1.3845 -0.8703
  644MPD2    N1 9542   1.416   2.800   9.462 -0.0743 -0.8412 -0.2394
  644MPD2    H7 9543   1.515   2.811   9.481 -0.2174 -0.5604  0.3575
  645TMC3    C1 9544   0.849   2.987   9.066  0.0484 -0.4144  0.7513
  645TMC3    C2 9545   0.752   3.084   9.050  0.1566  0.0335  0.0314
  645TMC3    C3 9546   0.618   3.046   9.030 -0.1627  0.0389 -0.0826
  645TMC3    C4 9547   0.824   2.856   9.077 -0.1207 -0.1612  0.2653
  645TMC3    C5 9548   0.693   2.820   9.055  0.8372  0.2390  0.0280
  645TMC3    C6 9549   0.594   2.909   9.033 -0.3838 -0.2489  0.1627
  645TMC3     C 9550   0.984   3.038   9.096  1.1075  0.0719 -0.5944
  645TMC3     O 9551   1.016   3.134   9.026  0.5343  0.2601 -0.0037
  645TMC3     H 9552   0.785   3.186   9.033  2.0748 -0.7911 -1.2585
  645TMC3    H1 9553   0.908   2.789   9.089  0.5426  0.5382 -0.5011
  645TMC3    H2 9554   0.491   2.874   9.028 -1.2244  2.3327 -0.6423
  645TMC3    C7 9555   0.659   2.680   9.041  0.4721 -0.2866 -0.4075
  645TMC3    C8 9556   0.507   3.137   9.004  0.8649  0.8628  0.0409
  645TMC3    O1 9557   0.540   2.657   9.054 -0.4005 -0.0678  0.2556
  645TMC3    O2 9558   0.402   3.079   8.983 -0.2885 -0.3217  0.1677
  646MPD2     C 9559   0.033   2.314  14.312  0.0179  0.3176 -0.0362
  646MPD2    C1 9560   4.696   2.327  14.434 -0.1665  0.9035  0.5135
  646MPD2    C2 9561   4.581   2.404  14.441 -1.5767  0.2293 -0.0790
  646MPD2    C3 9562   4.528   2.470  14.324 -1.2598  0.1641  0.1050
  646MPD2    C4 9563   4.599   2.438  14.207  0.3029 -0.1171  0.0763
  646MPD2    C5 9564   4.715   2.373  14.200  0.2326 -0.1022  0.3349
  646MPD2     H 9565   4.535   2.421  14.538  1.3926  0.5211  1.2662
  646MPD2    H1 9566   4.572   2.474  14.108  1.3617 -1.6541 -0.7774
  646MPD2    H2 9567   0.125   2.257  14.300  0.1250  0.6606 -0.8563
  646MPD2    H3 9568   0.035   2.360  14.103 -0.3977 -1.6646  0.2363
  646MPD2     N 9569   4.407   2.547  14.332  0.2438  0.2829  0.9869
  646MPD2    H5 9570   4.357   2.538  14.420 -1.2795  0.0561  0.0852
  646MPD2    N1 9571   0.036   2.263  14.537 -0.8462 -0.6151 -0.1559
  646MPD2    H7 9572   0.126   2.222  14.512 -0.8831  0.6662 -2.3851
  647TMC3    C1 9573   0.100   2.194  14.765  0.0672 -0.1396 -0.0702
  647TMC3    C2 9574   0.047   2.128  14.865 -0.8109  0.1004  0.0719
  647TMC3    C3 9575   0.121   2.058  14.960 -0.6929  0.1443  1.1736
  647TMC3    C4 9576   0.228   2.184  14.733  0.0133  0.2752  0.1683
  647TMC3    C5 9577   0.303   2.104  14.822 -0.1628  0.2270  0.7949
  647TMC3    C6 9578   0.253   2.049  14.929  0.9822 -0.6639  0.1935
  647TMC3     C 9579   0.002   2.257  14.673 -0.0399 -0.3316 -0.3974
  647TMC3     O 9580   4.631   2.310  14.723  0.2999 -0.1043 -0.3556
  647TMC3     H 9581   4.667   2.144  14.879 -0.5531  2.4397 -0.6727
  647TMC3    H1 9582   0.274   2.222  14.643  3.5075  0.8392  2.1917
  647TMC3    H2 9583   0.313   2.007  15.009  0.9096 -0.9234  0.1127
  647TMC3    C7 9584   0.439   2.043  14.782  0.0981  0.0052  0.3181
  647TMC3    C8 9585   0.069   1.923  14.984 -0.0613 -0.0600  0.0207
  647TMC3    O1 9586   0.481   1.952  14.852  1.3837 -0.0714  0.3909
  647TMC3    O2 9587   0.102   1.859  15.087 -0.6078  0.3429  0.6455
  648TMC3    C1 9588   4.153   4.585  15.870 -0.4599  0.0479  0.0216
  648TMC3    C2 9589   4.181   4.455  15.830 -0.3146 -0.1541 -0.8014
  648TMC3    C3 9590   4.172   4.433  15.694  0.3286  0.4838 -0.5390
  648TMC3    C4 9591   4.090   4.670  15.793 -0.2960 -0.2004 -0.7386
  648TMC3    C5 9592   4.095   4.653  15.657  0.0202  0.1124  0.1165
  648TMC3    C6 9593   4.147   4.535  15.608 -0.1523  0.7331  0.1437
  648TMC3     C 9594   4.140   4.612  16.010  0.3087 -0.1678  0.5619
  648TMC3     O 9595   4.139   4.724  16.062  0.0950 -0.0872 -0.5717
  648TMC3     H 9596   4.238   4.387  15.894 -1.4939 -1.6229 -1.3202
  648TMC3    H1 9597   4.049   0.035  15.835 -1.0862 -1.1067  0.4532
  648TMC3    H2 9598   4.159   4.522  15.501 -1.7934 -3.9381  0.5515
  648TMC3    C7 9599   3.994   4.718  15.573 -0.5884  0.5060  0.1974
  648TMC3    C8 9600   4.228   4.316  15.631  0.6100  0.7726 -0.5060
  648TMC3    O1 9601   3.962   4.643  15.479 -0.1461 -0.0182 -0.6519
  648TMC3    O2 9602   4.257   4.319  15.514 -0.2725  0.3455  0.5513
  649TMC3    C1 9603   3.177   0.836  12.978  0.1688  0.4372 -0.6276
  649TMC3    C2 9604   3.289   0.759  13.009 -0.0600  0.4328  0.0374
  649TMC3    C3 9605   3.293   0.679  13.119 -0.2057 -0.5748 -0.2607
  649TMC3    C4 9606   3.065   0.829  13.059  0.1983 -0.2018  0.4139
  649TMC3    C5 9607   3.077   0.747  13.170 -0.3596  0.2702  0.0180
  649TMC3    C6 9608   3.178   0.657  13.193 -0.3235 -0.3816  0.4416
  649TMC3     C 9609   3.175   0.943  12.883  0.4059 -0.4676 -0.1715
  649TMC3     O 9610   3.069   0.993  12.855 -0.3984  0.3002  0.3184
  649TMC3     H 9611   3.382   0.759  12.953 -1.0076 -1.5683 -1.5796
  649TMC3    H1 9612   2.985   0.901  13.049 -0.3088 -0.7769  0.3341
  649TMC3    H2 9613   3.177   0.592  13.280 -0.9954  0.7679  1.2815
  649TMC3    C7 9614   2.956   0.729  13.248  0.4586 -0.3771  0.0954
  649TMC3    C8 9615   3.414   0.616  13.168 -0.0550 -0.0099  1.0091
  649TMC3    O1 9616   2.900   0.832  13.281  0.2348  0.3367  0.0298
  649TMC3    O2 9617   3.516   0.671  13.129  0.2847  0.4420 -0.1198
  650TMC3    C1 9618   0.383   2.442  12.556 -0.1528 -0.3858  0.0606
  650TMC3    C2 9619   0.367   2.563  12.621  0.0438 -0.1234 -0.6296
  650TMC3    C3 9620   0.241   2.578  12.675 -0.2119 -0.3142  0.2235
  650TMC3    C4 9621   0.280   2.352  12.531  0.0328  0.3737  0.1077
  650TMC3    C5 9622   0.159   2.372  12.579  0.3003 -0.6833  0.0773
  650TMC3    C6 9623   0.144   2.485  12.657 -0.0435 -0.8003  0.5497
  650TMC3     C 9624   0.507   2.426  12.480  0.3913  0.2804 -0.4730
  650TMC3     O 9625   0.563   2.527  12.443 -0.0284 -0.5832 -1.2028
  650TMC3     H 9626   0.443   2.639  12.637 -0.4726  0.2984 -0.1628
  650TMC3    H1 9627   0.298   2.264  12.469  0.0202  1.2110 -1.0831
  650TMC3    H2 9628   0.040   2.505  12.678 -0.0003 -1.0918  1.0467
  650TMC3    C7 9629   0.059   2.359  12.486  0.2542 -0.5297 -0.7178
  650TMC3    C8 9630   0.191   2.698  12.741 -0.2310  0.0980 -0.1812
  650TMC3    O1 9631   4.665   2.348  12.521  0.2843 -0.2194 -0.6171
  650TMC3    O2 9632   0.137   2.678  12.850  0.4128 -0.1716 -0.5049
  651MPD2     C 9633   4.318   4.427  10.260 -0.7400  0.5325 -0.3278
  651MPD2    C1 9634   4.341   4.517  10.363 -0.2988 -0.4070  0.1573
  651MPD2    C2 9635   4.473   4.561  10.385 -0.3324 -0.2206  0.1694
  651MPD2    C3 9636   4.576   4.512  10.311 -0.5975  0.4978 -0.2614
  651MPD2    C4 9637   4.548   4.420  10.211  0.3080 -0.8770 -0.0530
  651MPD2    C5 9638   4.424   4.373  10.193  0.1778 -0.0181  0.1941
  651MPD2     H 9639   4.494   4.630  10.466  1.9295  0.5914 -1.0967
  651MPD2    H1 9640   4.627   4.364  10.163  0.2988 -0.6622 -0.3230
  651MPD2    H2 9641   4.216   4.399  10.236 -1.8656  2.9410  1.5778
  651MPD2    H3 9642   4.405   4.293  10.122  0.0591  0.4352 -0.2856
  651MPD2     N 9643   4.703   4.561  10.345  0.4114 -0.7520 -0.2828
  651MPD2    H5 9644   4.706   4.621  10.427 -0.7897 -0.5145 -0.4065
  651MPD2    N1 9645   4.241   4.577  10.441 -0.2786 -0.3976  0.2381
  651MPD2    H7 9646   4.267   4.646  10.510 -1.8185 -0.1580  0.5728
  652TMC3    C1 9647   0.433   4.657  10.300 -0.2383 -0.2214  0.3474
  652TMC3    C2 9648   0.325   4.578  10.270  0.2419  0.7223  0.4689
  652TMC3    C3 9649   0.203   4.628  10.302 -0.0953 -0.2269 -0.1108
  652TMC3    C4 9650   0.409   0.053  10.362  0.5167 -0.1904  0.3815
  652TMC3    C5 9651   0.287   0.084  10.412  1.0461 -0.1226  0.2947
  652TMC3    C6 9652   0.176   0.011  10.383  0.1762  0.3043  0.1268
  652TMC3     C 9653   0.563   4.625  10.259  0.8818 -0.1796 -0.7353
  652TMC3     O 9654   0.608   4.512  10.252 -0.3320  0.1606 -0.4181
  652TMC3     H 9655   0.339   4.497  10.200 -1.4225  0.8449  0.0148
  652TMC3    H1 9656   0.503   0.086  10.405 -0.4766  0.4048  2.0707
  652TMC3    H2 9657   0.078   0.045  10.414 -0.4799  0.0507 -1.6997
  652TMC3    C7 9658   0.287   0.189  10.504  0.3394  0.4020  0.1522
  652TMC3    C8 9659   0.085   4.552  10.258 -0.5160 -0.1959 -0.1157
  652TMC3    O1 9660   0.199   0.192  10.587 -0.7098  0.1300 -0.9987
  652TMC3    O2 9661   0.098   4.483  10.155  0.0836  0.2064 -0.6972
  653MPD2     C 9662   3.125   4.494  17.413 -0.4393 -0.2444 -0.1546
  653MPD2    C1 9663   3.067   4.557  17.300 -0.2758 -0.4110 -0.2245
  653MPD2    C2 9664   3.071   4.492  17.180 -0.5142 -0.7787 -0.3821
  653MPD2    C3 9665   3.105   4.359  17.169  0.1147 -0.3338 -0.4595
  653MPD2    C4 9666   3.133   4.295  17.285  0.3176  0.0729  0.0579
  653MPD2    C5 9667   3.148   4.366  17.401  0.0273  0.6160  0.2296
  653MPD2     H 9668   3.045   4.550  17.092 -2.0381  2.2702  2.0731
  653MPD2    H1 9669   3.150   4.188  17.292 -1.7255 -0.1162  2.2067
  653MPD2    H2 9670   3.141   4.546  17.506  1.5660 -1.0864 -0.0309
  653MPD2    H3 9671   3.167   4.318  17.497 -0.2312  2.4967  1.2254
  653MPD2     N 9672   3.099   4.293  17.049  0.3574 -0.0589  0.7190
  653MPD2    H5 9673   3.083   4.354  16.970  0.6124 -0.3305  0.4620
  653MPD2    N1 9674   3.026   4.697  17.302  0.7262  0.6781  0.3009
  653MPD2    H7 9675   3.021   0.025  17.216 -0.1261 -1.4347 -0.9707
  654TMC3    C1 9676   3.100   4.124  16.882 -0.6465  0.2995  0.1799
  654TMC3    C2 9677   3.098   4.217  16.789 -0.7276  0.1493  0.6244
  654TMC3    C3 9678   3.089   4.183  16.660  0.5731 -0.7363 -0.6004
  654TMC3    C4 9679   3.076   4.000  16.849  0.0993 -0.1903 -0.2619
  654TMC3    C5 9680   3.072   3.964  16.717  0.1919  0.1938  0.7110
  654TMC3    C6 9681   3.076   4.056  16.618 -0.4072  0.2867  0.0690
  654TMC3     C 9682   3.110   4.157  17.030 -0.8574 -0.1472  0.1045
  654TMC3     O 9683   3.113   4.065  17.108  0.6936 -0.4738  0.2242
  654TMC3     H 9684   3.131   4.317  16.814  1.2957 -0.6837  1.2977
  654TMC3    H1 9685   3.069   3.921  16.923 -1.0822 -1.4826 -1.7740
  654TMC3    H2 9686   3.062   4.032  16.513  0.6352  0.9677 -0.2205
  654TMC3    C7 9687   3.004   3.842  16.684  1.5598 -0.0034 -0.0729
  654TMC3    C8 9688   3.023   4.292  16.583  0.1632  0.0055  0.3387
  654TMC3    O1 9689   2.928   3.850  16.590 -0.6052  0.2883 -0.1677
  654TMC3    O2 9690   2.952   4.372  16.643  0.5520  0.2968  0.3288
  655MPD2     C 9691   4.495   4.667  15.554 -0.4539  0.3062  0.1486
  655MPD2    C1 9692   4.476   0.043  15.467  0.1327 -0.4038  0.2760
  655MPD2    C2 9693   4.495   0.024  15.328 -0.3439 -0.5573  0.0235
  655MPD2    C3 9694   4.544   4.634  15.280 -0.0056 -0.7163 -0.6033
  655MPD2    C4 9695   4.572   4.532  15.372 -0.7328 -0.4817 -0.0890
  655MPD2    C5 9696   4.555   4.548  15.511 -0.4501  0.3946 -0.2131
  655MPD2     H 9697   4.471   0.109  15.264  0.7598 -0.7618 -0.6535
  655MPD2    H1 9698   4.613   4.437  15.339 -0.4360  0.0760 -1.3295
  655MPD2    H2 9699   4.470   4.683  15.658  1.6793  2.8327  0.2749
  655MPD2    H3 9700   4.585   4.469  15.579 -0.7162  1.1297  0.7633
  655MPD2     N 9701   4.558   4.592  15.144  0.1026  0.0464  0.1234
  655MPD2    H5 9702   4.581   4.496  15.120 -1.6947  0.0542 -1.6518
  655MPD2    N1 9703   4.429   0.177  15.503  0.2282 -0.5438 -0.1577
  655MPD2    H7 9704   4.412   0.242  15.426 -2.4281 -0.5681  0.4335
  656TMC3    C1 9705   4.312   0.342  15.636  0.1920  0.0826  0.3948
  656TMC3    C2 9706   4.266   0.376  15.763  1.2842 -0.0303  0.1575
  656TMC3    C3 9707   4.167   0.471  15.774 -0.0988  0.2537  0.1927
  656TMC3    C4 9708   4.273   0.404  15.521  0.0063  0.2393  0.2478
  656TMC3    C5 9709   4.182   0.500  15.533  0.0562  0.1558 -0.2130
  656TMC3    C6 9710   4.120   0.530  15.656 -0.4845  0.5892 -0.5733
  656TMC3     C 9711   4.396   0.214  15.630  0.3319  0.5912 -0.0955
  656TMC3     O 9712   4.400   0.147  15.735 -0.1910 -0.1493 -0.6646
  656TMC3     H 9713   4.304   0.328  15.852 -0.4339 -0.5198  0.6326
  656TMC3    H1 9714   4.302   0.371  15.422  1.4575 -0.1470  0.8066
  656TMC3    H2 9715   4.035   0.597  15.658  0.1596  1.4011 -0.5137
  656TMC3    C7 9716   4.106   0.532  15.410 -0.0511 -0.0082 -0.1071
  656TMC3    C8 9717   4.058   0.419  15.850 -0.0963  0.2413  0.4718
  656TMC3    O1 9718   4.161   0.516  15.302  0.0551 -0.0120 -0.3542
  656TMC3    O2 9719   4.030   0.299  15.831  0.3287  0.2758 -0.2353
  657TMC3    C1 9720   3.564   3.778  14.826 -0.1227 -0.4266 -0.1666
  657TMC3    C2 9721   3.624   3.751  14.946 -0.0540  0.5659  1.0856
  657TMC3    C3 9722   3.551   3.785  15.057 -0.3588  0.6731  0.0193
  657TMC3    C4 9723   3.447   3.842  14.811  0.1111  1.0395 -0.1135
  657TMC3    C5 9724   3.385   3.882  14.922  0.1056  0.1048  0.3326
  657TMC3    C6 9725   3.427   3.849  15.040  0.7024 -0.0636  0.2687
  657TMC3     C 9726   3.637   3.758  14.707 -0.0241  0.6719  0.6950
  657TMC3     O 9727   3.575   3.732  14.603 -0.3756  0.0171  0.3136
  657TMC3     H 9728   3.721   3.703  14.959 -1.0087 -1.5429  0.4069
  657TMC3    H1 9729   3.402   3.857  14.713 -1.0780 -1.5711  0.0018
  657TMC3    H2 9730   3.378   3.890  15.128 -0.4193 -1.5919  0.3415
  657TMC3    C7 9731   3.277   3.978  14.914  0.0254  0.0511 -0.0770
  657TMC3    C8 9732   3.613   3.813  15.188 -0.2781 -0.2442  0.3704
  657TMC3    O1 9733   3.215   3.997  15.018 -0.0583 -0.2933 -0.6170
  657TMC3    O2 9734   3.580   3.910  15.252 -0.0709 -0.0893 -0.4044
  658MPD2     C 9735   0.228   0.174  14.540  0.1954  0.2241  0.1970
  658MPD2    C1 9736   0.122   0.116  14.485 -0.0955  0.2983  0.6658
  658MPD2    C2 9737   0.086   0.138  14.356  0.2711  0.3577 -0.1437
  658MPD2    C3 9738   0.159   0.223  14.282 -0.5227  0.4304 -0.1476
  658MPD2    C4 9739   0.274   0.280  14.337  0.0399  0.0612  0.0133
  658MPD2    C5 9740   0.311   0.253  14.465 -0.9119  0.9979  0.2476
  658MPD2     H 9741   0.009   0.076  14.311 -1.7694  1.2036  2.1676
  658MPD2    H1 9742   0.332   0.355  14.285 -0.2272 -1.0801 -1.9460
  658MPD2    H2 9743   0.250   0.162  14.646 -0.3810 -1.2891  0.1455
  658MPD2    H3 9744   0.402   0.301  14.500  1.6986 -2.3283 -2.0541
  658MPD2     N 9745   0.121   0.237  14.144 -0.5860  0.3252 -0.4052
  658MPD2    H5 9746   0.035   0.190  14.117  0.9373 -1.2191 -2.6281
  658MPD2    N1 9747   0.047   0.040  14.577 -0.7976 -0.0228 -0.4132
  658MPD2    H7 9748   0.088   0.019  14.667  0.4161  1.0121 -0.7361
  659TMC3    C1 9749   4.583   4.651  14.682 -0.0527 -1.0010  0.7732
  659TMC3    C2 9750   4.625   4.681  14.804  0.1586 -0.5837  0.2519
  659TMC3    C3 9751   4.573   4.608  14.905 -0.0570 -0.1193  0.4613
  659TMC3    C4 9752   4.482   4.564  14.658 -0.4105 -0.2672 -0.5041
  659TMC3    C5 9753   4.423   4.499  14.758 -0.3927 -0.6472 -0.2902
  659TMC3    C6 9754   4.469   4.515  14.886  0.3158 -0.5909 -0.1641
  659TMC3     C 9755   4.642   4.722  14.560 -0.4757 -0.4120  0.2452
  659TMC3     O 9756   4.569   0.010  14.465  0.2216  0.1135  0.0599
  659TMC3     H 9757   4.685   0.043  14.824  0.4089 -0.7709  0.3217
  659TMC3    H1 9758   4.443   4.550  14.558  0.8297 -0.7977 -0.9064
  659TMC3    H2 9759   4.412   4.488  14.974 -0.7291  1.8398 -0.0913
  659TMC3    C7 9760   4.276   4.494  14.760  0.0234  0.1041 -0.6524
  659TMC3    C8 9761   4.566   4.675  15.033 -0.2446  0.5273  0.2454
  659TMC3    O1 9762   4.226   4.413  14.836 -0.2824 -0.4926  0.0539
  659TMC3    O2 9763   4.560   0.071  15.039 -0.4452  0.0140  0.0452
  660MPD2     C 9764   2.660   3.504  12.575 -0.4613 -0.1943  0.0536
  660MPD2    C1 9765   2.522   3.512  12.558  0.7938 -0.1123  0.0584
  660MPD2    C2 9766   2.442   3.441  12.642  0.6444  0.1984  0.5605
  660MPD2    C3 9767   2.491   3.360  12.738  1.1157  0.7495  0.2598
  660MPD2    C4 9768   2.626   3.348  12.747 -0.0211 -0.0190  1.0533
  660MPD2    C5 9769   2.708   3.419  12.670 -0.6397  0.1392 -0.4514
  660MPD2     H 9770   2.335   3.447  12.627  0.8672 -0.1635 -1.1465
  660MPD2    H1 9771   2.653   3.269  12.816 -1.6532 -1.6101 -0.1255
  660MPD2    H2 9772   2.731   3.572  12.529  1.9067 -1.3340  2.0400
  660MPD2    H3 9773   2.813   3.419  12.699 -0.6058  0.0979 -0.5753
  660MPD2     N 9774   2.412   3.268  12.811 -0.0489  0.3745  0.1502
  660MPD2    H5 9775   2.457   3.204  12.875 -0.1014  2.2217  2.0246
  660MPD2    N1 9776   2.469   3.601  12.458  0.8144 -0.3889  0.5293
  660MPD2    H7 9777   2.526   3.649  12.389  1.9195 -1.4391  0.7058
  661TMC3    C1 9778   2.324   3.688  12.312 -0.0648  0.5702 -0.0912
  661TMC3    C2 9779   2.407   3.645  12.212 -0.1241  0.0503  0.0214
  661TMC3    C3 9780   2.372   3.666  12.084  0.6973 -0.5948 -0.0677
  661TMC3    C4 9781   2.197   3.724  12.280  0.1988  0.0001 -0.4444
  661TMC3    C5 9782   2.161   3.728  12.149 -0.7454  0.2154 -0.4767
  661TMC3    C6 9783   2.246   3.704  12.042 -0.4192  0.1260  0.4428
  661TMC3     C 9784   2.336   3.632  12.439 -0.3938  0.1468  0.8245
  661TMC3     O 9785   2.238   3.614  12.510  0.3655  0.2759  0.4489
  661TMC3     H 9786   2.494   3.581  12.225  0.0962  0.4957  0.7503
  661TMC3    H1 9787   2.121   3.736  12.357  1.2576 -0.2018  0.6304
  661TMC3    H2 9788   2.216   3.713  11.938 -1.3257 -0.1262  0.6889
  661TMC3    C7 9789   2.026   3.747  12.131 -0.3613 -0.1890 -0.0599
  661TMC3    C8 9790   2.476   3.676  11.985  0.0002  0.1376 -0.1153
  661TMC3    O1 9791   1.971   3.823  12.208  0.5178 -0.3749  0.1366
  661TMC3    O2 9792   2.441   3.645  11.873 -0.0475  0.3352  0.0495
  662MPD2     C 9793   2.806   3.177  16.978 -0.1100  0.0332  0.1759
  662MPD2    C1 9794   2.753   3.098  17.081  0.6068  0.1117  0.1708
  662MPD2    C2 9795   2.621   3.107  17.116  0.3500 -0.5946 -0.1131
  662MPD2    C3 9796   2.538   3.193  17.049 -0.2089 -1.0343 -0.1103
  662MPD2    C4 9797   2.592   3.277  16.954 -0.9186 -0.8131 -0.3972
  662MPD2    C5 9798   2.719   3.266  16.920 -0.3270 -0.6488  0.4857
  662MPD2     H 9799   2.587   3.047  17.200  0.4312 -1.5865 -0.7885
  662MPD2    H1 9800   2.529   3.352  16.907 -0.2033 -0.5280 -0.9095
  662MPD2    H2 9801   2.911   3.174  16.951 -0.6749 -0.0521 -2.0244
  662MPD2    H3 9802   2.762   3.342  16.855 -0.5095 -0.5328  0.5017
  662MPD2     N 9803   2.403   3.202  17.098  0.2263  0.2757 -0.0080
  662MPD2    H5 9804   2.385   3.158  17.188  1.5863 -0.7245 -0.2166
  662MPD2    N1 9805   2.833   3.008  17.154  0.2510 -0.8343  0.2759
  662MPD2    H7 9806   2.787   2.935  17.207 -0.1498 -1.2079 -0.5795
  663TMC3    C1 9807   3.019   2.902  17.250  0.0402 -0.1865  0.0352
  663TMC3    C2 9808   3.109   2.921  17.350  0.4131 -0.3576  0.0085
  663TMC3    C3 9809   3.175   2.814  17.405 -0.4663  0.2775 -0.0619
  663TMC3    C4 9810   2.970   2.780  17.235  0.7239  0.0354  0.0893
  663TMC3    C5 9811   3.018   2.672  17.299  0.0538  0.2014 -0.4481
  663TMC3    C6 9812   3.123   2.687  17.386 -0.6234 -0.3408 -0.2799
  663TMC3     C 9813   2.967   3.017  17.180 -0.0020  0.1597 -0.3489
  663TMC3     O 9814   3.042   3.112  17.175 -0.0623  0.0111  0.5020
  663TMC3     H 9815   3.150   3.021  17.355  1.0937 -0.6777  1.0238
  663TMC3    H1 9816   2.904   2.763  17.151  2.0990 -2.0349 -0.5433
  663TMC3    H2 9817   3.183   2.599  17.406 -1.1190 -0.8242 -0.9070
  663TMC3    C7 9818   2.980   2.545  17.245 -0.2519  0.0786 -0.2661
  663TMC3    C8 9819   3.224   2.827  17.542  0.0939 -0.0047  0.1768
  663TMC3    O1 9820   2.936   2.555  17.132  0.1474  0.6003  0.3012
  663TMC3    O2 9821   3.280   2.729  17.584  0.7417  0.0277 -0.0756
  664MPD2     C 9822   0.986   1.148   0.130  0.5231 -0.3051  0.5702
  664MPD2    C1 9823   1.085   1.247   0.134  0.2467 -0.3138 -0.5119
  664MPD2    C2 9824   1.137   1.291   0.257  0.1995  0.1444  0.2157
  664MPD2    C3 9825   1.104   1.238   0.374  0.2463 -0.3257 -0.3830
  664MPD2    C4 9826   1.016   1.128   0.369 -0.5431 -0.5368 -0.4367
  664MPD2    C5 9827   0.956   1.093   0.252 -0.2946 -0.6730  0.7149
  664MPD2     H 9828   1.205   1.375   0.251  1.8076 -1.1813 -0.1394
  664MPD2    H1 9829   0.979   1.080   0.459  0.3868 -0.2144  0.1140
  664MPD2    H2 9830   0.936   1.119   0.038 -0.3188  2.3373  0.2062
  664MPD2    H3 9831   0.890   1.007   0.251 -1.3147  0.1173 -0.6674
  664MPD2     N 9832   1.169   1.288   0.489 -0.1120  0.1859  0.3416
  664MPD2    H5 9833   1.242   1.359   0.482 -0.4721  0.4124 -1.0721
  664MPD2    N1 9834   1.133   1.297   0.013 -0.3652  0.1164 -0.0997
  664MPD2    H7 9835   1.178   1.387   0.021  1.5752 -0.9024  0.5232
  665TMC3    C1 9836   1.222   1.312   0.713  0.5569  0.3336  0.4393
  665TMC3    C2 9837   1.216   1.266   0.844 -0.5248  0.0943  1.1674
  665TMC3    C3 9838   1.301   1.328   0.931  0.2426 -0.4696  0.8024
  665TMC3    C4 9839   1.294   1.422   0.674  0.6022 -0.4077  0.2794
  665TMC3    C5 9840   1.363   1.485   0.772 -0.3790  0.2528  0.3144
  665TMC3    C6 9841   1.382   1.437   0.900  0.3393 -0.5523  0.3237
  665TMC3     C 9842   1.137   1.251   0.618  1.0397 -0.3982 -0.3942
  665TMC3     O 9843   1.059   1.166   0.661  0.7698 -0.0712  0.0748
  665TMC3     H 9844   1.151   1.185   0.877 -0.0025 -0.5799  0.5355
  665TMC3    H1 9845   1.288   1.471   0.577 -0.9915 -2.3673 -0.6182
  665TMC3    H2 9846   1.436   1.484   0.982 -1.0545  1.6400 -0.0136
  665TMC3    C7 9847   1.421   1.617   0.739  0.2524 -0.9784 -0.2512
  665TMC3    C8 9848   1.348   1.259   1.054 -0.5773  0.5608  0.5549
  665TMC3    O1 9849   1.449   1.637   0.622  0.8824  0.0391 -0.0016
  665TMC3    O2 9850   1.470   1.253   1.077 -0.3309  0.1559  0.2896
  666TMC3    C1 9851   0.094   1.042   9.926  0.7311  1.0623  0.4261
  666TMC3    C2 9852   0.222   0.998   9.921 -0.5870  0.0674 -0.2074
  666TMC3    C3 9853   0.314   1.092   9.897  0.0696 -0.3229 -0.1450
  666TMC3    C4 9854   0.060   1.175   9.901  0.3108  0.2587  0.5399
  666TMC3    C5 9855   0.157   1.267   9.879 -0.2194 -1.3745 -0.2760
  666TMC3    C6 9856   0.289   1.227   9.880  0.3135 -0.3013 -0.2102
  666TMC3     C 9857   0.001   0.975  10.009 -0.3788  0.8219 -0.7842
  666TMC3     O 9858   4.665   1.047  10.091  0.9997  0.3611  0.3515
  666TMC3     H 9859   0.252   0.898   9.950 -1.6488 -0.4805 -0.9953
  666TMC3    H1 9860   4.682   1.205   9.908  0.5100  0.8590  0.9634
  666TMC3    H2 9861   0.363   1.306   9.891 -0.3601  0.4806 -1.2809
  666TMC3    C7 9862   0.125   1.411   9.908  0.3716 -0.7653 -0.3975
  666TMC3    C8 9863   0.451   1.062   9.945 -0.3642 -0.7752  0.5958
  666TMC3    O1 9864   0.024   1.426   9.972 -0.6961 -0.2589 -0.2038
  666TMC3    O2 9865   0.468   0.946   9.980 -0.2530 -0.2351  0.1220
  667MPD2     C 9866   1.582   1.226  14.396 -0.0890  0.7692  0.0891
  667MPD2    C1 9867   1.467   1.259  14.477  0.1473 -0.0272  0.1067
  667MPD2    C2 9868   1.348   1.208  14.431 -0.8676 -0.2463  0.4476
  667MPD2    C3 9869   1.337   1.132  14.310  0.1801 -0.2590 -0.0894
  667MPD2    C4 9870   1.450   1.101  14.242  0.8186  0.4321  0.5147
  667MPD2    C5 9871   1.573   1.134  14.290 -0.3382 -0.0529 -0.7437
  667MPD2     H 9872   1.258   1.207  14.491 -0.6877  0.0809  0.7228
  667MPD2    H1 9873   1.447   1.048  14.147  1.5766  0.9178  0.2233
  667MPD2    H2 9874   1.686   1.249  14.416 -0.2320  0.8822  0.7087
  667MPD2    H3 9875   1.657   1.112  14.226 -0.1321 -2.1580  0.2531
  667MPD2     N 9876   1.222   1.069  14.267  0.4508  0.4023 -0.8038
  667MPD2    H5 9877   1.246   1.013  14.186 -0.2904 -2.4698  0.9639
  667MPD2    N1 9878   1.478   1.323  14.605  0.2547 -0.3021 -0.6042
  667MPD2    H7 9879   1.398   1.357  14.656  0.0798 -2.1842  0.3633
  668TMC3    C1 9880   1.594   1.416  14.793  0.1528  0.0657  0.0091
  668TMC3    C2 9881   1.701   1.482  14.834 -0.5654 -0.0386 -0.9168
  668TMC3    C3 9882   1.711   1.510  14.969 -0.0839  0.6589  0.3433
  668TMC3    C4 9883   1.506   1.367  14.886 -0.7923  0.2300 -0.0574
  668TMC3    C5 9884   1.511   1.404  15.016 -0.3209  0.0138 -0.8348
  668TMC3    C6 9885   1.611   1.481  15.060  0.3989  0.3999 -0.1713
  668TMC3     C 9886   1.602   1.357  14.658  0.2644 -0.9101  0.5643
  668TMC3     O 9887   1.718   1.342  14.616 -0.0680  0.2089 -0.3996
  668TMC3     H 9888   1.783   1.503  14.766 -0.1775 -1.9573 -1.0219
  668TMC3    H1 9889   1.420   1.308  14.857  0.7368 -1.2632 -1.5400
  668TMC3    H2 9890   1.617   1.516  15.162  0.7224 -2.2046  0.6999
  668TMC3    C7 9891   1.404   1.376  15.111  0.0461 -0.9387  0.4608
  668TMC3    C8 9892   1.829   1.577  15.026 -0.5445 -0.2692 -0.2440
  668TMC3    O1 9893   1.402   1.438  15.214  0.2530  0.1296 -0.0125
  668TMC3    O2 9894   1.871   1.531  15.132 -0.6146  0.5310  0.5306
  669TMC3    C1 9895   4.409   1.187  14.595  0.0203  0.3636  0.2774
  669TMC3    C2 9896   4.299   1.221  14.522 -0.8514  0.7244  0.4625
  669TMC3    C3 9897   4.320   1.299  14.418  0.1483 -0.2589  0.3892
  669TMC3    C4 9898   4.534   1.229  14.567 -0.2058  0.6425  0.4545
  669TMC3    C5 9899   4.547   1.309  14.456  0.0805 -0.9034 -0.6944
  669TMC3    C6 9900   4.444   1.349  14.385  0.4854 -0.5767 -0.0065
  669TMC3     C 9901   4.380   1.117  14.721  0.1250 -0.0514  0.3864
  669TMC3     O 9902   4.277   1.147  14.782  0.1472 -0.4250 -0.1586
  669TMC3     H 9903   4.202   1.179  14.545 -1.0545  0.2038 -1.3678
  669TMC3    H1 9904   4.614   1.184  14.625 -1.1220 -0.9802  0.4875
  669TMC3    H2 9905   4.461   1.388  14.285 -0.1442  1.7335  0.7826
  669TMC3    C7 9906   4.672   1.375  14.435 -0.4205  0.5384 -0.2566
  669TMC3    C8 9907   4.211   1.305  14.323 -0.0757  0.0729  0.4067
  669TMC3    O1 9908   4.678   1.465  14.356  0.4043 -0.1456 -0.0258
  669TMC3    O2 9909   4.119   1.226  14.337 -0.3544 -0.0058 -0.7143
  670MPD2     C 9910   2.631   3.754  13.139  0.1855  0.1643 -0.0780
  670MPD2    C1 9911   2.740   3.773  13.230 -0.0046 -0.0916  0.6715
  670MPD2    C2 9912   2.722   3.748  13.365  0.2482  0.1009 -0.2386
  670MPD2    C3 9913   2.594   3.715  13.415  0.2948 -0.2129  0.0519
  670MPD2    C4 9914   2.492   3.687  13.316  0.1299  0.4633  0.7914
  670MPD2    C5 9915   2.514   3.705  13.184 -0.4587 -0.4041  0.1895
  670MPD2     H 9916   2.801   3.762  13.438  0.6795 -2.2242 -0.2756
  670MPD2    H1 9917   2.389   3.667  13.344 -0.3407  2.5410  0.5658
  670MPD2    H2 9918   2.630   3.781  13.034 -1.3831  0.0391 -0.1013
  670MPD2    H3 9919   2.438   3.676  13.112  0.2730  0.0150 -0.7414
  670MPD2     N 9920   2.577   3.698  13.557  0.4295  0.9042  0.0425
  670MPD2    H5 9921   2.661   3.707  13.614 -0.2178  2.1062  0.8034
  670MPD2    N1 9922   2.863   3.832  13.194  0.3204 -0.0213  0.7655
  670MPD2    H7 9923   2.932   3.854  13.265 -0.4971  0.7875  1.3223
  671TMC3    C1 9924   2.460   3.661  13.760  0.9232  0.5202 -0.1068
  671TMC3    C2 9925   2.562   3.721  13.831 -0.2059  0.5904 -0.8396
  671TMC3    C3 9926   2.559   3.703  13.965  0.5868  0.5045 -0.6001
  671TMC3    C4 9927   2.353   3.600  13.825 -0.7738  0.1114  0.3825
  671TMC3    C5 9928   2.358   3.593  13.961  0.4744 -0.1551 -0.0122
  671TMC3    C6 9929   2.462   3.648  14.032 -0.2071  0.6814  0.0287
  671TMC3     C 9930   2.454   3.665  13.616  0.2612  0.1004 -0.1521
  671TMC3     O 9931   2.343   3.645  13.569 -0.3324 -0.0457  0.6059
  671TMC3     H 9932   2.655   3.761  13.792 -0.8148  1.7373 -1.1102
  671TMC3    H1 9933   2.276   3.555  13.763 -0.2016  0.2772 -0.4537
  671TMC3    H2 9934   2.463   3.644  14.141 -0.7318 -2.4832 -0.0776
  671TMC3    C7 9935   2.319   3.465  14.003 -0.1332 -0.1242  0.1201
  671TMC3    C8 9936   2.675   3.642  14.028  0.1628  0.5172 -0.4519
  671TMC3    O1 9937   2.219   3.410  13.961 -0.8904  0.1057  0.2568
  671TMC3    O2 9938   2.658   3.530  14.069 -0.3883  0.5601  0.0889
  672MPD2     C 9939   2.398   4.080   0.659  0.0546 -0.4399  0.4092
  672MPD2    C1 9940   2.509   4.115   0.589  0.2808 -0.4738 -0.2433
  672MPD2    C2 9941   2.608   4.166   0.671  0.2325  0.2459  0.3430
  672MPD2    C3 9942   2.597   4.182   0.805  1.0368 -0.2863  0.4548
  672MPD2    C4 9943   2.489   4.141   0.875 -0.4388 -0.5186  0.4133
  672MPD2    C5 9944   2.389   4.078   0.795 -0.0185  0.6819 -0.2082
  672MPD2     H 9945   2.695   4.198   0.615 -0.5806  0.3794 -0.8634
  672MPD2    H1 9946   2.485   4.145   0.983 -0.6059 -1.2143  0.4310
  672MPD2    H2 9947   2.314   4.055   0.596  0.3337  0.5547 -0.3608
  672MPD2    H3 9948   2.295   4.047   0.838  1.2969 -0.9263  1.5186
  672MPD2     N 9949   2.703   4.247   0.879  0.0835 -0.0448  0.0515
  672MPD2    H5 9950   2.683   4.287   0.970  0.8267 -1.4377  0.8129
  672MPD2    N1 9951   2.534   4.102   0.452 -0.3427 -0.5894  0.1020
  672MPD2    H7 9952   2.623   4.145   0.429 -0.5378  0.4978  1.4256
  673TMC3    C1 9953   2.523   4.037   0.240 -0.5717  0.3184 -0.7083
  673TMC3    C2 9954   2.536   3.915   0.171  0.2419  0.0342 -0.3482
  673TMC3    C3 9955   2.614   3.920   0.061 -0.1661  0.1505  0.1215
  673TMC3    C4 9956   2.555   4.161   0.181 -0.3211 -0.2936  0.1087
  673TMC3    C5 9957   2.613   4.164   0.059 -0.3659 -0.3927  0.3545
  673TMC3    C6 9958   2.647   4.045   0.004 -0.6214  0.3445  0.2862
  673TMC3     C 9959   2.452   4.044   0.360 -0.4669  0.1713 -0.5387
  673TMC3     O 9960   2.371   3.961   0.382 -0.5307 -0.3835 -0.5407
  673TMC3     H 9961   2.525   3.817   0.217 -0.4359  0.4693  0.3950
  673TMC3    H1 9962   2.539   4.249   0.241  0.7817  1.3912 -2.0725
  673TMC3    H2 9963   2.691   4.038  17.611  3.4952  1.5274  2.0570
  673TMC3    C7 9964   2.657   4.284  17.691 -0.6074 -0.3391  0.3562
  673TMC3    C8 9965   2.704   3.813   0.043  0.2074  0.1065  0.9380
  673TMC3    O1 9966   2.739   4.252  17.604  0.2010  0.2338  0.1902
  673TMC3    O2 9967   2.670   3.703   0.088 -0.1995 -0.1537 -0.2690
  674MPD2     C 9968   2.789   4.175  17.233  0.1457  0.0962  0.5373
  674MPD2    C1 9969   2.782   4.050  17.282  0.4380 -0.4492 -0.0230
  674MPD2    C2 9970   2.664   4.003  17.342  0.1442  0.0686 -0.5041
  674MPD2    C3 9971   2.550   4.081  17.349 -1.0589  0.4329 -0.3390
  674MPD2    C4 9972   2.558   4.207  17.293  0.6716 -0.5928  0.6797
  674MPD2    C5 9973   2.673   4.260  17.247  0.8830 -0.1815 -0.0296
  674MPD2     H 9974   2.658   3.898  17.368  4.0381 -0.7601 -2.9439
  674MPD2    H1 9975   2.478   4.280  17.298  2.3500  1.4071 -1.8990
  674MPD2    H2 9976   2.881   4.210  17.189  0.6277 -0.9384  0.7275
  674MPD2    H3 9977   2.676   4.360  17.206  2.4829 -1.1029 -2.1697
  674MPD2     N 9978   2.442   4.022  17.421 -0.3841 -0.2002 -0.7658
  674MPD2    H5 9979   2.461   3.925  17.444  0.8745 -0.0956 -1.3625
  674MPD2    N1 9980   2.900   3.973  17.283 -0.0225  0.0562 -0.2751
  674MPD2    H7 9981   2.980   4.002  17.228  0.1584 -0.1663 -0.1281
  675TMC3    C1 9982   3.058   3.805  17.328  0.4735 -0.7233 -0.2671
  675TMC3    C2 9983   3.082   3.671  17.328  0.1261  0.3733  0.8468
  675TMC3    C3 9984   3.214   3.627  17.336 -0.4827  0.3156  0.3741
  675TMC3    C4 9985   3.153   3.899  17.359  0.1185  0.5045 -0.0080
  675TMC3    C5 9986   3.283   3.858  17.352 -0.7108  0.1015  0.1595
  675TMC3    C6 9987   3.311   3.723  17.356 -0.0692 -0.1286  0.3913
  675TMC3     C 9988   2.913   3.843  17.327  0.1954  0.0272  0.1340
  675TMC3     O 9989   2.831   3.756  17.336 -0.2593 -0.6891  0.3635
  675TMC3     H 9990   3.006   3.595  17.335  0.1790  0.3478  1.1216
  675TMC3    H1 9991   3.122   4.003  17.367  1.1190  0.7409  0.9578
  675TMC3    H2 9992   3.419   3.711  17.358  0.1191  1.5276  0.2285
  675TMC3    C7 9993   3.383   3.956  17.394 -0.6877 -0.4238  0.3104
  675TMC3    C8 9994   3.246   3.493  17.378  0.1914 -0.2644  0.1178
  675TMC3    O1 9995   3.501   3.944  17.361 -0.4673 -0.4392  0.0461
  675TMC3    O2 9996   3.173   3.403  17.330 -0.1576  0.4111  0.3915
  676MPD2     C 9997   0.920   2.211  11.240 -0.3986 -0.3985 -0.0384
  676MPD2    C1 9998   0.796   2.176  11.301  0.0546  0.1773  0.5749
  676MPD2    C2 9999   0.693   2.122  11.220 -0.0300 -0.1359  0.2714
  676MPD2    C310000   0.709   2.119  11.082 -0.2433  1.0015 -0.7870
  676MPD2    C410001   0.838   2.150  11.034 -0.7146  0.0798  0.6620
  676MPD2    C510002   0.941   2.189  11.107 -0.0743 -0.6822 -0.3789
  676MPD2     H10003   0.602   2.090  11.270 -1.4987  1.9021 -1.1028
  676MPD2    H110004   0.859   2.122  10.931  1.9116  0.3217  1.1496
  676MPD2    H210005   1.008   2.238  11.296 -0.9829 -0.4968  0.9394
  676MPD2    H310006   1.038   2.214  11.065 -0.8013  1.4228 -0.7920
  676MPD2     N10007   0.617   2.071  10.993  0.5550 -0.4674  0.8552
  676MPD2    H510008   0.645   2.039  10.901 -1.0242 -0.7087  0.4464
  676MPD2    N110009   0.763   2.201  11.438  0.2036 -0.6002  0.4931
  676MPD2    H710010   0.672   2.166  11.467  1.2145 -2.6780  1.1676
  677TMC3    C110011   0.804   2.273  11.654 -0.4389 -0.0364  0.3621
  677TMC3    C210012   0.695   2.203  11.696  0.2801  0.2700  0.1713
  677TMC3    C310013   0.683   2.185  11.830 -0.6632  0.3586 -0.6216
  677TMC3    C410014   0.883   2.345  11.740  0.1171 -0.2472  0.2870
  677TMC3    C510015   0.842   2.344  11.865 -0.0741  0.0871 -0.1714
  677TMC3    C610016   0.744   2.262  11.922  0.4056  0.2254 -0.7831
  677TMC3     C10017   0.850   2.264  11.521  0.0207  0.7956  0.1170
  677TMC3     O10018   0.963   2.306  11.499  0.0135  0.1894 -0.2249
  677TMC3     H10019   0.630   2.144  11.633  0.0093  0.2669  0.4530
  677TMC3    H110020   0.978   2.388  11.708 -0.6640  1.7381  0.6499
  677TMC3    H210021   0.734   2.253  12.030  0.4529 -0.9251 -0.8793
  677TMC3    C710022   0.838   2.477  11.913  0.4871  1.0852  0.7041
  677TMC3    C810023   0.594   2.074  11.877  0.9001  0.0657  0.3893
  677TMC3    O110024   0.791   2.500  12.023 -0.3446  0.0404  0.0682
  677TMC3    O210025   0.536   2.103  11.986 -0.1702 -0.3908  0.1996
  678MPD2     C10026   2.727   3.047   1.476 -0.4666  0.3661  0.3794
  678MPD2    C110027   2.743   2.960   1.371  0.0300  0.0080  0.2639
  678MPD2    C210028   2.649   2.865   1.344  0.1168 -0.2181  0.8656
  678MPD2    C310029   2.537   2.842   1.419  0.2508  0.0088  0.1619
  678MPD2    C410030   2.520   2.931   1.525  0.4942  0.3435 -0.3803
  678MPD2    C510031   2.614   3.032   1.554  0.2674 -0.3006 -0.8037
  678MPD2     H10032   2.659   2.805   1.254 -0.7295  0.6817  0.1726
  678MPD2    H110033   2.431   2.926   1.586  1.3778  0.9411  0.9607
  678MPD2    H210034   2.797   3.121   1.513 -0.8888  0.1108  1.6574
  678MPD2    H310035   2.595   3.103   1.634 -0.6387 -1.9505  0.4345
  678MPD2     N10036   2.446   2.744   1.373 -0.9124 -0.0623 -0.0606
  678MPD2    H510037   2.476   2.685   1.296 -1.5575  1.4082 -1.4419
  678MPD2    N110038   2.859   2.975   1.287 -0.1662  0.3302 -1.1373
  678MPD2    H710039   2.877   2.898   1.223 -4.8471 -0.2312 -1.7433
  679TMC3    C110040   3.174   2.976   1.030 -0.2985  0.1639 -0.7239
  679TMC3    C210041   3.086   2.969   1.139  0.7194 -0.4755  0.1359
  679TMC3    C310042   3.033   3.087   1.172  0.2256  0.0992 -0.3792
  679TMC3    C410043   3.220   3.093   0.968  0.1814 -0.3669  0.7329
  679TMC3    C510044   3.154   3.205   1.016  0.2944  0.3694  0.0576
  679TMC3    C610045   3.057   3.207   1.111  0.3571 -0.7571  0.5793
  679TMC3     C10046   3.198   2.852   0.971  0.5264 -0.6550 -0.0260
  679TMC3     O10047   3.175   2.749   1.029  0.1203 -0.2510  0.3660
  679TMC3     H10048   3.067   2.876   1.192 -1.4336  0.3720  0.8238
  679TMC3    H110049   3.303   3.103   0.899 -1.7060 -1.7420 -1.7224
  679TMC3    H210050   3.010   3.302   1.133  1.1930 -0.6923  2.1181
  679TMC3    C710051   3.175   3.320   0.934  0.2049  0.2039 -0.5228
  679TMC3    C810052   2.933   3.090   1.283  0.2790 -0.1657 -0.9126
  679TMC3    O110053   3.206   3.293   0.821  0.2658 -0.3599  0.3736
  679TMC3    O210054   2.893   3.199   1.311  0.1674  0.0191  0.3703
  680MPD2     C10055   2.354   1.231  13.438 -0.0394  0.0654  0.1960
  680MPD2    C110056   2.423   1.201  13.551 -0.3869 -1.0779 -0.3302
  680MPD2    C210057   2.520   1.283  13.602  0.3012  0.0961  0.5770
  680MPD2    C310058   2.556   1.399  13.535 -0.3671 -0.0595  0.2994
  680MPD2    C410059   2.486   1.425  13.412 -0.1057  0.4403  1.1507
  680MPD2    C510060   2.382   1.347  13.370  0.2706  0.0283  0.0463
  680MPD2     H10061   2.561   1.255  13.698 -1.5333  1.5146  1.7899
  680MPD2    H110062   2.501   1.515  13.354  0.9318  1.2517  2.6792
  680MPD2    H210063   2.281   1.159  13.401  0.2379  1.8913 -3.8616
  680MPD2    H310064   2.341   1.376  13.274  0.8588 -1.8234 -0.7690
  680MPD2     N10065   2.665   1.480  13.583 -0.6923 -0.3249 -0.2482
  680MPD2    H510066   2.678   1.563  13.527 -3.6277 -0.3197 -0.9390
  680MPD2    N110067   2.394   1.083  13.624 -0.0343 -0.7876 -0.2165
  680MPD2    H710068   2.441   1.075  13.714 -0.0308 -0.0170 -0.1548
  681TMC3    C110069   2.314   0.871  13.685 -0.1500 -0.4360  0.1536
  681TMC3    C210070   2.298   0.912  13.815  0.2876 -0.5013 -0.8644
  681TMC3    C310071   2.359   0.837  13.915 -0.4403 -0.4490  0.1405
  681TMC3    C410072   2.392   0.764  13.648 -0.7787 -0.1694 -0.0200
  681TMC3    C510073   2.438   0.694  13.753 -0.2980 -0.0582 -0.4394
  681TMC3    C610074   2.426   0.724  13.883  0.4386  0.4477  0.1546
  681TMC3     C10075   2.312   0.975  13.586  0.1003  0.2992  0.1967
  681TMC3     O10076   2.258   0.949  13.482 -0.4111  0.5809  0.4246
  681TMC3     H10077   2.249   1.004  13.843 -0.0305 -0.9845  0.1580
  681TMC3    H110078   2.396   0.730  13.545  0.7000  0.7857 -0.2717
  681TMC3    H210079   2.476   0.662  13.957 -1.3587  0.0412  1.0323
  681TMC3    C710080   2.536   0.587  13.721  1.1254 -0.2364 -0.4075
  681TMC3    C810081   2.347   0.873  14.063  0.7914 -0.3903  0.4421
  681TMC3    O110082   2.548   0.490  13.794  0.3559  0.5347  0.0400
  681TMC3    O210083   2.244   0.931  14.086  0.0205  0.2136  0.0677
  682MPD2     C10084   4.658   2.286  10.823  0.1467  0.4704 -0.8302
  682MPD2    C110085   4.555   2.206  10.788 -0.5662 -0.1703  0.0968
  682MPD2    C210086   4.463   2.177  10.891 -0.1876 -0.1015 -0.4584
  682MPD2    C310087   4.479   2.218  11.018 -0.2083 -1.3001 -0.9766
  682MPD2    C410088   4.578   2.303  11.050 -0.5677  0.3457  0.0760
  682MPD2    C510089   4.664   2.334  10.947  0.2835  0.3524  0.6665
  682MPD2     H10090   4.388   2.105  10.860  0.8447 -1.4450  0.1204
  682MPD2    H110091   4.604   2.338  11.149  1.1205  0.5343 -0.4487
  682MPD2    H210092   0.010   2.303  10.750  0.6867 -0.9721 -0.5858
  682MPD2    H310093   0.017   2.403  10.973  0.0035  1.5330 -1.6545
  682MPD2     N10094   4.385   2.189  11.120  0.2476  0.1157  0.3234
  682MPD2    H510095   4.404   2.232  11.210 -0.6543 -0.0912  0.6083
  682MPD2    N110096   4.528   2.149  10.664 -0.0830  0.3632 -0.7471
  682MPD2    H710097   4.441   2.100  10.645 -0.0196 -0.0533  0.0178
  683TMC3    C110098   4.217   2.157  11.478  0.6775 -0.2592  0.2145
  683TMC3    C210099   4.162   2.031  11.506  0.8174  0.4121 -0.2269
  683TMC3    C310100   4.141   1.942  11.404  0.0928 -0.1153  0.0070
  683TMC3    C410101   4.251   2.188  11.347 -0.5603 -0.0202 -0.2139
  683TMC3    C510102   4.221   2.096  11.249 -0.4220  0.2245 -1.1619
  683TMC3    C610103   4.158   1.981  11.276  0.3815 -0.7314  0.0669
  683TMC3     C10104   4.244   2.259  11.576  0.5259  0.5056  0.4118
  683TMC3     O10105   4.317   2.356  11.549 -0.2529  0.0992 -0.1666
  683TMC3     H10106   4.153   2.004  11.611  0.2438  0.1666 -0.3391
  683TMC3    H110107   4.306   2.279  11.328 -1.2053  0.1713 -1.1331
  683TMC3    H210108   4.145   1.911  11.194  1.4170  2.0163 -2.4437
  683TMC3    C710109   4.270   2.121  11.117 -0.3206  0.1155  0.5363
  683TMC3    C810110   4.092   1.812  11.427 -0.4197  0.4939  0.0508
  683TMC3    O110111   4.218   2.057  11.030 -0.2451 -0.0280  0.5809
  683TMC3    O210112   4.028   1.765  11.333 -0.3293 -0.8797 -0.1326
  684MPD2     C10113   2.522   2.155  15.727 -0.3833  0.9455  0.5927
  684MPD2    C110114   2.623   2.092  15.797 -0.2543  0.1527  0.3690
  684MPD2    C210115   2.750   2.152  15.803 -0.1882  0.0223  0.0357
  684MPD2    C310116   2.781   2.267  15.740  0.3721 -0.2637  0.5830
  684MPD2    C410117   2.686   2.324  15.657 -0.5714  0.4522 -0.1764
  684MPD2    C510118   2.562   2.268  15.662 -0.1408  0.2461 -1.0387
  684MPD2     H10119   2.827   2.103  15.861  0.2834 -0.2970 -0.8536
  684MPD2    H110120   2.696   2.420  15.609 -1.9817  0.4507 -0.4656
  684MPD2    H210121   2.419   2.120  15.729 -0.2240  0.3163 -1.7560
  684MPD2    H310122   2.492   2.342  15.624  0.0517  0.3149 -1.2597
  684MPD2     N10123   2.896   2.344  15.764 -0.1490 -0.1676  0.4131
  684MPD2    H510124   2.906   2.428  15.708  0.5703 -1.4430 -1.3451
  684MPD2    N110125   2.603   1.958  15.857 -0.3279  0.2811 -0.0936
  684MPD2    H710126   2.689   1.912  15.885 -1.6195 -0.5073  2.5221
  685TMC3    C110127   2.522   1.747  15.820 -0.4473 -0.2495  1.0778
  685TMC3    C210128   2.432   1.688  15.738 -0.0999  0.7495  0.0600
  685TMC3    C310129   2.437   1.550  15.727  0.7337 -0.7095 -0.3609
  685TMC3    C410130   2.615   1.672  15.894 -0.7268 -0.4150  0.1719
  685TMC3    C510131   2.627   1.533  15.872 -0.5932 -0.3724 -0.0236
  685TMC3    C610132   2.535   1.474  15.786 -0.9433  0.2959  0.4880
  685TMC3     C10133   2.489   1.888  15.836 -0.7901  0.0220 -0.2304
  685TMC3     O10134   2.374   1.922  15.819  0.0782  0.2407  0.0701
  685TMC3     H10135   2.372   1.749  15.672  0.9260 -0.7534 -2.2380
  685TMC3    H110136   2.678   1.708  15.975 -2.4391  1.3380  0.6938
  685TMC3    H210137   2.528   1.367  15.770  1.8313  0.0619  0.8646
  685TMC3    C710138   2.725   1.462  15.953  0.0731  0.2286  0.4368
  685TMC3    C810139   2.327   1.488  15.656  0.1351  0.2022 -0.1225
  685TMC3    O110140   2.767   1.504  16.059 -0.0690 -0.0919  0.0134
  685TMC3    O210141   2.348   1.383  15.594 -0.4357 -0.2033  0.0800
  686MPD2     C10142   4.328   1.530  15.053  0.3553 -0.6362 -0.1452
  686MPD2    C110143   4.365   1.509  15.181 -0.2509  0.3035 -0.0079
  686MPD2    C210144   4.458   1.413  15.214  0.5435  0.0468 -0.3085
  686MPD2    C310145   4.493   1.320  15.111 -0.3970 -0.3388  0.1915
  686MPD2    C410146   4.445   1.344  14.983  0.6542  0.3470 -0.6803
  686MPD2    C510147   4.360   1.447  14.960  0.4378  0.1232 -0.7903
  686MPD2     H10148   4.497   1.405  15.315  0.3901 -1.2835 -0.3514
  686MPD2    H110149   4.470   1.284  14.896 -1.4019  0.5020 -1.3855
  686MPD2    H210150   4.255   1.608  15.041  1.4586  0.2836 -0.9043
  686MPD2    H310151   4.317   1.453  14.861 -2.4473  2.4793  0.5756
  686MPD2     N10152   4.571   1.203  15.118 -0.0296 -0.1569  0.1133
  686MPD2    H510153   4.605   1.161  15.032  0.3594 -1.5965  0.9755
  686MPD2    N110154   4.288   1.582  15.277 -0.5317  0.5720  0.4283
  686MPD2    H710155   4.231   1.655  15.235 -0.2995  0.3046 -0.3407
  687TMC3    C110156   4.538   1.155  15.366 -0.2560  0.4106 -0.4802
  687TMC3    C210157   4.403   1.164  15.364  0.3504  0.3475  0.5757
  687TMC3    C310158   4.348   1.189  15.487 -0.0650 -0.1769 -0.7718
  687TMC3    C410159   4.617   1.178  15.474  0.2950 -0.2867 -0.1563
  687TMC3    C510160   4.554   1.187  15.599 -0.1614  0.4042 -0.1561
  687TMC3    C610161   4.419   1.201  15.601 -0.2530 -0.2079  0.0902
  687TMC3     C10162   4.618   1.150  15.241  0.4475 -0.4564 -0.7524
  687TMC3     O10163   4.719   1.081  15.256  0.0437  0.3748 -0.1689
  687TMC3     H10164   4.354   1.149  15.268 -0.0737 -2.3693  1.2056
  687TMC3    H110165   4.726   1.178  15.467  0.3563  1.6275  0.7534
  687TMC3    H210166   4.359   1.218  15.690  0.6274  1.4322  0.3827
  687TMC3    C710167   4.626   1.237  15.714  0.4737 -0.0150 -0.1720
  687TMC3    C810168   4.206   1.216  15.500 -0.7807  0.8475  0.5472
  687TMC3    O110169   4.562   1.282  15.808 -1.1569 -0.1200  0.0905
  687TMC3    O210170   4.149   1.198  15.608  0.1739  0.5682  0.0513
  688MPD2     C10171   3.320   0.646  17.083 -0.7904 -0.0070  0.1749
  688MPD2    C110172   3.317   0.511  17.081  1.0420 -0.3632 -0.0299
  688MPD2    C210173   3.426   0.457  17.007 -0.6486  1.0309  0.6288
  688MPD2    C310174   3.530   0.529  16.941  0.8193  0.9590 -0.0420
  688MPD2    C410175   3.522   0.667  16.954  0.1629  0.8520  0.4938
  688MPD2    C510176   3.420   0.719  17.022  0.5213 -0.4127 -0.1197
  688MPD2     H10177   3.438   0.349  17.007  0.4352  1.1544  0.6201
  688MPD2    H110178   3.597   0.737  16.917  1.8326 -0.7991  0.7455
  688MPD2    H210179   3.254   0.703  17.147 -1.8291 -1.4689  0.4050
  688MPD2    H310180   3.422   0.826  17.038  1.2170 -0.6262  1.1953
  688MPD2     N10181   3.631   0.472  16.861 -0.2558 -0.1069  0.3163
  688MPD2    H510182   3.715   0.525  16.842  0.6314 -0.9277  1.9368
  688MPD2    N110183   3.218   0.429  17.151  0.1229 -0.6408 -0.4728
  688MPD2    H710184   3.217   0.330  17.127 -1.5097 -0.6672 -0.3013
  689TMC3    C110185   3.049   0.391  17.321 -0.1335 -0.0605  0.3782
  689TMC3    C210186   2.970   0.458  17.405 -0.4283 -0.7234  0.3566
  689TMC3    C310187   2.903   0.381  17.499 -0.2802  0.0528  0.1957
  689TMC3    C410188   3.057   0.255  17.308 -0.0329 -0.2198  0.1588
  689TMC3    C510189   2.979   0.187  17.395 -0.0502 -0.8086 -0.5043
  689TMC3    C610190   2.908   0.244  17.493 -0.0995 -0.2503 -0.3042
  689TMC3     C10191   3.139   0.480  17.253  0.0150  0.1926  0.0070
  689TMC3     O10192   3.142   0.595  17.295 -0.4674 -0.5020  0.4957
  689TMC3     H10193   2.964   0.566  17.397 -0.6356 -0.6757  1.1308
  689TMC3    H110194   3.139   0.208  17.255  0.2635 -0.0006  0.4218
  689TMC3    H210195   2.854   0.173  17.555 -0.8348 -0.5348 -1.2637
  689TMC3    C710196   3.005   0.049  17.418  0.7565 -0.4778 -0.1688
  689TMC3    C810197   2.848   0.439  17.619 -0.6869 -1.2425  0.0559
  689TMC3    O110198   2.999   0.010  17.531 -0.5137 -0.0271  0.6604
  689TMC3    O210199   2.777   0.369  17.689 -0.0502  0.2340  0.2088
  690MPD2     C10200   1.140   2.189  15.657  0.1634  0.1498 -0.5254
  690MPD2    C110201   1.151   2.206  15.522  0.2640 -0.2629 -0.3137
  690MPD2    C210202   1.279   2.231  15.475  0.9886 -0.2393 -0.3902
  690MPD2    C310203   1.396   2.225  15.556  0.1239 -1.2886 -0.2052
  690MPD2    C410204   1.375   2.198  15.686 -0.6117 -0.7948 -0.3126
  690MPD2    C510205   1.249   2.184  15.737 -0.0994  0.1091 -0.0739
  690MPD2     H10206   1.295   2.266  15.374 -1.7462  2.5507  0.1366
  690MPD2    H110207   1.458   2.195  15.756  0.4740  3.3423 -1.4485
  690MPD2    H210208   1.045   2.178  15.708  0.2364 -0.8847 -0.6214
  690MPD2    H310209   1.236   2.168  15.844 -2.2541  0.4279 -0.2718
  690MPD2     N10210   1.519   2.259  15.495 -0.4960 -0.0072  0.0557
  690MPD2    H510211   1.521   2.311  15.408 -0.0998 -0.0829  0.0199
  690MPD2    N110212   1.041   2.188  15.427  0.3796  0.3642  0.4671
  690MPD2    H710213   1.063   2.186  15.328  0.5546 -0.8515  0.5400
  691TMC3    C110214   0.828   2.155  15.333  0.0282  0.0012 -0.9823
  691TMC3    C210215   0.698   2.199  15.342 -0.2545 -0.6642  0.6186
  691TMC3    C310216   0.612   2.149  15.249  0.2528  0.3550  0.1441
  691TMC3    C410217   0.875   2.085  15.221  0.0408  0.3148  0.2968
  691TMC3    C510218   0.786   2.034  15.131  0.1728 -0.3049  0.0070
  691TMC3    C610219   0.653   2.060  15.150 -0.2934  0.4029 -0.3132
  691TMC3     C10220   0.907   2.182  15.455  0.2744 -0.3209  0.1039
  691TMC3     O10221   0.850   2.186  15.563  0.0695 -1.1941 -0.7238
  691TMC3     H10222   0.666   2.262  15.424  0.2392  0.3817  0.0129
  691TMC3    H110223   0.979   2.056  15.208 -0.4089 -0.4642 -1.6182
  691TMC3    H210224   0.582   2.022  15.077 -0.4542  0.6686 -0.2954
  691TMC3    C710225   0.843   1.930  15.050  0.1086 -0.6514 -0.9760
  691TMC3    C810226   0.465   2.155  15.281  0.7213 -0.5154  0.2467
  691TMC3    O110227   0.962   1.907  15.050  0.4849  0.6253  0.1760
  691TMC3    O210228   0.396   2.061  15.236  0.3751  0.1528 -0.1026
  692TMC3    C110229   2.658   3.468  15.585  0.1193  0.5446 -0.3603
  692TMC3    C210230   2.765   3.524  15.655  1.0257  0.3610 -0.0073
  692TMC3    C310231   2.888   3.477  15.639 -0.4388  0.0934  0.1144
  692TMC3    C410232   2.664   3.363  15.502  0.0443 -0.1602  0.0681
  692TMC3    C510233   2.791   3.315  15.487 -0.6411  0.5150 -0.3612
  692TMC3    C610234   2.904   3.376  15.551  0.6856  0.3820  0.4186
  692TMC3     C10235   2.531   3.523  15.605  0.1433  0.0814  0.9843
  692TMC3     O10236   2.440   3.442  15.618  0.4502  0.0008  0.0432
  692TMC3     H10237   2.745   3.576  15.748  0.5937  0.9010 -0.3998
  692TMC3    H110238   2.578   3.317  15.455 -0.5941  0.7513  0.3606
  692TMC3    H210239   3.004   3.333  15.546  1.2282  1.4075  2.7656
  692TMC3    C710240   2.805   3.184  15.423  0.2119 -0.2656  0.1518
  692TMC3    C810241   2.930   3.422  15.765 -0.1192  0.6501  0.4092
  692TMC3    O110242   2.724   3.153  15.339  0.0385 -0.3231  0.0637
  692TMC3    O210243   2.957   3.304  15.773 -0.1255  0.1122 -0.6214
  693MPD2     C10244   1.793   1.768  10.697  0.2421  0.1878  0.7171
  693MPD2    C110245   1.766   1.645  10.646 -0.2568  0.8098  0.3580
  693MPD2    C210246   1.842   1.534  10.689 -0.4204 -0.2936  0.2424
  693MPD2    C310247   1.928   1.542  10.794  1.0392  0.2173  0.3457
  693MPD2    C410248   1.944   1.664  10.849 -0.2676 -0.3793  0.5552
  693MPD2    C510249   1.881   1.778  10.799  0.1788  0.1095 -0.1224
  693MPD2     H10250   1.828   1.437  10.644 -2.7391 -0.7842  2.0441
  693MPD2    H110251   2.018   1.684  10.926 -1.3768 -0.5517  1.6614
  693MPD2    H210252   1.731   1.851  10.666 -2.2157 -1.3533  1.4074
  693MPD2    H310253   1.899   1.876  10.841 -1.2891 -0.4526  1.8295
  693MPD2     N10254   2.014   1.445  10.835  0.2324 -0.5543 -0.3440
  693MPD2    H510255   2.074   1.473  10.912  0.4430 -0.7111 -0.4516
  693MPD2    N110256   1.665   1.638  10.549  0.3525  0.0049 -0.6012
  693MPD2    H710257   1.592   1.709  10.544  0.9291  0.7268  1.3089
  694TMC3    C110258   1.514   1.471  10.476  0.4784 -0.0573 -1.0453
  694TMC3    C210259   1.483   1.381  10.377  0.1141 -0.7015  0.2069
  694TMC3    C310260   1.374   1.302  10.412  0.1527 -0.1081  0.4394
  694TMC3    C410261   1.452   1.478  10.598 -0.1893  0.0973 -0.2203
  694TMC3    C510262   1.341   1.402  10.623 -0.1663 -0.2634  0.1547
  694TMC3    C610263   1.304   1.310  10.530  0.0607 -1.0144  0.2956
  694TMC3     C10264   1.651   1.523  10.474  0.4934 -0.5965 -0.3094
  694TMC3     O10265   1.748   1.467  10.424 -0.1233 -0.1405  0.2465
  694TMC3     H10266   1.549   1.371  10.292  1.0553 -2.1871  1.1144
  694TMC3    H110267   1.475   1.549  10.676 -0.5995 -0.6810  0.6125
  694TMC3    H210268   1.220   1.245  10.550 -0.4566 -0.5842 -0.4907
  694TMC3    C710269   1.332   1.355  10.761 -0.5714  0.4447 -0.0379
  694TMC3    C810270   1.317   1.209  10.318  0.2167 -0.1046 -0.3579
  694TMC3    O110271   1.345   1.445  10.843  0.5709  0.6315 -0.2352
  694TMC3    O210272   1.231   1.128  10.359 -0.3998  0.0577  0.4706
  695MPD2     C10273   2.657   2.839  13.684  0.6719 -0.7057  0.5796
  695MPD2    C110274   2.636   2.896  13.810 -0.1623  0.8747  0.0957
  695MPD2    C210275   2.506   2.915  13.860  0.1655 -0.2786 -0.5055
  695MPD2    C310276   2.400   2.873  13.779 -0.5675  0.4755  0.0668
  695MPD2    C410277   2.422   2.824  13.652 -0.4901 -0.6959  0.1488
  695MPD2    C510278   2.545   2.805  13.606 -0.6453 -0.1314 -0.0729
  695MPD2     H10279   2.494   2.942  13.965  0.9951 -1.4049 -0.1179
  695MPD2    H110280   2.351   2.770  13.590  1.6691 -2.4145 -0.8323
  695MPD2    H210281   2.750   2.809  13.638  0.0651 -1.8106  0.0788
  695MPD2    H310282   2.556   2.753  13.511  0.9992 -1.2308  0.7068
  695MPD2     N10283   2.272   2.878  13.829  0.7037  0.4689 -0.3859
  695MPD2    H510284   2.261   2.917  13.922 -0.4645  1.1710 -0.8342
  695MPD2    N110285   2.745   2.940  13.897  0.3014 -0.3242  0.0498
  695MPD2    H710286   2.725   2.985  13.986  0.6055  0.4003 -0.2504
  696TMC3    C110287   2.033   2.880  13.830  0.6761  0.2746 -0.2755
  696TMC3    C210288   2.053   2.889  13.967 -0.0233 -0.4539  0.5997
  696TMC3    C310289   1.970   2.960  14.043  0.0698 -0.6836 -0.0050
  696TMC3    C410290   1.934   2.943  13.770  0.5879 -0.9016  0.3156
  696TMC3    C510291   1.839   3.007  13.846 -0.3922 -0.5160  0.2396
  696TMC3    C610292   1.864   3.028  13.983 -0.5320 -0.0657  0.1093
  696TMC3     C10293   2.153   2.849  13.754  0.4319  0.1389 -0.7029
  696TMC3     O10294   2.143   2.830  13.632  0.0141 -0.1284 -0.8106
  696TMC3     H10295   2.123   2.824  14.018 -0.2283 -0.3201  1.0589
  696TMC3    H110296   1.908   2.935  13.665  1.9697  0.7520 -0.1513
  696TMC3    H210297   1.791   3.085  14.040  0.3758  0.1348  1.0576
  696TMC3    C710298   1.768   3.121  13.781 -0.9499 -0.1137  0.0906
  696TMC3    C810299   2.045   3.062  14.115  0.2787 -0.4533  0.3721
  696TMC3    O110300   1.694   3.102  13.685  0.3287  0.5945 -0.4376
  696TMC3    O210301   2.012   3.173  14.077  0.3216 -0.2236 -0.3458
  697MPD2     C10302   2.065   0.268  15.620  0.1789  0.4628  0.0834
  697MPD2    C110303   2.096   0.204  15.496  0.1713  0.4905  0.2680
  697MPD2    C210304   2.128   0.281  15.386  0.1358  0.1914  0.0924
  697MPD2    C310305   2.127   0.416  15.393  0.0723 -0.0536 -0.6547
  697MPD2    C410306   2.108   0.477  15.513 -0.6419 -0.3114  0.4375
  697MPD2    C510307   2.065   0.405  15.619  0.0391  0.2415 -0.5351
  697MPD2     H10308   2.159   0.240  15.290 -0.1051  0.4322 -0.0872
  697MPD2    H110309   2.106   0.585  15.517 -0.3436 -0.3329  1.2175
  697MPD2    H210310   2.032   0.220  15.711 -0.3916 -0.6511 -0.7153
  697MPD2    H310311   2.038   0.458  15.710  1.2665 -1.4742  0.8353
  697MPD2     N10312   2.152   0.481  15.271 -0.6044 -0.7215  0.3909
  697MPD2    H510313   2.165   0.413  15.197 -1.8221  0.9165 -1.3278
  697MPD2    N110314   2.101   0.066  15.483  0.1885 -0.5895 -0.1311
  697MPD2    H710315   2.128   0.036  15.390  0.1060 -0.3798 -0.2225
  698TMC3    C110316   2.227   0.652  15.122 -1.0346  0.1367  0.0898
  698TMC3    C210317   2.278   0.779  15.109 -0.7297 -0.0084 -0.0963
  698TMC3    C310318   2.376   0.802  15.017 -0.4232  0.5247  0.3238
  698TMC3    C410319   2.253   0.553  15.032 -0.2725  0.1217 -0.0318
  698TMC3    C510320   2.339   0.587  14.932  0.4281 -0.0076  0.0754
  698TMC3    C610321   2.410   0.703  14.931 -0.9048  0.1895 -0.0066
  698TMC3     C10322   2.164   0.616  15.245  0.0293 -0.0376  0.0876
  698TMC3     O10323   2.143   0.715  15.317  0.1166 -0.4630 -0.0465
  698TMC3     H10324   2.248   0.859  15.175  0.5256  0.4056 -0.0277
  698TMC3    H110325   2.195   0.462  15.032 -1.2618  0.7487 -1.1325
  698TMC3    H210326   2.456   0.738  14.839  1.8217  0.3208  1.4376
  698TMC3    C710327   2.318   0.526  14.800 -0.1880  0.1670 -0.6718
  698TMC3    C810328   2.384   0.934  14.968 -0.6383 -0.5073  0.1760
  698TMC3    O110329   2.217   0.458  14.794 -0.4765  0.0307 -0.0834
  698TMC3    O210330   2.276   0.992  14.950  0.0113  0.1296 -0.5532
  699TMC3    C110331   2.194   3.167  12.876 -0.3336 -0.2893  0.1235
  699TMC3    C210332   2.254   3.060  12.940 -0.1855 -0.2844  0.7189
  699TMC3    C310333   2.182   2.993  13.030 -0.2649  0.0850  0.4591
  699TMC3    C410334   2.063   3.204  12.891 -0.4319 -0.3239 -0.2474
  699TMC3    C510335   1.999   3.118  12.984 -0.3532  0.0955 -0.2916
  699TMC3    C610336   2.053   3.017  13.050 -0.1071 -0.3648 -0.0726
  699TMC3     C10337   2.270   3.272  12.803 -0.0616  0.0178 -0.3089
  699TMC3     O10338   2.198   3.337  12.732  0.0972 -0.4785 -1.2843
  699TMC3     H10339   2.346   3.018  12.900 -0.5728 -0.6657  0.2379
  699TMC3    H110340   2.020   3.300  12.866  2.0509  0.4991 -1.3531
  699TMC3    H210341   1.994   2.952  13.113  0.8619 -0.9342  0.2519
  699TMC3    C710342   1.860   3.147  13.017 -0.2367 -0.8108 -0.6347
  699TMC3    C810343   2.246   2.880  13.103  0.4837 -0.1980  0.3064
  699TMC3    O110344   1.815   3.089  13.116  0.1169  0.2331  1.3730
  699TMC3    O210345   2.172   2.820  13.180  0.9422  0.0401 -0.0223
  700TMC3    C110346   1.590   0.640  16.769  0.1881  0.0979  0.8986
  700TMC3    C210347   1.652   0.530  16.719  0.0584 -1.1702 -0.3526
  700TMC3    C310348   1.696   0.439  16.811  0.5097 -0.3780  0.0330
  700TMC3    C410349   1.580   0.669  16.899 -0.4326 -0.1525  0.4838
  700TMC3    C510350   1.619   0.567  16.990 -0.1773  0.2699 -0.3455
  700TMC3    C610351   1.657   0.448  16.944 -0.1522 -0.4969  0.1232
  700TMC3     C10352   1.560   0.739  16.667 -0.4666  0.0174 -0.1868
  700TMC3     O10353   1.525   0.697  16.561  0.0752 -0.4269  0.1511
  700TMC3     H10354   1.680   0.529  16.614 -2.6271 -0.7727 -1.0923
  700TMC3    H110355   1.547   0.767  16.932 -1.2725 -0.5230  0.7238
  700TMC3    H210356   1.680   0.368  17.013  0.5210 -0.8127 -0.4632
  700TMC3    C710357   1.559   0.567  17.121  0.8063  0.2115 -0.3343
  700TMC3    C810358   1.792   0.343  16.763  0.3793 -0.2651  0.4890
  700TMC3    O110359   1.526   0.458  17.170 -0.1455  0.0029  0.0067
  700TMC3    O210360   1.830   0.363  16.648  0.1755 -0.0066 -0.1345
  701TMC3    C110361   1.521   4.103  15.428 -0.6279  0.4813 -0.8005
  701TMC3    C210362   1.519   4.083  15.295  0.3501  0.0883  0.1631
  701TMC3    C310363   1.627   4.121  15.220 -0.1346  0.5682  0.0890
  701TMC3    C410364   1.625   4.165  15.484 -0.3293 -0.2297 -0.2032
  701TMC3    C510365   1.731   4.202  15.413 -0.6456  0.5112  0.0369
  701TMC3    C610366   1.731   4.182  15.280 -0.1673 -0.1329  0.0961
  701TMC3     C10367   1.393   4.121  15.500  0.5298  0.1347  0.7100
  701TMC3     O10368   1.399   4.182  15.606 -0.6889 -0.1800  0.9550
  701TMC3     H10369   1.431   4.050  15.242 -0.1769  2.6201 -0.5326
  701TMC3    H110370   1.633   4.180  15.591 -1.4093  0.8374 -0.2748
  701TMC3    H210371   1.821   4.207  15.225 -0.6267  0.3885 -0.4023
  701TMC3    C710372   1.768   4.336  15.448  0.8091  0.0887  0.1605
  701TMC3    C810373   1.613   4.139  15.078  0.3366  0.5988 -0.4297
  701TMC3    O110374   1.771   4.413  15.352 -0.0679 -0.6085  0.1663
  701TMC3    O210375   1.685   4.218  15.014 -0.1795  0.1571  0.3997
  702MPD2     C10376   0.622   2.021  10.307 -0.0186 -0.2998  0.6596
  702MPD2    C110377   0.627   2.120  10.404 -0.0605 -0.4731  0.2758
  702MPD2    C210378   0.730   2.211  10.400 -0.2395 -0.3068  0.1854
  702MPD2    C310379   0.805   2.218  10.284 -0.6137  0.2920 -0.2882
  702MPD2    C410380   0.800   2.121  10.191 -0.4398 -0.2575  0.1485
  702MPD2    C510381   0.712   2.016  10.203 -0.2138 -0.5310  0.2469
  702MPD2     H10382   0.748   2.281  10.481 -2.6237  2.3836 -1.6626
  702MPD2    H110383   0.868   2.117  10.106  0.1984 -0.8519  0.6942
  702MPD2    H210384   0.538   1.953  10.304 -0.2413 -0.1206  3.2849
  702MPD2    H310385   0.702   1.945  10.122 -0.5752 -1.5767  1.2103
  702MPD2     N10386   0.915   2.310  10.264 -1.1344 -0.6097 -0.4606
  702MPD2    H510387   0.973   2.288  10.183 -0.4461  0.7891 -0.3523
  702MPD2    N110388   0.543   2.109  10.517 -0.4427  0.4215  0.7032
  702MPD2    H710389   0.569   2.174  10.590 -1.2910 -1.4368  2.6484
  703TMC3    C110390   1.077   2.481  10.291  0.7258 -0.4786 -0.4658
  703TMC3    C210391   1.121   2.584  10.370 -0.6689  0.0761 -0.2660
  703TMC3    C310392   1.258   2.592  10.400  0.1101  0.8146  0.7157
  703TMC3    C410393   1.166   2.397  10.237  0.3985 -0.2391 -0.0059
  703TMC3    C510394   1.302   2.421  10.246 -0.1912  0.2340 -0.2858
  703TMC3    C610395   1.347   2.508  10.339  0.0703  0.2662 -0.0743
  703TMC3     C10396   0.950   2.427  10.336  0.1204  0.2795  0.3069
  703TMC3     O10397   0.880   2.483  10.419  0.2307  0.0761  0.3069
  703TMC3     H10398   1.045   2.653  10.403 -0.0773  0.0013  1.2421
  703TMC3    H110399   1.135   2.321  10.166 -2.2704 -0.0569  0.9883
  703TMC3    H210400   1.454   2.514  10.358  0.0424 -0.1380  0.2146
  703TMC3    C710401   1.383   2.318  10.191  0.1082  0.2594  0.0704
  703TMC3    C810402   1.294   2.636  10.541  0.2500 -0.3226 -0.6249
  703TMC3    O110403   1.344   2.199  10.208 -0.1880  0.1787  0.2125
  703TMC3    O210404   1.409   2.664  10.575  0.0233 -0.2623 -0.2083
  704TMC3    C110405   3.294   4.541  12.567  0.3146  0.1276  0.9570
  704TMC3    C210406   3.404   4.612  12.528 -0.4181  0.5056 -0.4763
  704TMC3    C310407   3.523   4.551  12.540 -0.4158 -0.2561  0.5375
  704TMC3    C410408   3.291   4.407  12.590  0.1096 -0.0311 -0.1890
  704TMC3    C510409   3.414   4.347  12.575  0.1209 -0.2539  0.2537
  704TMC3    C610410   3.535   4.419  12.554  0.1359  0.2593  0.4340
  704TMC3     C10411   3.163   4.586  12.537 -0.5872 -0.5265  0.2657
  704TMC3     O10412   3.063   4.530  12.587 -0.0025 -0.1469  0.1229
  704TMC3     H10413   3.406   4.720  12.518  0.8434  0.5924  0.7781
  704TMC3    H110414   3.197   4.359  12.613 -1.2764  2.0275 -1.5871
  704TMC3    H210415   3.630   4.367  12.541  0.1858  0.2895  0.6814
  704TMC3    C710416   3.404   4.230  12.496 -0.1653 -0.0078 -0.3717
  704TMC3    C810417   3.637   4.618  12.469 -0.5072  0.5714  0.0027
  704TMC3    O110418   3.492   4.213  12.416 -0.4198  0.1107  0.0240
  704TMC3    O210419   3.613   4.701  12.379 -0.0183  0.4532 -0.1008
  705MPD2     C10420   3.310   2.946  16.385  0.0845 -0.3074 -0.3683
  705MPD2    C110421   3.237   3.003  16.294 -0.4224 -0.1242  0.3718
  705MPD2    C210422   3.098   3.024  16.312  0.4192  0.3467 -0.1911
  705MPD2    C310423   3.048   2.979  16.434 -0.3315  0.1880  0.1249
  705MPD2    C410424   3.124   2.907  16.523 -0.7290  0.0598  0.3554
  705MPD2    C510425   3.253   2.894  16.501 -0.2411  0.2019  0.2254
  705MPD2     H10426   3.031   3.061  16.235 -0.1164  0.6042  0.4009
  705MPD2    H110427   3.098   2.875  16.623 -2.8888 -0.7303 -0.4603
  705MPD2    H210428   3.414   2.918  16.377 -0.1890 -1.8900  1.4760
  705MPD2    H310429   3.318   2.862  16.581 -1.4195  0.0769  1.1310
  705MPD2     N10430   2.916   3.004  16.479  0.0656 -0.2437 -0.0816
  705MPD2    H510431   2.894   2.974  16.574 -0.4792 -0.9449 -0.4328
  705MPD2    N110432   3.291   3.048  16.168  0.9179  0.1615 -0.1937
  705MPD2    H710433   3.222   3.079  16.100  0.8856 -1.0952 -0.7379
  706TMC3    C110434   3.587   3.144  15.831  0.3038  0.5223 -0.2689
  706TMC3    C210435   3.504   3.250  15.785  0.5936 -0.3227  0.2446
  706TMC3    C310436   3.403   3.294  15.863 -0.2261  0.4718  0.3067
  706TMC3    C410437   3.561   3.081  15.951  0.2381 -0.7710  0.2490
  706TMC3    C510438   3.455   3.128  16.020 -0.3662 -0.0477  0.4512
  706TMC3    C610439   3.372   3.229  15.977 -0.3394 -1.4816  0.3628
  706TMC3     C10440   3.688   3.087  15.739  0.8376  0.2986  0.7726
  706TMC3     O10441   3.787   3.043  15.796  0.3190 -0.2267 -0.6225
  706TMC3     H10442   3.524   3.295  15.689 -3.0715 -2.1759 -1.4217
  706TMC3    H110443   3.638   3.017  15.992 -0.7322 -2.0310  0.1131
  706TMC3    H210444   3.291   3.262  16.041  1.1173 -2.3997  2.6844
  706TMC3    C710445   3.424   3.051  16.137  0.3119 -0.3825  0.4251
  706TMC3    C810446   3.347   3.421  15.833  0.2212  0.1925 -1.0449
  706TMC3    O110447   3.521   3.010  16.199  0.0251 -0.6161  0.0479
  706TMC3    O210448   3.318   3.450  15.719  0.2710  0.0505 -0.3880
  707TMC3    C110449   1.153   2.030   2.264  0.2175  0.0096 -0.4295
  707TMC3    C210450   1.278   1.976   2.276  0.3042  1.1483 -0.2814
  707TMC3    C310451   1.367   2.057   2.350  0.6846 -0.0587  0.1358
  707TMC3    C410452   1.123   2.156   2.306 -0.0859  0.0006 -0.2802
  707TMC3    C510453   1.213   2.235   2.377  0.0514 -0.1176  0.2240
  707TMC3    C610454   1.340   2.187   2.393  0.8726  0.3753 -0.6372
  707TMC3     C10455   1.086   1.977   2.145  0.6468 -0.0179  0.0545
  707TMC3     O10456   1.129   1.866   2.107  0.0995 -0.0126 -0.3614
  707TMC3     H10457   1.288   1.869   2.261  0.2716  0.8845  1.5567
  707TMC3    H110458   1.025   2.192   2.278 -1.0422 -0.3736  2.5230
  707TMC3    H210459   1.403   2.247   2.457 -1.5333  1.8212  0.3987
  707TMC3    C710460   1.168   2.364   2.430 -0.2207 -0.7288  0.4738
  707TMC3    C810461   1.504   2.007   2.365  0.4923 -0.8464  0.1334
  707TMC3    O110462   1.253   2.443   2.457  0.6656  0.0775 -1.0198
  707TMC3    O210463   1.583   2.065   2.438  0.6936 -0.4525 -0.4070
  708MPD2     C10464   1.368   1.912  13.248  0.6953 -0.3921 -0.0646
  708MPD2    C110465   1.325   1.791  13.294 -0.5865 -0.4883 -0.3914
  708MPD2    C210466   1.409   1.712  13.363  0.2493 -0.3470  0.2617
  708MPD2    C310467   1.535   1.764  13.393 -0.2077 -0.4000  0.3385
  708MPD2    C410468   1.568   1.897  13.362  0.1872 -0.5860  0.1877
  708MPD2    C510469   1.482   1.971  13.290  0.1640 -0.5302  0.2694
  708MPD2     H10470   1.385   1.607  13.372  2.4885 -0.9382 -0.6026
  708MPD2    H110471   1.669   1.934  13.372 -0.2045 -0.0455  2.0157
  708MPD2    H210472   1.299   1.975  13.194  1.8759  1.2042  0.3104
  708MPD2    H310473   1.516   2.069  13.259 -2.7670  0.6683  0.8681
  708MPD2     N10474   1.631   1.684  13.455  0.3884 -0.1559  0.2680
  708MPD2    H510475   1.707   1.726  13.508  0.5580 -0.5555  0.3437
  708MPD2    N110476   1.195   1.743  13.250  0.6958 -0.3334  0.5912
  708MPD2    H710477   1.150   1.792  13.174 -1.7878 -2.7585  0.4802
  709TMC3    C110478   1.045   1.566  13.243 -0.4540  0.2056  0.2919
  709TMC3    C210479   1.096   1.557  13.111 -0.1773 -0.7459  0.6803
  709TMC3    C310480   1.141   1.435  13.062 -0.4566 -0.2862 -0.9631
  709TMC3    C410481   1.018   1.452  13.316 -0.1235  0.0574  0.3033
  709TMC3    C510482   1.067   1.336  13.265 -0.0205  0.1378 -0.1090
  709TMC3    C610483   1.120   1.323  13.136  0.1117  0.6668 -0.3943
  709TMC3     C10484   1.131   1.644  13.325 -0.4482  0.5839 -0.0146
  709TMC3     O10485   1.152   1.602  13.435  0.7216 -0.0115  0.2824
  709TMC3     H10486   1.120   1.644  13.052 -0.6676 -0.9174  0.2316
  709TMC3    H110487   0.972   1.455  13.414  0.1102 -0.8328  0.4434
  709TMC3    H210488   1.137   1.223  13.099  1.6965  0.6333  0.4139
  709TMC3    C710489   1.115   1.242  13.362  1.6009  0.1093  0.1600
  709TMC3    C810490   1.182   1.426  12.926 -0.2401  0.5418  0.5509
  709TMC3    O110491   1.208   1.172  13.326  0.4920 -0.2285 -0.3605
  709TMC3    O210492   1.177   1.535  12.862 -0.4538 -0.8531 -0.0433
  710TMC3    C110493   3.016   3.690   0.301  0.2359 -0.4969  0.0312
  710TMC3    C210494   2.996   3.557   0.271 -0.0515  0.5864  0.6838
  710TMC3    C310495   3.104   3.475   0.285  0.1452 -0.0618  0.4870
  710TMC3    C410496   3.135   3.737   0.360 -0.5563  0.2374 -0.3967
  710TMC3    C510497   3.237   3.647   0.381  0.0119  0.4749  0.8063
  710TMC3    C610498   3.230   3.517   0.330  1.2756 -0.7670 -0.1432
  710TMC3     C10499   2.903   3.737   0.379 -0.4308  0.6159 -0.3439
  710TMC3     O10500   2.868   3.853   0.359 -0.4422  0.5059  0.2369
  710TMC3     H10501   2.902   3.526   0.227  0.6747 -0.5043 -0.0814
  710TMC3    H110502   3.139   3.841   0.387 -2.5487 -0.7598  3.7216
  710TMC3    H210503   3.319   3.455   0.326  1.6000 -0.2617 -0.7419
  710TMC3    C710504   3.260   3.620   0.522  0.1561  0.1984 -1.1862
  710TMC3    C810505   3.100   3.344   0.222 -0.0837  0.0643 -0.1696
  710TMC3    O110506   3.268   3.499   0.541 -0.0937  0.2097  0.5682
  710TMC3    O210507   3.007   3.308   0.155 -0.2078  0.7872 -0.5228
  711TMC3    C110508   2.076   3.950  14.714 -0.0544  0.0889 -0.4169
  711TMC3    C210509   2.104   4.054  14.808 -0.1854  0.3415 -0.6771
  711TMC3    C310510   2.235   4.080  14.840  0.3336  0.2364  0.7293
  711TMC3    C410511   2.183   3.884  14.660  0.5369 -0.7577 -0.8641
  711TMC3    C510512   2.313   3.914  14.700  0.5121 -0.4965 -0.6190
  711TMC3    C610513   2.342   4.014  14.781 -0.2977 -0.4531  0.3053
  711TMC3     C10514   1.979   3.852  14.766  0.6239  0.2388 -0.7369
  711TMC3     O10515   1.974   3.742  14.714  0.1755 -0.2726 -0.4597
  711TMC3     H10516   2.023   4.111  14.852 -1.5507 -1.6600 -0.5485
  711TMC3    H110517   2.166   3.799  14.595 -0.2569 -0.7793 -0.6304
  711TMC3    H210518   2.442   4.016  14.824  0.8047  1.4266 -2.3601
  711TMC3    C710519   2.392   3.793  14.726  0.3719 -0.1790  0.0250
  711TMC3    C810520   2.238   4.054  14.983 -0.3384  0.2917 -0.2400
  711TMC3    O110521   2.512   3.819  14.736  0.2515  0.0341  0.0284
  711TMC3    O210522   2.138   4.013  15.039 -0.7988  0.6958  0.0183
  712MPD2     C10523   3.247   4.596  13.946 -0.4053  0.4673 -0.0214
  712MPD2    C110524   3.198   4.657  13.829  0.6856 -0.1532  0.0358
  712MPD2    C210525   3.230   0.064  13.803 -0.3091  0.3178 -0.0463
  712MPD2    C310526   3.308   0.135  13.897  0.3121 -0.3427 -0.2373
  712MPD2    C410527   3.357   0.066  14.000 -0.9717  1.3169  0.1743
  712MPD2    C510528   3.320   4.664  14.035 -0.8571 -0.2412  0.1541
  712MPD2     H10529   3.194   0.102  13.709 -0.9933  0.0949  0.1225
  712MPD2    H110530   3.421   0.110  14.076  0.4104 -0.3980  0.0032
  712MPD2    H210531   3.225   4.495  13.978  2.9108 -1.0043 -2.3289
  712MPD2    H310532   3.361   4.618  14.124  0.0531  1.3271  0.5546
  712MPD2     N10533   3.352   0.260  13.877 -0.6181  0.1330 -0.1639
  712MPD2    H510534   3.427   0.292  13.937  1.1403 -2.8453 -0.8101
  712MPD2    N110535   3.127   4.594  13.725  0.2704  0.0676  0.3432
  712MPD2    H710536   3.097   4.653  13.648 -0.8307 -1.4151 -0.3767
  713TMC3    C110537   3.395   0.462  13.763  0.1953 -0.0767  0.5123
  713TMC3    C210538   3.484   0.474  13.864 -0.7814  0.8053  0.3716
  713TMC3    C310539   3.579   0.571  13.848  0.1049 -0.0285  0.0032
  713TMC3    C410540   3.386   0.539  13.648 -0.0637  0.6405  0.7300
  713TMC3    C510541   3.488   0.627  13.629 -0.0751  0.2462  0.3894
  713TMC3    C610542   3.579   0.646  13.734 -0.2503 -0.0335 -0.1743
  713TMC3     C10543   3.316   0.338  13.771  0.3059  0.2503 -0.8081
  713TMC3     O10544   3.234   0.325  13.680 -0.1004  0.2455  0.2714
  713TMC3     H10545   3.482   0.434  13.964 -0.1306 -2.0895 -0.7528
  713TMC3    H110546   3.309   0.521  13.573  1.9903 -1.8314 -0.8014
  713TMC3    H210547   3.648   0.729  13.721 -0.8358  0.7684  1.7363
  713TMC3    C710548   3.481   0.731  13.528  0.1924 -0.3827 -0.2930
  713TMC3    C810549   3.697   0.574  13.934 -0.2667  0.1627  0.1668
  713TMC3    O110550   3.587   0.788  13.502 -1.0289  0.0993 -0.0365
  713TMC3    O210551   3.684   0.502  14.032  0.2338  0.4962  0.2826
  714MPD2     C10552   0.631   3.227   1.266  0.2755  0.0736  0.6031
  714MPD2    C110553   0.598   3.133   1.165  0.8189  0.2558 -0.6493
  714MPD2    C210554   0.551   3.173   1.045 -0.6073 -1.1486 -0.0962
  714MPD2    C310555   0.536   3.311   1.023  0.2242  0.3424 -0.5221
  714MPD2    C410556   0.550   3.401   1.127  0.1627  0.3470  0.1665
  714MPD2    C510557   0.605   3.361   1.245  0.1263  0.0267 -0.0767
  714MPD2     H10558   0.529   3.097   0.970 -0.9040 -0.7936 -0.3629
  714MPD2    H110559   0.540   3.506   1.105  1.0695  0.7209  1.5459
  714MPD2    H210560   0.689   3.197   1.352  0.9737  3.4856  1.3153
  714MPD2    H310561   0.626   3.445   1.310  1.8898 -0.0590 -0.5335
  714MPD2     N10562   0.488   3.349   0.893 -0.2275  0.0581  0.1322
  714MPD2    H510563   0.472   3.270   0.831  1.6776  0.1224 -0.4742
  714MPD2    N110564   0.639   2.998   1.190 -0.7147  0.1563 -0.2848
  714MPD2    H710565   0.660   2.977   1.287  0.4636  0.1419 -0.5392
  715TMC3    C110566   0.706   2.780   1.141 -0.3740  0.3532 -0.2555
  715TMC3    C210567   0.687   2.668   1.060 -0.0614 -0.2948  0.1893
  715TMC3    C310568   0.773   2.561   1.066 -0.8510  0.3146  0.7671
  715TMC3    C410569   0.814   2.781   1.223 -0.1309 -0.3312  0.0554
  715TMC3    C510570   0.896   2.672   1.225 -0.0992  0.2683  0.3478
  715TMC3    C610571   0.882   2.564   1.147  0.6231  0.0790 -0.9613
  715TMC3     C10572   0.616   2.890   1.112 -0.0241 -0.0895 -0.4930
  715TMC3     O10573   0.529   2.883   1.031  0.0840  0.5874  0.2636
  715TMC3     H10574   0.619   2.675   0.976  0.0429  0.7265  0.1936
  715TMC3    H110575   0.821   2.867   1.290  1.6432 -0.0272 -0.5239
  715TMC3    H210576   0.968   2.499   1.133  0.7477  0.2826 -1.1583
  715TMC3    C710577   1.004   2.660   1.313  0.9415  0.2229  0.6890
  715TMC3    C810578   0.751   2.435   0.992  0.6811 -0.3736  0.2067
  715TMC3    O110579   1.115   2.617   1.276  1.0389  0.3427 -0.0622
  715TMC3    O210580   0.673   2.439   0.901  0.6170 -0.1837 -0.4019
  716MPD2     C10581   1.107   1.659   9.712  0.0158  0.0214  0.4026
  716MPD2    C110582   1.125   1.701   9.579 -0.4694 -0.1785  0.2273
  716MPD2    C210583   1.142   1.610   9.475  0.4606 -0.2054 -0.1453
  716MPD2    C310584   1.131   1.477   9.501  0.7159  0.5340 -0.1229
  716MPD2    C410585   1.108   1.430   9.627 -1.2667 -0.1929 -0.3477
  716MPD2    C510586   1.090   1.524   9.727  0.2284 -0.4689  0.5648
  716MPD2     H10587   1.161   1.653   9.378  0.0177  1.0183  0.3073
  716MPD2    H110588   1.089   1.325   9.645  0.6600 -0.1690  1.8019
  716MPD2    H210589   1.087   1.724   9.796  0.0581  1.0359 -0.3741
  716MPD2    H310590   1.074   1.480   9.825 -2.7445  0.0109  0.2814
  716MPD2     N10591   1.145   1.389   9.392  0.3467 -0.3050 -0.7067
  716MPD2    H510592   1.155   1.431   9.300  1.0199 -0.2583 -0.6128
  716MPD2    N110593   1.128   1.839   9.567 -0.4062  0.0168  0.5089
  716MPD2    H710594   1.107   1.882   9.657 -1.5653 -0.0678  0.2788
  717TMC3    C110595   1.096   1.195   9.251  0.7935  0.3549  0.5947
  717TMC3    C210596   1.035   1.271   9.155 -0.2005 -0.5876 -0.4648
  717TMC3    C310597   1.006   1.218   9.031 -0.5468 -0.4278 -0.3331
  717TMC3    C410598   1.121   1.063   9.231  0.8166 -0.0068 -0.1948
  717TMC3    C510599   1.071   1.007   9.112  0.1773  0.2211  0.4433
  717TMC3    C610600   1.020   1.082   9.010 -0.5950 -0.1933 -0.7375
  717TMC3     C10601   1.136   1.248   9.387  0.0005  0.1086 -0.2097
  717TMC3     O10602   1.167   1.160   9.472 -0.4591 -0.1957 -0.1256
  717TMC3     H10603   1.004   1.372   9.178 -2.6458 -0.8888 -2.4128
  717TMC3    H110604   1.176   0.999   9.299  1.1201 -1.1936 -1.5564
  717TMC3    H210605   0.994   1.035   8.915  0.5299 -0.0375 -1.1211
  717TMC3    C710606   1.041   0.865   9.107  0.2483  0.2731 -0.4530
  717TMC3    C810607   0.898   1.291   8.960  0.0513 -0.0751 -0.0535
  717TMC3    O110608   0.958   0.833   9.023  0.1864 -0.6944 -0.4251
  717TMC3    O210609   0.834   1.362   9.038 -0.4065 -0.7879  1.0723
  718MPD2     C10610   4.608   1.293  12.335  0.1290  0.5250 -0.0082
  718MPD2    C110611   4.711   1.202  12.372 -0.3639  0.1655 -0.7232
  718MPD2    C210612   4.672   1.077  12.402  0.4518 -0.1278  0.0487
  718MPD2    C310613   4.541   1.028  12.399 -0.5815 -0.2126  0.8803
  718MPD2    C410614   4.438   1.114  12.354  0.6636 -0.6296 -0.4080
  718MPD2    C510615   4.472   1.246  12.324 -0.0914  0.3094  0.1030
  718MPD2     H10616   0.024   1.009  12.434  1.4435  0.4964 -1.0714
  718MPD2    H110617   4.336   1.082  12.337  0.2625  1.6149 -2.1827
  718MPD2    H210618   4.634   1.394  12.306  0.8963  0.2460 -0.2848
  718MPD2    H310619   4.404   1.316  12.277  1.2778  0.0286 -2.2871
  718MPD2     N10620   4.517   0.893  12.427  0.0190  0.2743 -0.5212
  718MPD2    H510621   4.598   0.842  12.461 -1.3467 -0.8360  1.0620
  718MPD2    N110622   0.116   1.237  12.397 -0.1109  0.1749  0.2583
  718MPD2    H710623   0.175   1.173  12.449 -0.2404 -0.8517 -0.8548
  719TMC3    C110624   0.322   1.329  12.372  0.1244 -0.7836  0.1545
  719TMC3    C210625   0.351   1.202  12.415 -0.2459  0.4805 -0.3322
  719TMC3    C310626   0.437   1.122  12.343  0.2465 -0.0660 -0.3816
  719TMC3    C410627   0.400   1.380  12.272 -0.1781 -0.4963 -0.2878
  719TMC3    C510628   0.498   1.305  12.212 -0.6883  0.5259 -0.0462
  719TMC3    C610629   0.515   1.175  12.240 -0.6264 -0.4300  0.7952
  719TMC3     C10630   0.181   1.352  12.361  0.2702 -0.2045 -0.5180
  719TMC3     O10631   0.133   1.455  12.313 -0.3696  0.1484  0.0816
  719TMC3     H10632   0.299   1.171  12.505 -2.3409  0.5798 -1.5022
  719TMC3    H110633   0.364   1.472  12.229 -1.8697 -0.0010  2.1523
  719TMC3    H210634   0.577   1.100  12.192 -0.4366 -1.5963  2.8154
  719TMC3    C710635   0.595   1.380  12.135 -0.4171 -0.2164  0.7967
  719TMC3    C810636   0.374   0.989  12.338 -0.1052 -0.1750 -0.0904
  719TMC3    O110637   0.688   1.316  12.083 -0.2353  0.3535 -0.3192
  719TMC3    O210638   0.262   0.993  12.390 -0.3591  0.3812  0.2009
  720MPD2     C10639   3.478   2.178  13.815  1.0825 -0.0510 -0.5948
  720MPD2    C110640   3.570   2.215  13.719 -0.6177  0.8652 -0.7978
  720MPD2    C210641   3.704   2.198  13.745 -0.1410  0.4421  0.7933
  720MPD2    C310642   3.748   2.148  13.867 -0.2394 -0.2502  0.0212
  720MPD2    C410643   3.660   2.111  13.965  0.4774  0.0912  0.2023
  720MPD2    C510644   3.529   2.124  13.933 -0.1267 -0.2776  0.1453
  720MPD2     H10645   3.773   2.238  13.672 -0.7998  0.7592  0.3519
  720MPD2    H110646   3.687   2.075  14.063  1.1258 -1.2615 -0.4750
  720MPD2    H210647   3.370   2.186  13.804  1.2183  3.0676  0.3870
  720MPD2    H310648   3.458   2.093  14.008 -1.0478  1.0447 -0.1694
  720MPD2     N10649   3.885   2.145  13.880 -0.1598 -0.2195 -0.4182
  720MPD2    H510650   3.951   2.164  13.805 -1.7246 -0.3773 -1.8336
  720MPD2    N110651   3.538   2.296  13.609  0.1367  0.0464  0.1446
  720MPD2    H710652   3.606   2.325  13.539 -0.5569 -1.7382 -1.2948
  721TMC3    C110653   4.084   2.109  14.012  0.3562  0.4073  0.0355
  721TMC3    C210654   4.143   2.111  14.135 -0.0799 -0.3953  0.1638
  721TMC3    C310655   4.276   2.076  14.142 -0.2774  0.5736 -0.0353
  721TMC3    C410656   4.154   2.086  13.893 -0.4548  0.2969  0.2055
  721TMC3    C510657   4.284   2.060  13.907  0.1249  0.0787  0.1580
  721TMC3    C610658   4.345   2.048  14.031  0.2557  0.5439 -0.4635
  721TMC3     C10659   3.937   2.133  14.008  0.1634  0.2451 -0.5778
  721TMC3     O10660   3.888   2.164  14.116  0.6490 -0.2483  0.2164
  721TMC3     H10661   4.077   2.128  14.219 -0.0020 -0.6089  0.2693
  721TMC3    H110662   4.114   2.089  13.793  0.2681  0.7014 -0.0707
  721TMC3    H210663   4.454   2.047  14.038  0.1762  1.4630  0.8494
  721TMC3    C710664   4.379   2.076  13.790  0.1573  0.1776  0.6804
  721TMC3    C810665   4.329   2.066  14.271 -0.3401  0.0880 -0.1331
  721TMC3    O110666   4.332   2.140  13.697 -0.1120  0.5067  0.1654
  721TMC3    O210667   4.449   2.044  14.279 -0.1535 -0.0557  0.5240
  722MPD2     C10668   2.431   0.727  13.284  0.0307  0.1322 -0.0059
  722MPD2    C110669   2.408   0.823  13.190  0.3416  0.4051  0.3327
  722MPD2    C210670   2.323   0.789  13.086 -0.6680 -0.3378 -0.1091
  722MPD2    C310671   2.246   0.673  13.096 -0.4290  0.3842 -0.1317
  722MPD2    C410672   2.266   0.591  13.199  0.2704 -0.0611 -0.7549
  722MPD2    C510673   2.369   0.607  13.285 -0.2092  0.3211 -0.3525
  722MPD2     H10674   2.305   0.863  13.009 -1.9999 -0.7609 -0.2049
  722MPD2    H110675   2.210   0.501  13.222  0.7131  0.0432  0.7361
  722MPD2    H210676   2.510   0.731  13.359 -1.2037  1.3788  1.2138
  722MPD2    H310677   2.389   0.535  13.364  2.0889 -0.8922 -2.0238
  722MPD2     N10678   2.145   0.650  13.000  0.4668  0.0385 -0.1315
  722MPD2    H510679   2.134   0.715  12.923  1.4416  0.6087  0.2063
  722MPD2    N110680   2.481   0.945  13.194  0.0808  0.2750  0.0718
  722MPD2    H710681   2.475   1.006  13.114  0.2211 -0.9714 -0.8991
  723TMC3    C110682   1.979   0.524  12.890  0.9164  0.2408  0.2220
  723TMC3    C210683   1.990   0.411  12.815  0.3756 -0.0909  0.3281
  723TMC3    C310684   1.954   0.413  12.686  0.2095 -0.3236 -0.5113
  723TMC3    C410685   1.932   0.641  12.830  0.0602  0.3020  0.2309
  723TMC3    C510686   1.883   0.636  12.701 -0.1070 -0.2294  0.1286
  723TMC3    C610687   1.891   0.518  12.626 -0.3508  0.2266  1.1017
  723TMC3     C10688   2.075   0.532  12.993 -1.3793 -0.0750  1.1632
  723TMC3     O10689   2.100   0.425  13.048  0.3060  0.8646  0.4267
  723TMC3     H10690   2.054   0.329  12.846 -0.7100 -1.1450 -0.2248
  723TMC3    H110691   1.919   0.720  12.903 -0.1641  0.3174  0.1734
  723TMC3    H210692   1.876   0.503  12.520 -0.2611  1.6037  0.8899
  723TMC3    C710693   1.855   0.755  12.620  0.2858  0.1695 -0.6192
  723TMC3    C810694   2.012   0.322  12.592 -0.5629  0.2974  0.6984
  723TMC3    O110695   1.842   0.735  12.497 -0.8060  0.4572 -0.1368
  723TMC3    O210696   2.040   0.373  12.483  0.8119  0.3204  0.4463
  724TMC3    C110697   2.971   3.537  10.077 -0.2894  0.0978  0.3694
  724TMC3    C210698   2.909   3.583   9.962 -0.2974  0.5586  0.2895
  724TMC3    C310699   2.980   3.672   9.885  0.3477 -0.3376 -0.3788
  724TMC3    C410700   3.100   3.568  10.103 -0.1698  0.2454 -0.0930
  724TMC3    C510701   3.167   3.652  10.018  0.0178 -0.0729  0.5680
  724TMC3    C610702   3.109   3.703   9.906  0.2232  0.2003  0.5578
  724TMC3     C10703   2.893   3.450  10.161  0.3585  0.6790 -0.2027
  724TMC3     O10704   2.794   3.397  10.108  0.2692 -0.1363 -0.0193
  724TMC3     H10705   2.802   3.577   9.945  0.3127  1.2787 -3.7504
  724TMC3    H110706   3.149   3.527  10.191 -2.0301  1.4580  1.4922
  724TMC3    H210707   3.177   3.759   9.842 -0.4338  1.7138  1.1663
  724TMC3    C710708   3.283   3.727  10.064  0.1972  0.3504 -0.7138
  724TMC3    C810709   2.910   3.732   9.771 -0.4885 -0.1898  0.2157
  724TMC3    O110710   3.370   3.741   9.980  0.2370 -0.1842  0.1842
  724TMC3    O210711   2.809   3.687   9.720 -0.0357  0.1774  0.4336
  725TMC3    C110712   3.982   2.804  12.549  0.5528  0.3321 -0.2838
  725TMC3    C210713   3.988   2.785  12.416 -0.7785  0.9079  0.4646
  725TMC3    C310714   3.922   2.675  12.358  0.4340  0.1520  0.3734
  725TMC3    C410715   3.895   2.728  12.623 -0.2593  0.4376 -0.3441
  725TMC3    C510716   3.841   2.617  12.567 -0.0410  1.1339  0.0054
  725TMC3    C610717   3.852   2.586  12.436  0.4459 -0.0437  0.4144
  725TMC3     C10718   4.089   2.861  12.622 -0.5941 -0.0656 -0.3456
  725TMC3     O10719   4.160   2.948  12.577  0.0037  0.1600 -0.2463
  725TMC3     H10720   4.046   2.848  12.350  0.3676 -2.7134 -1.9816
  725TMC3    H110721   3.877   2.750  12.728  1.1649 -0.2268  0.0336
  725TMC3    H210722   3.819   2.493  12.390 -0.0274  0.5267 -0.3965
  725TMC3    C710723   3.852   2.507  12.651  0.2383 -0.4213 -0.6565
  725TMC3    C810724   3.925   2.650  12.218  0.7166 -0.3762 -0.3044
  725TMC3    O110725   3.930   2.519  12.746 -0.7041  0.0694  0.3974
  725TMC3    O210726   3.853   2.564  12.171  0.0829 -0.0010  0.8332
  726MPD2     C10727   2.000   3.501  10.722  0.0224  0.0029  0.1225
  726MPD2    C110728   2.015   3.638  10.705 -0.0768 -0.3346 -0.0870
  726MPD2    C210729   1.904   3.713  10.744 -0.1733  0.0560  0.0955
  726MPD2    C310730   1.794   3.657  10.799  0.7576 -0.2930 -0.3181
  726MPD2    C410731   1.793   3.522  10.831  0.0970 -0.0457  1.1622
  726MPD2    C510732   1.897   3.447  10.787  1.1550 -0.1974  0.4442
  726MPD2     H10733   1.911   3.818  10.718  0.4176 -0.1269 -0.4691
  726MPD2    H110734   1.709   3.467  10.872  0.0889 -0.5227  0.5013
  726MPD2    H210735   2.082   3.435  10.697 -0.6058 -1.2270  1.3492
  726MPD2    H310736   1.900   3.340  10.803  1.5741  0.0035  1.6860
  726MPD2     N10737   1.674   3.732  10.822 -0.1941  0.5313 -0.4541
  726MPD2    H510738   1.594   3.687  10.866  1.1370 -2.9840 -1.6488
  726MPD2    N110739   2.131   3.691  10.655  0.3486 -0.3843 -0.0517
  726MPD2    H710740   2.135   3.793  10.656 -1.5958 -0.3051  0.5125
  727TMC3    C110741   2.299   3.728  10.491 -0.1373 -0.1955 -0.1927
  727TMC3    C210742   2.371   3.816  10.568 -0.0504 -0.8599  0.0574
  727TMC3    C310743   2.450   3.911  10.499  0.4646  0.3323  0.1775
  727TMC3    C410744   2.302   3.721  10.355 -0.6472  0.5219 -0.1083
  727TMC3    C510745   2.373   3.823  10.290 -0.1308 -0.0820 -0.1777
  727TMC3    C610746   2.449   3.912  10.362 -0.7582 -0.0845 -0.2994
  727TMC3     C10747   2.204   3.637  10.554 -0.1430 -0.0016  0.2586
  727TMC3     O10748   2.182   3.526  10.496  0.0175 -0.5803 -0.0207
  727TMC3     H10749   2.379   3.799  10.675  1.6026 -0.4487  0.0063
  727TMC3    H110750   2.244   3.652  10.293  0.1904  0.0014 -0.3193
  727TMC3    H210751   2.505   3.988  10.309 -2.5261 -0.1986 -2.3338
  727TMC3    C710752   2.355   3.844  10.145 -0.0845  0.5771 -0.3714
  727TMC3    C810753   2.507   4.030  10.572 -0.7383 -0.2653 -0.7217
  727TMC3    O110754   2.314   3.750  10.078 -0.2301  0.5980 -0.6327
  727TMC3    O210755   2.565   4.114  10.498  0.7013  0.9681  0.6793
  728TMC3    C110756   1.753   2.272  15.472  0.4420 -0.2037  0.3953
  728TMC3    C210757   1.869   2.214  15.504 -0.2070  0.2280  0.4230
  728TMC3    C310758   1.970   2.253  15.424  0.2022  0.0491 -0.6143
  728TMC3    C410759   1.737   2.364  15.376 -0.0232  0.2506  0.0547
  728TMC3    C510760   1.847   2.403  15.303  0.7585  1.0501 -0.5577
  728TMC3    C610761   1.967   2.342  15.323 -0.8260  0.0913  0.0731
  728TMC3     C10762   1.641   2.238  15.556  0.5860  0.1367  0.1119
  728TMC3     O10763   1.657   2.175  15.660 -0.6832 -0.3456  0.1725
  728TMC3     H10764   1.888   2.137  15.578 -1.1313  0.5777  1.0081
  728TMC3    H110765   1.652   2.431  15.374 -1.7226 -1.9200 -0.1330
  728TMC3    H210766   2.057   2.381  15.278 -0.5719  0.1037  0.6009
  728TMC3    C710767   1.822   2.417  15.166  0.0353 -0.3731 -0.3545
  728TMC3    C810768   2.088   2.174  15.437 -0.0512 -0.1495  0.3882
  728TMC3    O110769   1.872   2.335  15.092  0.2612 -0.2047 -0.4555
  728TMC3    O210770   2.190   2.243  15.432 -0.1793  0.1444 -0.2260
  729MPD2     C10771   3.556   3.378  16.272 -0.3004 -0.3219  0.1745
  729MPD2    C110772   3.602   3.505  16.284  0.0410  0.1122  0.2008
  729MPD2    C210773   3.585   3.565  16.408 -0.3819  0.2027  0.2268
  729MPD2    C310774   3.528   3.506  16.515  0.8758 -0.3159  0.3904
  729MPD2    C410775   3.478   3.376  16.502  0.5444 -0.2596 -0.8034
  729MPD2    C510776   3.489   3.312  16.380  0.2762  0.4386  0.7454
  729MPD2     H10777   3.609   3.670  16.419  1.7873 -0.3524  0.8435
  729MPD2    H110778   3.414   3.331  16.576  0.7887 -0.0351 -0.4510
  729MPD2    H210779   3.560   3.334  16.173  0.2101 -0.2090  0.1409
  729MPD2    H310780   3.432   3.221  16.363  1.1234  0.2677 -1.1458
  729MPD2     N10781   3.524   3.573  16.641 -0.2264 -0.2032  0.0391
  729MPD2    H510782   3.569   3.664  16.638 -1.4067  0.3560 -0.9409
  729MPD2    N110783   3.649   3.576  16.167  0.5841  0.3324 -0.7951
  729MPD2    H710784   3.667   3.534  16.076  0.9213 -2.1789  0.4403
  730TMC3    C110785   3.497   3.615  16.877  0.2860  0.1236 -0.3543
  730TMC3    C210786   3.584   3.575  16.976 -0.1601  0.3783  0.3443
  730TMC3    C310787   3.627   3.671  17.061 -0.3360  0.1459  0.1399
  730TMC3    C410788   3.464   3.746  16.850  0.4713 -0.5420  0.0756
  730TMC3    C510789   3.509   3.842  16.945 -0.1607 -0.4377  0.1069
  730TMC3    C610790   3.582   3.806  17.054  0.2930 -0.7224  0.6795
  730TMC3     C10791   3.497   3.518  16.764  0.7467 -0.0682 -0.1820
  730TMC3     O10792   3.471   3.403  16.787 -0.4569 -0.3551 -1.0801
  730TMC3     H10793   3.599   3.469  16.990  0.2073 -0.1183 -3.8195
  730TMC3    H110794   3.404   3.773  16.763 -1.3904  0.5219  1.6740
  730TMC3    H210795   3.628   3.877  17.122  0.5012  0.2631 -0.5057
  730TMC3    C710796   3.463   3.977  16.930  1.3326  0.3497  0.2438
  730TMC3    C810797   3.740   3.647  17.138 -0.0971 -0.2359 -0.2785
  730TMC3    O110798   3.400   4.015  16.832 -0.2099 -0.0416 -0.4094
  730TMC3    O210799   3.758   3.715  17.239  0.7567 -0.1576 -0.0698
  731MPD2     C10800   3.361   1.975  12.268 -0.4453  0.0205  0.5027
  731MPD2    C110801   3.464   1.903  12.333  0.4150  0.3372 -0.6384
  731MPD2    C210802   3.443   1.851  12.461  0.2401  0.2175  0.8834
  731MPD2    C310803   3.330   1.883  12.528 -0.0693 -0.1624 -0.1181
  731MPD2    C410804   3.228   1.954  12.464  1.2180  0.3604  0.2395
  731MPD2    C510805   3.239   1.993  12.329  0.3907  0.3974 -0.5256
  731MPD2     H10806   3.517   1.790  12.512  0.2212 -0.7153 -0.2338
  731MPD2    H110807   3.131   1.970  12.511  0.1534 -0.7861 -1.5548
  731MPD2    H210808   3.370   2.032  12.176  1.1334 -0.7304  0.1937
  731MPD2    H310809   3.164   2.059  12.286  0.1975  0.8366  0.4866
  731MPD2     N10810   3.322   1.830  12.658 -0.0751 -0.0727 -0.1029
  731MPD2    H510811   3.402   1.780  12.697 -0.2100  1.1477  1.7494
  731MPD2    N110812   3.587   1.890  12.268  0.0323  0.1474  0.5775
  731MPD2    H710813   3.590   1.931  12.175  1.5924  0.4404  0.7623
  732TMC3    C110814   3.809   1.813  12.215  0.4610 -0.2363 -0.1990
  732TMC3    C210815   3.785   1.814  12.080  0.1412  0.2045 -0.4174
  732TMC3    C310816   3.887   1.859  11.999  0.1440 -0.7013 -0.0267
  732TMC3    C410817   3.929   1.853  12.271  0.0020 -0.7023  0.3733
  732TMC3    C510818   4.027   1.881  12.188  0.0509  0.8201  0.3314
  732TMC3    C610819   4.010   1.885  12.054  0.8575 -0.0396 -0.6211
  732TMC3     C10820   3.703   1.815  12.316 -0.8908  0.1893 -0.3663
  732TMC3     O10821   3.713   1.747  12.417  0.4889 -0.0176  0.4979
  732TMC3     H10822   3.689   1.788  12.038  1.7321 -3.6397 -1.6967
  732TMC3    H110823   3.939   1.862  12.378 -0.2686  0.3876  0.3129
  732TMC3    H210824   4.101   1.903  11.997  1.8926 -1.2456  0.6308
  732TMC3    C710825   4.137   1.957  12.244 -0.2390  0.6941 -0.5187
  732TMC3    C810826   3.872   1.879  11.852 -0.6364  0.5041 -0.6623
  732TMC3    O110827   4.220   2.006  12.169  0.3118 -0.6864  0.3894
  732TMC3    O210828   3.943   1.965  11.805  0.2068 -0.2777 -0.4460
  733TMC3    C110829   4.382   0.471  12.492 -0.6240 -0.0924 -0.3161
  733TMC3    C210830   4.342   0.603  12.468  0.3985  0.2614  0.4334
  733TMC3    C310831   4.433   0.683  12.413  0.7734 -0.3817 -0.2705
  733TMC3    C410832   4.513   0.422  12.454 -0.4782 -0.3201  0.1218
  733TMC3    C510833   4.602   0.514  12.402 -0.1931  0.6179  0.1398
  733TMC3    C610834   4.563   0.644  12.380  0.6154  0.0154  0.0403
  733TMC3     C10835   4.289   0.397  12.575  0.0743  0.6439  0.6589
  733TMC3     O10836   4.183   0.452  12.605  0.1892  0.8791  0.3079
  733TMC3     H10837   4.248   0.652  12.488  0.6271 -0.9424  4.6029
  733TMC3    H110838   4.530   0.315  12.457 -0.3598 -0.3102 -0.2404
  733TMC3    H210839   4.625   0.711  12.322 -0.9478  1.5634  0.1601
  733TMC3    C710840   0.007   0.477  12.356 -0.3802 -0.6434  0.4081
  733TMC3    C810841   4.402   0.824  12.404  0.0950 -0.5798 -0.9100
  733TMC3    O110842   0.019   0.372  12.301  0.2717 -0.3043  0.3654
  733TMC3    O210843   4.284   0.857  12.429  0.1583 -0.1650  0.8024
  734MPD2     C10844   1.625   3.078  12.024  0.6599  0.2681  0.9552
  734MPD2    C110845   1.639   2.940  12.001 -0.2096  0.0671  0.1465
  734MPD2    C210846   1.683   2.893  11.875  0.4256 -0.3380 -0.2033
  734MPD2    C310847   1.728   2.981  11.772  0.0653  0.2203  0.4522
  734MPD2    C410848   1.702   3.116  11.794  0.5018 -0.0542 -0.3012
  734MPD2    C510849   1.649   3.157  11.918  0.7475  0.5354 -0.1952
  734MPD2     H10850   1.699   2.786  11.865 -1.7401 -0.6426 -0.4991
  734MPD2    H110851   1.716   3.197  11.724  0.6121 -1.5231 -1.9676
  734MPD2    H210852   1.586   3.124  12.114  0.0534 -1.0992  1.4049
  734MPD2    H310853   1.630   3.263  11.930  0.6221  0.3566  1.2276
  734MPD2     N10854   1.781   2.917  11.661 -0.0705  0.5138  0.1865
  734MPD2    H510855   1.803   2.818  11.661  1.0466  0.7546 -1.2834
  734MPD2    N110856   1.616   2.852  12.105 -0.4406 -0.6993  0.0674
  734MPD2    H710857   1.610   2.889  12.200 -1.6974 -0.3786 -0.1289
  735TMC3    C110858   1.586   2.632  12.193 -0.6710 -0.1385  0.0338
  735TMC3    C210859   1.501   2.529  12.171 -0.1287  0.3355  0.1911
  735TMC3    C310860   1.559   2.405  12.179 -0.6788  0.7265  0.3021
  735TMC3    C410861   1.714   2.621  12.245  0.5256 -0.9592  0.5260
  735TMC3    C510862   1.763   2.491  12.247 -0.2126  0.5062 -0.2225
  735TMC3    C610863   1.685   2.384  12.218  0.1228  0.5989  0.0297
  735TMC3     C10864   1.577   2.716  12.082  0.2561  0.1916 -0.7470
  735TMC3     O10865   1.555   2.662  11.974  0.4258  0.0056 -0.0179
  735TMC3     H10866   1.406   2.542  12.121 -0.5343 -0.6318  0.7135
  735TMC3    H110867   1.776   2.709  12.248 -0.8272 -0.0735  2.3906
  735TMC3    H210868   1.719   2.281  12.210  0.5201  0.4011  4.0866
  735TMC3    C710869   1.903   2.476  12.219 -0.5653 -0.4230  1.0197
  735TMC3    C810870   1.534   2.315  12.076  0.3508  0.7109  0.3006
  735TMC3    O110871   1.957   2.564  12.156 -0.0647  0.9194 -0.0574
  735TMC3    O210872   1.507   2.194  12.091  0.3457 -0.6745 -0.1077
  736MPD2     C10873   2.124   2.207  12.358 -0.1586  0.0406  0.1391
  736MPD2    C110874   2.081   2.299  12.270  0.2434  0.4105  0.9586
  736MPD2    C210875   2.174   2.347  12.177  0.2650  0.1927  0.1170
  736MPD2    C310876   2.293   2.290  12.153 -0.6974 -0.2591 -0.2055
  736MPD2    C410877   2.321   2.182  12.226 -0.3747 -1.0078 -0.3780
  736MPD2    C510878   2.241   2.150  12.335  0.7410 -0.5023 -0.1918
  736MPD2     H10879   2.140   2.419  12.104  1.0364 -0.0554 -0.4859
  736MPD2    H110880   2.415   2.130  12.209 -0.2211 -1.4538  1.8102
  736MPD2    H210881   2.060   2.165  12.435 -0.0307  0.6991  0.5945
  736MPD2    H310882   2.272   2.067  12.397  1.4482  0.0889  0.2549
  736MPD2     N10883   2.381   2.318  12.045  0.2125  0.0386  0.2141
  736MPD2    H510884   2.466   2.263  12.043  1.2793  1.8086 -3.4694
  736MPD2    N110885   1.949   2.351  12.277 -0.4696 -0.3002 -0.1263
  736MPD2    H710886   1.881   2.309  12.339 -0.1333 -1.4357 -0.5149
  737TMC3    C110887   2.472   2.414  11.846  0.3468 -0.2625  0.3580
  737TMC3    C210888   2.511   2.523  11.774 -0.4986 -0.5689  0.2024
  737TMC3    C310889   2.571   2.499  11.661  0.1154 -0.6493  0.5327
  737TMC3    C410890   2.512   2.286  11.805 -0.0717  0.3482  0.0226
  737TMC3    C510891   2.580   2.273  11.687 -0.4964  1.3710 -0.1043
  737TMC3    C610892   2.605   2.384  11.609 -0.1469  0.5067  0.8422
  737TMC3     C10893   2.377   2.428  11.952  0.5555  0.0310 -0.0033
  737TMC3     O10894   2.300   2.526  11.952 -0.3574  0.3969 -0.2253
  737TMC3     H10895   2.467   2.617  11.805  0.4659  0.0994 -0.4547
  737TMC3    H110896   2.498   2.199  11.869 -0.3556 -0.1566 -0.7202
  737TMC3    H210897   2.687   2.391  11.537 -0.5847 -0.0816  0.2901
  737TMC3    C710898   2.635   2.151  11.645  0.3496  0.0198 -0.0619
  737TMC3    C810899   2.611   2.623  11.597 -0.3761  0.2126 -0.1584
  737TMC3    O110900   2.623   2.054  11.713  0.1400  0.1706 -0.5010
  737TMC3    O210901   2.608   2.721  11.667  0.1597 -0.0687 -0.0015
  738MPD2     C10902   2.441   1.170  14.802  0.5182 -0.8852 -0.1690
  738MPD2    C110903   2.538   1.097  14.861 -0.2880  0.4510  0.4038
  738MPD2    C210904   2.669   1.137  14.864  0.0276  0.3485  0.0797
  738MPD2    C310905   2.700   1.266  14.825  0.4607 -0.4154 -0.6467
  738MPD2    C410906   2.598   1.341  14.768 -0.2528  0.1430  0.3221
  738MPD2    C510907   2.472   1.295  14.758 -0.2224 -0.3415 -0.0347
  738MPD2     H10908   2.740   1.070  14.911 -0.1812 -0.3423 -0.5804
  738MPD2    H110909   2.609   1.445  14.739  1.7013 -0.0788  0.3123
  738MPD2    H210910   2.340   1.132  14.788  0.5419 -1.4138  1.0523
  738MPD2    H310911   2.389   1.351  14.716 -0.7947  0.1537  1.7606
  738MPD2     N10912   2.832   1.319  14.828 -0.3983  0.3696 -0.3631
  738MPD2    H510913   2.839   1.414  14.794 -1.0889  0.0882 -1.3127
  738MPD2    N110914   2.505   0.972  14.918 -0.7361 -0.3273 -0.8125
  738MPD2    H710915   2.582   0.909  14.939 -0.5535 -0.4928 -2.0222
  739TMC3    C110916   3.056   1.344  14.841  0.5316  0.0880 -0.4251
  739TMC3    C210917   3.051   1.409  14.723  0.3873 -0.0093 -0.3451
  739TMC3    C310918   3.146   1.508  14.695  0.3142  0.2460 -1.1575
  739TMC3    C410919   3.144   1.385  14.934 -0.2040 -1.1190 -1.0575
  739TMC3    C510920   3.235   1.487  14.910  1.1504 -0.1566 -0.9482
  739TMC3    C610921   3.236   1.554  14.791 -0.4042  0.4432 -0.3764
  739TMC3     C10922   2.948   1.254  14.870 -0.5294  0.1397  0.2826
  739TMC3     O10923   2.977   1.141  14.904 -0.1738 -0.0702  0.0725
  739TMC3     H10924   2.984   1.365  14.650  1.2082 -2.1982  0.2432
  739TMC3    H110925   3.138   1.329  15.027  0.3992  1.5659  0.6057
  739TMC3    H210926   3.310   1.628  14.765  1.3026 -1.7073 -1.6436
  739TMC3    C710927   3.329   1.522  15.012 -0.1990 -0.2625 -0.0752
  739TMC3    C810928   3.135   1.568  14.563  0.2811  0.0602  0.0107
  739TMC3    O110929   3.422   1.588  14.975  0.0316  0.4548 -0.5601
  739TMC3    O210930   3.038   1.531  14.501  0.4997 -0.2248 -0.0133
  740TMC3    C110931   3.525   2.564  13.948  0.5430  0.1072 -0.2211
  740TMC3    C210932   3.563   2.526  14.072  0.1105  0.4148 -0.2791
  740TMC3    C310933   3.689   2.491  14.082  0.4490  0.2322  0.0106
  740TMC3    C410934   3.607   2.569  13.838 -0.8044 -0.4499  0.3031
  740TMC3    C510935   3.730   2.525  13.852 -0.0814 -0.0517 -0.3908
  740TMC3    C610936   3.779   2.484  13.972  0.2841  0.5029  0.1679
  740TMC3     C10937   3.377   2.584  13.931 -0.1834  0.7562 -0.0837
  740TMC3     O10938   3.342   2.612  13.817 -0.5774  0.0057 -0.7976
  740TMC3     H10939   3.508   2.524  14.166  1.7260  0.6179  0.6787
  740TMC3    H110940   3.561   2.590  13.742 -1.3969 -0.7001  0.5268
  740TMC3    H210941   3.887   2.476  13.981 -0.0030  0.9489  4.1144
  740TMC3    C710942   3.812   2.504  13.733 -0.0679  0.4962 -0.6339
  740TMC3    C810943   3.741   2.521  14.213 -0.2402  0.5310 -0.2266
  740TMC3    O110944   3.904   2.426  13.737 -0.6085 -0.0184  0.1705
  740TMC3    O210945   3.702   2.626  14.260 -0.5190  0.3729 -0.2625
  741TMC3    C110946   2.898   1.862  14.454 -0.6458  0.4165 -0.2589
  741TMC3    C210947   2.838   1.766  14.374  0.1646 -0.6199 -0.6992
  741TMC3    C310948   2.767   1.669  14.441  0.5609  0.6638  0.1429
  741TMC3    C410949   2.907   1.850  14.596  0.1103 -0.1847  0.2737
  741TMC3    C510950   2.839   1.745  14.647 -0.1536  0.0544 -0.0017
  741TMC3    C610951   2.767   1.658  14.579 -0.9230 -0.2563  0.1308
  741TMC3     C10952   2.971   1.976  14.391 -0.1829 -0.1001  0.1153
  741TMC3     O10953   3.032   2.061  14.456 -0.3306  0.1559 -0.2992
  741TMC3     H10954   2.830   1.761  14.266 -0.7422 -1.1932 -0.5931
  741TMC3    H110955   2.966   1.920  14.655 -0.6962  0.0240  0.8233
  741TMC3    H210956   2.690   1.603  14.632  0.3813 -2.3549 -0.1213
  741TMC3    C710957   2.868   1.700  14.781  0.4979  0.3199 -0.7058
  741TMC3    C810958   2.673   1.593  14.360  0.7547 -0.9277  0.6973
  741TMC3    O110959   2.823   1.596  14.828 -0.3550 -0.0615  0.4824
  741TMC3    O210960   2.642   1.639  14.252  0.2276 -0.2819 -0.4712
  742TMC3    C110961   2.526   0.066  15.064  0.5888  0.2512  0.0476
  742TMC3    C210962   2.470   0.079  14.939  0.4421 -1.0595  0.0286
  742TMC3    C310963   2.545   0.056  14.834  0.0132  0.0457 -0.4127
  742TMC3    C410964   2.662   0.049  15.080 -0.0571  0.6443  0.5995
  742TMC3    C510965   2.738   0.047  14.968  0.0368  0.1926 -0.2396
  742TMC3    C610966   2.683   0.048  14.844 -0.9264  0.1461 -0.6917
  742TMC3     C10967   2.446   0.122  15.175  0.0828 -0.4221 -0.1083
  742TMC3     O10968   2.366   0.212  15.148  0.2175  0.2000 -0.1008
  742TMC3     H10969   2.362   0.074  14.937  0.2975  1.8197  0.0816
  742TMC3    H110970   2.695   0.048  15.183 -0.7989 -0.9095  0.8247
  742TMC3    H210971   2.738   0.040  14.750  1.7867 -0.2248  0.9239
  742TMC3    C710972   2.884   0.019  14.975  0.9614  0.3044  0.3010
  742TMC3    C810973   2.486   0.074  14.696 -0.0028  0.8540  0.7550
  742TMC3    O110974   2.929   4.682  14.881  0.4678 -0.2874  0.6575
  742TMC3    O210975   2.564   0.046  14.605 -0.6131  0.2833  0.3396
  743MPD2     C10976   2.381   1.472   1.774 -0.4340 -0.4340 -0.2358
  743MPD2    C110977   2.307   1.412   1.677  0.0228 -0.8549  0.9999
  743MPD2    C210978   2.367   1.356   1.562 -0.2315  0.4945  0.6301
  743MPD2    C310979   2.507   1.352   1.551  0.5086  0.0380 -0.4035
  743MPD2    C410980   2.582   1.419   1.656 -0.6649 -0.6509 -0.3689
  743MPD2    C510981   2.518   1.480   1.764 -0.0857  0.0560  0.7164
  743MPD2     H10982   2.306   1.309   1.485 -1.4066  2.4974  0.3419
  743MPD2    H110983   2.689   1.428   1.645 -0.4952  0.0041  1.7347
  743MPD2    H210984   2.338   1.519   1.862 -0.2182  0.6946 -0.7357
  743MPD2    H310985   2.574   1.538   1.836 -1.3626  2.9741 -0.6203
  743MPD2     N10986   2.571   1.304   1.439 -0.1362 -0.1461 -0.0318
  743MPD2    H510987   2.516   1.285   1.356 -1.1401  0.6109  0.4630
  743MPD2    N110988   2.171   1.426   1.689  0.0280  0.7502  0.4825
  743MPD2    H710989   2.132   1.461   1.776  1.6506  1.0773  1.0780
  744TMC3    C110990   1.935   1.420   1.633  0.0270 -0.3365 -0.0836
  744TMC3    C210991   1.904   1.494   1.743  0.1345 -0.8795 -0.5111
  744TMC3    C310992   1.765   1.513   1.774 -0.0620 -0.1279  0.0239
  744TMC3    C410993   1.839   1.351   1.563 -0.3082 -0.1711 -0.9193
  744TMC3    C510994   1.709   1.361   1.607 -0.3823  0.4513  0.3540
  744TMC3    C610995   1.668   1.443   1.709  0.3792  0.0110 -0.0221
  744TMC3     C10996   2.075   1.402   1.589 -0.0337  0.2138 -0.3269
  744TMC3     O10997   2.085   1.373   1.470  0.0592  0.5250  0.8700
  744TMC3     H10998   1.981   1.562   1.777 -0.9856  0.4749 -0.7206
  744TMC3    H110999   1.864   1.286   1.480  3.6544 -1.3005  1.1263
  744TMC3    H211000   1.567   1.434   1.748 -0.6468  0.2174 -2.6746
  744TMC3    C711001   1.608   1.290   1.517  0.9776 -0.6074  0.6082
  744TMC3    C811002   1.728   1.621   1.864 -0.0089 -0.1348 -0.1387
  744TMC3    O111003   1.656   1.258   1.409  0.2080  1.1581 -0.7130
  744TMC3    O211004   1.614   1.668   1.853 -0.3110  0.2110  0.0698
  745TMC3    C111005   2.998   4.452  13.606 -0.8053 -0.3909  0.3752
  745TMC3    C211006   2.869   4.399  13.627 -0.4192  0.2458  0.0407
  745TMC3    C311007   2.768   4.431  13.540 -0.3878 -0.5186 -0.2410
  745TMC3    C411008   3.034   4.522  13.487  0.8109  0.1663 -1.0452
  745TMC3    C511009   2.930   4.542  13.395  0.0885  0.4823  0.3204
  745TMC3    C611010   2.801   4.505  13.431 -0.1459  0.1105  0.9654
  745TMC3     C11011   3.077   4.467  13.728 -0.2943  0.8514 -0.2326
  745TMC3     O11012   3.060   4.397  13.825  0.0774  0.4325  0.0570
  745TMC3     H11013   2.844   4.346  13.719  0.8008 -1.3054 -0.5107
  745TMC3    H111014   3.137   4.549  13.469  0.6723  0.7407 -0.9806
  745TMC3    H211015   2.714   4.536  13.375  0.8681  1.4875  0.1363
  745TMC3    C711016   2.948   4.598  13.255 -0.2271  0.1132 -0.0859
  745TMC3    C811017   2.647   4.483  13.597 -0.1685 -0.5549 -0.2263
  745TMC3    O111018   2.842   4.619  13.196 -0.2528 -0.0447  0.8947
  745TMC3    O211019   2.550   4.493  13.521  0.7564 -0.3452  0.2170
  746TMC3    C111020   0.404   2.037  10.895  0.8397  0.0835 -0.3245
  746TMC3    C211021   0.457   2.061  10.767  0.4019  0.6348 -0.4594
  746TMC3    C311022   0.380   2.039  10.663  0.0287  0.4330  0.4517
  746TMC3    C411023   0.274   2.010  10.913  0.0027 -0.8277 -0.0166
  746TMC3    C511024   0.198   2.006  10.799 -0.0304  0.7714 -0.3313
  746TMC3    C611025   0.247   2.011  10.675  0.3213  0.2124  0.0057
  746TMC3     C11026   0.481   2.058  11.017 -0.4568 -0.2958 -0.1154
  746TMC3     O11027   0.417   2.094  11.113  0.0341  0.5139 -0.0305
  746TMC3     H11028   0.563   2.078  10.754  0.8464 -0.2918  2.0027
  746TMC3    H111029   0.236   1.989  11.012  0.3379 -2.7198 -0.2748
  746TMC3    H211030   0.187   1.989  10.587  0.7772 -1.0186  0.0094
  746TMC3    C711031   0.075   1.927  10.813 -0.8007  0.4851  0.1087
  746TMC3    C811032   0.444   2.019  10.536 -0.6736  0.4080 -0.4368
  746TMC3    O111033   0.071   1.832  10.733 -0.0620  0.5170  0.1625
  746TMC3    O211034   0.399   1.927  10.464 -0.0752 -0.0968 -0.4181
  747TMC3    C111035   3.266   1.897  10.832  0.9391  1.0684 -0.0271
  747TMC3    C211036   3.162   1.847  10.906  0.0758  0.6482  0.2548
  747TMC3    C311037   3.129   1.917  11.016  0.1041  0.2975  0.2541
  747TMC3    C411038   3.348   2.001  10.879  0.1368 -0.0972 -0.4330
  747TMC3    C511039   3.303   2.068  10.990  0.5664 -0.7734 -0.1926
  747TMC3    C611040   3.188   2.028  11.052 -0.4875  0.1491 -0.3875
  747TMC3     C11041   3.337   1.828  10.730 -0.6369  0.3062  0.6568
  747TMC3     O11042   3.453   1.856  10.719  0.0184 -0.4585  0.4724
  747TMC3     H11043   3.109   1.756  10.880 -1.7357  1.7331  0.1073
  747TMC3    H111044   3.434   2.041  10.826 -0.5081  2.5367  0.5546
  747TMC3    H211045   3.154   2.088  11.136  0.3240  0.3080 -0.1657
  747TMC3    C711046   3.389   2.173  11.049 -0.9354  0.4195 -0.2415
  747TMC3    C811047   3.019   1.861  11.092  0.0272 -0.0490 -0.1463
  747TMC3    O111048   3.335   2.274  11.097  0.5960  0.0185 -0.2321
  747TMC3    O211049   2.979   1.747  11.072  0.1694  0.1819 -0.4030
  748MPD2     C11050   0.116   2.214   2.222  0.0859  0.5218 -0.1473
  748MPD2    C111051   0.081   2.199   2.087  0.1669 -0.3260  0.2713
  748MPD2    C211052   0.172   2.236   1.985 -0.2321  0.3944 -0.2978
  748MPD2    C311053   0.299   2.273   2.019 -0.9391  0.1340  0.2033
  748MPD2    C411054   0.328   2.275   2.151  0.0960  0.6362  0.3215
  748MPD2    C511055   0.241   2.252   2.254  0.1482  0.3179  0.5006
  748MPD2     H11056   0.156   2.212   1.880  1.5936  0.3064 -0.5622
  748MPD2    H111057   0.428   2.312   2.170  1.2301 -2.1387 -0.3436
  748MPD2    H211058   0.040   2.197   2.297 -2.0266  1.1629 -2.1199
  748MPD2    H311059   0.261   2.271   2.358 -0.5005  1.4788  0.4157
  748MPD2     N11060   0.395   2.311   1.917  0.2718 -0.0277  0.0212
  748MPD2    H511061   0.362   2.327   1.823 -0.3347 -0.0399  0.2293
  748MPD2    N111062   4.675   2.156   2.060 -0.2152 -0.3035  0.0747
  748MPD2    H711063   4.616   2.138   2.141  2.2085 -0.2021  1.8917
  749TMC3    C111064   0.607   2.392   1.824 -0.2737  0.8250  1.1080
  749TMC3    C211065   0.745   2.411   1.842  0.0583  0.0445  0.5844
  749TMC3    C311066   0.822   2.459   1.740 -0.5538  0.1971  0.3595
  749TMC3    C411067   0.549   2.421   1.703 -0.1899  0.0787  0.8055
  749TMC3    C511068   0.634   2.454   1.601 -0.1550  0.1363 -0.9102
  749TMC3    C611069   0.769   2.474   1.616 -0.5888 -0.2183 -0.2460
  749TMC3     C11070   0.530   2.342   1.941 -0.4551 -0.3232 -0.2644
  749TMC3     O11071   0.601   2.308   2.035  0.5824 -0.2471 -0.5508
  749TMC3     H11072   0.794   2.400   1.939 -0.7657 -0.2638  0.9656
  749TMC3    H111073   0.446   2.394   1.682  0.0540  0.1028 -0.4734
  749TMC3    H211074   0.837   2.497   1.535 -0.7267 -2.2204 -0.9299
  749TMC3    C711075   0.582   2.514   1.474 -0.3601 -0.2141  0.8988
  749TMC3    C811076   0.961   2.408   1.742 -0.2479  0.8087  0.3078
  749TMC3    O111077   0.638   2.609   1.419 -0.2261 -0.1869 -0.2672
  749TMC3    O211078   1.010   2.376   1.633  0.5542  0.0766  0.0034
  750MPD2     C11079   0.780   3.672  11.150  0.9190 -0.4036 -0.4371
  750MPD2    C111080   0.648   3.634  11.171 -1.0183  0.8233 -0.3499
  750MPD2    C211081   0.598   3.532  11.080  0.2665  0.4282 -0.1372
  750MPD2    C311082   0.677   3.477  10.980  0.1628 -0.0502  0.1981
  750MPD2    C411083   0.814   3.518  10.970  0.2901 -0.2591 -0.1554
  750MPD2    C511084   0.856   3.626  11.043 -0.0790  0.2302  0.3125
  750MPD2     H11085   0.497   3.493  11.084  0.3098  0.5745  2.1234
  750MPD2    H111086   0.888   3.477  10.901 -0.4140 -2.2529  0.2756
  750MPD2    H211087   0.821   3.747  11.217 -0.8995  1.6776 -1.6517
  750MPD2    H311088   0.956   3.666  11.033  0.3851 -1.2555 -0.8827
  750MPD2     N11089   0.649   3.372  10.891  0.4133 -0.1266  0.1648
  750MPD2    H511090   0.723   3.350  10.826 -0.3753 -0.6151 -0.5648
  750MPD2    N111091   0.581   3.677  11.287  0.3419  0.0283  0.0726
  750MPD2    H711092   0.640   3.730  11.351  1.7293  1.6047 -2.5114
  751TMC3    C111093   0.543   3.182  10.807  0.3708 -0.8432  0.6509
  751TMC3    C211094   0.438   3.097  10.797  0.6207 -0.0806 -1.3558
  751TMC3    C311095   0.431   2.995  10.697  0.5725  0.1368 -0.2206
  751TMC3    C411096   0.645   3.168  10.719  0.4061 -0.2264  0.0237
  751TMC3    C511097   0.650   3.062  10.634  0.4458  0.2499  0.1952
  751TMC3    C611098   0.550   2.978  10.622  0.0473  0.4072  0.8525
  751TMC3     C11099   0.536   3.292  10.902  0.9157  0.7431  0.5913
  751TMC3     O11100   0.451   3.294  10.990  0.4384  0.5952  0.0016
  751TMC3     H11101   0.372   3.094  10.883  0.0973  0.0129 -1.7545
  751TMC3    H111102   0.728   3.238  10.720  0.6371 -0.5059  1.8850
  751TMC3    H211103   0.552   2.901  10.545 -0.3969  2.0310 -0.7973
  751TMC3    C711104   0.762   3.054  10.538 -0.2490  0.0043  0.2371
  751TMC3    C811105   0.344   2.879  10.726  0.1303  0.0299  0.1670
  751TMC3    O111106   0.848   3.139  10.543  0.8681  0.0744 -0.3853
  751TMC3    O211107   0.275   2.885  10.829 -0.3149 -0.4210  0.7848
  752TMC3    C111108   4.293   3.206  16.648  0.2096 -0.2067  0.0322
  752TMC3    C211109   4.166   3.234  16.688  0.3649 -0.6226  1.1737
  752TMC3    C311110   4.126   3.202  16.815  0.6618  0.8730  0.5561
  752TMC3    C411111   4.373   3.129  16.721 -0.3836 -0.0606  1.0275
  752TMC3    C511112   4.335   3.107  16.851  0.0333  0.1692  0.4160
  752TMC3    C611113   4.211   3.144  16.901  0.8209  0.4792 -0.0214
  752TMC3     C11114   4.352   3.279  16.537  0.0497 -0.9525 -0.1230
  752TMC3     O11115   4.474   3.268  16.532  0.2623  0.0956  0.1267
  752TMC3     H11116   4.094   3.289  16.630  0.3941 -0.1257  1.6076
  752TMC3    H111117   4.478   3.115  16.698 -0.2836  2.0832  0.1862
  752TMC3    H211118   4.181   3.123  17.003 -0.8038  1.1614 -0.3657
  752TMC3    C711119   4.393   2.998  16.921 -0.1140 -0.7957  0.7128
  752TMC3    C811120   3.991   3.237  16.854  0.4126 -0.4669  0.2631
  752TMC3    O111121   4.382   2.889  16.875 -0.9434  0.4404 -0.2271
  752TMC3    O211122   3.921   3.299  16.780  0.1363  0.1628  0.2208
  753TMC3    C111123   1.535   4.666  13.089 -0.3906  0.6905 -0.3141
  753TMC3    C211124   1.550   4.685  13.227  0.2579  0.6798 -0.7522
  753TMC3    C311125   1.512   4.587  13.316  0.0922  0.4385 -0.2842
  753TMC3    C411126   1.484   4.547  13.043 -0.5708  0.3717 -0.1893
  753TMC3    C511127   1.441   4.454  13.135  0.2614  0.0914  0.1668
  753TMC3    C611128   1.448   4.470  13.270 -0.6951  0.4562  0.4835
  753TMC3     C11129   1.566   0.049  12.998  0.2034 -0.5340 -0.0875
  753TMC3     O11130   1.561   0.164  13.042 -0.0003 -0.3060  0.1364
  753TMC3     H11131   1.584   0.057  13.259  0.5140  0.3024  0.1269
  753TMC3    H111132   1.480   4.522  12.937 -3.2151  1.2299 -0.2887
  753TMC3    H211133   1.430   4.396  13.347 -2.7429 -0.4112 -0.8117
  753TMC3    C711134   1.417   4.318  13.082  0.0854 -0.2453  0.4253
  753TMC3    C811135   1.492   4.613  13.460  0.0472  0.1201 -0.4237
  753TMC3    O111136   1.452   4.300  12.965  0.2884 -0.4898  0.7180
  753TMC3    O211137   1.399   4.555  13.512 -0.3194  0.0185  0.5154
  754MPD2     C11138   0.509   3.449  13.341 -0.5833  0.1593  0.7718
  754MPD2    C111139   0.378   3.407  13.380 -0.2005 -0.3952 -0.1351
  754MPD2    C211140   0.271   3.410  13.286 -0.1625  0.7526  0.1590
  754MPD2    C311141   0.290   3.437  13.150 -0.2309 -0.7821 -0.0281
  754MPD2    C411142   0.413   3.476  13.110 -0.1907  0.4682 -0.1276
  754MPD2    C511143   0.519   3.473  13.199  0.6402  0.3203  0.6849
  754MPD2     H11144   0.171   3.383  13.318  0.0461 -0.8739 -0.5312
  754MPD2    H111145   0.424   3.505  13.006  0.1650 -0.2298 -0.2812
  754MPD2    H211146   0.597   3.435  13.403  0.7982  0.0111 -1.2355
  754MPD2    H311147   0.609   3.519  13.160 -0.1972 -0.7788 -2.5548
  754MPD2     N11148   0.179   3.442  13.066 -0.5060  0.3059 -0.3015
  754MPD2    H511149   0.180   3.501  12.983 -2.3473  0.4687 -0.1942
  754MPD2    N111150   0.349   3.370  13.515  0.3410  0.2575  0.4712
  754MPD2    H711151   0.253   3.339  13.529  0.4574  0.9129  2.8300
  755MPD2     C11152   4.453   4.185  13.130  0.3927  0.6270  0.2457
  755MPD2    C111153   4.350   4.105  13.079  0.0543 -0.7280  0.1812
  755MPD2    C211154   4.382   3.977  13.047 -0.2903  0.0012 -0.6122
  755MPD2    C311155   4.510   3.925  13.055 -0.0888 -0.4361  0.1394
  755MPD2    C411156   4.606   4.004  13.107 -0.2207  0.8562  0.7196
  755MPD2    C511157   4.576   4.135  13.134 -0.4636 -0.3393 -0.2724
  755MPD2     H11158   4.305   3.913  13.004 -0.0477 -1.6708  1.4315
  755MPD2    H111159   4.711   3.976  13.111 -0.9498 -1.7837  1.1747
  755MPD2    H211160   4.438   4.287  13.164  0.0826  1.2699 -1.8332
  755MPD2    H311161   4.653   4.201  13.170  0.7579 -0.9625 -1.7448
  755MPD2     N11162   4.548   3.788  13.023 -0.2809 -0.0340  0.7269
  755MPD2    H511163   4.640   3.749  13.040  0.5446  0.5464 -2.3180
  755MPD2    N111164   4.219   4.153  13.054  0.3631  0.0997 -0.1385
  755MPD2    H711165   4.158   4.074  13.035  1.1801 -0.2833 -1.2111
  756MPD2     C11166   0.596   4.221   9.237 -0.4484  0.0012  0.0309
  756MPD2    C111167   0.514   4.191   9.342  0.6004  0.3703  0.1252
  756MPD2    C211168   0.378   4.188   9.320  0.2171  0.4348  0.1162
  756MPD2    C311169   0.325   4.215   9.193  0.1953 -0.2725  0.1345
  756MPD2    C411170   0.411   4.255   9.089 -0.4000 -0.4685 -0.4253
  756MPD2    C511171   0.545   4.256   9.107  0.6732  0.0426 -0.1448
  756MPD2     H11172   0.319   4.149   9.402 -0.3688 -2.5190 -1.6665
  756MPD2    H111173   0.381   4.287   8.990  1.6645  0.2427 -0.8330
  756MPD2    H211174   0.697   4.256   9.255 -0.0825 -0.0193 -1.9691
  756MPD2    H311175   0.608   4.276   9.022 -0.0409 -0.1921 -0.7330
  756MPD2     N11176   0.184   4.202   9.185 -0.1234  0.0077 -0.2287
  756MPD2    H511177   0.144   4.170   9.272 -1.9228  2.9551  0.0206
  756MPD2    N111178   0.569   4.179   9.473 -0.2820  0.3241 -0.7962
  756MPD2    H711179   0.497   4.148   9.537 -1.3270  3.4708 -0.4136
  757MPD2     C11180   4.487   3.511   9.457  0.3314  0.0970 -0.1738
  757MPD2    C111181   4.611   3.546   9.419  0.2924  0.9596  0.5918
  757MPD2    C211182   4.630   3.673   9.373  0.3213 -0.4149  0.3251
  757MPD2    C311183   4.528   3.759   9.351  0.5386  0.2048 -0.0534
  757MPD2    C411184   4.404   3.721   9.384 -0.0286  0.1351 -0.4432
  757MPD2    C511185   4.387   3.604   9.443 -0.1848 -0.7113  0.4172
  757MPD2     H11186   4.726   3.702   9.331  0.2954 -1.6984 -0.6023
  757MPD2    H111187   4.312   3.777   9.372 -0.0751  0.5555  1.9622
  757MPD2    H211188   4.466   3.415   9.503  2.5819  0.3033  1.3204
  757MPD2    H311189   4.285   3.573   9.461  0.1427 -2.7027 -1.1077
  757MPD2     N11190   4.557   3.870   9.273  0.2730  0.0552 -0.2195
  757MPD2    H511191   4.654   3.865   9.242 -0.0898 -1.3162 -1.1323
  757MPD2    N111192   4.713   3.439   9.428 -0.0173 -0.1942 -0.0100
  757MPD2    H711193   4.686   3.342   9.445 -0.5156 -0.1019 -0.2660
  758MPD2     C11194   0.586   3.110  15.648 -0.5288  0.1943 -0.1990
  758MPD2    C111195   0.592   3.027  15.755 -0.5653 -0.2242  0.4349
  758MPD2    C211196   0.566   3.076  15.883  0.6084  0.2376 -0.6798
  758MPD2    C311197   0.510   3.200  15.896 -0.1648  0.5455 -0.1523
  758MPD2    C411198   0.504   3.280  15.781  0.2573 -0.4283 -0.2724
  758MPD2    C511199   0.542   3.242  15.657  0.6798  0.1624 -0.6737
  758MPD2     H11200   0.581   3.017  15.972  1.0800 -0.6309 -1.3300
  758MPD2    H111201   0.482   3.386  15.787 -0.5326 -0.5121 -1.8457
  758MPD2    H211202   0.608   3.072  15.549 -0.1550 -2.1630  0.7885
  758MPD2    H311203   0.548   3.312  15.574  0.4255  3.0688  1.7629
  758MPD2     N11204   0.486   3.244  16.025 -1.3771  0.1524 -1.1428
  758MPD2    H511205   0.502   3.183  16.105 -1.2254  4.1848  1.9127
  758MPD2    N111206   0.624   2.893  15.738  0.3309 -0.1199  0.0120
  758MPD2    H711207   0.636   2.864  15.642  0.3997  0.8859 -0.2780
  759MPD2     C11208   4.554   1.103   9.647  0.1371 -0.0798  1.3963
  759MPD2    C111209   4.472   1.162   9.740  0.0567 -0.5337 -0.0946
  759MPD2    C211210   4.471   1.302   9.749 -0.2836 -0.6761 -0.2797
  759MPD2    C311211   4.557   1.380   9.679 -0.1087 -0.3154 -0.2785
  759MPD2    C411212   4.643   1.318   9.586  0.0381  0.2856  0.1301
  759MPD2    C511213   4.645   1.182   9.574  0.6125  0.6724  0.8710
  759MPD2     H11214   4.407   1.355   9.818  1.4987 -0.7587  1.4462
  759MPD2    H111215   4.707   1.378   9.523 -1.0095  1.6666  0.3738
  759MPD2    H211216   4.566   0.996   9.638  0.7181 -0.0272  1.5727
  759MPD2    H311217   4.716   1.129   9.512 -0.8632  0.7529 -0.9068
  759MPD2     N11218   4.551   1.513   9.717  0.2779 -0.6872  0.2522
  759MPD2    H511219   4.478   1.541   9.782  0.4199  0.5093 -0.0979
  759MPD2    N111220   4.384   1.090   9.826 -0.0707 -0.3837 -0.4861
  759MPD2    H711221   4.329   1.140   9.894  0.3357 -0.1908 -0.2959
  760MPD2     C11222   3.625   3.762  11.580  0.0177 -0.6294  0.3487
  760MPD2    C111223   3.756   3.809  11.616 -0.2484  0.3431 -0.2863
  760MPD2    C211224   3.855   3.714  11.644  0.0678  0.3703  0.3920
  760MPD2    C311225   3.816   3.576  11.653 -0.2609 -0.2296 -0.3389
  760MPD2    C411226   3.688   3.537  11.637 -0.3472 -0.2934 -0.1742
  760MPD2    C511227   3.598   3.626  11.588 -0.3387 -0.3647  0.7935
  760MPD2     H11228   3.957   3.750  11.638 -0.0594  0.3921 -1.4837
  760MPD2    H111229   3.653   3.434  11.640  0.3236 -0.5848 -1.8607
  760MPD2    H211230   3.542   3.826  11.551  0.2099 -0.9215 -0.8556
  760MPD2    H311231   3.498   3.600  11.557 -0.5949  1.7128 -0.0772
  760MPD2     N11232   3.920   3.484  11.679  0.0705  0.1802 -0.5451
  760MPD2    H511233   3.898   3.386  11.664 -1.8313 -0.0012  3.6336
  760MPD2    N111234   3.797   3.942  11.593 -0.1995  0.3181  0.6429
  760MPD2    H711235   3.889   3.961  11.631 -0.0166 -1.9806  1.3684
  761MPD2     C11236   0.257   2.391  10.677 -0.6758  0.3573 -0.1404
  761MPD2    C111237   0.301   2.461  10.788  0.1482 -0.0139  0.7077
  761MPD2    C211238   0.316   2.595  10.781  0.1498  0.3874 -0.1887
  761MPD2    C311239   0.301   2.650  10.651  0.3855  0.4233  0.2060
  761MPD2    C411240   0.258   2.580  10.542  0.2328 -0.1075  0.1871
  761MPD2    C511241   0.229   2.448  10.553  0.4156 -0.6872 -0.3582
  761MPD2     H11242   0.371   2.649  10.857 -0.1267  0.4542 -0.0329
  761MPD2    H111243   0.238   2.632  10.449  0.4431 -0.7677 -0.2289
  761MPD2    H211244   0.244   2.283  10.680 -0.1371  0.2153 -2.7248
  761MPD2    H311245   0.201   2.376  10.478  1.3086 -0.0164 -1.3337
  761MPD2     N11246   0.343   2.779  10.630 -0.2250 -0.6605  0.3981
  761MPD2    H511247   0.362   2.810  10.535 -0.4018  1.4926  1.0774
  761MPD2    N111248   0.350   2.397  10.903  0.3416 -0.0667 -0.2481
  761MPD2    H711249   0.400   2.310  10.891 -2.7917 -1.8040 -0.9329
  762MPD2     C11250   1.138   2.689  11.035 -0.3196 -0.2480  0.1516
  762MPD2    C111251   1.032   2.637  10.963 -0.1150 -0.3360 -0.4105
  762MPD2    C211252   1.040   2.610  10.826 -0.2312 -0.4791  0.5452
  762MPD2    C311253   1.162   2.648  10.756 -0.4507  0.5158 -0.1506
  762MPD2    C411254   1.263   2.706  10.829 -0.0489  0.2747  0.0591
  762MPD2    C511255   1.250   2.728  10.961 -0.2584  0.0785 -0.2921
  762MPD2     H11256   0.964   2.563  10.765  0.3279 -1.1661  0.3761
  762MPD2    H111257   1.356   2.742  10.786 -0.6039  1.0556 -0.4697
  762MPD2    H211258   1.132   2.705  11.142  2.1749  1.2855  0.0567
  762MPD2    H311259   1.336   2.770  11.011 -0.7638  0.4198  0.2981
  762MPD2     N11260   1.182   2.614  10.621 -0.0301 -0.3429 -0.7622
  762MPD2    H511261   1.108   2.557  10.581 -0.1645 -0.2898 -0.5865
  762MPD2    N111262   0.926   2.582  11.040  0.0184 -0.3756 -0.2904
  762MPD2    H711263   0.930   2.594  11.140  0.3748  1.0124 -0.4647
  763MPD2     C11264   2.504   3.175  16.045 -0.6136  0.4794  0.4121
  763MPD2    C111265   2.524   3.259  15.940 -0.0989 -0.1762  0.3348
  763MPD2    C211266   2.548   3.392  15.955  0.0204  0.1946  0.1435
  763MPD2    C311267   2.548   3.442  16.084  0.2922  0.1573 -0.8789
  763MPD2    C411268   2.500   3.363  16.185  1.2313 -0.2268 -0.4031
  763MPD2    C511269   2.485   3.226  16.168  1.2969 -0.0703  0.2928
  763MPD2     H11270   2.570   3.456  15.870 -0.8606 -1.2087 -1.1360
  763MPD2    H111271   2.495   3.401  16.287  0.5715 -0.4776 -0.3422
  763MPD2    H211272   2.475   3.072  16.026 -0.7542  0.8082 -1.1682
  763MPD2    H311273   2.435   3.172  16.247 -0.1276 -0.8960 -1.1560
  763MPD2     N11274   2.574   3.577  16.119  0.0716 -0.1024 -0.5862
  763MPD2    H511275   2.556   3.605  16.215  2.3088 -3.0697  0.7207
  763MPD2    N111276   2.513   3.211  15.808  0.2476 -0.4413 -0.1277
  763MPD2    H711277   2.482   3.269  15.731 -1.8456 -1.4751 -0.0608
  764MPD2     C11278   0.436   4.607  16.851  0.5524 -0.5596 -0.0586
  764MPD2    C111279   0.323   4.528  16.832 -0.1621  0.4341  0.2052
  764MPD2    C211280   0.314   4.408  16.893 -0.2099 -0.0758  0.6901
  764MPD2    C311281   0.414   4.360  16.981 -0.1060 -0.4684 -0.0060
  764MPD2    C411282   0.526   4.441  16.991 -0.1676 -0.2148 -0.8057
  764MPD2    C511283   0.544   4.555  16.915 -0.8980 -0.4533  0.1249
  764MPD2     H11284   0.225   4.346  16.887  0.3303 -0.6646 -1.2974
  764MPD2    H111285   0.620   4.422  17.043  1.3960 -1.5850 -4.1132
  764MPD2    H211286   0.462   4.699  16.799 -0.5867 -0.3032 -0.1765
  764MPD2    H311287   0.643   4.600  16.919 -1.2839  0.1197  3.1457
  764MPD2     N11288   0.394   4.246  17.063 -0.0974 -0.2658 -0.9856
  764MPD2    H511289   0.306   4.195  17.062 -1.1065  1.4726 -0.2988
  764MPD2    N111290   0.218   4.565  16.740  0.9236  0.1980  0.0522
  764MPD2    H711291   0.147   4.496  16.717  2.1096 -0.9655 -0.1458
  765MPD2     C11292   0.048   2.371  15.475  0.3456 -0.1213 -0.7044
  765MPD2    C111293   0.159   2.451  15.506 -0.4689 -0.3790 -0.1858
  765MPD2    C211294   0.279   2.419  15.459  0.3905 -0.1658 -0.5837
  765MPD2    C311295   0.305   2.297  15.398 -0.1385  0.2415 -0.4292
  765MPD2    C411296   0.194   2.217  15.368 -0.0675 -0.3047  0.2681
  765MPD2    C511297   0.067   2.261  15.392 -0.4208  0.7530 -0.2975
  765MPD2     H11298   0.360   2.477  15.500  1.3500 -2.8195  1.2962
  765MPD2    H111299   0.202   2.121  15.318 -0.3454 -0.2294  0.0857
  765MPD2    H211300   4.678   2.412  15.501  0.5350 -0.2671  0.2181
  765MPD2    H311301   4.707   2.217  15.342  2.1761 -0.2227 -3.9088
  765MPD2     N11302   0.436   2.261  15.359 -0.2310  0.2329 -0.4271
  765MPD2    H511303   0.512   2.324  15.382 -0.3446  0.4178 -0.5575
  765MPD2    N111304   0.125   2.571  15.578 -0.3453  0.0556  1.0136
  765MPD2    H711305   0.027   2.576  15.605 -0.7624  1.6349 -0.7958
  766MPD2     C11306   4.342   2.908  15.328  0.5466  0.4458  0.0240
  766MPD2    C111307   4.471   2.866  15.316 -0.1969  0.1050  0.7424
  766MPD2    C211308   4.515   2.817  15.193 -0.3262 -0.0390  0.7820
  766MPD2    C311309   4.429   2.803  15.084  0.3408 -0.2644  0.3051
  766MPD2    C411310   4.300   2.849  15.095  0.0065  0.4145 -0.3438
  766MPD2    C511311   4.256   2.888  15.221 -0.0966  0.0480 -0.0034
  766MPD2     H11312   4.623   2.802  15.192 -0.5243 -1.4414  0.4905
  766MPD2    H111313   4.226   2.838  15.017 -0.3792  0.6119 -0.0021
  766MPD2    H211314   4.299   2.954  15.416 -2.7655 -2.2737 -0.1504
  766MPD2    H311315   4.153   2.921  15.230 -0.2561 -0.3211 -0.5039
  766MPD2     N11316   4.471   2.747  14.965  0.5971 -1.0819 -0.6049
  766MPD2    H511317   4.412   2.748  14.883  1.1580  1.4023 -0.9719
  766MPD2    N111318   4.565   2.865  15.423 -0.1915 -0.0923 -0.4629
  766MPD2    H711319   4.661   2.836  15.410  0.0458  0.0036  1.0699
  767MPD2     C11320   4.100   3.122  14.926  0.0621 -0.0775 -0.1529
  767MPD2    C111321   4.225   3.090  14.874  0.2567  0.5529  0.4103
  767MPD2    C211322   4.233   3.014  14.759 -0.7554 -0.5912  0.0544
  767MPD2    C311323   4.115   2.981  14.693  0.2909  0.0941  0.1410
  767MPD2    C411324   3.994   3.028  14.744  0.1329  0.3789 -0.4229
  767MPD2    C511325   3.991   3.094  14.863  0.1960  0.5842 -0.0803
  767MPD2     H11326   4.332   2.991  14.721 -0.3751  2.6791 -0.9172
  767MPD2    H111327   3.903   3.024  14.686 -1.0480 -1.0489  1.5353
  767MPD2    H211328   4.087   3.156  15.028  0.0601 -2.1749  0.5430
  767MPD2    H311329   3.895   3.129  14.900 -0.4647 -0.4264 -0.8496
  767MPD2     N11330   4.133   2.910  14.571 -0.3062 -0.3135 -0.3507
  767MPD2    H511331   4.227   2.875  14.556 -0.0622  0.5053 -0.6989
  767MPD2    N111332   4.342   3.132  14.944 -0.0857 -0.4329  0.2085
  767MPD2    H711333   4.324   3.187  15.028 -0.0077  0.4142 -0.3326
  768MPD2     C11334   4.700   0.891  10.844  0.4563  0.4308  0.2262
  768MPD2    C111335   4.675   1.001  10.905 -0.2869 -0.1657  0.8803
  768MPD2    C211336   0.006   1.021  11.032 -0.1590  0.7674  0.3925
  768MPD2    C311337   0.090   0.928  11.093  0.0544 -0.4454  0.2666
  768MPD2    C411338   0.120   0.818  11.016 -0.0428 -0.0641  0.1228
  768MPD2    C511339   0.067   0.806  10.891 -0.2814 -0.8015 -0.8289
  768MPD2     H11340   4.719   1.115  11.086  0.2954  0.9289  0.2260
  768MPD2    H111341   0.202   0.752  11.043  0.2197  0.2127 -0.0052
  768MPD2    H211342   4.674   0.885  10.739 -0.8866  0.9443  0.5216
  768MPD2    H311343   0.098   0.721  10.831  0.4617 -0.7458 -0.5244
  768MPD2     N11344   0.146   0.948  11.223  0.1761 -0.3097 -0.0687
  768MPD2    H511345   0.226   0.895  11.254 -0.0864 -0.9801 -0.5417
  768MPD2    N111346   4.601   1.107  10.859  0.0971 -0.5751 -0.2016
  768MPD2    H711347   4.599   1.178  10.931  1.8777  1.1373 -1.8040
  769MPD2     C11348   1.324   4.012  14.671  0.4879 -0.3039 -0.3890
  769MPD2    C111349   1.324   3.908  14.764  0.2218 -0.3660  0.4774
  769MPD2    C211350   1.409   3.917  14.874  0.1314 -0.8108  0.2848
  769MPD2    C311351   1.486   4.027  14.904 -0.1661 -0.4300  0.0918
  769MPD2    C411352   1.497   4.127  14.806 -0.2427 -0.8612 -0.3246
  769MPD2    C511353   1.412   4.119  14.696 -0.3294 -0.0653  0.3799
  769MPD2     H11354   1.410   3.836  14.946 -1.3664 -0.5337  0.6233
  769MPD2    H111355   1.559   4.215  14.820  1.8432 -2.0177 -2.3962
  769MPD2    H211356   1.261   4.015  14.583  0.6169  0.4047 -0.4592
  769MPD2    H311357   1.418   4.194  14.617  0.2387 -0.3706  0.1329
  769MPD2     N11358   1.541   4.033  15.030  0.0524 -0.6668 -0.0931
  769MPD2    H511359   1.526   3.961  15.100  0.9060 -0.4279  0.3422
  769MPD2    N111360   1.256   3.791  14.731 -0.0661 -0.1232  0.0140
  769MPD2    H711361   1.199   3.794  14.647  0.9104  2.2092 -0.5549
  770MPD2     C11362   0.993   2.729  14.899  0.8169  0.4089  0.6488
  770MPD2    C111363   0.914   2.781  14.803  0.0971  0.4480 -0.0711
  770MPD2    C211364   0.920   2.913  14.758 -0.3871  0.5522  0.7946
  770MPD2    C311365   1.014   2.995  14.813 -0.0182  0.8507  0.0397
  770MPD2    C411366   1.091   2.942  14.912  0.7866  0.0197 -0.9019
  770MPD2    C511367   1.084   2.810  14.955 -0.4208 -0.2289  0.7335
  770MPD2     H11368   0.861   2.956  14.677  2.3919  1.8478 -0.5427
  770MPD2    H111369   1.164   3.003  14.964  0.2183 -0.6095  0.6204
  770MPD2    H211370   0.976   2.626  14.927  0.9292  0.3798  0.6118
  770MPD2    H311371   1.146   2.765  15.032  1.4092  0.9304 -0.0621
  770MPD2     N11372   1.026   3.134  14.770  0.0054 -0.7261 -0.2204
  770MPD2    H511373   0.969   3.168  14.694  1.0951  0.2185 -0.6222
  770MPD2    N111374   0.818   2.691  14.738  0.0014 -0.1926 -0.1417
  770MPD2    H711375   0.807   2.594  14.764  0.0151 -0.2038 -0.1779
  771MPD2     C11376   2.195   1.740  13.415 -0.4794  0.9259  0.7988
  771MPD2    C111377   2.123   1.849  13.378 -0.2170  0.5653  0.1408
  771MPD2    C211378   2.020   1.839  13.288 -0.2007 -0.7753  0.3857
  771MPD2    C311379   1.977   1.709  13.247  0.5022  0.2761  0.1806
  771MPD2    C411380   2.052   1.603  13.290 -0.2325  0.5055  0.1221
  771MPD2    C511381   2.159   1.616  13.372 -0.2647  0.0691  0.0140
  771MPD2     H11382   1.968   1.929  13.258  1.4945  0.6368  1.6687
  771MPD2    H111383   2.034   1.501  13.258 -2.4718  0.6773  0.8649
  771MPD2    H211384   2.286   1.744  13.475  2.0941 -0.9145 -3.0137
  771MPD2    H311385   2.225   1.537  13.404 -0.3742 -0.4992 -1.1513
  771MPD2     N11386   1.855   1.698  13.169  0.1515 -0.4002  0.3055
  771MPD2    H511387   1.811   1.782  13.134 -1.6080 -1.2455  0.5279
  771MPD2    N111388   2.155   1.978  13.423 -0.3007  0.1512  0.6491
  771MPD2    H711389   2.073   2.037  13.411 -1.2509 -1.3397 -0.1797
  772MPD2     C11390   1.806   2.563  13.680  0.0335 -0.7583 -0.0198
  772MPD2    C111391   1.821   2.464  13.577  0.3167 -0.1128  0.1092
  772MPD2    C211392   1.722   2.442  13.482  0.1322  0.1344  0.4379
  772MPD2    C311393   1.604   2.512  13.490 -0.0807  0.2313  0.4939
  772MPD2    C411394   1.584   2.603  13.590  0.1703  0.3216  0.2693
  772MPD2    C511395   1.687   2.633  13.673 -0.3924 -0.0806 -0.0625
  772MPD2     H11396   1.737   2.371  13.401  0.3664  1.9560 -1.1056
  772MPD2    H111397   1.490   2.657  13.594 -0.0945 -0.1713  0.8596
  772MPD2    H211398   1.883   2.586  13.752  0.4777 -1.7246 -0.1777
  772MPD2    H311399   1.665   2.720  13.735  1.3187  0.9104 -0.8230
  772MPD2     N11400   1.490   2.487  13.410  0.2982 -0.3528  0.7580
  772MPD2    H511401   1.411   2.549  13.403  1.4467  1.0703  0.4519
  772MPD2    N111402   1.952   2.391  13.562 -0.0019 -0.2928 -0.3234
  772MPD2    H711403   1.967   2.323  13.488 -0.5385  0.4007 -1.0502
  773MPD2     C11404   0.800   3.407  17.415  0.2167  0.3724  0.1290
  773MPD2    C111405   0.757   3.295  17.338  0.5047 -0.3408 -0.3513
  773MPD2    C211406   0.773   3.170  17.402  0.1808 -0.2186  0.1657
  773MPD2    C311407   0.828   3.165  17.532 -0.6567  1.1829 -0.9930
  773MPD2    C411408   0.877   3.271  17.603 -0.3603 -0.1838  0.2600
  773MPD2    C511409   0.859   3.393  17.542 -0.1337 -0.1786  0.3196
  773MPD2     H11410   0.745   3.076  17.357  1.6021 -0.8976  0.6867
  773MPD2    H111411   0.902   3.269   0.003  1.3888  2.6772 -0.1025
  773MPD2    H211412   0.800   3.510  17.381 -0.0710  0.0306 -0.8977
  773MPD2    H311413   0.897   3.482  17.592  0.3124  0.1402 -0.5914
  773MPD2     N11414   0.837   3.032  17.593 -0.4441  0.0044  0.4552
  773MPD2    H511415   0.829   2.951  17.533 -0.1957 -0.2169  0.7213
  773MPD2    N111416   0.700   3.300  17.205  0.4413 -0.4456  0.0407
  773MPD2    H711417   0.661   3.214  17.167 -0.0519  0.4516 -1.4453
  774MPD2     C11418   0.426   2.482  13.549  0.8310 -0.1832 -0.5367
  774MPD2    C111419   0.310   2.543  13.505  0.2165  0.3996  0.9373
  774MPD2    C211420   0.253   2.652  13.561  0.6411  0.1032  0.4108
  774MPD2    C311421   0.312   2.725  13.660 -0.5943 -0.0403  0.0390
  774MPD2    C411422   0.426   2.665  13.713  0.3872 -0.5899  0.3076
  774MPD2    C511423   0.481   2.553  13.654 -0.0409  0.4033  0.4813
  774MPD2     H11424   0.166   2.693  13.512 -0.4559 -0.8236  1.5927
  774MPD2    H111425   0.481   2.708  13.797  0.7280  1.2228 -0.8414
  774MPD2    H211426   0.470   2.393  13.504 -1.2210 -0.6837 -1.5692
  774MPD2    H311427   0.579   2.525  13.692 -0.9409 -0.8986  1.8223
  774MPD2     N11428   0.260   2.847  13.703 -0.2590  0.2931 -0.3102
  774MPD2    H511429   0.192   2.892  13.642 -0.2740  0.6599 -0.0231
  774MPD2    N111430   0.253   2.467  13.394 -0.4389 -0.2560  0.0849
  774MPD2    H711431   0.314   2.392  13.363 -0.6587 -0.3359 -0.1536
  775MPD2     C11432   1.765   3.840  15.612  0.2242 -0.0555  0.6654
  775MPD2    C111433   1.764   3.951  15.687  0.6185 -0.1842 -0.2698
  775MPD2    C211434   1.868   4.046  15.672  0.0935 -0.4611  0.0260
  775MPD2    C311435   1.971   4.025  15.579  0.0549 -0.2332 -0.5592
  775MPD2    C411436   1.962   3.921  15.490  0.6290 -0.1750  0.1725
  775MPD2    C511437   1.865   3.827  15.519 -0.3361 -0.4024 -1.1467
  775MPD2     H11438   1.868   4.128  15.742  0.6884  1.4728 -2.2479
  775MPD2    H111439   2.034   3.899  15.412 -0.5820  0.1766 -1.0580
  775MPD2    H211440   1.692   3.760  15.609  1.3142 -1.0597  1.1046
  775MPD2    H311441   1.866   3.743  15.451 -0.6742 -1.0977 -0.2966
  775MPD2     N11442   2.066   4.128  15.563  0.7115 -0.1477  0.5293
  775MPD2    H511443   2.109   4.132  15.471 -0.8329  0.1947 -0.1972
  775MPD2    N111444   1.652   3.973  15.773  0.1750  0.4424  0.7220
  775MPD2    H711445   1.576   3.907  15.784  2.1306 -2.1519 -1.2541
  776MPD2     C11446   0.256   4.393  11.623  0.8950  0.0762 -0.0126
  776MPD2    C111447   0.313   4.323  11.520 -0.5177 -0.0421 -0.1336
  776MPD2    C211448   0.306   4.372  11.391 -0.0314 -0.3050 -0.4767
  776MPD2    C311449   0.229   4.484  11.362 -0.7485  0.0685 -0.5439
  776MPD2    C411450   0.161   4.547  11.462 -0.4275  0.3893 -0.2668
  776MPD2    C511451   0.180   4.507  11.595  0.1135 -0.3838  0.5693
  776MPD2     H11452   0.363   4.317  11.316 -0.2518  0.1636 -0.9952
  776MPD2    H111453   0.102   4.638  11.451  0.3765  1.0306  0.6966
  776MPD2    H211454   0.251   4.361  11.727 -3.8040  0.7730 -0.0285
  776MPD2    H311455   0.135   4.561  11.678  1.2531  0.7503  0.4550
  776MPD2     N11456   0.237   4.520  11.223 -0.3585  0.5605  0.4930
  776MPD2    H511457   0.291   4.453  11.169  0.4794 -0.8513  3.0584
  776MPD2    N111458   0.373   4.199  11.550  0.0667 -0.2574 -0.5027
  776MPD2    H711459   0.374   4.182  11.650  2.3488 -1.3858 -0.7163
  777MPD2     C11460   1.739   1.985   0.910  0.7090  0.0517 -0.5748
  777MPD2    C111461   1.645   1.959   1.007 -0.4737 -0.6966  0.0579
  777MPD2    C211462   1.552   1.857   0.983  0.5716  0.1983  0.7763
  777MPD2    C311463   1.541   1.797   0.858  0.0992 -0.4624 -0.6329
  777MPD2    C411464   1.628   1.833   0.761  0.8435  0.0731  0.0297
  777MPD2    C511465   1.729   1.923   0.788  0.3107  0.4499 -0.5777
  777MPD2     H11466   1.479   1.831   1.059  0.2861  0.3520  0.5562
  777MPD2    H111467   1.618   1.789   0.663  0.9302  1.1872 -0.4744
  777MPD2    H211468   1.827   2.046   0.927 -0.0446  0.5103  1.6860
  777MPD2    H311469   1.799   1.957   0.713 -0.0548  1.1180 -0.6240
  777MPD2     N11470   1.442   1.695   0.852 -0.3164 -0.1529 -0.0536
  777MPD2    H511471   1.400   1.661   0.938  1.2778  2.0062  1.5432
  777MPD2    N111472   1.659   2.026   1.130 -0.1996  0.2900 -0.3273
  777MPD2    H711473   1.751   2.066   1.142  0.2846 -0.5371 -1.2323
  778MPD2     C11474   2.070   1.756  15.047 -0.2958  0.1469  0.0786
  778MPD2    C111475   2.006   1.726  14.930  0.5932  0.0857 -0.7649
  778MPD2    C211476   2.047   1.793  14.812  0.4130  0.7677 -0.3801
  778MPD2    C311477   2.147   1.884  14.812  0.1695  0.8069  0.3090
  778MPD2    C411478   2.190   1.927  14.939 -0.5696 -0.5413 -0.0059
  778MPD2    C511479   2.163   1.858  15.050 -0.4220  1.2173  0.3471
  778MPD2     H11480   1.995   1.767  14.720 -0.7574  1.0510  0.2001
  778MPD2    H111481   2.258   2.011  14.946 -1.9909  0.4764  1.3688
  778MPD2    H211482   2.052   1.704  15.140  0.0408  0.6972  0.4450
  778MPD2    H311483   2.191   1.887  15.151 -0.2987  0.3327  0.5706
  778MPD2     N11484   2.180   1.970  14.707  0.1289  0.2257  0.5943
  778MPD2    H511485   2.242   2.047  14.733  1.1987  0.2000 -1.8898
  778MPD2    N111486   1.889   1.645  14.928 -0.2862 -0.3230 -1.1550
  778MPD2    H711487   1.834   1.636  14.843 -2.8822  0.7444  0.3828
  779MPD2     C11488   1.929   0.954  13.608 -0.0425  0.6895 -0.2044
  779MPD2    C111489   1.960   0.957  13.742 -0.6260 -0.0210  0.4338
  779MPD2    C211490   2.001   1.071  13.794 -0.7142 -0.4420 -0.7121
  779MPD2    C311491   2.019   1.183  13.722 -0.2322  0.1788 -0.5654
  779MPD2    C411492   2.004   1.180  13.588 -0.2289  0.5237  0.3795
  779MPD2    C511493   1.955   1.063  13.529  0.0644  0.2715  0.5285
  779MPD2     H11494   2.010   1.073  13.902  0.5873 -1.0645 -0.8123
  779MPD2    H111495   2.020   1.262  13.520  4.3582  1.4546  2.5635
  779MPD2    H211496   1.890   0.864  13.562  0.0653 -0.3661  1.7914
  779MPD2    H311497   1.931   1.064  13.423 -2.6336  1.6671  1.1542
  779MPD2     N11498   2.039   1.298  13.797 -0.3567 -0.5362 -0.0968
  779MPD2    H511499   2.048   1.282  13.896  0.6748 -2.1418 -0.4462
  779MPD2    N111500   1.943   0.846  13.828  0.3908  0.0188 -0.2928
  779MPD2    H711501   1.985   0.865  13.918 -0.7870 -2.9563  0.8723
  780MPD2     C11502   1.690   0.537   1.282 -0.4872 -0.2193 -0.5288
  780MPD2    C111503   1.778   0.463   1.207 -0.2102 -0.2743  0.0083
  780MPD2    C211504   1.788   0.489   1.072 -0.0114  0.4105 -0.3873
  780MPD2    C311505   1.705   0.578   1.002  0.4957 -0.2604  0.0621
  780MPD2    C411506   1.624   0.661   1.083 -0.0312  0.0180  0.5763
  780MPD2    C511507   1.612   0.635   1.216 -0.8717 -0.4584 -0.2762
  780MPD2     H11508   1.848   0.426   1.007 -1.0623  0.0342 -0.9842
  780MPD2    H111509   1.565   0.743   1.046  0.8004  1.2738  2.0468
  780MPD2    H211510   1.662   0.518   1.385  0.6493  1.5459  0.1069
  780MPD2    H311511   1.539   0.696   1.269  0.6788  0.1766  1.1695
  780MPD2     N11512   1.719   0.604   0.858 -0.0680  0.3652 -0.5682
  780MPD2    H511513   1.783   0.550   0.801 -0.3064 -1.1007  0.5554
  780MPD2    N111514   1.853   0.371   1.279  0.5967  0.0850  0.1851
  780MPD2    H711515   1.857   0.389   1.379 -0.1362 -3.5612  0.8537
  781MPD2     C11516   3.405   3.179  11.815 -0.0105 -0.3399 -0.2373
  781MPD2    C111517   3.370   3.050  11.778 -0.6143  0.1743 -0.6147
  781MPD2    C211518   3.389   3.003  11.650  0.2264  0.2274  0.8411
  781MPD2    C311519   3.465   3.082  11.560  0.2624  0.3668 -0.4173
  781MPD2    C411520   3.498   3.207  11.602  0.7643 -0.5888  0.5235
  781MPD2    C511521   3.469   3.258  11.724 -0.7136 -0.4385  1.4078
  781MPD2     H11522   3.347   2.908  11.620  0.0337  1.2050 -1.9754
  781MPD2    H111523   3.554   3.267  11.531 -0.3136 -2.9199 -2.3177
  781MPD2    H211524   3.389   3.216  11.916  0.8125  0.2102 -0.3100
  781MPD2    H311525   3.493   3.360  11.753  0.5205  0.1692 -1.7435
  781MPD2     N11526   3.508   3.044  11.430  0.3919  0.1811  0.1254
  781MPD2    H511527   3.562   3.120  11.390 -1.6833  1.0211 -1.1039
  781MPD2    N111528   3.304   2.975  11.881 -0.3341  0.2437  0.0034
  781MPD2    H711529   3.297   3.026  11.969 -1.7326 -0.2366  0.1561
  782MPD2     C11530   1.137   3.618  10.140  0.4865  0.9624 -0.3372
  782MPD2    C111531   1.253   3.572  10.195  0.4311  0.2272 -0.5873
  782MPD2    C211532   1.310   3.634  10.310  0.4638  0.5198  0.3608
  782MPD2    C311533   1.238   3.738  10.373  0.3186 -0.5038 -0.5946
  782MPD2    C411534   1.123   3.788  10.305 -0.1308  0.2489  0.5035
  782MPD2    C511535   1.071   3.730  10.190 -0.1499  1.1432 -0.0860
  782MPD2     H11536   1.398   3.589  10.355  0.4721 -0.7752 -0.9358
  782MPD2    H111537   1.077   3.883  10.328 -2.2785 -0.4604 -0.9234
  782MPD2    H211538   1.100   3.562  10.055 -2.3012 -0.8734  2.1019
  782MPD2    H311539   0.977   3.749  10.139 -0.6391 -0.3649  0.2460
  782MPD2     N11540   1.285   3.788  10.495 -0.2098 -0.4196 -0.4210
  782MPD2    H511541   1.381   3.758  10.505 -0.2113 -1.2383 -2.6892
  782MPD2    N111542   1.310   3.459  10.133 -0.5045 -0.4597  0.2573
  782MPD2    H711543   1.246   3.410  10.072 -0.3310  0.0875 -0.3569
  783MPD2     C11544   0.810   2.819  10.258 -0.6423 -0.0335 -0.9347
  783MPD2    C111545   0.854   2.913  10.343  0.4339  0.0673  0.3262
  783MPD2    C211546   0.982   2.961  10.334  0.0262  0.5186  0.4385
  783MPD2    C311547   1.073   2.918  10.232  0.2179  0.5757  0.5490
  783MPD2    C411548   1.032   2.811  10.149 -0.9535 -0.3852 -0.8361
  783MPD2    C511549   0.899   2.763  10.173 -0.0881 -0.2856 -0.7851
  783MPD2     H11550   1.007   3.036  10.408  0.5976  1.0413 -0.2786
  783MPD2    H111551   1.098   2.759  10.080 -1.4233 -1.3823 -0.5344
  783MPD2    H211552   0.706   2.791  10.258 -0.2327 -1.4897  2.9353
  783MPD2    H311553   0.860   2.678  10.118 -2.1477  0.2167 -0.0750
  783MPD2     N11554   1.195   2.991  10.212 -0.0651 -0.0267  0.0681
  783MPD2    H511555   1.223   3.062  10.278 -2.2790 -0.5964  1.5940
  783MPD2    N111556   0.757   2.955  10.438 -0.0424  0.7338  0.1238
  783MPD2    H711557   0.668   2.907  10.426  0.5473 -1.1757  3.3334
  784MPD2     C11558   3.185   3.637  17.692  0.0829  0.2779 -0.1460
  784MPD2    C111559   3.186   3.771   0.006 -0.0166 -0.1353 -0.3127
  784MPD2    C211560   3.072   3.838   0.018 -0.1814 -0.3680 -0.9272
  784MPD2    C311561   2.948   3.781  17.699 -0.0448 -1.5376 -0.0187
  784MPD2    C411562   2.944   3.646  17.667  0.1818 -0.0608 -0.5497
  784MPD2    C511563   3.066   3.579  17.656  0.1216  0.0248 -0.0925
  784MPD2     H11564   3.090   3.940   0.049 -0.2833 -0.9863  1.1720
  784MPD2    H111565   2.848   3.599  17.650  1.2655 -1.9807 -1.3485
  784MPD2    H211566   3.274   3.574  17.684 -2.0548 -2.7600  0.0099
  784MPD2    H311567   3.075   3.475  17.625  1.5611  0.5293 -1.3508
  784MPD2     N11568   2.832   3.862   0.019  0.2412 -0.1117  0.3224
  784MPD2    H511569   2.842   3.962   0.035  0.2622 -0.3458  1.7529
  784MPD2    N111570   3.309   3.841   0.041  0.6722  0.4741 -0.0428
  784MPD2    H711571   3.296   3.925   0.097 -1.0622 -0.5620  1.0693
  785MPD2     C11572   3.939   2.116  10.709  0.4318  0.0173  0.2311
  785MPD2    C111573   3.916   2.248  10.737  1.1853 -0.1904 -0.2990
  785MPD2    C211574   3.778   2.292  10.722 -0.6589 -0.3166 -0.0260
  785MPD2    C311575   3.671   2.219  10.672  0.3403 -0.0498  0.0676
  785MPD2    C411576   3.706   2.083  10.649 -0.4619  0.4824 -0.1616
  785MPD2    C511577   3.833   2.042  10.666 -0.1668 -0.4012 -0.3986
  785MPD2     H11578   3.769   2.397  10.750 -0.9664 -0.8531  1.8959
  785MPD2    H111579   3.636   2.003  10.629 -0.9103  1.2547 -1.7299
  785MPD2    H211580   4.036   2.069  10.710  0.2350 -0.3922 -1.0013
  785MPD2    H311581   3.864   1.945  10.630  2.6199  0.0916  0.6457
  785MPD2     N11582   3.549   2.275  10.648  0.5006  0.2866  0.0625
  785MPD2    H511583   3.543   2.371  10.679  1.0236 -0.5392  2.7223
  785MPD2    N111584   4.020   2.342  10.771  0.2303 -0.2756 -0.2251
  785MPD2    H711585   3.986   2.437  10.786 -1.8699 -0.8252 -1.5288
  786MPD2     C11586   2.109   0.157  14.359  0.2438 -0.0743 -0.3086
  786MPD2    C111587   2.237   0.101  14.344 -0.1099 -0.8965  0.0913
  786MPD2    C211588   2.318   0.104  14.458 -0.3452  0.1126 -0.3145
  786MPD2    C311589   2.278   0.152  14.584 -0.3272  0.3904 -0.3611
  786MPD2    C411590   2.146   0.194  14.596  0.2502 -0.3958  0.6426
  786MPD2    C511591   2.070   0.205  14.477 -0.0110 -0.7296  0.5555
  786MPD2     H11592   2.417   0.061  14.445 -1.0609 -1.8667  0.7964
  786MPD2    H111593   2.106   0.228  14.691 -1.6017 -0.3247 -0.1638
  786MPD2    H211594   2.044   0.180  14.275  1.5827  0.9154 -1.0642
  786MPD2    H311595   1.968   0.242  14.483  0.3708 -0.0879  3.1725
  786MPD2     N11596   2.358   0.129  14.699 -0.4762  0.0970  0.4749
  786MPD2    H511597   2.311   0.155  14.785 -0.2336  0.5845  0.4558
  786MPD2    N111598   2.288   0.054  14.219 -0.9345 -1.0318 -0.1851
  786MPD2    H711599   2.385   0.026  14.211 -1.0592 -2.1166  1.9964
  787MPD2     C11600   2.642   4.517  14.449 -0.5770 -0.5883  0.3321
  787MPD2    C111601   2.654   4.447  14.328  0.6772 -0.0508 -0.0304
  787MPD2    C211602   2.745   4.341  14.316  0.0941 -0.1151 -0.2733
  787MPD2    C311603   2.834   4.314  14.424  0.5659  0.8504  0.1766
  787MPD2    C411604   2.818   4.383  14.548 -0.2702  0.1079  0.2091
  787MPD2    C511605   2.720   4.480  14.557  0.0194  0.1622  0.5470
  787MPD2     H11606   2.752   4.274  14.231 -2.4530 -0.0596 -0.5428
  787MPD2    H111607   2.881   4.360  14.633  0.5746  0.8060 -0.2306
  787MPD2    H211608   2.568   4.596  14.460  1.2362  1.1940 -0.3329
  787MPD2    H311609   2.701   4.522  14.654 -0.5432 -0.7126  0.8171
  787MPD2     N11610   2.935   4.217  14.399  0.4217 -0.0969  0.1435
  787MPD2    H511611   2.958   4.189  14.304  0.9175 -0.1231  0.2719
  787MPD2    N111612   2.571   4.488  14.216 -0.3997 -0.1486  0.6710
  787MPD2    H711613   2.535   4.582  14.225  1.2386  0.4573  0.8902
  788MPD2     C11614   4.108   1.912   1.109  0.6279  0.7341  0.6272
  788MPD2    C111615   4.109   1.920   0.974  0.2590  0.1041 -0.8046
  788MPD2    C211616   4.187   2.025   0.911 -0.7258  0.1807 -0.1596
  788MPD2    C311617   4.271   2.103   0.989 -0.5061 -0.5892  0.2446
  788MPD2    C411618   4.270   2.092   1.123 -0.5260  0.1492  0.5198
  788MPD2    C511619   4.194   1.996   1.185 -0.0245  0.1151  0.0791
  788MPD2     H11620   4.188   2.029   0.802  1.0229  3.0448 -0.0274
  788MPD2    H111621   4.338   2.152   1.182 -1.9733  2.0604  0.2458
  788MPD2    H211622   4.052   1.837   1.165 -0.7128  0.5190 -1.0308
  788MPD2    H311623   4.197   1.985   1.293 -2.7169  2.0317  0.3501
  788MPD2     N11624   4.357   2.198   0.941  0.1260  0.1800  0.5202
  788MPD2    H511625   4.411   2.238   1.017 -1.7197  3.2887  0.1647
  788MPD2    N111626   4.045   1.831   0.881  0.4649 -0.1089  0.6187
  788MPD2    H711627   4.047   1.848   0.781  4.1158 -0.2913  0.6863
  789MPD2     C11628   0.271   2.707  15.935 -0.8366 -0.1285  0.0870
  789MPD2    C111629   0.154   2.626  15.932 -0.5654 -0.2339  0.1865
  789MPD2    C211630   0.028   2.678  15.973  0.1569 -0.0231 -0.5547
  789MPD2    C311631   0.019   2.803  16.021  0.4533  0.2092  0.5359
  789MPD2    C411632   0.134   2.886  16.020 -0.2198 -0.8581 -0.8771
  789MPD2    C511633   0.252   2.840  15.961  0.2941  0.3890 -0.2929
  789MPD2     H11634   4.667   2.613  15.965  1.6565 -2.3115  1.7627
  789MPD2    H111635   0.144   2.979  16.075 -0.9065 -0.3128 -1.6740
  789MPD2    H211636   0.375   2.685  15.916 -0.7063  1.0924 -0.5739
  789MPD2    H311637   0.337   2.907  15.969 -0.0533  1.0326 -1.9271
  789MPD2     N11638   4.625   2.860  16.070 -0.2986 -0.2500  0.0863
  789MPD2    H511639   4.623   2.959  16.094  0.3418 -0.2460  0.1313
  789MPD2    N111640   0.160   2.487  15.896 -0.2278 -0.3328  0.1016
  789MPD2    H711641   0.076   2.430  15.890 -0.9020  0.8174 -1.8346
  790MPD2     C11642   1.060   4.717  13.301  0.7567 -0.3217 -0.8443
  790MPD2    C111643   1.081   4.583  13.298 -0.6368 -0.2989  0.1154
  790MPD2    C211644   1.043   4.510  13.188  0.3195 -0.5150  1.5385
  790MPD2    C311645   0.983   4.575  13.081  0.4534  0.0290  0.0918
  790MPD2    C411646   0.964   4.710  13.085  0.4378 -0.5537 -0.1152
  790MPD2    C511647   0.994   0.052  13.197 -0.2233 -0.1327 -0.5864
  790MPD2     H11648   1.068   4.405  13.174 -0.4140 -0.2947 -1.4528
  790MPD2    H111649   0.929   0.043  13.001  0.8977 -1.3340 -0.8528
  790MPD2    H211650   1.090   0.044  13.391 -1.6185 -0.4677  0.0444
  790MPD2    H311651   0.980   0.160  13.193 -0.9061 -0.2861 -2.4663
  790MPD2     N11652   0.943   4.510  12.966  0.1377 -0.0894  0.0111
  790MPD2    H511653   0.904   4.563  12.888  1.5412  2.0527  0.7863
  790MPD2    N111654   1.119   4.529  13.416 -0.8530 -0.3354  0.3182
  790MPD2    H711655   1.141   4.597  13.488 -0.8232 -0.5341  0.4943
  791MPD2     C11656   0.324   4.467  12.515 -0.1699  0.3623 -0.3224
  791MPD2    C111657   0.359   4.348  12.574  0.2156 -0.0799  0.4098
  791MPD2    C211658   0.262   4.245  12.580 -0.0851 -0.4283 -0.2531
  791MPD2    C311659   0.140   4.259  12.523  0.4686  0.6620 -0.2302
  791MPD2    C411660   0.112   4.381  12.457 -0.2167  0.2230 -0.1151
  791MPD2    C511661   0.201   4.483  12.451 -0.1042 -0.1383 -0.1624
  791MPD2     H11662   0.286   4.151  12.629  0.5557 -0.6015 -0.8958
  791MPD2    H111663   0.021   4.405  12.404  0.6094  1.5775 -0.9062
  791MPD2    H211664   0.391   4.550  12.495  0.2843  0.3754  1.2962
  791MPD2    H311665   0.178   4.572  12.395 -0.0083 -0.3045 -0.4667
  791MPD2     N11666   0.049   4.151  12.528 -0.1136  0.6859 -0.8934
  791MPD2    H511667   0.079   4.079  12.593 -1.0959  0.9703 -0.1248
  791MPD2    N111668   0.489   4.340  12.622 -0.7373 -0.2254 -0.1014
  791MPD2    H711669   0.542   4.427  12.612  0.8532 -1.3118 -1.0790
  792MPD2     C11670   1.175   4.102  11.084 -0.9053 -0.3658 -1.1549
  792MPD2    C111671   1.136   4.145  10.960  0.0610 -0.1747  0.4100
  792MPD2    C211672   1.005   4.110  10.917 -0.4329  0.0164  0.3117
  792MPD2    C311673   0.928   4.022  10.983 -0.4449 -0.1413  0.5041
  792MPD2    C411674   0.974   3.973  11.106  0.4738 -0.1359  0.4674
  792MPD2    C511675   1.094   4.017  11.154  0.3168  0.1785  0.0051
  792MPD2     H11676   0.952   4.159  10.837 -1.7238 -4.0054 -1.3035
  792MPD2    H111677   0.911   3.911  11.169  0.1902 -1.6603 -1.3354
  792MPD2    H211678   1.269   4.136  11.125 -2.2079 -2.4286  3.5952
  792MPD2    H311679   1.130   3.978  11.249 -0.9090  1.7756  1.1217
  792MPD2     N11680   0.797   3.982  10.939 -0.1837 -0.0865  0.1352
  792MPD2    H511681   0.735   3.938  11.007 -0.5075  1.0030  0.5446
  792MPD2    N111682   1.209   4.240  10.895  0.2119 -0.7003  0.3192
  792MPD2    H711683   1.291   4.277  10.942 -0.8586  0.6082  1.1652
  793MPD2     C11684   0.288   4.224  10.169 -0.0553  0.3090 -0.0320
  793MPD2    C111685   0.417   4.180  10.188  0.0826  0.3906 -0.2318
  793MPD2    C211686   0.438   4.121  10.310  0.2103 -0.6291  0.4889
  793MPD2    C311687   0.348   4.124  10.416  1.0265  0.2659  0.1802
  793MPD2    C411688   0.226   4.184  10.397  0.4016  0.0193  0.0104
  793MPD2    C511689   0.193   4.222  10.270 -0.1501 -0.2299  0.0651
  793MPD2     H11690   0.541   4.090  10.327  0.1940 -1.0785 -0.2406
  793MPD2    H111691   0.147   4.196  10.470 -2.0223  1.6565 -2.8915
  793MPD2    H211692   0.259   4.258  10.070 -0.7624  1.5731  0.5965
  793MPD2    H311693   0.092   4.259  10.251  0.5866  1.6330 -0.2317
  793MPD2     N11694   0.391   4.095  10.539 -0.2006  0.3033  0.6545
  793MPD2    H511695   0.490   4.072  10.550 -0.6795 -1.9528  0.3979
  793MPD2    N111696   0.518   4.170  10.091 -0.3699  0.8081 -0.7934
  793MPD2    H711697   0.610   4.139  10.122 -1.2172 -1.8533 -0.9234
  794MPD2     C11698   0.562   3.738  16.476 -1.1536  0.1801  0.1726
  794MPD2    C111699   0.449   3.682  16.508  0.2426  0.5691 -0.1011
  794MPD2    C211700   0.353   3.675  16.413 -0.1068 -0.0531 -0.4625
  794MPD2    C311701   0.367   3.749  16.291  0.3847 -0.1157  0.1266
  794MPD2    C411702   0.487   3.811  16.261 -0.3387 -0.2373  0.3868
  794MPD2    C511703   0.582   3.799  16.359 -0.4012  1.1406 -0.3203
  794MPD2     H11704   0.262   3.620  16.432 -0.3552 -0.5285 -3.0268
  794MPD2    H111705   0.500   3.855  16.163  1.2579 -1.7926 -0.1043
  794MPD2    H211706   0.641   3.756  16.549  0.1386 -0.1052 -1.1716
  794MPD2    H311707   0.675   3.852  16.344 -0.7983  2.1448  0.7713
  794MPD2     N11708   0.263   3.760  16.192 -0.2524 -0.4100 -0.6214
  794MPD2    H511709   0.291   3.795  16.101 -0.6667 -0.0721 -0.6152
  794MPD2    N111710   0.435   3.606  16.632 -0.4136 -0.0004  0.3125
  794MPD2    H711711   0.349   3.552  16.641 -1.1064  0.9745 -0.5656
  795MPD2     C11712   3.256   1.105  13.243 -0.5624  0.1820 -0.3755
  795MPD2    C111713   3.163   1.053  13.329  0.9878 -0.3670 -0.0302
  795MPD2    C211714   3.194   0.952  13.422  0.8651  0.4817  0.2458
  795MPD2    C311715   3.321   0.884  13.416  0.9032 -0.2708 -0.5695
  795MPD2    C411716   3.412   0.932  13.321 -0.2321 -0.3168 -0.1070
  795MPD2    C511717   3.385   1.045  13.249  0.1898 -0.0172 -0.5023
  795MPD2     H11718   3.113   0.919  13.485  1.8836 -1.0504  0.7480
  795MPD2    H111719   3.503   0.878  13.299  0.6973  0.6391  1.3408
  795MPD2    H211720   3.245   1.174  13.160 -0.0658  1.3135  0.4898
  795MPD2    H311721   3.459   1.069  13.173  0.8333 -0.3492  0.0169
  795MPD2     N11722   3.353   0.769  13.504 -0.4542  0.2130 -0.2877
  795MPD2    H511723   3.278   0.722  13.554 -1.3681  3.9455  1.7978
  795MPD2    N111724   3.024   1.094  13.314  0.0995  1.3563  0.3097
  795MPD2    H711725   2.955   1.040  13.366 -1.4861  2.0167 -1.1094
  796MPD2     C11726   3.054   2.736  15.342 -0.6039  0.2296  0.0070
  796MPD2    C111727   3.092   2.786  15.464 -0.4511  0.5141 -0.2447
  796MPD2    C211728   3.037   2.904  15.514 -0.1920 -0.0498  0.0729
  796MPD2    C311729   2.953   2.981  15.430 -0.2259 -0.3300 -0.2224
  796MPD2    C411730   2.913   2.927  15.306 -1.2677  0.0124 -0.7555
  796MPD2    C511731   2.967   2.810  15.263  0.0745  0.5055  0.6378
  796MPD2     H11732   3.047   2.942  15.615 -0.0338 -2.4239  0.9503
  796MPD2    H111733   2.850   2.984  15.238 -0.6696  1.0165 -0.4586
  796MPD2    H211734   3.084   2.642  15.297 -0.1832  0.0150  0.7330
  796MPD2    H311735   2.932   2.776  15.166 -1.4794  2.5986  0.4626
  796MPD2     N11736   2.912   3.108  15.477 -0.1217 -0.5931 -0.3346
  796MPD2    H511737   2.964   3.135  15.560  0.3289 -2.1333 -0.1250
  796MPD2    N111738   3.161   2.691  15.549  0.4789 -0.8968 -0.7601
  796MPD2    H711739   3.174   2.594  15.522  2.4314 -0.6906 -0.6059
  797MPD2     C11740   4.487   2.087  16.595  0.1768  0.7586 -0.4371
  797MPD2    C111741   4.493   2.188  16.694  0.3456 -0.0154  0.3123
  797MPD2    C211742   4.386   2.276  16.713 -0.0433 -0.8551 -0.7259
  797MPD2    C311743   4.273   2.268  16.636 -0.4318  0.2554  0.4316
  797MPD2    C411744   4.267   2.174  16.537  0.9466  0.0623 -0.5918
  797MPD2    C511745   4.375   2.082  16.516  0.4507  0.1787  0.8208
  797MPD2     H11746   4.382   2.350  16.792  0.8277  0.1589 -1.6351
  797MPD2    H111747   4.189   2.165  16.462  1.0236  3.8253 -1.0954
  797MPD2    H211748   4.573   2.022  16.588  0.6016  1.3232 -0.4202
  797MPD2    H311749   4.361   2.009  16.437 -0.9115  0.9279  0.3789
  797MPD2     N11750   4.174   2.360  16.657  0.3492 -0.4576  0.3650
  797MPD2    H511751   4.188   2.437  16.722 -1.6823 -0.0309  0.3011
  797MPD2    N111752   4.596   2.184  16.799  0.0801 -0.9793 -0.9436
  797MPD2    H711753   4.584   2.248  16.877 -1.8107 -2.0580 -0.3502
  798MPD2     C11754   4.135   2.499  17.299  0.1510 -0.0360  0.0953
  798MPD2    C111755   4.186   2.505  17.172  0.0273 -0.0076  0.0895
  798MPD2    C211756   4.318   2.471  17.155  0.5899  0.3329 -0.0031
  798MPD2    C311757   4.395   2.431  17.264 -0.3916 -0.2449  0.4336
  798MPD2    C411758   4.340   2.426  17.396 -0.5816 -0.1761  0.5787
  798MPD2    C511759   4.209   2.470  17.407  0.4573  0.3024 -0.7608
  798MPD2     H11760   4.366   2.471  17.058  0.1341 -0.9301 -0.2198
  798MPD2    H111761   4.406   2.409  17.481 -1.4255  1.6869  1.5992
  798MPD2    H211762   4.039   2.550  17.312 -0.4085 -0.9270 -0.5426
  798MPD2    H311763   4.168   2.480  17.507 -2.0321  1.2835 -1.8790
  798MPD2     N11764   4.526   2.374  17.251 -0.4096 -0.4242  0.0367
  798MPD2    H511765   4.561   2.323  17.332  1.2870  0.4046 -0.1877
  798MPD2    N111766   4.115   2.532  17.048 -0.3565  0.4150  0.1698
  798MPD2    H711767   4.159   2.515  16.958 -0.5713  1.7438 -0.1943
  799MPD2     C11768   2.781   3.828  14.369 -0.5525  0.2809 -0.0450
  799MPD2    C111769   2.658   3.771  14.410 -0.2158 -0.1936  0.2691
  799MPD2    C211770   2.540   3.850  14.388 -0.5555 -0.6475  0.5561
  799MPD2    C311771   2.545   3.964  14.303  0.1729 -0.4236  0.4830
  799MPD2    C411772   2.668   4.014  14.269 -0.1394 -0.1229 -0.9997
  799MPD2    C511773   2.786   3.951  14.307  0.6057  0.6523  0.3013
  799MPD2     H11774   2.442   3.827  14.427 -0.8741 -0.7838 -0.3480
  799MPD2    H111775   2.677   4.098  14.201  0.4778  0.1889 -0.5293
  799MPD2    H211776   2.879   3.794  14.401  0.8538  0.7115 -3.8617
  799MPD2    H311777   2.886   3.988  14.289  1.9987 -2.9493  0.5507
  799MPD2     N11778   2.428   4.011  14.233 -1.1053  0.0048  0.4122
  799MPD2    H511779   2.457   4.073  14.158  2.6901 -2.5458 -0.2722
  799MPD2    N111780   2.652   3.654  14.482 -0.1539  0.3942 -0.2799
  799MPD2    H711781   2.560   3.614  14.499 -1.3941  3.4888  0.2582
  800MPD2     C11782   2.487   0.181  13.819 -0.0392  0.3214  0.5105
  800MPD2    C111783   2.612   0.151  13.864  0.3452  0.4721 -0.1850
  800MPD2    C211784   2.663   0.032  13.833 -0.8051 -0.0413  0.0938
  800MPD2    C311785   2.603   4.668  13.748 -0.2296 -0.2020 -0.3137
  800MPD2    C411786   2.487   4.706  13.693 -0.2318  0.0176  0.3298
  800MPD2    C511787   2.426   0.097  13.732  0.3087 -0.4441 -0.0423
  800MPD2     H11788   2.758   4.725  13.874 -0.1264 -0.6468 -1.9332
  800MPD2    H111789   2.424   4.646  13.628 -1.0181 -0.1565  1.2454
  800MPD2    H211790   2.434   0.270  13.850 -0.1458  0.6329 -0.5770
  800MPD2    H311791   2.320   0.110  13.713  0.3598 -1.5203 -1.0901
  800MPD2     N11792   2.674   4.550  13.713 -0.4435 -0.7313  0.0319
  800MPD2    H511793   2.759   4.540  13.767 -1.0218  2.9248  1.6214
  800MPD2    N111794   2.694   0.251  13.920  0.4852  0.1873  0.5697
  800MPD2    H711795   2.650   0.342  13.930 -0.1324  0.1363 -1.6814
  801MPD2     C11796   2.775   1.006  14.146  0.2778  0.2711 -0.2640
  801MPD2    C111797   2.860   0.928  14.217 -0.5169 -0.1370 -0.5662
  801MPD2    C211798   2.926   0.979  14.324  0.3881 -0.4070  0.8429
  801MPD2    C311799   2.926   1.117  14.349  0.4445  0.0115  0.0557
  801MPD2    C411800   2.835   1.193  14.281  0.2627 -0.5758  0.3930
  801MPD2    C511801   2.764   1.140  14.177 -0.2888 -0.3155 -0.3361
  801MPD2     H11802   2.992   0.910  14.376 -0.5665 -1.4872  0.6096
  801MPD2    H111803   2.834   1.301  14.295 -0.8665 -0.5584  0.1746
  801MPD2    H211804   2.716   0.973  14.061  0.0523 -0.6243  0.2298
  801MPD2    H311805   2.687   1.198  14.128 -0.6216  0.5483  1.1934
  801MPD2     N11806   3.010   1.181  14.443  0.4910  0.2640 -0.2576
  801MPD2    H511807   3.021   1.278  14.415 -0.8936 -0.0854 -1.9834
  801MPD2    N111808   2.879   0.795  14.184 -0.1942  0.6106  0.2428
  801MPD2    H711809   2.951   0.748  14.237 -1.8907 -0.8915  1.2000
  802MPD2     C11810   1.884   0.806  16.880  0.0848  0.6493  0.5652
  802MPD2    C111811   1.913   0.763  17.009 -0.2915  0.6558 -0.4215
  802MPD2    C211812   1.995   0.655  17.020 -0.1157  0.0152  0.0461
  802MPD2    C311813   2.042   0.594  16.903 -0.0701  0.2732  0.2097
  802MPD2    C411814   2.014   0.636  16.774  0.3464  0.5796 -0.6625
  802MPD2    C511815   1.926   0.740  16.768 -0.4878 -0.6864 -0.2104
  802MPD2     H11816   2.024   0.615  17.116 -3.0912 -0.1077  0.8731
  802MPD2    H111817   2.049   0.597  16.679  0.6772  1.6641 -0.9873
  802MPD2    H211818   1.823   0.893  16.856  1.3784  1.2398 -0.5797
  802MPD2    H311819   1.893   0.770  16.669 -1.2132 -0.1299  0.2023
  802MPD2     N11820   2.135   0.495  16.918  0.2642  0.0324  0.0348
  802MPD2    H511821   2.167   0.493  17.014 -1.0808 -0.4166  0.4711
  802MPD2    N111822   1.874   0.839  17.126  0.4877  0.1061 -0.2018
  802MPD2    H711823   1.932   0.825  17.208  1.4776 -0.7570 -1.0340
  803MPD2     C11824   3.676   4.585  11.612  0.3332 -0.1615 -0.2080
  803MPD2    C111825   3.754   4.544  11.714 -0.1076  0.1208 -0.8377
  803MPD2    C211826   3.728   4.427  11.778  0.2557 -0.0526 -0.8543
  803MPD2    C311827   3.622   4.345  11.738 -0.0320  0.2985  0.3521
  803MPD2    C411828   3.535   4.400  11.647 -0.7448 -0.2388 -0.1265
  803MPD2    C511829   3.564   4.517  11.586  0.1876 -0.1435  0.2537
  803MPD2     H11830   3.782   4.403  11.869 -0.3431  1.8778  0.0166
  803MPD2    H111831   3.442   4.349  11.625 -0.2021 -0.5152 -1.7399
  803MPD2    H211832   3.683   4.678  11.557  3.1015  0.3311  0.9578
  803MPD2    H311833   3.490   4.552  11.514 -0.0229  2.6293  1.8542
  803MPD2     N11834   3.580   4.224  11.795 -0.1613  0.4866  0.4677
  803MPD2    H511835   3.484   4.193  11.786 -0.1667  0.8511 -0.7023
  803MPD2    N111836   3.863   4.615  11.758 -0.3911 -0.4632  0.1303
  803MPD2    H711837   3.928   4.573  11.823 -1.0818 -0.7729  0.6200
  804MPD2     C11838   3.308   1.018  16.672 -0.5245 -0.7241 -0.2828
  804MPD2    C111839   3.257   1.015  16.798 -0.1952  0.5458  0.3379
  804MPD2    C211840   3.295   1.107  16.894 -0.9585  0.3436 -0.4905
  804MPD2    C311841   3.378   1.216  16.855  0.5173 -1.0993 -0.2374
  804MPD2    C411842   3.423   1.229  16.725 -0.1561 -0.1755 -0.2348
  804MPD2    C511843   3.392   1.128  16.641  0.0321  0.3153  0.2815
  804MPD2     H11844   3.256   1.099  16.995  0.1141 -0.9772 -0.1820
  804MPD2    H111845   3.501   1.301  16.702 -1.1668  1.7360  2.3797
  804MPD2    H211846   3.290   0.946  16.593 -0.2525 -0.8446 -0.2342
  804MPD2    H311847   3.434   1.135  16.541  1.4130 -4.2820  0.5241
  804MPD2     N11848   3.431   1.314  16.936  0.5255  0.2353 -0.6837
  804MPD2    H511849   3.490   1.382  16.890  1.3183 -0.3542 -0.5530
  804MPD2    N111850   3.171   0.907  16.841  0.7933 -0.4308 -0.3981
  804MPD2    H711851   3.143   0.904  16.938  1.7041  0.2431 -0.1152
  805MPD2     C11852   2.350   3.869  15.187  0.2498 -0.6661 -0.2730
  805MPD2    C111853   2.409   3.989  15.152 -0.2307  0.4617 -0.0470
  805MPD2    C211854   2.520   4.033  15.217  0.2196  1.4772  0.8912
  805MPD2    C311855   2.583   3.955  15.307  0.3860 -0.1034 -0.7480
  805MPD2    C411856   2.531   3.828  15.327 -0.7662 -0.6004 -0.1508
  805MPD2    C511857   2.408   3.789  15.284 -0.9578  0.3859  0.6758
  805MPD2     H11858   2.555   4.134  15.200  1.2302  0.9008 -0.5050
  805MPD2    H111859   2.579   3.751  15.386  0.9532  0.3297 -0.3313
  805MPD2    H211860   2.263   3.818  15.147  0.8439 -1.4540 -0.5703
  805MPD2    H311861   2.372   3.689  15.306 -0.0596  0.0755  0.7320
  805MPD2     N11862   2.691   4.014  15.374  0.1490 -0.2373 -0.3042
  805MPD2    H511863   2.716   4.106  15.341 -1.7389  0.1829 -0.5412
  805MPD2    N111864   2.364   4.071  15.037  0.3551  0.6597  0.8480
  805MPD2    H711865   2.413   4.157  15.011 -2.2834  2.1624  0.8514
  806MPD2     C11866   3.500   3.131  17.630 -0.0202  0.5426  0.4900
  806MPD2    C111867   3.521   3.255  17.694 -0.0290  0.1259  0.5557
  806MPD2    C211868   3.472   3.361  17.630  1.0904 -0.4286 -0.8696
  806MPD2    C311869   3.400   3.363  17.510 -0.1752 -0.2679 -0.2099
  806MPD2    C411870   3.375   3.241  17.457  0.2102 -0.2353 -0.1873
  806MPD2    C511871   3.427   3.126  17.512  0.3596  0.1063 -0.3551
  806MPD2     H11872   3.484   3.456  17.681 -1.4468 -0.4681 -0.2154
  806MPD2    H111873   3.323   3.237  17.362 -0.5475  2.5667  0.1122
  806MPD2    H211874   3.523   3.039  17.682  1.5070 -0.6294 -2.2204
  806MPD2    H311875   3.406   3.031  17.466  2.7984 -0.4746 -0.2770
  806MPD2     N11876   3.351   3.482  17.462  0.1766  0.1229 -0.1768
  806MPD2    H511877   3.395   3.564  17.502 -0.0570  0.4680 -0.6231
  806MPD2    N111878   3.592   3.260   0.111 -0.1548 -0.1306 -0.3740
  806MPD2    H711879   3.641   3.176   0.142  2.2038  1.4647  0.1983
  807MPD2     C11880   3.518   3.721   0.838 -0.4599 -0.3510 -0.2260
  807MPD2    C111881   3.552   3.584   0.861  0.2424  0.1042 -0.3700
  807MPD2    C211882   3.515   3.530   0.980 -0.0588  0.0118  0.3603
  807MPD2    C311883   3.459   3.608   1.083  0.2504 -0.7627  0.7323
  807MPD2    C411884   3.420   3.737   1.054  0.3800 -0.2324  0.2519
  807MPD2    C511885   3.447   3.789   0.930  0.1868 -0.2249 -0.4832
  807MPD2     H11886   3.544   3.428   1.003  0.9127  0.7876  2.6077
  807MPD2    H111887   3.351   3.785   1.122 -0.9498 -2.7313  0.6803
  807MPD2    H211888   3.538   3.771   0.745 -1.8530  1.0856  0.2364
  807MPD2    H311889   3.424   3.891   0.903 -0.6041 -0.2867 -0.0504
  807MPD2     N11890   3.442   3.550   1.208 -0.3491  0.1530 -0.1604
  807MPD2    H511891   3.494   3.464   1.222 -0.2872  0.1062 -0.6816
  807MPD2    N111892   3.603   3.499   0.756  0.0385  0.1419  0.2074
  807MPD2    H711893   3.612   3.399   0.773 -1.2440 -0.0222 -0.0818
  808MPD2     C11894   3.087   0.331  10.020 -0.3619  0.1209  0.4692
  808MPD2    C111895   3.177   0.327   9.914  0.7472  0.2212  0.0689
  808MPD2    C211896   3.264   0.433   9.891 -0.3535  0.3195 -0.1717
  808MPD2    C311897   3.256   0.548   9.960  0.3232  0.0625  0.0945
  808MPD2    C411898   3.166   0.552  10.069  0.2601 -0.2765  0.7807
  808MPD2    C511899   3.075   0.448  10.087 -1.0142 -0.0336  0.1823
  808MPD2     H11900   3.335   0.433   9.809 -2.0351 -0.6628 -1.6159
  808MPD2    H111901   3.145   0.643  10.124 -0.3481  1.9485 -3.1137
  808MPD2    H211902   3.024   0.244  10.035  0.9929 -0.9326  0.0018
  808MPD2    H311903   3.005   0.465  10.168 -3.1028 -0.9085 -1.4336
  808MPD2     N11904   3.339   0.665   9.950 -0.4326 -0.2521  0.5614
  808MPD2    H511905   3.320   0.743  10.012 -1.5700  1.1242 -1.5351
  808MPD2    N111906   3.193   0.212   9.837  0.0950 -0.0473  0.4908
  808MPD2    H711907   3.272   0.217   9.772 -0.7954  0.7688 -0.5296
  809MPD2     C11908   4.210   1.237   9.567 -0.1416 -0.0751 -0.5280
  809MPD2    C111909   4.171   1.118   9.510 -0.2780 -0.8499  0.1739
  809MPD2    C211910   4.058   1.050   9.561  0.4995  0.1855 -0.5171
  809MPD2    C311911   3.984   1.112   9.663  0.1622  0.1151  0.0716
  809MPD2    C411912   4.023   1.233   9.715 -0.2064 -0.0655  0.1441
  809MPD2    C511913   4.137   1.293   9.670 -0.8215  0.1302  0.2402
  809MPD2     H11914   4.033   0.951   9.525 -1.1231  1.3279 -2.5276
  809MPD2    H111915   3.967   1.291   9.787  1.7866  1.6022  0.3626
  809MPD2    H211916   4.300   1.292   9.543 -0.7517  0.8589 -0.6597
  809MPD2    H311917   4.187   1.372   9.724  0.4046 -1.0155  0.7829
  809MPD2     N11918   3.858   1.070   9.714 -0.6538 -0.3943 -0.2238
  809MPD2    H511919   3.817   1.135   9.779 -1.7924  1.0533 -2.4104
  809MPD2    N111920   4.255   1.058   9.418 -0.4609  1.0541 -0.1954
  809MPD2    H711921   4.226   0.965   9.390 -0.3722  0.6001  1.2313
  810MPD2     C11922   3.204   4.490  10.097  0.3956 -0.0378 -0.3617
  810MPD2    C111923   3.132   4.392  10.162 -0.3778 -0.0853  0.2260
  810MPD2    C211924   3.112   4.421  10.301  0.3495  0.4245  0.2290
  810MPD2    C311925   3.148   4.538  10.356  0.3988 -0.0748 -0.4000
  810MPD2    C411926   3.210   4.632  10.283  0.3270  0.0912  0.1724
  810MPD2    C511927   3.231   4.608  10.150  0.8706  0.3434  0.5553
  810MPD2     H11928   3.068   4.343  10.363  3.1269 -2.1783 -1.0530
  810MPD2    H111929   3.252   4.725  10.320 -2.8028  1.9564 -0.9661
  810MPD2    H211930   3.249   4.464  10.002 -0.6636 -0.0693 -0.8511
  810MPD2    H311931   3.275   4.684  10.087  0.1790  1.5826  1.5792
  810MPD2     N11932   3.114   4.585  10.483  0.1413 -0.4466  0.0020
  810MPD2    H511933   3.126   4.684  10.500 -1.0942 -0.5187  1.3475
  810MPD2    N111934   3.081   4.283  10.099 -0.4437  0.5084  0.0715
  810MPD2    H711935   3.096   4.280   9.999  1.7193  1.2014  0.3661
  811MPD2     C11936   2.485   4.113   9.513  0.3074  0.7824  0.1368
  811MPD2    C111937   2.533   4.197   9.609  0.4140 -0.5791 -0.0808
  811MPD2    C211938   2.519   4.338   9.604  0.2703 -0.0749  0.6611
  811MPD2    C311939   2.447   4.392   9.495 -0.4536 -0.2637 -0.2474
  811MPD2    C411940   2.392   4.300   9.401  0.1927 -0.2411  0.2105
  811MPD2    C511941   2.418   4.163   9.407  0.3921  0.0496  0.1301
  811MPD2     H11942   2.565   4.405   9.676  4.2337 -1.7791 -0.3052
  811MPD2    H111943   2.346   4.339   9.311  0.2809 -2.3282 -0.7496
  811MPD2    H211944   2.504   4.007   9.524 -1.5877  0.6329  1.9066
  811MPD2    H311945   2.365   4.102   9.335  2.9271 -1.7678 -0.1900
  811MPD2     N11946   2.431   4.539   9.493  0.8830  0.3605 -0.5392
  811MPD2    H511947   2.469   4.585   9.576 -1.1596  1.7635 -0.3790
  811MPD2    N111948   2.601   4.137   9.722  0.5890 -0.0131  0.3886
  811MPD2    H711949   2.601   4.036   9.727  2.4035 -0.1082 -1.5398
  812MPD2     C11950   0.756   3.947  11.864 -0.1544 -0.2900 -0.1994
  812MPD2    C111951   0.875   4.025  11.871  0.3177  0.0422  0.3794
  812MPD2    C211952   0.956   4.002  11.981 -0.0343 -0.3738 -0.3422
  812MPD2    C311953   0.916   3.926  12.093  0.8623  0.0917  0.1564
  812MPD2    C411954   0.798   3.855  12.088  0.7361 -0.1426 -0.5878
  812MPD2    C511955   0.728   3.854  11.964  0.0013  0.4287 -0.2196
  812MPD2     H11956   1.054   4.048  11.989 -0.0664 -0.3755  0.0828
  812MPD2    H111957   0.757   3.789  12.164 -0.0101  2.5521  1.3882
  812MPD2    H211958   0.690   3.941  11.778 -0.4091 -2.5560  0.1386
  812MPD2    H311959   0.641   3.791  11.963 -0.0403  0.5000 -0.7095
  812MPD2     N11960   1.002   3.933  12.207 -0.1756 -0.7522 -0.1696
  812MPD2    H511961   1.094   3.976  12.198 -0.2136 -0.5507  0.4037
  812MPD2    N111962   0.903   4.122  11.768  0.2532 -0.0130 -0.4781
  812MPD2    H711963   0.989   4.174  11.784 -0.2899  1.1692 -1.4744
  813MPD2     C11964   0.288   1.495  12.679  0.2625  0.5140  0.5141
  813MPD2    C111965   0.403   1.422  12.691 -0.0173 -0.2113 -0.2820
  813MPD2    C211966   0.414   1.316  12.781  0.6605 -0.5170 -0.2776
  813MPD2    C311967   0.305   1.276  12.866 -1.2148  0.2773 -1.0687
  813MPD2    C411968   0.187   1.352  12.852  0.0329 -0.3378  0.1810
  813MPD2    C511969   0.186   1.461  12.766 -0.3627 -0.7600  0.5404
  813MPD2     H11970   0.505   1.258  12.790  1.7641  1.3740  0.8180
  813MPD2    H111971   0.099   1.338  12.914  0.4826 -0.8434  0.7053
  813MPD2    H211972   0.276   1.586  12.622  2.1650  1.0089  0.8901
  813MPD2    H311973   0.102   1.529  12.762 -0.4318 -0.9079 -0.5181
  813MPD2     N11974   0.316   1.162  12.946  0.0116  0.4695 -0.2722
  813MPD2    H511975   0.404   1.110  12.942  0.5721  1.2606  1.6327
  813MPD2    N111976   0.509   1.467  12.612  1.0625 -0.1025 -0.3015
  813MPD2    H711977   0.480   1.547  12.557  0.2146 -1.3551 -1.6608
  814MPD2     C11978   1.148   2.438  12.053 -0.1046 -0.2355  1.0796
  814MPD2    C111979   1.192   2.498  11.938  1.3131  0.7908 -0.2652
  814MPD2    C211980   1.202   2.636  11.929 -0.1942  0.0617  0.9541
  814MPD2    C311981   1.180   2.720  12.036  0.1196  0.7105  0.7192
  814MPD2    C411982   1.129   2.659  12.154  0.8621  0.2485  0.0136
  814MPD2    C511983   1.111   2.519  12.159  0.9920 -0.2474  0.1474
  814MPD2     H11984   1.215   2.676  11.829 -2.1389 -0.4250  0.5038
  814MPD2    H111985   1.081   2.719  12.231 -0.6731  0.7308 -1.3336
  814MPD2    H211986   1.134   2.331  12.058 -0.1722 -0.3116 -0.7476
  814MPD2    H311987   1.061   2.481  12.247  0.3791 -2.4886 -1.1629
  814MPD2     N11988   1.211   2.854  12.040 -0.1917  0.2847 -0.5142
  814MPD2    H511989   1.177   2.907  12.120  1.2456  2.7195 -1.4948
  814MPD2    N111990   1.231   2.425  11.819 -0.0305  0.0933  0.6709
  814MPD2    H711991   1.266   2.486  11.746 -3.2102 -1.8941 -2.5205
  815MPD2     C11992   1.619   1.663  11.009  0.6163 -0.1392 -0.3279
  815MPD2    C111993   1.616   1.544  11.067  0.0562  0.6125 -0.2406
  815MPD2    C211994   1.532   1.529  11.178  0.6599 -0.1781 -0.3956
  815MPD2    C311995   1.472   1.641  11.238 -0.3475  0.5620  0.0374
  815MPD2    C411996   1.479   1.762  11.180  0.3067  0.2530  0.2170
  815MPD2    C511997   1.565   1.773  11.073  0.2802  0.3824  0.8207
  815MPD2     H11998   1.534   1.428  11.218 -1.4398 -0.2370 -0.4176
  815MPD2    H111999   1.426   1.848  11.221 -1.0140 -1.3385  1.8721
  815MPD2    H212000   1.667   1.674  10.912 -0.6568  1.0725 -0.8350
  815MPD2    H312001   1.583   1.871  11.031  0.5695  0.3098  0.7741
  815MPD2     N12002   1.396   1.618  11.349  0.0183 -0.4697 -1.0853
  815MPD2    H512003   1.369   1.522  11.370  0.6154  0.1548  2.6216
  815MPD2    N112004   1.700   1.438  11.009  0.3088 -0.0344 -0.4460
  815MPD2    H712005   1.751   1.450  10.922  0.1119  1.4361 -0.3513
  816MPD2     C12006   1.999   0.091  16.937  0.8349  0.0737 -0.3734
  816MPD2    C112007   1.954   0.161  16.831  0.0360 -0.2121  0.5367
  816MPD2    C212008   2.004   0.140  16.706  0.3192  0.0699  0.6574
  816MPD2    C312009   2.115   0.060  16.690 -0.3181 -0.3899  0.6623
  816MPD2    C412010   2.168   4.718  16.798 -0.2759 -0.0639 -0.4936
  816MPD2    C512011   2.104   0.002  16.917  0.4656 -0.5886 -0.9894
  816MPD2     H12012   1.959   0.188  16.620 -1.2510 -0.1454  1.3422
  816MPD2    H112013   2.254   4.654  16.788  0.8572  1.2126  1.1353
  816MPD2    H212014   1.957   0.096  17.037 -2.1922  1.4407 -1.7115
  816MPD2    H312015   2.152   4.682  17.003  0.6146 -0.8717 -1.2259
  816MPD2     N12016   2.173   0.056  16.565  0.2160 -0.3488  0.5374
  816MPD2    H512017   2.118   0.098  16.490 -1.1473  0.8722  2.2134
  816MPD2    N112018   1.848   0.259  16.859  0.4645  0.3113 -0.3912
  816MPD2    H712019   1.815   0.267  16.954  0.5750 -2.1575 -0.1550
  817MPD2     C12020   1.380   1.780   9.817  0.5761 -0.3219  0.3753
  817MPD2    C112021   1.432   1.800   9.694 -0.3247  0.6725  0.4499
  817MPD2    C212022   1.458   1.933   9.653 -0.1293 -0.5397 -0.2262
  817MPD2    C312023   1.421   2.041   9.727 -0.0950  0.2536 -0.1962
  817MPD2    C412024   1.341   2.014   9.840 -0.5129 -0.7212  0.6519
  817MPD2    C512025   1.326   1.886   9.877 -0.5367 -0.5420 -1.2157
  817MPD2     H12026   1.505   1.949   9.557  2.2223  0.6450  1.1351
  817MPD2    H112027   1.307   2.094   9.905 -1.1563  1.1179 -1.9745
  817MPD2    H212028   1.372   1.685   9.867 -3.7146  0.9905  2.1889
  817MPD2    H312029   1.262   1.855   9.959 -0.3046 -1.6629 -1.4551
  817MPD2     N12030   1.458   2.172   9.690 -0.1237  0.0963  0.0867
  817MPD2    H512031   1.523   2.179   9.612  0.3128  0.4001  0.4785
  817MPD2    N112032   1.475   1.695   9.620  0.5697  0.0557  0.5922
  817MPD2    H712033   1.499   1.724   9.526  1.2121  1.4553  1.1847
  818MPD2     C12034   0.193   1.918   9.899 -0.6570  0.3567 -0.3296
  818MPD2    C112035   0.117   1.831   9.979  0.0903  0.3970 -0.4756
  818MPD2    C212036   0.127   1.693   9.966  0.5731 -0.0943  0.1638
  818MPD2    C312037   0.206   1.642   9.868  0.0289  0.1001  0.0060
  818MPD2    C412038   0.273   1.717   9.780 -0.7887 -0.2125  0.1086
  818MPD2    C512039   0.266   1.855   9.798 -0.8969  0.2406  0.1097
  818MPD2     H12040   0.063   1.635  10.032  0.1239 -0.8262 -0.9225
  818MPD2    H112041   0.316   1.687   9.685 -1.0563  4.2009 -1.4243
  818MPD2    H212042   0.193   2.025   9.917  0.0858  0.4713 -0.9883
  818MPD2    H312043   0.331   1.910   9.732 -2.4707  1.2536 -0.5736
  818MPD2     N12044   0.217   1.499   9.857  0.5465 -0.1329  1.0834
  818MPD2    H512045   0.277   1.462   9.785 -2.0596 -0.2377 -1.0457
  818MPD2    N112046   0.034   1.881  10.082 -0.5503 -0.0424  0.0017
  818MPD2    H712047   4.705   1.812  10.131 -2.1122 -0.0942 -1.7899
  819MPD2     C12048   3.188   3.734  15.366 -0.0022 -0.7243 -0.3647
  819MPD2    C112049   3.219   3.606  15.325 -0.1339 -0.2491 -0.4606
  819MPD2    C212050   3.340   3.545  15.363 -0.0474  0.0211 -0.7406
  819MPD2    C312051   3.430   3.609  15.441 -0.0287 -0.3524 -0.3306
  819MPD2    C412052   3.394   3.741  15.486 -0.3168 -0.2697 -0.2715
  819MPD2    C512053   3.275   3.798  15.452 -0.3192  0.2265  0.1382
  819MPD2     H12054   3.363   3.443  15.336 -2.5452 -0.8925  0.5166
  819MPD2    H112055   3.464   3.804  15.542 -0.5943 -1.2362  1.1714
  819MPD2    H212056   3.100   3.787  15.330 -0.1115 -1.5365 -1.2910
  819MPD2    H312057   3.259   3.903  15.475 -1.7003  0.5425 -2.2930
  819MPD2     N12058   3.554   3.549  15.471  0.3643 -0.2659 -0.5499
  819MPD2    H512059   3.609   3.584  15.550  0.5429  0.2449 -0.9018
  819MPD2    N112060   3.118   3.531  15.257 -0.4074 -0.3788  0.0540
  819MPD2    H712061   3.037   3.586  15.231 -1.3279 -0.1237  3.5091
  820MPD2     C12062   2.267   3.486  14.858 -0.1022 -0.7523  0.1797
  820MPD2    C112063   2.371   3.570  14.824 -0.0707  0.1209 -0.1918
  820MPD2    C212064   2.505   3.543  14.851  1.0509  0.2332  0.4412
  820MPD2    C312065   2.534   3.416  14.904  0.8118 -0.1847 -0.7636
  820MPD2    C412066   2.428   3.328  14.937  0.0465  0.1552 -0.6135
  820MPD2    C512067   2.302   3.370  14.926 -0.1694 -0.5166  0.6518
  820MPD2     H12068   2.580   3.620  14.838  2.8874 -1.9471 -2.0239
  820MPD2    H112069   2.442   3.225  14.969 -0.2895  0.8287  1.6595
  820MPD2    H212070   2.165   3.524  14.855  0.8566  1.9088  1.7659
  820MPD2    H312071   2.220   3.301  14.944 -1.4385  0.9023  0.3188
  820MPD2     N12072   2.664   3.381  14.937 -0.3168 -0.2656 -0.3005
  820MPD2    H512073   2.673   3.288  14.976  1.2725  0.3792  0.8528
  820MPD2    N112074   2.315   3.690  14.771  0.2548  0.2673 -0.6355
  820MPD2    H712075   2.216   3.702  14.755 -0.0487 -1.5947 -0.1269
  821MPD2     C12076   3.030   4.674  12.989  0.5419  0.2765 -0.2122
  821MPD2    C112077   3.115   4.675  13.098  0.3767 -0.1859  0.3412
  821MPD2    C212078   3.244   4.725  13.089 -0.0010 -0.1174  0.1237
  821MPD2    C312079   3.278   0.051  12.966 -0.3389 -0.6933  0.1678
  821MPD2    C412080   3.196   0.055  12.862 -1.0894 -1.2100 -0.4140
  821MPD2    C512081   3.074   4.720  12.868  0.4622  0.2954  0.2836
  821MPD2     H12082   3.314   4.719  13.172 -0.9477 -0.9225  0.8548
  821MPD2    H112083   3.219   0.100  12.767 -1.3101 -2.0535 -0.8631
  821MPD2    H212084   2.931   4.631  12.990 -0.4000  2.4961  2.1416
  821MPD2    H312085   3.009   4.722  12.781  2.2062  3.1981 -0.9673
  821MPD2     N12086   3.402   0.117  12.948 -0.1999  0.4883  0.0399
  821MPD2    H512087   3.397   0.165  12.858 -1.7603 -1.8384 -1.1017
  821MPD2    N112088   3.076   4.622  13.220  0.7154  0.2337  0.3445
  821MPD2    H712089   3.149   4.620  13.291 -0.3135  1.3255  1.4129
  822MPD2     C12090   3.710   0.069  15.534  0.8899 -0.3802  0.1609
  822MPD2    C112091   3.803   0.147  15.597  1.0324 -0.2930 -0.2892
  822MPD2    C212092   3.780   0.277  15.646 -0.5346  0.4853  0.3190
  822MPD2    C312093   3.649   0.320  15.623  0.8355 -0.1665 -0.3722
  822MPD2    C412094   3.550   0.241  15.569  0.4012  0.9544 -0.4576
  822MPD2    C512095   3.580   0.117  15.520 -0.6097 -0.2345  0.1960
  822MPD2     H12096   3.855   0.332  15.702 -0.5910  0.0318  0.8445
  822MPD2    H112097   3.452   0.283  15.552  1.0881  2.8805  0.3982
  822MPD2    H212098   3.737   4.704  15.482 -0.3405 -0.2218 -0.7710
  822MPD2    H312099   3.508   0.065  15.459  0.0531  0.1185 -0.8895
  822MPD2     N12100   3.603   0.443  15.682  0.0874  0.3433  0.1855
  822MPD2    H512101   3.502   0.454  15.691  0.1415  0.0999  1.1693
  822MPD2    N112102   3.937   0.115  15.609 -0.3024  0.0493 -0.5014
  822MPD2    H712103   3.983   0.162  15.686  2.0045 -2.6572 -0.2274
  823MPD2     C12104   3.426   0.709  16.466  0.4252  0.4376  0.2175
  823MPD2    C112105   3.402   0.628  16.352  0.6222  0.0879  0.0699
  823MPD2    C212106   3.396   0.498  16.382 -0.5123  0.1853  0.5095
  823MPD2    C312107   3.404   0.439  16.510 -0.4794 -0.0011 -0.0198
  823MPD2    C412108   3.409   0.532  16.619  0.1476  0.1647  0.2946
  823MPD2    C512109   3.424   0.667  16.595 -0.3748  0.4927 -0.6042
  823MPD2     H12110   3.389   0.431  16.297  0.6300 -0.1452  0.6743
  823MPD2    H112111   3.411   0.504  16.723 -1.3938 -1.5531 -0.1245
  823MPD2    H212112   3.460   0.811  16.456 -1.0470  0.8987  0.0139
  823MPD2    H312113   3.443   0.730  16.682  0.1170  0.1812 -0.4864
  823MPD2     N12114   3.413   0.294  16.540 -0.4454  0.7898 -0.1925
  823MPD2    H512115   3.426   0.263  16.636  0.0475  1.7787  0.0590
  823MPD2    N112116   3.417   0.677  16.219 -0.2843  0.0239  0.3799
  823MPD2    H712117   3.438   0.775  16.204  1.0570 -0.3329 -0.1209
  824MPD2     C12118   4.304   3.986  15.770 -0.9288  0.5390 -0.2567
  824MPD2    C112119   4.323   4.093  15.686  0.2477  0.2378  0.2788
  824MPD2    C212120   4.420   4.080  15.588  0.2452 -0.3511 -0.6446
  824MPD2    C312121   4.479   3.959  15.558 -0.3022 -0.0289 -0.1342
  824MPD2    C412122   4.446   3.852  15.641 -0.9635  0.3973  0.5245
  824MPD2    C512123   4.359   3.866  15.749  0.1926 -1.2415 -0.6092
  824MPD2     H12124   4.443   4.169  15.530  1.7629 -0.7722 -0.6878
  824MPD2    H112125   4.489   3.753  15.629  2.1094  1.8417 -0.2345
  824MPD2    H212126   4.236   3.993  15.854 -2.0061  0.2491 -1.0945
  824MPD2    H312127   4.345   3.778  15.812 -0.2891  0.9040  2.3160
  824MPD2     N12128   4.576   3.953  15.462  0.7616  0.5089 -0.3087
  824MPD2    H512129   4.606   4.044  15.428 -0.0810  1.2572  0.9746
  824MPD2    N112130   4.243   4.205  15.714  0.6436 -0.4334 -0.7018
  824MPD2    H712131   4.208   4.204  15.809  1.0198  2.9050 -0.5240
  825MPD2     C12132   0.451   4.245  14.914 -0.0397  0.4061 -0.4125
  825MPD2    C112133   0.354   4.259  15.003  0.1183 -0.8395 -0.1892
  825MPD2    C212134   0.313   4.387  15.039  0.0083  0.6482 -0.1098
  825MPD2    C312135   0.365   4.497  14.979 -0.8379 -0.0455 -0.7195
  825MPD2    C412136   0.457   4.476  14.883  0.0509 -0.1384 -0.7897
  825MPD2    C512137   0.509   4.351  14.860 -0.1243 -0.0145 -0.3854
  825MPD2     H12138   0.234   4.389  15.114 -1.5298  0.6097 -1.7182
  825MPD2    H112139   0.513   4.557  14.836 -0.6062  1.3324  0.9583
  825MPD2    H212140   0.491   4.148  14.887 -1.6133  0.0438 -1.4363
  825MPD2    H312141   0.593   4.344  14.793  2.0325  3.1208  2.0221
  825MPD2     N12142   0.332   4.634  15.009 -0.0864 -0.9568  0.1042
  825MPD2    H512143   0.382   4.702  14.953 -0.1030 -0.5603  0.5758
  825MPD2    N112144   0.286   4.140  15.050  0.4483 -0.9518 -0.2352
  825MPD2    H712145   0.314   4.046  15.023  2.0343 -1.4043  2.9653
  826MPD2     C12146   4.107   4.205  13.486 -0.1322  0.2658 -0.0604
  826MPD2    C112147   4.219   4.274  13.442  0.3019 -0.2722  0.1161
  826MPD2    C212148   4.204   4.401  13.384 -0.1066 -1.0264 -0.3644
  826MPD2    C312149   4.084   4.469  13.385 -0.1948 -0.2782 -0.4923
  826MPD2    C412150   3.976   4.401  13.442 -0.3006 -0.2267 -0.1829
  826MPD2    C512151   3.988   4.273  13.486  0.8131 -0.0004 -0.4128
  826MPD2     H12152   4.289   4.453  13.340 -0.6715 -0.0015 -0.2268
  826MPD2    H112153   3.875   4.441  13.452 -0.1118  0.2049 -0.0035
  826MPD2    H212154   4.114   4.103  13.520  0.3859  0.7495  1.3005
  826MPD2    H312155   3.899   4.218  13.513 -1.3322  2.3888 -2.5858
  826MPD2     N12156   4.069   4.596  13.338  0.4443 -0.4155  0.0988
  826MPD2    H512157   3.975   4.632  13.353  0.9474  1.8107 -2.2478
  826MPD2    N112158   4.341   4.216  13.462 -0.7017 -0.0138  0.3495
  826MPD2    H712159   4.344   4.115  13.472 -0.9500 -0.0443  0.1242
  827MPD2     C12160   0.624   0.905   9.678  0.6370  0.0159  0.2585
  827MPD2    C112161   0.637   0.769   9.709  1.0865 -1.0820 -0.5061
  827MPD2    C212162   0.564   0.679   9.636  0.3342  0.7476  0.2661
  827MPD2    C312163   0.474   0.717   9.549 -0.5187 -0.1679  0.3986
  827MPD2    C412164   0.456   0.852   9.518  0.2558  0.2111  0.5503
  827MPD2    C512165   0.533   0.948   9.584  0.9263  0.8767  0.1036
  827MPD2     H12166   0.583   0.574   9.655 -0.3241  0.5460 -0.1943
  827MPD2    H112167   0.390   0.887   9.440  0.0380  1.7780  1.4416
  827MPD2    H212168   0.688   0.979   9.725  2.2314 -0.9341 -0.4196
  827MPD2    H312169   0.528   1.052   9.555 -2.0273  0.0659 -2.3390
  827MPD2     N12170   0.400   0.606   9.492  0.4539  0.4455  0.0499
  827MPD2    H512171   0.427   0.513   9.524 -0.2308  0.6854  1.3298
  827MPD2    N112172   0.736   0.730   9.808 -0.4953 -0.4594  0.1859
  827MPD2    H712173   0.784   0.811   9.847 -0.9418  0.2824 -0.7898
  828MPD2     C12174   3.709   0.219  12.602 -0.3734 -0.2405 -0.1722
  828MPD2    C112175   3.662   0.299  12.503  0.6117 -0.1351  0.3003
  828MPD2    C212176   3.743   0.355  12.413 -0.7861  0.7222 -0.3426
  828MPD2    C312177   3.879   0.338  12.416 -0.3885 -0.1619  0.1825
  828MPD2    C412178   3.927   0.255  12.518  0.1553 -0.6084  0.3323
  828MPD2    C512179   3.845   0.203  12.610 -0.3387 -0.2821 -0.1430
  828MPD2     H12180   3.701   0.420  12.336  2.4255  0.1864 -2.5666
  828MPD2    H112181   4.030   0.222  12.529 -0.3476 -2.4572 -0.4675
  828MPD2    H212182   3.642   0.179  12.677 -0.4128 -1.5588 -0.9072
  828MPD2    H312183   3.890   0.132  12.679 -1.1987 -2.1597 -1.5048
  828MPD2     N12184   3.966   0.390  12.321  0.0831 -0.4224 -0.7820
  828MPD2    H512185   4.063   0.361  12.332  0.7304  1.9370 -0.3885
  828MPD2    N112186   3.524   0.323  12.489 -0.2399 -0.2505  0.4545
  828MPD2    H712187   3.500   0.377  12.406  0.1806 -1.9982 -0.7930
  829MPD2     C12188   3.460   0.737  11.843 -0.1775 -0.4418 -0.2826
  829MPD2    C112189   3.330   0.766  11.880 -0.1952  0.4851  0.1080
  829MPD2    C212190   3.277   0.732  12.009  0.4541  0.3649  0.5625
  829MPD2    C312191   3.362   0.659  12.089  0.1775  0.6028  0.1966
  829MPD2    C412192   3.495   0.640  12.054 -0.4929 -0.1501 -0.1131
  829MPD2    C512193   3.545   0.676  11.935 -0.4204 -0.1079  0.3956
  829MPD2     H12194   3.173   0.752  12.034  0.3045  2.9940 -2.1542
  829MPD2    H112195   3.564   0.605  12.129  0.5286 -1.8155 -1.8168
  829MPD2    H212196   3.510   0.768  11.753  0.8425  1.2345  0.8679
  829MPD2    H312197   3.650   0.668  11.909 -0.4607 -1.2773  0.6176
  829MPD2     N12198   3.319   0.600  12.207 -0.6401 -0.4900 -0.4416
  829MPD2    H512199   3.389   0.536  12.242 -2.0260 -1.0378  1.3245
  829MPD2    N112200   3.258   0.825  11.775  0.5681 -0.5246 -0.7375
  829MPD2    H712201   3.301   0.838  11.683 -0.4666 -0.5664 -1.2295
  830MPD2     C12202   4.382   3.283  15.420  0.5480 -0.0676 -0.2322
  830MPD2    C112203   4.285   3.317  15.322 -0.1077 -0.2371  0.1417
  830MPD2    C212204   4.319   3.425  15.234 -0.4184  0.6169  0.0991
  830MPD2    C312205   4.441   3.483  15.236  0.3025 -0.5392  0.1047
  830MPD2    C412206   4.527   3.452  15.344 -0.4001  0.0769  0.2909
  830MPD2    C512207   4.497   3.352  15.429  0.1887  0.5767  0.0043
  830MPD2     H12208   4.243   3.452  15.161 -1.1906 -2.9700 -0.4319
  830MPD2    H112209   4.626   3.493  15.355 -1.4015  2.2710  1.1828
  830MPD2    H212210   4.353   3.211  15.495 -1.7340 -0.2503 -1.2690
  830MPD2    H312211   4.563   3.319  15.508 -0.9574  0.0778  0.7496
  830MPD2     N12212   4.481   3.585  15.143 -0.1575 -0.3460 -0.2647
  830MPD2    H512213   4.561   3.643  15.167 -0.1800 -0.0726 -0.8497
  830MPD2    N112214   4.164   3.253  15.339 -0.2419 -0.1684 -0.1812
  830MPD2    H712215   4.166   3.199  15.425  0.5014  0.2847  0.0836
  831MPD2     C12216   3.851   0.575  16.114 -0.1192 -0.0634  0.3095
  831MPD2    C112217   3.889   0.482  16.020  0.9429 -0.5700 -0.4968
  831MPD2    C212218   3.805   0.369  16.003 -0.0177  0.0916 -0.8555
  831MPD2    C312219   3.699   0.348  16.091 -0.1100  0.5969 -0.1103
  831MPD2    C412220   3.679   0.436  16.194 -0.2280  0.6116  0.4420
  831MPD2    C512221   3.751   0.548  16.205  0.7150 -0.0623  0.1965
  831MPD2     H12222   3.822   0.298  15.922  0.7378 -3.3564  2.3405
  831MPD2    H112223   3.596   0.422  16.262 -0.0520 -1.5641  0.2011
  831MPD2    H212224   3.924   0.652  16.136  1.4596 -1.2872 -0.7356
  831MPD2    H312225   3.741   0.613  16.292  0.4417  1.2136 -0.7824
  831MPD2     N12226   3.601   0.254  16.079  0.1057  0.8823 -0.6885
  831MPD2    H512227   3.516   0.276  16.130  1.2483  1.4146  0.9726
  831MPD2    N112228   4.007   0.506  15.938 -0.4325  0.7783 -0.2141
  831MPD2    H712229   4.048   0.599  15.939 -1.7471  1.3588  0.0858
  832MPD2     C12230   2.363   1.285  17.496  0.6161  0.0775 -0.1658
  832MPD2    C112231   2.394   1.402  17.433 -0.0259  0.2867 -0.5091
  832MPD2    C212232   2.351   1.420  17.301  0.4527  0.2568 -0.0006
  832MPD2    C312233   2.276   1.324  17.238 -0.8844 -0.0573 -0.4544
  832MPD2    C412234   2.260   1.202  17.298 -0.1083 -0.1228 -0.3073
  832MPD2    C512235   2.305   1.180  17.426 -0.0610  0.0110  0.4300
  832MPD2     H12236   2.376   1.513  17.250  5.2268 -0.0539  1.7960
  832MPD2    H112237   2.215   1.112  17.257  2.3337 -0.6887 -1.7641
  832MPD2    H212238   2.396   1.254  17.594 -0.8820  0.7338  0.5345
  832MPD2    H312239   2.294   1.082  17.470  0.8197 -0.6298 -0.7762
  832MPD2     N12240   2.222   1.346  17.105 -0.1766 -0.7327  0.5638
  832MPD2    H512241   2.177   1.267  17.061  1.6036 -0.5264 -1.6080
  832MPD2    N112242   2.477   1.490  17.505 -0.6009  0.9110  0.5706
  832MPD2    H712243   2.509   1.458  17.596 -0.3269 -2.1087 -0.5632
  833MPD2     C12244   4.610   3.243  12.588  0.2423  0.5892  0.2437
  833MPD2    C112245   4.635   3.292  12.465 -1.4106 -0.3060 -1.3313
  833MPD2    C212246   4.675   3.203  12.371  0.5147 -0.8518 -0.1768
  833MPD2    C312247   4.687   3.069  12.396  0.5073  0.2395 -0.1001
  833MPD2    C412248   4.666   3.024  12.523 -0.5114  0.1366  0.4623
  833MPD2    C512249   4.632   3.112  12.618 -0.1293  1.1710 -0.1739
  833MPD2     H12250   4.696   3.231  12.268 -2.6770  0.1328 -0.5631
  833MPD2    H112251   4.693   2.923  12.552  2.1240  0.3867 -1.1662
  833MPD2    H212252   4.563   3.307  12.661  1.8123 -0.7110  2.3937
  833MPD2    H312253   4.628   3.084  12.723  0.9434 -1.7724 -0.8890
  833MPD2     N12254   4.701   2.971  12.295 -0.4235  0.1018 -0.0743
  833MPD2    H512255   4.684   2.874  12.319 -0.9406  0.1507 -0.2311
  833MPD2    N112256   4.587   3.422  12.433  0.1386 -0.4431 -0.1766
  833MPD2    H712257   4.552   3.474  12.513  0.7980 -1.7916  0.9769
  834MPD2     C12258   4.119   2.271  11.927 -0.0859  0.2274  0.4967
  834MPD2    C112259   4.184   2.322  11.811  0.4068  0.7617 -0.3029
  834MPD2    C212260   4.254   2.434  11.833 -0.4312  0.3223  0.0072
  834MPD2    C312261   4.247   2.511  11.950  0.2172  0.9895  0.4351
  834MPD2    C412262   4.181   2.454  12.063  0.9292  0.7443 -0.1008
  834MPD2    C512263   4.114   2.333  12.051  0.6268 -0.1882  0.7908
  834MPD2     H12264   4.313   2.473  11.750  0.0876  1.0602  0.7223
  834MPD2    H112265   4.175   2.507  12.157 -2.4664  0.1684  0.0026
  834MPD2    H212266   4.065   2.179  11.906  1.6645 -0.2835 -1.7859
  834MPD2    H312267   4.062   2.285  12.133 -3.5476 -3.3003 -3.6568
  834MPD2     N12268   4.315   2.631  11.957 -0.5434 -0.0741 -0.4001
  834MPD2    H512269   4.357   2.669  11.873  0.0533 -1.5677 -0.7764
  834MPD2    N112270   4.176   2.236  11.692  0.4793  0.0640 -0.1042
  834MPD2    H712271   4.108   2.161  11.684 -0.6260  1.0259  0.3773
  835MPD2     C12272   4.221   0.882  10.728  0.3038  0.8006 -0.2286
  835MPD2    C112273   4.120   0.974  10.753 -0.1674  0.0672 -0.2456
  835MPD2    C212274   4.099   1.005  10.885 -0.0288 -0.6818 -0.4234
  835MPD2    C312275   4.178   0.947  10.984  0.1675 -0.0983  0.1120
  835MPD2    C412276   4.271   0.849  10.955 -0.2235 -0.2258  0.4039
  835MPD2    C512277   4.289   0.812  10.825 -0.1187 -0.2977 -0.0378
  835MPD2     H12278   4.026   1.083  10.904 -0.1127 -1.0089  0.6430
  835MPD2    H112279   4.331   0.789  11.022  0.9399  0.7260  0.2139
  835MPD2    H212280   4.246   0.850  10.628  1.5687  2.2611 -0.3680
  835MPD2    H312281   4.351   0.726  10.800 -0.0053 -0.4906  0.9245
  835MPD2     N12282   4.165   0.982  11.120  0.6196  0.5291 -0.2481
  835MPD2    H512283   4.222   0.919  11.175  1.3454  0.0099 -1.5842
  835MPD2    N112284   4.037   1.028  10.650 -0.7393  0.1957  0.5491
  835MPD2    H712285   3.958   1.083  10.683 -1.0408  0.5598 -0.7650
  836MPD2     C12286   3.566   1.323  11.533 -0.0038 -0.8417  0.0279
  836MPD2    C112287   3.633   1.231  11.606 -0.3720  0.5274 -0.3814
  836MPD2    C212288   3.565   1.176  11.712  0.4987  0.1614 -0.1495
  836MPD2    C312289   3.447   1.227  11.762  0.2556 -0.1264 -0.2247
  836MPD2    C412290   3.393   1.337  11.703 -0.5614  0.4184 -0.2564
  836MPD2    C512291   3.450   1.382  11.583 -0.0194 -0.4387  0.0359
  836MPD2     H12292   3.616   1.086  11.744 -0.0154 -0.0334  0.1211
  836MPD2    H112293   3.295   1.369  11.738 -1.0158 -0.6416 -0.5765
  836MPD2    H212294   3.610   1.367  11.444 -1.5317  0.4509 -0.0885
  836MPD2    H312295   3.397   1.456  11.524 -0.7850 -1.1392 -0.1702
  836MPD2     N12296   3.382   1.170  11.874  0.0494  0.5188  0.4188
  836MPD2    H512297   3.292   1.210  11.899  0.2519  1.8132 -0.9682
  836MPD2    N112298   3.761   1.189  11.563 -0.8348 -0.2123  0.1580
  836MPD2    H712299   3.799   1.214  11.472  0.1249 -0.4682  0.4880
  837MPD2     C12300   2.413   0.451   9.892  0.2460 -0.3501 -0.6337
  837MPD2    C112301   2.381   0.462   9.759 -0.0656  0.8695  0.1920
  837MPD2    C212302   2.315   0.576   9.709  0.1337  0.1226 -0.0309
  837MPD2    C312303   2.276   0.676   9.798  0.4560  0.0922 -0.2778
  837MPD2    C412304   2.297   0.656   9.936  0.0203  0.3209  0.0845
  837MPD2    C512305   2.369   0.546   9.977  0.2746 -0.1264 -0.1577
  837MPD2     H12306   2.304   0.590   9.603  1.8934 -0.9303 -0.3614
  837MPD2    H112307   2.280   0.729  10.014  0.5310  2.6461 -1.9717
  837MPD2    H212308   2.453   0.360   9.936  0.8807 -0.6573 -1.8561
  837MPD2    H312309   2.373   0.534  10.085  2.9330  1.2587 -0.0936
  837MPD2     N12310   2.225   0.794   9.747  0.6929 -0.2632  0.5558
  837MPD2    H512311   2.206   0.796   9.647 -0.2901 -0.8728  0.7252
  837MPD2    N112312   2.402   0.358   9.666  0.0563  0.1145 -0.2865
  837MPD2    H712313   2.373   0.385   9.573 -1.2842  1.8586  0.6348
  838MPD2     C12314   0.611   2.877  11.079  0.4077 -0.4874 -0.7803
  838MPD2    C112315   0.693   2.892  11.193 -0.2099 -0.6894 -0.2083
  838MPD2    C212316   0.634   2.873  11.322 -0.0754  0.7459  0.4451
  838MPD2    C312317   0.495   2.842  11.325 -0.5805  0.1540  0.1127
  838MPD2    C412318   0.410   2.825  11.213 -0.0761 -0.4690  0.4549
  838MPD2    C512319   0.470   2.848  11.094 -0.2283  0.5143  0.5248
  838MPD2     H12320   0.681   2.889  11.418 -1.3723 -2.4579  1.6063
  838MPD2    H112321   0.309   2.789  11.223  0.1714 -0.4823  2.7168
  838MPD2    H212322   0.642   2.907  10.980 -2.0054  1.6806 -0.9000
  838MPD2    H312323   0.416   2.843  11.000  1.6299  1.4823 -0.6203
  838MPD2     N12324   0.444   2.831  11.459  0.5712 -0.3401  0.0533
  838MPD2    H512325   0.513   2.850  11.530 -0.3511  1.4056  0.5051
  838MPD2    N112326   0.824   2.947  11.193  0.2315  0.7130 -0.7150
  838MPD2    H712327   0.865   2.960  11.285  0.0203  1.1954 -0.6893
  839MPD2     C12328   0.876   2.781  11.919  0.5245 -0.3669 -0.5467
  839MPD2    C112329   0.888   2.699  11.811  0.1698 -0.2618 -0.2310
  839MPD2    C212330   0.934   2.757  11.693  0.2386 -0.3428 -0.2097
  839MPD2    C312331   0.979   2.896  11.691  0.3139 -0.2554  0.4602
  839MPD2    C412332   0.934   2.979  11.791  0.1661 -0.0705 -0.4769
  839MPD2    C512333   0.888   2.919  11.904 -0.2612  1.2589  0.3103
  839MPD2     H12334   0.950   2.688  11.612  1.5116  1.1758 -1.2558
  839MPD2    H112335   0.944   3.087  11.786  1.7142 -0.3386 -3.1103
  839MPD2    H212336   0.846   2.743  12.016  0.8196  2.4485  0.6523
  839MPD2    H312337   0.865   2.981  11.990  0.4318  2.8238 -0.6437
  839MPD2     N12338   1.033   2.966  11.584  0.5925 -0.3601 -0.0679
  839MPD2    H512339   1.034   3.067  11.577 -1.1732 -0.3255  0.3121
  839MPD2    N112340   0.862   2.559  11.807  0.7887  0.0559  0.5030
  839MPD2    H712341   0.854   2.517  11.716 -0.6470  1.7778 -0.1647
  840MPD2     C12342   1.269   1.015   9.854 -0.6707  0.9501 -0.4026
  840MPD2    C112343   1.242   0.950   9.970  0.3251 -0.8247  0.4398
  840MPD2    C212344   1.278   1.024  10.082  0.9399 -0.1859 -0.3817
  840MPD2    C312345   1.333   1.155  10.074 -0.6374 -0.3942 -0.1716
  840MPD2    C412346   1.365   1.213   9.952 -0.0358  0.2092 -0.5827
  840MPD2    C512347   1.326   1.140   9.842  0.0365  0.1794 -0.3934
  840MPD2     H12348   1.271   0.972  10.177 -0.4030 -1.2755 -1.0735
  840MPD2    H112349   1.396   1.316   9.942  0.5802 -0.0617 -1.4249
  840MPD2    H212350   1.233   0.968   9.763 -2.5435  1.9083 -0.1614
  840MPD2    H312351   1.331   1.180   9.742  0.7199 -3.0716 -1.6715
  840MPD2     N12352   1.357   1.229  10.190 -0.0714  0.0753  0.8253
  840MPD2    H512353   1.396   1.321  10.169 -0.3176 -0.6207 -2.8189
  840MPD2    N112354   1.189   0.818   9.969  0.4411 -0.0479  0.0201
  840MPD2    H712355   1.168   0.776   9.880  0.1651 -0.7243  0.4092
  841MPD2     C12356   0.729   0.282  14.588 -0.3783 -0.5347 -0.3942
  841MPD2    C112357   0.686   0.281  14.458 -0.8092 -0.3756  0.4992
  841MPD2    C212358   0.700   0.405  14.394 -0.0631  0.0532  0.3100
  841MPD2    C312359   0.760   0.513  14.447 -0.1817 -0.4186  0.1113
  841MPD2    C412360   0.819   0.501  14.574 -0.3657 -0.5636  0.2204
  841MPD2    C512361   0.801   0.385  14.638  0.5801 -0.1943 -0.4271
  841MPD2     H12362   0.651   0.411  14.298 -0.0024 -0.2110  0.2628
  841MPD2    H112363   0.863   0.589  14.619  3.8806 -0.3654 -4.3362
  841MPD2    H212364   0.710   0.198  14.654  0.2475 -0.4457 -0.0892
  841MPD2    H312365   0.839   0.382  14.740  1.6362 -0.0172 -0.8157
  841MPD2     N12366   0.756   0.631  14.371  0.4135 -1.0066  0.6781
  841MPD2    H512367   0.709   0.630  14.281 -3.4074 -0.3170  2.6736
  841MPD2    N112368   0.628   0.173  14.393  0.2074 -0.8673  0.0499
  841MPD2    H712369   0.591   0.194  14.301 -0.3393  0.8533  0.6615
  842MPD2     C12370   1.303   0.918  16.867 -0.3294 -0.3077 -0.2446
  842MPD2    C112371   1.348   1.047  16.846  0.1640 -0.5774 -0.9728
  842MPD2    C212372   1.379   1.117  16.962 -0.6551 -0.4343  0.5557
  842MPD2    C312373   1.368   1.063  17.091  0.1443 -0.1636  1.1090
  842MPD2    C412374   1.320   0.934  17.104 -0.9162  0.0484  0.3592
  842MPD2    C512375   1.295   0.862  16.987 -0.2029  0.1383 -0.0767
  842MPD2     H12376   1.389   1.224  16.947 -2.7205 -0.4313 -0.7255
  842MPD2    H112377   1.310   0.889  17.202 -0.8263  1.1953  0.8960
  842MPD2    H212378   1.282   0.865  16.774  0.1011  2.1748 -1.7532
  842MPD2    H312379   1.259   0.762  17.010  0.7135 -0.3918 -0.9110
  842MPD2     N12380   1.371   1.142  17.209 -0.1094 -0.2728 -0.8607
  842MPD2    H512381   1.339   1.092  17.291  2.0195 -1.5100 -0.8005
  842MPD2    N112382   1.339   1.109  16.717  0.1298  0.0348  0.1310
  842MPD2    H712383   1.311   1.059  16.633  2.5384  0.6878 -1.0749
  843MPD2     C12384   3.694   1.866  17.103 -0.4425  0.1546  0.0775
  843MPD2    C112385   3.674   1.872  17.237 -0.3017 -0.4876 -0.2213
  843MPD2    C212386   3.784   1.870  17.322 -1.0964  0.0246 -0.2897
  843MPD2    C312387   3.910   1.894  17.268  0.0097  0.0240  0.6301
  843MPD2    C412388   3.928   1.900  17.128  0.7783 -0.2447 -0.3818
  843MPD2    C512389   3.821   1.879  17.050  0.0990  0.2616 -0.1706
  843MPD2     H12390   3.779   1.860  17.429 -0.0874 -1.2986 -0.3630
  843MPD2    H112391   4.021   1.929  17.082  1.5403 -0.7280  0.8416
  843MPD2    H212392   3.615   1.873  17.028  0.4995 -0.5247 -0.9819
  843MPD2    H312393   3.831   1.875  16.942  1.6556 -0.6686  0.0148
  843MPD2     N12394   4.021   1.889  17.350 -0.4178 -0.2542 -0.3617
  843MPD2    H512395   3.991   1.862  17.443 -0.4129  0.3916 -0.1726
  843MPD2    N112396   3.541   1.857  17.277 -0.2269 -0.0140 -0.1954
  843MPD2    H712397   3.471   1.858  17.204 -0.8520 -0.4156  0.4037
  844MPD2     C12398   2.007   1.407  16.284 -0.4088 -0.5555 -0.0259
  844MPD2    C112399   2.067   1.287  16.309  1.5106  0.1458  0.6203
  844MPD2    C212400   2.173   1.285  16.403  0.0500  0.1267 -0.0700
  844MPD2    C312401   2.217   1.401  16.466 -0.1742  0.5238  0.2679
  844MPD2    C412402   2.165   1.519  16.430 -0.4875 -0.2329 -0.6536
  844MPD2    C512403   2.052   1.519  16.347 -0.2654 -0.2254  0.3566
  844MPD2     H12404   2.216   1.188  16.423 -0.5102  0.0852  0.9578
  844MPD2    H112405   2.199   1.612  16.474 -0.7625 -0.6004  0.3471
  844MPD2    H212406   1.936   1.428  16.205 -0.4641  0.9315  0.4048
  844MPD2    H312407   2.003   1.610  16.315  1.9967  1.3506  1.3356
  844MPD2     N12408   2.332   1.393  16.544 -0.3670 -0.0680  0.4977
  844MPD2    H512409   2.363   1.297  16.555 -2.0061 -0.9976 -2.7369
  844MPD2    N112410   2.025   1.167  16.248 -0.9023 -0.3377 -0.0096
  844MPD2    H712411   2.084   1.086  16.264 -1.9808 -0.8587  1.3592
  845MPD2     C12412   2.455   2.133  17.087  0.7843 -0.1316 -0.4018
  845MPD2    C112413   2.347   2.052  17.102  0.2422 -0.1721  0.7491
  845MPD2    C212414   2.369   1.910  17.096  0.1259  0.6538 -0.5739
  845MPD2    C312415   2.497   1.860  17.060  0.7172  0.6516  0.2842
  845MPD2    C412416   2.596   1.947  17.047  0.1187  0.6297  0.0768
  845MPD2    C512417   2.584   2.081  17.069  0.4134 -0.0280 -0.4904
  845MPD2     H12418   2.292   1.836  17.112  0.1739  0.9980  1.3168
  845MPD2    H112419   2.700   1.919  17.034 -0.6755 -2.4083  0.2569
  845MPD2    H212420   2.444   2.240  17.105 -2.7348 -0.6583  0.6549
  845MPD2    H312421   2.676   2.137  17.077 -0.0760  0.4000  2.2488
  845MPD2     N12422   2.508   1.721  17.029  0.0787  0.3025 -0.0963
  845MPD2    H512423   2.418   1.677  17.021 -0.3074  1.1811 -0.5718
  845MPD2    N112424   2.218   2.103  17.130 -0.1054  0.5509 -0.0438
  845MPD2    H712425   2.210   2.204  17.138 -1.6767  0.2867  1.8361
  846MPD2     C12426   3.928   2.614  13.251 -0.0007  0.1048  0.5677
  846MPD2    C112427   3.830   2.704  13.288  0.0260 -0.0305  0.2975
  846MPD2    C212428   3.779   2.694  13.421  0.2571  0.3931 -0.1749
  846MPD2    C312429   3.817   2.589  13.502  0.2688  0.2756 -0.1963
  846MPD2    C412430   3.910   2.498  13.460 -0.3217 -0.3899 -0.2231
  846MPD2    C512431   3.961   2.509  13.341  0.4270 -0.9614  1.0631
  846MPD2     H12432   3.705   2.769  13.447 -0.2999 -0.6427  1.3257
  846MPD2    H112433   3.948   2.416  13.521 -0.4438 -1.0982 -1.0959
  846MPD2    H212434   3.981   2.622  13.157 -0.9247  1.6110  0.1827
  846MPD2    H312435   4.038   2.442  13.303 -0.0931 -0.0666 -1.5721
  846MPD2     N12436   3.767   2.589  13.636 -0.2174 -0.0043 -0.0388
  846MPD2    H512437   3.695   2.657  13.659  0.4844  0.7119  0.0327
  846MPD2    N112438   3.795   2.816  13.208  0.3973  0.1126  0.5705
  846MPD2    H712439   3.739   2.893  13.242  1.4692  0.9217  0.4885
  847MPD2     C12440   3.448   3.627  13.740  0.0836  0.1040 -0.4463
  847MPD2    C112441   3.566   3.649  13.808  0.0734 -0.0225  0.1490
  847MPD2    C212442   3.579   3.568  13.915 -0.0338 -0.3764  0.2456
  847MPD2    C312443   3.482   3.480  13.962 -0.5601 -0.7431  0.3531
  847MPD2    C412444   3.365   3.469  13.898 -0.1455 -0.3415  0.1786
  847MPD2    C512445   3.345   3.543  13.780  0.7116  0.6977  0.3013
  847MPD2     H12446   3.668   3.580  13.977  0.8236  1.0657 -1.2481
  847MPD2    H112447   3.295   3.392  13.931 -0.5137  0.1639  0.5623
  847MPD2    H212448   3.426   3.674  13.644  1.6701  0.6141 -0.5527
  847MPD2    H312449   3.258   3.522  13.720  1.5442  0.1845 -0.7215
  847MPD2     N12450   3.532   3.400  14.063  0.4520 -0.4244 -0.3220
  847MPD2    H512451   3.633   3.398  14.066  0.2407 -5.1507  4.4821
  847MPD2    N112452   3.669   3.737  13.767  0.7874 -0.2033 -0.4011
  847MPD2    H712453   3.749   3.734  13.830 -1.9243  1.9008  3.1652
  848MPD2     C12454   2.160   2.063  16.776  0.7848 -0.4961 -0.5600
  848MPD2    C112455   2.123   1.971  16.679 -0.2687 -0.7882 -0.5048
  848MPD2    C212456   2.112   2.016  16.546 -0.9511  0.2953 -1.2179
  848MPD2    C312457   2.118   2.152  16.526  0.2972 -0.5646 -0.6482
  848MPD2    C412458   2.150   2.238  16.626  0.0144  0.2743  0.0929
  848MPD2    C512459   2.175   2.193  16.749  0.0282  1.0781 -0.1505
  848MPD2     H12460   2.075   1.947  16.471 -0.1408 -0.6270 -0.7649
  848MPD2    H112461   2.141   2.346  16.616  1.9148  0.3265 -1.0144
  848MPD2    H212462   2.183   2.036  16.879 -2.5560 -0.9427  0.0604
  848MPD2    H312463   2.204   2.258  16.830 -1.0447  0.8004  0.4540
  848MPD2     N12464   2.098   2.208  16.404  0.2220  0.1195  0.0357
  848MPD2    H512465   2.086   2.309  16.397  1.8962  0.2429 -1.1004
  848MPD2    N112466   2.103   1.841  16.729  0.5199  0.3714 -0.0966
  848MPD2    H712467   2.124   1.834  16.828  1.8450 -2.8625 -0.6299
  849MPD2     C12468   1.010   1.201  13.713  0.2549  0.9047  0.7640
  849MPD2    C112469   1.091   1.205  13.603  0.4826 -0.3757 -0.0721
  849MPD2    C212470   1.224   1.204  13.627 -0.4561  0.1046  0.9394
  849MPD2    C312471   1.279   1.191  13.752 -0.3355 -0.4644  0.3854
  849MPD2    C412472   1.196   1.187  13.862 -0.4721 -0.1688  0.5702
  849MPD2    C512473   1.061   1.185  13.836  0.3042 -0.4798 -0.3858
  849MPD2     H12474   1.286   1.202  13.538 -3.5272 -3.1886 -1.1445
  849MPD2    H112475   1.237   1.200  13.962 -0.5579  0.4489  0.5288
  849MPD2    H212476   0.903   1.208  13.705 -0.0168 -0.0431  3.6722
  849MPD2    H312477   0.986   1.191  13.914  0.0471  3.1924 -0.9069
  849MPD2     N12478   1.422   1.206  13.777 -0.0266 -0.3870 -0.4575
  849MPD2    H512479   1.447   1.245  13.867  2.1163 -3.5789  0.3102
  849MPD2    N112480   1.041   1.237  13.477 -0.1688 -0.5047 -0.6346
  849MPD2    H712481   0.946   1.272  13.473 -0.6556 -1.7839 -0.3785
  850MPD2     C12482   3.811   4.598  14.583  0.3247  0.6226 -0.5888
  850MPD2    C112483   3.860   4.484  14.646  0.0926  0.0414 -0.0071
  850MPD2    C212484   3.988   4.474  14.693 -0.1175 -0.0271  0.1285
  850MPD2    C312485   4.074   4.580  14.648 -0.1133 -0.2069 -0.6626
  850MPD2    C412486   4.033   4.686  14.574 -0.1214  0.1668 -0.1997
  850MPD2    C512487   3.898   4.700  14.546  0.1614 -0.0466  0.4484
  850MPD2     H12488   4.023   4.387  14.747  1.1470  0.5185  0.1964
  850MPD2    H112489   4.101   0.041  14.555 -0.5093  0.3245 -0.9053
  850MPD2    H212490   3.707   4.612  14.556  0.6502  2.3272 -0.8906
  850MPD2    H312491   3.875   0.065  14.493  0.7497  0.1904  0.6116
  850MPD2     N12492   4.213   4.579  14.671 -0.5310  0.1430 -0.9197
  850MPD2    H512493   4.272   4.648  14.624  2.1373 -1.9813 -0.6854
  850MPD2    N112494   3.778   4.388  14.709 -0.6370  0.2741 -0.3325
  850MPD2    H712495   3.820   4.325  14.776 -2.1328 -1.4355 -1.0061
  851MPD2     C12496   3.957   4.082  15.321  0.1284 -0.0125 -0.1813
  851MPD2    C112497   3.944   4.057  15.188  0.9894  1.1499  1.0148
  851MPD2    C212498   4.051   4.022  15.113 -0.0736 -0.3636  0.3372
  851MPD2    C312499   4.181   4.020  15.167  0.5509 -0.3485 -0.2458
  851MPD2    C412500   4.197   4.045  15.305  0.0222  0.4766  0.6968
  851MPD2    C512501   4.081   4.083  15.377 -0.6488  0.7527  0.5720
  851MPD2     H12502   4.040   4.009  15.006 -1.0920 -2.2474  0.6793
  851MPD2    H112503   4.293   4.056  15.354  0.0046 -0.8320  1.0230
  851MPD2    H212504   3.873   4.108  15.384  0.0177  2.0550 -1.1877
  851MPD2    H312505   4.089   4.111  15.481 -0.8611 -0.0751  0.8112
  851MPD2     N12506   4.287   4.014  15.071  0.9361  0.3006  0.0987
  851MPD2    H512507   4.270   4.002  14.972 -1.4261 -1.2547  0.6909
  851MPD2    N112508   3.821   4.090  15.128  0.1060  0.7073  0.5160
  851MPD2    H712509   3.753   4.139  15.185  0.1793  0.1841  1.0585
  852MPD2     C12510   3.391   2.316   9.859  0.4239  0.0265 -0.3643
  852MPD2    C112511   3.473   2.363   9.953  0.0568  0.4056  0.1254
  852MPD2    C212512   3.603   2.405   9.919 -0.1124  0.5135 -1.1872
  852MPD2    C312513   3.648   2.415   9.790 -0.6947 -0.4753  0.6259
  852MPD2    C412514   3.565   2.364   9.689 -0.3053 -0.1640  1.3529
  852MPD2    C512515   3.434   2.322   9.728 -0.8745  0.4793  0.2140
  852MPD2     H12516   3.659   2.450  10.000 -0.1550  0.7823 -1.3068
  852MPD2    H112517   3.591   2.371   9.584 -0.4189 -0.3592  1.3116
  852MPD2    H212518   3.287   2.293   9.881 -0.0898  2.3596 -0.2571
  852MPD2    H312519   3.365   2.288   9.652  0.2205 -1.8509  0.2663
  852MPD2     N12520   3.771   2.481   9.764  0.1340  0.3541 -0.0669
  852MPD2    H512521   3.821   2.518   9.844  2.4273  0.7035 -1.6494
  852MPD2    N112522   3.428   2.390  10.083 -0.4355 -0.1043  1.2031
  852MPD2    H712523   3.491   2.441  10.144 -0.5740  1.2138  0.2563
  853MPD2     C12524   0.071   1.859  12.747  0.3816 -0.0382  0.4504
  853MPD2    C112525   0.173   1.933  12.693 -0.4148  0.0166  0.3653
  853MPD2    C212526   0.160   1.983  12.565  0.5340  0.0302 -0.0338
  853MPD2    C312527   0.049   1.959  12.487  0.1150  0.0509  0.4570
  853MPD2    C412528   4.676   1.884  12.542  0.0037  0.2209  0.6344
  853MPD2    C512529   4.690   1.842  12.675  0.3093  0.0539 -0.1102
  853MPD2     H12530   0.243   2.031  12.513  0.7755 -2.3437 -1.8726
  853MPD2    H112531   4.584   1.874  12.486  0.2652 -0.2349  0.2897
  853MPD2    H212532   0.078   1.816  12.847 -0.5636 -3.0100 -0.7716
  853MPD2    H312533   4.605   1.789  12.718  0.0632 -0.1154 -0.8043
  853MPD2     N12534   0.033   1.989  12.349  0.6071 -0.3048 -0.1369
  853MPD2    H512535   4.679   1.949  12.303  1.2019  0.1990 -1.5982
  853MPD2    N112536   0.292   1.951  12.773 -0.5485  0.5702  0.4672
  853MPD2    H712537   0.304   1.901  12.861  0.8370 -0.8091 -0.5167
  854MPD2     C12538   2.267   2.332  12.635 -0.2692  0.0110  0.6294
  854MPD2    C112539   2.393   2.364  12.588  0.1515  0.2420 -0.0291
  854MPD2    C212540   2.496   2.267  12.602  0.7049 -0.0942 -0.9655
  854MPD2    C312541   2.460   2.144  12.658 -0.1296  0.1646 -0.0339
  854MPD2    C412542   2.333   2.121  12.698  0.6284 -0.1628  0.4787
  854MPD2    C512543   2.237   2.213  12.680 -0.5868 -0.1259  0.2192
  854MPD2     H12544   2.597   2.291  12.569  0.4481  1.3298 -0.7100
  854MPD2    H112545   2.298   2.026  12.737  1.0103  1.1408  4.0732
  854MPD2    H212546   2.188   2.406  12.625  0.2104  0.5212  0.6438
  854MPD2    H312547   2.137   2.189  12.714 -1.5377  1.5916 -1.3788
  854MPD2     N12548   2.543   2.032  12.662  0.1558 -0.2823 -0.3865
  854MPD2    H512549   2.516   1.966  12.733 -0.5878  0.5290  0.0912
  854MPD2    N112550   2.417   2.495  12.526 -0.0879  0.4250 -0.3009
  854MPD2    H712551   2.332   2.549  12.514 -0.9319 -0.7085  0.4785
  855MPD2     C12552   3.021   2.035  13.369  0.9922  1.1917 -0.6223
  855MPD2    C112553   2.991   1.901  13.345  0.1199  0.2631 -0.2478
  855MPD2    C212554   2.950   1.854  13.218 -0.2596 -0.4138 -0.7275
  855MPD2    C312555   2.932   1.942  13.117  0.5153 -0.1841  0.6819
  855MPD2    C412556   2.966   2.074  13.138  0.3380 -0.1856 -0.7381
  855MPD2    C512557   3.005   2.120  13.264  0.3591 -0.6963  0.4714
  855MPD2     H12558   2.941   1.746  13.209 -1.4829 -0.3781  0.0372
  855MPD2    H112559   2.947   2.145  13.058 -0.6074  1.8200  1.2566
  855MPD2    H212560   3.055   2.076  13.464  1.6690  1.9289 -1.1939
  855MPD2    H312561   3.052   2.215  13.286  1.6250 -1.3839  0.7510
  855MPD2     N12562   2.902   1.909  12.986 -0.5623  0.4386  0.7453
  855MPD2    H512563   2.885   1.984  12.920 -2.1466 -0.9933 -0.4874
  855MPD2    N112564   2.970   1.817  13.453 -0.3627  0.1349 -0.9456
  855MPD2    H712565   2.923   1.730  13.434 -0.2141  0.3376 -2.2206
  856MPD2     C12566   4.326   2.946  13.821 -0.3738  0.1400  0.3001
  856MPD2    C112567   4.442   3.007  13.859  0.4850  0.4895 -0.1395
  856MPD2    C212568   4.459   3.144  13.845 -0.2274 -0.2472  0.0832
  856MPD2    C312569   4.350   3.211  13.796 -0.4905  0.1568  0.4898
  856MPD2    C412570   4.235   3.146  13.765  0.1043  0.0194  0.3748
  856MPD2    C512571   4.222   3.015  13.770 -0.4527  0.2322 -0.7358
  856MPD2     H12572   4.557   3.186  13.864  0.4549 -1.6400 -0.3695
  856MPD2    H112573   4.155   3.199  13.714  1.3646  1.4933 -0.0557
  856MPD2    H212574   4.314   2.839  13.828 -0.1529  0.2378  2.1989
  856MPD2    H312575   4.148   2.950  13.724 -1.2962  0.9982 -0.4547
  856MPD2     N12576   4.353   3.353  13.778  0.0241  0.0618  0.6254
  856MPD2    H512577   4.263   3.393  13.754  0.5054 -0.3001 -1.7746
  856MPD2    N112578   4.549   2.930  13.907 -0.4290 -0.6004 -0.0416
  856MPD2    H712579   4.631   2.986  13.927 -1.8696  1.6018 -0.3951
  857MPD2     C12580   2.171   4.599  12.413  0.7348 -0.3549  0.5095
  857MPD2    C112581   2.085   4.570  12.520 -0.4666  0.5397  0.2330
  857MPD2    C212582   2.032   4.681  12.588 -0.0483  0.7495 -0.2072
  857MPD2    C312583   2.059   0.085  12.548 -0.1275  0.8854  0.6458
  857MPD2    C412584   2.135   0.106  12.435  0.5826  0.9252 -0.4145
  857MPD2    C512585   2.180   0.004  12.370  0.3569  0.0148 -0.0508
  857MPD2     H12586   1.973   4.668  12.678  0.9206  0.0751  0.3312
  857MPD2    H112587   2.144   0.204  12.389 -0.2686  2.5676  2.8814
  857MPD2    H212588   2.205   4.517  12.352 -0.2871 -1.2526  1.1632
  857MPD2    H312589   2.242   0.024  12.282  0.0301 -1.2037 -0.5655
  857MPD2     N12590   2.008   0.188  12.633 -0.0413 -0.4416 -0.0205
  857MPD2    H512591   1.952   0.168  12.716 -2.1704  0.9447 -1.1157
  857MPD2    N112592   2.073   4.431  12.555 -0.0853 -0.3319  0.7018
  857MPD2    H712593   2.123   4.369  12.492  1.8722  1.4551  0.4881
  858MPD2     C12594   2.396   4.264  16.038 -0.3219 -0.6717  0.1960
  858MPD2    C112595   2.524   4.223  16.065  0.5501 -0.0037  0.0875
  858MPD2    C212596   2.561   4.222  16.201 -0.6981 -0.4345  0.3555
  858MPD2    C312597   2.473   4.247  16.307 -0.3265  0.4876  0.1864
  858MPD2    C412598   2.344   4.286  16.272  0.1603 -0.0677  0.5745
  858MPD2    C512599   2.308   4.299  16.141  0.2844  0.1086  0.3423
  858MPD2     H12600   2.664   4.206  16.229 -0.4392 -0.6366 -0.7142
  858MPD2    H112601   2.279   4.302  16.356 -0.4678 -0.6449  0.1967
  858MPD2    H212602   2.362   4.263  15.935  1.2230  0.7258 -0.3315
  858MPD2    H312603   2.205   4.324  16.120  0.2825  2.3619  3.0895
  858MPD2     N12604   2.512   4.266  16.442  0.5442 -0.2545 -0.0573
  858MPD2    H512605   2.448   4.310  16.507  0.4412 -1.8538  0.9350
  858MPD2    N112606   2.607   4.189  15.951  0.3604  0.2245  0.5896
  858MPD2    H712607   2.567   4.218  15.862  1.5358 -0.9395 -0.3113
  859MPD2     C12608   0.843   1.230  14.732 -0.0106 -0.3429 -0.5786
  859MPD2    C112609   0.975   1.246  14.718 -0.1338  0.3549 -0.0996
  859MPD2    C212610   1.062   1.142  14.691  0.1162 -0.6599  0.0663
  859MPD2    C312611   1.003   1.014  14.712  0.4531  0.2300 -0.6516
  859MPD2    C412612   0.872   0.996  14.742  0.3406  0.7573  0.2230
  859MPD2    C512613   0.786   1.106  14.746 -0.4816 -0.0214 -0.0822
  859MPD2     H12614   1.169   1.149  14.682  0.1270 -1.3999 -0.4319
  859MPD2    H112615   0.831   0.896  14.755 -2.8043  1.9586 -0.4968
  859MPD2    H212616   0.789   1.323  14.742 -1.3863 -1.0077 -1.8547
  859MPD2    H312617   0.681   1.095  14.768 -0.3534 -1.9272 -0.4295
  859MPD2     N12618   1.077   0.893  14.707 -0.0165  0.0996  0.2190
  859MPD2    H512619   1.021   0.809  14.721  1.0402 -0.8469 -1.1942
  859MPD2    N112620   1.015   1.379  14.712  0.0854  0.0630 -0.5118
  859MPD2    H712621   0.942   1.450  14.709 -0.3587 -0.4925 -2.8027
  860MPD2     C12622   3.767   1.923  11.571  0.6174 -0.5225 -0.1361
  860MPD2    C112623   3.699   1.856  11.673 -0.8858 -0.5928 -0.2542
  860MPD2    C212624   3.571   1.810  11.651 -0.0771 -0.2459 -0.3604
  860MPD2    C312625   3.499   1.845  11.538 -0.4343 -0.2582 -0.1091
  860MPD2    C412626   3.562   1.904  11.436 -0.0698 -0.1216  0.6643
  860MPD2    C512627   3.696   1.941  11.455  0.4486 -0.2709  0.1313
  860MPD2     H12628   3.519   1.751  11.726  0.2490 -0.0597  0.0064
  860MPD2    H112629   3.518   1.917  11.337  1.1128 -0.3473  0.1134
  860MPD2    H212630   3.875   1.933  11.574  0.4740  1.5012 -1.5599
  860MPD2    H312631   3.758   1.961  11.369 -0.8109  1.5728 -0.3518
  860MPD2     N12632   3.358   1.817  11.534  0.3319 -0.2332  0.5165
  860MPD2    H512633   3.322   1.768  11.615 -2.5411  1.1692  0.0700
  860MPD2    N112634   3.762   1.827  11.796 -0.3051  0.7210 -0.0538
  860MPD2    H712635   3.712   1.759  11.853 -0.5186  0.9202 -0.0043
  861MPD2     C12636   2.381   0.033  10.711 -0.4530 -0.4333  1.0215
  861MPD2    C112637   2.265   0.073  10.778  0.1905  0.3416  0.3944
  861MPD2    C212638   2.141   0.065  10.712 -0.0820  0.0820 -0.3036
  861MPD2    C312639   2.140   0.032  10.578  0.2571 -0.4527 -0.0257
  861MPD2    C412640   2.255   4.712  10.516  0.4277 -0.0168  0.0648
  861MPD2    C512641   2.371   4.718  10.584 -0.4144 -0.1203  0.2251
  861MPD2     H12642   2.056   0.110  10.763 -0.4880  0.3051 -1.1804
  861MPD2    H112643   2.247   4.682  10.412  0.6089 -0.1930  0.1018
  861MPD2    H212644   2.480   0.029  10.753 -0.0446 -0.4250  0.0451
  861MPD2    H312645   2.457   4.671  10.537 -0.0951  0.0051  0.6868
  861MPD2     N12646   2.022   0.058  10.501 -0.4877 -0.6616  0.0052
  861MPD2    H512647   2.033   0.051  10.401  1.5164 -2.4815  0.3495
  861MPD2    N112648   2.266   0.122  10.910  0.8078 -0.1401 -0.1188
  861MPD2    H712649   2.177   0.132  10.959  0.2309 -2.8554 -0.5744
  862MPD2     C12650   1.782   0.022   9.825  0.6372  0.3339  0.1233
  862MPD2    C112651   1.803   4.695   9.950 -0.3570 -0.0810 -0.5130
  862MPD2    C212652   1.801   4.561   9.962 -0.8690 -0.5597 -0.1593
  862MPD2    C312653   1.771   4.478   9.852 -0.2638 -0.4186  0.5210
  862MPD2    C412654   1.750   4.529   9.727  0.5838  0.9286 -0.1839
  862MPD2    C512655   1.752   4.668   9.717 -0.0806  0.5657  0.2789
  862MPD2     H12656   1.810   4.519  10.061  2.4114  2.5346  0.8486
  862MPD2    H112657   1.732   4.464   9.642 -1.5264  0.0926  0.8876
  862MPD2    H212658   1.782   0.129   9.807  0.5359  0.5208  1.2192
  862MPD2    H312659   1.734   4.710   9.619  1.9570  1.4203  0.2783
  862MPD2     N12660   1.782   4.339   9.870 -0.3754 -0.1308 -0.1352
  862MPD2    H512661   1.753   4.280   9.792  0.3971 -0.8815  0.1527
  862MPD2    N112662   1.828   0.047  10.063  0.2715  0.4660  0.3677
  862MPD2    H712663   1.856   4.716  10.142  0.6460  1.1726  0.7375
  863MPD2     C12664   0.840   2.946  16.193  0.2432  0.0748  0.0890
  863MPD2    C112665   0.837   3.040  16.289 -0.4822 -0.0908  0.0580
  863MPD2    C212666   0.932   3.053  16.394  0.0947 -0.3786 -0.5093
  863MPD2    C312667   1.036   2.960  16.397 -0.0583  0.0137  0.3695
  863MPD2    C412668   1.037   2.861  16.302 -0.3769 -0.2467  1.3554
  863MPD2    C512669   0.945   2.856  16.200  0.4877  0.1647 -0.3507
  863MPD2     H12670   0.927   3.133  16.467  2.3031 -1.0059  0.3190
  863MPD2    H112671   1.115   2.787  16.314 -0.1521  0.0402  1.6577
  863MPD2    H212672   0.773   2.938  16.108  1.5717 -1.6906 -0.8000
  863MPD2    H312673   0.955   2.785  16.118 -1.6065  0.4588 -0.8536
  863MPD2     N12674   1.134   2.949  16.491  0.6124  0.0729 -0.4802
  863MPD2    H512675   1.189   2.865  16.497 -0.0942 -0.2896  0.9043
  863MPD2    N112676   0.716   3.115  16.299 -0.9516  0.1306 -0.0298
  863MPD2    H712677   0.641   3.094  16.233 -0.1171  0.5849 -1.1250
  864MPD2     C12678   1.189   3.933  17.039 -0.2256 -0.3862  0.4466
  864MPD2    C112679   1.118   3.946  16.927 -0.5911 -0.3798 -0.2020
  864MPD2    C212680   1.146   4.038  16.827  1.0629  0.6384 -0.1027
  864MPD2    C312681   1.256   4.114  16.847  0.1877  0.3884 -0.9643
  864MPD2    C412682   1.328   4.105  16.957  0.0019  0.7292  0.2164
  864MPD2    C512683   1.297   4.013  17.055 -0.2100 -0.6056  0.3676
  864MPD2     H12684   1.098   4.033  16.729 -0.2431 -2.1429  0.6674
  864MPD2    H112685   1.419   4.162  16.968  0.1817  0.1303  1.8764
  864MPD2    H212686   1.156   3.868  17.120  1.0947  0.1195  1.3902
  864MPD2    H312687   1.347   4.019  17.151  3.1206  0.9873 -1.4979
  864MPD2     N12688   1.290   4.223  16.757  0.1000  0.1892 -0.3632
  864MPD2    H512689   1.380   4.267  16.774 -0.3346  1.6650 -1.9199
  864MPD2    N112690   1.027   3.835  16.904  0.2554 -0.5328 -0.5183
  864MPD2    H712691   1.032   3.758  16.970 -0.7455  1.6059  2.0225
  865MPD2     C12692   1.397   4.655  16.000  0.1847  0.1162 -0.2732
  865MPD2    C112693   1.348   4.566  16.090 -0.3504 -0.3019 -0.1797
  865MPD2    C212694   1.280   4.604  16.203 -0.3451  0.3396 -0.6860
  865MPD2    C312695   1.291   0.011  16.250 -0.9589  0.0308 -0.2672
  865MPD2    C412696   1.337   0.104  16.167  0.4593 -0.2075 -0.2497
  865MPD2    C512697   1.387   0.062  16.042 -0.2732  0.0648  0.9989
  865MPD2     H12698   1.227   4.532  16.265 -2.5604  3.5250  1.1140
  865MPD2    H112699   1.342   0.209  16.193 -2.5718 -0.8554  2.9609
  865MPD2    H212700   1.450   4.624  15.910  0.8086 -1.2906  0.5737
  865MPD2    H312701   1.441   0.139  15.988  0.5413 -1.3270 -0.1661
  865MPD2     N12702   1.244   0.060  16.377 -1.1177  0.7296 -0.0694
  865MPD2    H512703   1.229   0.160  16.387  0.0602  0.8247  0.7564
  865MPD2    N112704   1.365   4.432  16.049  0.3686  0.1973  0.3622
  865MPD2    H712705   1.391   4.426  15.951  2.4824 -2.9008  1.1167
  866MPD2     C12706   2.647   0.621  11.321 -0.2556 -0.9000 -0.4745
  866MPD2    C112707   2.654   0.502  11.247 -0.6123  0.1792  0.3556
  866MPD2    C212708   2.567   0.478  11.140  0.4420 -0.0824 -0.5981
  866MPD2    C312709   2.481   0.583  11.101 -0.3816  0.4219 -0.1721
  866MPD2    C412710   2.480   0.708  11.169 -0.4395 -0.1492  0.0480
  866MPD2    C512711   2.557   0.720  11.281 -1.2080  0.4362 -0.3204
  866MPD2     H12712   2.569   0.383  11.089  1.0122 -0.3926  0.0067
  866MPD2    H112713   2.425   0.795  11.136 -1.0528 -0.3006  0.6859
  866MPD2    H212714   2.720   0.644  11.397 -1.4937  2.6434 -0.3432
  866MPD2    H312715   2.567   0.816  11.331  1.6062 -0.1015  0.1403
  866MPD2     N12716   2.407   0.581  10.979  0.6782  0.2487  0.0992
  866MPD2    H512717   2.350   0.662  10.954 -0.6290 -0.8862 -0.5750
  866MPD2    N112718   2.744   0.400  11.277  0.3622  1.2187 -0.0460
  866MPD2    H712719   2.792   0.418  11.365 -1.7027 -2.7357  1.8540
  867MPD2     C12720   4.502   4.363  15.889 -0.6627 -0.2016 -0.6552
  867MPD2    C112721   4.539   4.289  15.996  0.6851 -0.2724  0.2232
  867MPD2    C212722   4.560   4.349  16.117 -0.5812  0.1822  0.3416
  867MPD2    C312723   4.549   4.486  16.126  0.5428  0.1935  0.1472
  867MPD2    C412724   4.517   4.554  16.015  0.2150  0.3455  0.7544
  867MPD2    C512725   4.495   4.500  15.896  0.4859 -0.0172 -0.5875
  867MPD2     H12726   4.581   4.280  16.198  1.7371 -0.2927 -0.6413
  867MPD2    H112727   4.504   4.662  16.018 -0.7174  0.2714 -0.2184
  867MPD2    H212728   4.477   4.329  15.790 -0.4205 -0.4679 -0.6222
  867MPD2    H312729   4.463   4.553  15.806  0.0346 -1.0949 -1.0624
  867MPD2     N12730   4.576   4.567  16.242 -0.0247  0.1801 -0.0071
  867MPD2    H512731   4.567   4.668  16.241 -2.2676 -0.0521 -1.4300
  867MPD2    N112732   4.562   4.151  15.975 -0.5336  0.0723 -0.0455
  867MPD2    H712733   4.544   4.112  15.884 -2.9255 -0.0259  0.4804
  868MPD2     C12734   1.588   3.220  12.787 -0.4823 -0.0626 -0.0584
  868MPD2    C112735   1.651   3.211  12.909 -0.6004 -0.0461  0.2763
  868MPD2    C212736   1.572   3.221  13.024 -0.8429 -0.9277  0.1328
  868MPD2    C312737   1.429   3.237  13.010 -0.7662  0.9435 -0.0623
  868MPD2    C412738   1.376   3.229  12.884  0.5961  0.6624 -0.0972
  868MPD2    C512739   1.454   3.225  12.769  0.2375  0.3848  0.3712
  868MPD2     H12740   1.614   3.221  13.124 -1.2228  1.9397  0.2779
  868MPD2    H112741   1.270   3.240  12.862  1.0293 -1.1813 -3.0145
  868MPD2    H212742   1.645   3.225  12.696 -1.6073 -2.5000 -0.9032
  868MPD2    H312743   1.408   3.218  12.671  2.0755  0.1849 -0.4695
  868MPD2     N12744   1.341   3.279  13.115 -0.1276 -0.3012  0.0265
  868MPD2    H512745   1.382   3.293  13.207 -2.8185  0.2686  1.1305
  868MPD2    N112746   1.787   3.201  12.914 -0.2615 -0.4188  0.7090
  868MPD2    H712747   1.837   3.196  12.826  1.0419 -0.1471  1.4424
  869MPD2     C12748   3.452   1.831   1.519 -0.2697 -0.9007 -0.4089
  869MPD2    C112749   3.387   1.745   1.426 -0.6694  0.3518 -0.1117
  869MPD2    C212750   3.360   1.791   1.300 -0.1872  0.1192 -0.1927
  869MPD2    C312751   3.421   1.909   1.264 -0.4982  0.1694 -1.1717
  869MPD2    C412752   3.490   1.995   1.356 -0.0992  0.1546  0.5780
  869MPD2    C512753   3.511   1.949   1.484  0.3384 -0.0161 -0.4821
  869MPD2     H12754   3.309   1.725   1.231  0.3558  0.2587 -0.7378
  869MPD2    H112755   3.551   2.082   1.332 -1.6131  0.6563 -1.4985
  869MPD2    H212756   3.461   1.792   1.619  2.7294 -1.4623 -0.9106
  869MPD2    H312757   3.560   2.015   1.554  0.0917  0.1098 -0.4319
  869MPD2     N12758   3.416   1.956   1.126 -0.3023 -0.5774  0.5070
  869MPD2    H512759   3.455   2.049   1.111 -1.3163 -0.0714  1.0396
  869MPD2    N112760   3.325   1.625   1.467 -0.0190  0.3167 -0.2711
  869MPD2    H712761   3.278   1.573   1.393 -0.4281  1.2966 -0.6992
  870MPD2     C12762   2.200   0.478   1.682  0.0068  0.3016 -0.2695
  870MPD2    C112763   2.218   0.402   1.574  0.0523  1.6015 -0.5339
  870MPD2    C212764   2.187   0.452   1.445 -0.3684 -0.0225  0.0080
  870MPD2    C312765   2.126   0.581   1.439 -0.0061 -0.4977  0.5083
  870MPD2    C412766   2.090   0.647   1.557  0.2716  0.6437  0.1434
  870MPD2    C512767   2.133   0.597   1.674  1.1428  0.5911 -0.6514
  870MPD2     H12768   2.189   0.385   1.360  1.8100 -0.1217  0.1350
  870MPD2    H112769   2.041   0.744   1.553 -1.5892 -0.2800  0.9547
  870MPD2    H212770   2.218   0.441   1.783  1.5941  0.1485 -0.6037
  870MPD2    H312771   2.104   0.642   1.768 -0.6371  2.7691 -2.2221
  870MPD2     N12772   2.086   0.622   1.310  0.0106 -0.0188  0.4954
  870MPD2    H512773   2.131   0.576   1.232 -1.7623  0.8399 -1.0461
  870MPD2    N112774   2.247   0.264   1.588  0.2693  0.3735  0.1344
  870MPD2    H712775   2.282   0.215   1.506 -2.0142 -3.2644  1.2987
  871MPD2     C12776   3.762   4.570  16.025  0.0546 -0.2047  0.5314
  871MPD2    C112777   3.721   4.491  16.133  0.1430  0.2866 -0.4545
  871MPD2    C212778   3.733   4.354  16.120 -0.3594 -0.2474 -0.4033
  871MPD2    C312779   3.777   4.295  16.003  0.5730 -0.4198 -0.4053
  871MPD2    C412780   3.808   4.365  15.897  0.4570  0.5934  0.4109
  871MPD2    C512781   3.799   4.506  15.907  0.9196  0.1912  0.3485
  871MPD2     H12782   3.698   4.295  16.204  1.6982  0.7317  1.1409
  871MPD2    H112783   3.860   4.328  15.809 -0.2457  1.2678 -0.2864
  871MPD2    H212784   3.784   4.675  16.043  2.3137 -0.8446  1.5176
  871MPD2    H312785   3.840   4.565  15.825  1.4665  1.4976  1.5749
  871MPD2     N12786   3.785   4.156  15.993 -0.2176 -0.1216  0.7050
  871MPD2    H512787   3.733   4.117  16.071 -0.0507 -2.0959 -0.1777
  871MPD2    N112788   3.668   4.560  16.251  0.1788  0.2917  0.7015
  871MPD2    H712789   3.648   4.659  16.240 -1.8204  0.0005  1.6895
  872MPD2     C12790   0.062   1.903  13.538  0.3355 -0.2820 -0.2975
  872MPD2    C112791   4.707   2.013  13.502 -0.4461  0.4865  0.6754
  872MPD2    C212792   4.609   2.044  13.596 -0.1544  0.9501  0.2635
  872MPD2    C312793   4.602   1.983  13.718  0.5041  0.1432 -0.4832
  872MPD2    C412794   4.693   1.884  13.753 -0.3050 -0.2122 -0.9274
  872MPD2    C512795   0.055   1.844  13.662  0.1509 -0.8073 -0.5276
  872MPD2     H12796   4.534   2.118  13.569 -1.3230 -0.5962 -0.6866
  872MPD2    H112797   4.690   1.829  13.847 -4.6597 -2.0379 -2.1550
  872MPD2    H212798   0.135   1.864  13.468 -1.6040 -2.8221 -0.9123
  872MPD2    H312799   0.127   1.765  13.679  2.0452  1.1328  0.4437
  872MPD2     N12800   4.495   1.996  13.807 -0.3089  0.1393  0.0964
  872MPD2    H512801   4.502   1.944  13.893  3.3924  1.5718  0.6802
  872MPD2    N112802   4.714   2.078  13.373  0.4584 -0.1502 -0.4327
  872MPD2    H712803   4.642   2.145  13.350  1.2968 -0.1326 -2.9930
  873MPD2     C12804   2.588   2.419   0.846 -0.4344 -0.3627  0.1021
  873MPD2    C112805   2.470   2.363   0.895  0.1035 -0.2230 -0.5118
  873MPD2    C212806   2.436   2.236   0.839  0.9798 -0.3273  0.7547
  873MPD2    C312807   2.505   2.191   0.729  0.6262 -0.5307  0.6816
  873MPD2    C412808   2.603   2.266   0.671  0.6154 -0.0826 -0.3077
  873MPD2    C512809   2.648   2.379   0.730  1.0413  0.1207  1.2900
  873MPD2     H12810   2.344   2.189   0.874  2.9327 -1.9936  3.5738
  873MPD2    H112811   2.659   2.231   0.585  2.2095 -0.5685  0.9247
  873MPD2    H212812   2.636   2.505   0.892 -0.2691 -0.4620  0.1143
  873MPD2    H312813   2.738   2.426   0.692 -0.3114  0.7025 -1.2090
  873MPD2     N12814   2.471   2.077   0.656  0.4967 -0.0977 -0.4406
  873MPD2    H512815   2.519   2.063   0.567 -0.0795  1.4871 -0.9904
  873MPD2    N112816   2.401   2.424   1.007 -0.1198 -0.1928  0.3422
  873MPD2    H712817   2.443   2.512   1.034  0.8917  0.0848 -2.1231
  874MPD2     C12818   1.311   1.780  16.076 -0.7932 -0.3604  0.6358
  874MPD2    C112819   1.376   1.753  16.190 -0.2844  0.2548 -0.6156
  874MPD2    C212820   1.492   1.827  16.216  0.1218  0.3927 -0.9991
  874MPD2    C312821   1.516   1.948  16.149  0.2753 -0.7980  0.7505
  874MPD2    C412822   1.439   1.976  16.039 -0.5719  0.4049 -0.3292
  874MPD2    C512823   1.332   1.894  16.004 -0.4086  0.1315 -0.8397
  874MPD2     H12824   1.542   1.805  16.310 -0.9434 -2.0734 -1.0269
  874MPD2    H112825   1.462   2.054  15.968 -1.2628 -0.3115 -1.3494
  874MPD2    H212826   1.220   1.729  16.046 -0.8670 -0.5975  1.2662
  874MPD2    H312827   1.281   1.918  15.911  2.5663  0.7807 -2.3015
  874MPD2     N12828   1.626   2.029  16.179  0.1774  0.3464 -0.1064
  874MPD2    H512829   1.689   1.988  16.247  0.6861  4.0979  1.6877
  874MPD2    N112830   1.334   1.637  16.260 -0.3847 -0.4617 -0.5688
  874MPD2    H712831   1.261   1.583  16.214 -0.0450 -1.6834  0.3531
  875MPD2     C12832   2.417   0.467  14.299  0.1601  0.5704 -0.4753
  875MPD2    C112833   2.300   0.483  14.363  0.2006 -0.2880 -0.4963
  875MPD2    C212834   2.295   0.488  14.497  0.0697 -0.1238 -0.4765
  875MPD2    C312835   2.416   0.511  14.572  0.3838  0.3907 -0.0339
  875MPD2    C412836   2.535   0.519  14.500  0.1014 -0.0365  0.4595
  875MPD2    C512837   2.532   0.475  14.365  0.0772  1.0745 -0.0358
  875MPD2     H12838   2.198   0.506  14.542  0.8819  1.0246  0.7953
  875MPD2    H112839   2.626   0.536  14.556  0.5369 -1.2787  0.1260
  875MPD2    H212840   2.423   0.452  14.192 -0.1959 -0.1951 -0.3887
  875MPD2    H312841   2.624   0.466  14.308  0.8937 -1.5685  1.6955
  875MPD2     N12842   2.421   0.541  14.705  0.3376  0.1106  0.3623
  875MPD2    H512843   2.510   0.575  14.738  1.0821 -1.6486  0.1680
  875MPD2    N112844   2.177   0.489  14.287 -0.7159  0.3946 -0.2116
  875MPD2    H712845   2.090   0.507  14.336 -1.6241  2.5240 -2.5921
  876MPD2     C12846   1.093   1.814  15.652 -0.1965 -0.4585 -0.2844
  876MPD2    C112847   1.203   1.739  15.609  0.4084  0.1085 -0.0497
  876MPD2    C212848   1.240   1.619  15.664  0.0667 -0.5104  0.3213
  876MPD2    C312849   1.182   1.573  15.775  0.8698  0.0812  0.3187
  876MPD2    C412850   1.070   1.638  15.822  0.3715  0.2385 -0.3801
  876MPD2    C512851   1.027   1.757  15.760  0.3480 -0.4951 -0.4492
  876MPD2     H12852   1.321   1.568  15.612 -0.2996 -1.9911  1.1945
  876MPD2    H112853   1.026   1.610  15.916  1.6091  1.3927  0.5593
  876MPD2    H212854   1.058   1.909  15.614  0.4024 -0.6046 -1.1973
  876MPD2    H312855   0.938   1.809  15.794 -0.0368 -0.7374 -1.0830
  876MPD2     N12856   1.218   1.451  15.829 -0.2325 -0.1853 -0.5884
  876MPD2    H512857   1.272   1.390  15.769 -0.2279 -1.1098  0.3506
  876MPD2    N112858   1.272   1.796  15.501 -0.1561 -0.3772 -0.5377
  876MPD2    H712859   1.222   1.873  15.456  0.6004 -0.1551 -0.9931
  877MPD2     C12860   1.183   2.138  14.897 -0.2064  0.1495 -0.4376
  877MPD2    C112861   1.317   2.166  14.887 -0.1112 -0.2736 -0.6861
  877MPD2    C212862   1.374   2.219  14.776 -0.1989 -0.5449 -0.3525
  877MPD2    C312863   1.287   2.235  14.663 -0.1516  0.1842  0.2735
  877MPD2    C412864   1.155   2.202  14.673 -0.0265  0.8417 -0.0123
  877MPD2    C512865   1.102   2.160  14.795 -0.0033 -0.7649  0.1073
  877MPD2     H12866   1.480   2.236  14.761 -0.3997  0.3690 -0.7600
  877MPD2    H112867   1.090   2.206  14.587 -0.9217 -1.4140  0.5667
  877MPD2    H212868   1.130   2.096  14.981 -1.2119  0.1683 -1.0651
  877MPD2    H312869   0.996   2.137  14.798 -0.1845  0.0948  0.1197
  877MPD2     N12870   1.338   2.276  14.543 -0.3603 -0.2262  0.2914
  877MPD2    H512871   1.276   2.272  14.463  1.0407 -2.0862 -0.6980
  877MPD2    N112872   1.399   2.136  15.000  0.0073 -0.4787  0.5834
  877MPD2    H712873   1.498   2.156  14.991  0.0669 -1.5420 -1.1035
  878MPD2     C12874   1.186   1.170  12.476  0.7297 -0.2066 -0.0526
  878MPD2    C112875   1.148   1.298  12.507  0.1473 -0.6278 -0.6943
  878MPD2    C212876   1.173   1.352  12.638  0.1327 -0.5997  0.4696
  878MPD2    C312877   1.204   1.269  12.743 -0.4881 -0.6188  0.0296
  878MPD2    C412878   1.235   1.136  12.715 -0.1118  0.1208  0.3553
  878MPD2    C512879   1.234   1.096  12.583  0.2022 -0.2600  0.1092
  878MPD2     H12880   1.142   1.454  12.660 -0.3780 -0.9633  1.4047
  878MPD2    H112881   1.291   1.076  12.786 -1.4483  1.5825  2.6888
  878MPD2    H212882   1.175   1.127  12.377  1.3919  0.3875 -0.3837
  878MPD2    H312883   1.261   0.992  12.567 -1.3577 -0.3557 -2.0087
  878MPD2     N12884   1.204   1.296  12.879 -0.0664  0.0022 -0.0825
  878MPD2    H512885   1.222   1.223  12.947  0.7154 -0.2071 -0.5229
  878MPD2    N112886   1.069   1.367  12.413  0.5490  0.5724 -0.3982
  878MPD2    H712887   1.027   1.304  12.346 -0.7193  1.1171 -0.1194
  879MPD2     C12888   1.415   1.831  17.022  0.3327 -0.6211 -0.5459
  879MPD2    C112889   1.396   1.923  16.923  0.1638  0.0646  0.5232
  879MPD2    C212890   1.331   1.884  16.801 -0.4100  0.6428 -0.5109
  879MPD2    C312891   1.278   1.755  16.787 -0.0561 -0.3102  0.1816
  879MPD2    C412892   1.304   1.667  16.888 -0.6794 -0.0638 -0.1476
  879MPD2    C512893   1.374   1.700  16.999  0.6000  0.0081  0.3676
  879MPD2     H12894   1.310   1.959  16.726  0.5907  1.2402 -0.1940
  879MPD2    H112895   1.279   1.561  16.895  0.7319 -0.4355 -0.6366
  879MPD2    H212896   1.456   1.849  17.121  0.1395  0.4036 -0.6504
  879MPD2    H312897   1.385   1.622  17.073 -1.0466 -0.5155  0.0732
  879MPD2     N12898   1.202   1.709  16.679 -0.3077 -0.0312  0.6923
  879MPD2    H512899   1.140   1.629  16.687 -0.5841  0.2195  1.1364
  879MPD2    N112900   1.436   2.056  16.944  0.4294 -0.4264  0.3696
  879MPD2    H712901   1.452   2.091  17.038  0.1483 -0.4668  0.4350
  880MPD2     C12902   2.639   0.026  17.489 -0.2398  0.4050 -0.3241
  880MPD2    C112903   2.569   0.025  17.608  0.8670 -0.3864 -0.0168
  880MPD2    C212904   2.543   4.634  17.669  0.2820 -0.0988  0.3993
  880MPD2    C312905   2.612   4.516  17.632 -0.1625  0.3432 -0.3842
  880MPD2    C412906   2.686   4.519  17.512  0.4201  0.0607 -0.1331
  880MPD2    C512907   2.690   4.635  17.443 -0.6754  0.0866 -0.1659
  880MPD2     H12908   2.487   4.637   0.056  1.2094  0.0130  0.9630
  880MPD2    H112909   2.742   4.434  17.475  1.6614  1.7360 -2.1098
  880MPD2    H212910   2.651   0.118  17.432  0.7607 -0.6146 -1.7433
  880MPD2    H312911   2.744   4.639  17.349 -1.1099 -1.0009 -0.4645
  880MPD2     N12912   2.595   4.407   0.009  1.1666  0.1050 -0.4292
  880MPD2    H512913   2.535   4.426   0.089  0.8032  3.6329 -1.5530
  880MPD2    N112914   2.522   0.156  17.639  0.2819  0.1005 -0.8558
  880MPD2    H712915   2.544   0.224  17.566 -0.5931  2.0006  0.6575
  881MPD2     C12916   2.826   0.952  17.345  0.2558 -0.5416 -0.7223
  881MPD2    C112917   2.821   0.817  17.311  0.4847  0.0861 -0.7528
  881MPD2    C212918   2.741   0.748  17.394 -0.4442 -0.4295  0.0542
  881MPD2    C312919   2.670   0.800  17.500 -0.0336 -0.0091  0.1419
  881MPD2    C412920   2.694   0.933  17.540  0.1696  0.0088 -0.5465
  881MPD2    C512921   2.777   1.004  17.459 -1.0785 -0.2534  0.1264
  881MPD2     H12922   2.720   0.644  17.369 -2.7318 -0.4870  2.1459
  881MPD2    H112923   2.648   0.985  17.624  1.8934 -1.1078  1.0831
  881MPD2    H212924   2.867   1.024  17.275 -1.3310 -0.5758 -1.6980
  881MPD2    H312925   2.788   1.111  17.477 -0.7714 -0.0481 -1.2561
  881MPD2     N12926   2.574   0.734  17.587  0.0725 -0.1770  0.3980
  881MPD2    H512927   2.544   0.791  17.666 -0.8955 -0.6263  0.3614
  881MPD2    N112928   2.863   0.774  17.181  0.6675  0.0605  0.1441
  881MPD2    H712929   2.922   0.832  17.123  0.6724  0.6531  0.7372
  882MPD2     C12930   1.037   2.263  13.813 -0.1717 -0.4947  0.0822
  882MPD2    C112931   1.053   2.240  13.946 -0.3169 -0.2278  0.4504
  882MPD2    C212932   0.946   2.178  14.018  0.0355 -0.3417 -0.1435
  882MPD2    C312933   0.835   2.126  13.951 -0.1525  0.0804 -0.2023
  882MPD2    C412934   0.821   2.153  13.818 -0.2279  0.7996  0.0609
  882MPD2    C512935   0.920   2.221  13.751 -1.1083 -0.2161  0.3411
  882MPD2     H12936   0.944   2.177  14.127 -1.0150  0.7922 -0.1522
  882MPD2    H112937   0.738   2.109  13.764  0.7407 -0.2605 -0.5720
  882MPD2    H212938   1.107   2.322  13.754 -0.7966 -0.6250 -0.8011
  882MPD2    H312939   0.899   2.225  13.645 -3.1348 -0.6812  0.7290
  882MPD2     N12940   0.729   2.046  14.012  0.0149 -0.5191 -0.7290
  882MPD2    H512941   0.638   2.036  13.968 -0.5824 -1.8524  0.8226
  882MPD2    N112942   1.170   2.297  14.004  0.2130 -0.6037 -0.2224
  882MPD2    H712943   1.236   2.336  13.937 -1.0274  0.6900 -0.6696
  883MPD2     C12944   3.237   2.113  16.100  0.3046 -0.8397 -0.3046
  883MPD2    C112945   3.312   2.125  15.987  0.4070  0.2064 -0.0012
  883MPD2    C212946   3.427   2.195  15.983 -0.2519  0.4854  0.2140
  883MPD2    C312947   3.485   2.243  16.102 -0.3880 -0.0338  0.1278
  883MPD2    C412948   3.419   2.224  16.223  0.6748 -0.7983 -0.4845
  883MPD2    C512949   3.290   2.165  16.224  0.3411 -1.0610 -0.4447
  883MPD2     H12950   3.483   2.206  15.890  1.9357 -1.3397  1.3299
  883MPD2    H112951   3.458   2.260  16.317  0.6773 -1.9824 -0.0277
  883MPD2    H212952   3.151   2.050  16.120  0.3017 -0.2887  1.4566
  883MPD2    H312953   3.237   2.150  16.318  1.5104  1.3255  0.6036
  883MPD2     N12954   3.620   2.297  16.092 -0.1618 -0.1056  0.1608
  883MPD2    H512955   3.664   2.310  16.002 -1.7313  1.8002 -0.3280
  883MPD2    N112956   3.273   2.082  15.857  0.1977  0.5608 -0.2525
  883MPD2    H712957   3.327   2.096  15.772  0.0536  3.0898  0.1005
  884MPD2     C12958   0.318   2.679  15.147 -0.0465  0.2276  0.1897
  884MPD2    C112959   0.284   2.728  15.018 -0.6073 -0.2696  0.0734
  884MPD2    C212960   0.208   2.842  15.007 -0.9891 -0.7099 -0.0538
  884MPD2    C312961   0.150   2.906  15.117 -0.0393  0.2393  0.2993
  884MPD2    C412962   0.170   2.853  15.247  0.2052  0.4240 -0.3554
  884MPD2    C512963   0.259   2.748  15.253 -0.1585  0.2297 -0.2733
  884MPD2     H12964   0.192   2.881  14.908  1.6051  1.7969  0.5143
  884MPD2    H112965   0.139   2.895  15.343 -1.1759 -3.7371  1.0085
  884MPD2    H212966   0.373   2.589  15.171  1.2452  0.4842 -1.7759
  884MPD2    H312967   0.298   2.716  15.348 -0.5573 -0.8971 -0.4839
  884MPD2     N12968   0.073   3.025  15.095 -0.2445 -0.8260 -0.3349
  884MPD2    H512969   0.061   3.057  15.000 -0.8298 -0.7184 -0.2235
  884MPD2    N112970   0.340   2.675  14.908 -0.0435  0.5059  0.0979
  884MPD2    H712971   0.338   2.735  14.827 -4.0532  0.2264 -0.0163
  885MPD2     C12972   3.498   2.380  17.334 -0.2197  0.7216 -0.3879
  885MPD2    C112973   3.594   2.478  17.344  0.2078  0.2768 -0.0104
  885MPD2    C212974   3.577   2.599  17.274  0.3261  0.9822  0.6586
  885MPD2    C312975   3.462   2.620  17.209  0.1206 -0.3924  0.6073
  885MPD2    C412976   3.363   2.515  17.200 -0.1781 -0.2463 -0.2070
  885MPD2    C512977   3.377   2.393  17.264 -0.5193  0.2485 -0.9899
  885MPD2     H12978   3.652   2.677  17.282  1.3060  0.5146 -3.5728
  885MPD2    H112979   3.273   2.527  17.141  1.0364  0.4829 -1.8897
  885MPD2    H212980   3.518   2.285  17.382 -1.0949  0.2602 -0.9217
  885MPD2    H312981   3.302   2.315  17.253  0.1977 -0.6599  0.6125
  885MPD2     N12982   3.446   2.741  17.134  0.4647  0.3869  0.1051
  885MPD2    H512983   3.528   2.801  17.136  1.0090 -0.2969 -1.6696
  885MPD2    N112984   3.697   2.444  17.437  0.1586  0.4582  0.0501
  885MPD2    H712985   3.697   2.351  17.478  0.4501 -0.0318 -1.0834
  886MPD2     C12986   4.668   1.504  14.756 -0.2824 -0.5184  0.0347
  886MPD2    C112987   0.009   1.520  14.879 -0.1607  0.0160 -0.2310
  886MPD2    C212988   0.013   1.647  14.920 -0.1318  0.0597  0.0329
  886MPD2    C312989   4.682   1.754  14.854  0.2678 -0.3512  0.1149
  886MPD2    C412990   4.606   1.733  14.743  0.1888  0.1800  0.3406
  886MPD2    C512991   4.612   1.609  14.688 -0.1955  0.6340  0.8102
  886MPD2     H12992   0.066   1.660  15.013 -0.4780  0.2201  0.2058
  886MPD2    H112993   4.556   1.816  14.695 -1.8575 -0.4489  1.3773
  886MPD2    H212994   4.668   1.404  14.714  0.0320 -1.1170  1.4771
  886MPD2    H312995   4.557   1.594  14.595  1.5027 -0.9690  0.0738
  886MPD2     N12996   4.710   1.889  14.887 -0.0385  0.3724  0.0385
  886MPD2    H512997   4.680   1.954  14.814 -0.2812  0.5488  0.2965
  886MPD2    N112998   0.074   1.416  14.948 -0.8849 -0.0272 -0.4350
  886MPD2    H712999   0.124   1.447  15.030 -0.0228 -0.8750 -0.6369
  887MPD2     C13000   0.788   1.444  15.005  0.3281 -0.3966  1.3713
  887MPD2    C113001   0.663   1.495  14.972 -0.4214 -0.0719  0.4181
  887MPD2    C213002   0.643   1.632  14.956  0.5012  0.4270 -0.1436
  887MPD2    C313003   0.759   1.713  14.976  0.2038 -0.8135  0.7923
  887MPD2    C413004   0.883   1.651  14.985  0.5970 -0.1574 -0.4803
  887MPD2    C513005   0.898   1.520  14.996 -0.8080 -0.2050 -0.1252
  887MPD2     H13006   0.542   1.669  14.943  0.3849  0.5959  1.2225
  887MPD2    H113007   0.975   1.707  14.988 -0.3392  1.1426  4.4839
  887MPD2    H213008   0.818   1.343  15.029 -0.3072 -1.4307 -2.1026
  887MPD2    H313009   0.993   1.467  14.995  0.9539  2.9310  2.3732
  887MPD2     N13010   0.739   1.854  15.003 -0.2728  0.0778 -0.3071
  887MPD2    H513011   0.641   1.882  15.008 -0.2182  0.2443 -0.1455
  887MPD2    N113012   0.551   1.410  14.958 -0.1757  0.4641  1.1398
  887MPD2    H713013   0.474   1.463  14.916  0.0536 -0.5519 -0.5530
  888MPD2     C13014   2.409   1.672  14.622 -0.6723 -0.7752  0.3366
  888MPD2    C113015   2.441   1.726  14.746 -0.1451 -0.6298 -0.1681
  888MPD2    C213016   2.509   1.844  14.745  0.2638  0.4001 -0.5476
  888MPD2    C313017   2.535   1.911  14.625 -0.5208  0.0847 -0.2337
  888MPD2    C413018   2.491   1.856  14.502 -0.0711  0.4494 -1.2868
  888MPD2    C513019   2.435   1.730  14.504  0.5262  0.1610 -0.0513
  888MPD2     H13020   2.531   1.876  14.846  2.4557  0.3712 -1.0278
  888MPD2    H113021   2.499   1.907  14.407  0.3490 -0.2541 -1.6356
  888MPD2    H213022   2.345   1.585  14.616 -0.1064 -1.1572 -0.1387
  888MPD2    H313023   2.406   1.687  14.408 -1.1827  1.1059  0.0456
  888MPD2     N13024   2.596   2.036  14.638 -0.4304  0.0915  0.4716
  888MPD2    H513025   2.606   2.062  14.736 -0.1252  0.8628  0.2345
  888MPD2    N113026   2.423   1.669  14.867  0.4220 -0.6401  0.5129
  888MPD2    H713027   2.471   1.704  14.949 -0.3126  2.0519 -0.2281
  889MPD2     C13028   1.676   0.988  12.530  0.9845 -0.4048  0.1755
  889MPD2    C113029   1.741   0.983  12.649  0.1703 -0.1952 -0.7155
  889MPD2    C213030   1.690   1.073  12.738  0.0118  0.1927  0.4144
  889MPD2    C313031   1.616   1.178  12.702 -0.3305 -0.1423  0.6977
  889MPD2    C413032   1.566   1.186  12.575 -0.7930 -0.3672 -0.3575
  889MPD2    C513033   1.597   1.093  12.484 -0.0775  0.7494 -0.6498
  889MPD2     H13034   1.723   1.056  12.840 -0.2378  1.0629  0.6423
  889MPD2    H113035   1.497   1.264  12.544  0.5728  0.7811 -0.5021
  889MPD2    H213036   1.705   0.924  12.447  0.1395 -1.3373  0.5948
  889MPD2    H313037   1.551   1.096  12.386  1.7519  2.0433 -1.4721
  889MPD2     N13038   1.593   1.273  12.804 -0.4736  0.3892  0.4134
  889MPD2    H513039   1.630   1.257  12.897 -1.4173 -0.9832  0.5384
  889MPD2    N113040   1.801   0.864  12.696 -0.0966 -0.3983  0.1252
  889MPD2    H713041   1.796   0.853  12.796  0.8772  0.3827  0.2557
  890MPD2     C13042   1.602   2.681  14.790  0.3514  0.2468  1.0040
  890MPD2    C113043   1.587   2.757  14.900  0.8606 -0.3204 -0.5961
  890MPD2    C213044   1.645   2.704  15.009  0.0379  0.2298 -0.7252
  890MPD2    C313045   1.711   2.580  15.021 -0.3469 -0.2512 -0.4674
  890MPD2    C413046   1.721   2.503  14.909 -0.1541  0.1706  0.0246
  890MPD2    C513047   1.662   2.551  14.793 -0.4278 -0.4888  0.3829
  890MPD2     H13048   1.634   2.771  15.093  0.5636  0.1452 -0.5909
  890MPD2    H113049   1.760   2.402  14.903 -0.0304  0.1307  1.3951
  890MPD2    H213050   1.567   2.714  14.693 -1.2607 -0.3884  1.3826
  890MPD2    H313051   1.668   2.491  14.703  2.2932  0.3061  0.0440
  890MPD2     N13052   1.747   2.531  15.147  0.5379  0.1940  0.2271
  890MPD2    H513053   1.725   2.589  15.228  1.1659 -0.0560  0.5812
  890MPD2    N113054   1.520   2.879  14.882 -0.2278 -0.2844  0.1236
  890MPD2    H713055   1.510   2.915  14.787  3.8761  0.9095  0.1152
  891MPD2     C13056   3.782   1.028  16.448 -0.3893  0.4036  0.4629
  891MPD2    C113057   3.809   1.165  16.447 -0.5551  0.0199  0.0988
  891MPD2    C213058   3.933   1.215  16.482  0.9304  0.2641  0.1125
  891MPD2    C313059   4.033   1.121  16.498 -0.8058 -0.1403 -0.3662
  891MPD2    C413060   4.008   0.982  16.494  0.0132 -0.6496 -0.5295
  891MPD2    C513061   3.879   0.940  16.469 -0.1995  0.6846  0.0284
  891MPD2     H13062   3.951   1.322  16.485 -1.0440  0.5717  0.9833
  891MPD2    H113063   4.080   0.904  16.514  2.6929  1.4076 -2.2369
  891MPD2    H213064   3.689   0.980  16.422 -0.2995 -0.5002  1.8416
  891MPD2    H313065   3.849   0.836  16.476 -1.0865  0.7506 -2.6656
  891MPD2     N13066   4.162   1.172  16.536 -0.2010 -0.3259 -0.4404
  891MPD2    H513067   4.174   1.268  16.566 -1.1201 -0.1043 -0.7728
  891MPD2    N113068   3.699   1.240  16.414 -0.1071 -0.6899  0.0740
  891MPD2    H713069   3.620   1.190  16.376 -0.3296  1.4250 -2.2413
  892MPD2     C13070   0.430   2.653  14.335  0.3263  0.1628  0.4867
  892MPD2    C113071   0.340   2.575  14.402  0.1576 -0.0468 -0.1492
  892MPD2    C213072   0.332   2.441  14.387  0.2570  0.3972 -0.0439
  892MPD2    C313073   0.418   2.382  14.287 -0.4804  0.8390 -0.1845
  892MPD2    C413074   0.517   2.456  14.227  0.2727 -0.1813 -0.8801
  892MPD2    C513075   0.524   2.591  14.253 -0.2300 -0.6401 -0.3122
  892MPD2     H13076   0.266   2.382  14.450 -0.6083  0.0587 -1.2721
  892MPD2    H113077   0.599   2.415  14.170 -0.2923 -2.3144 -0.1407
  892MPD2    H213078   0.451   2.756  14.364 -0.7759  0.8414 -1.1223
  892MPD2    H313079   0.606   2.655  14.219 -0.3210 -0.6729 -0.5963
  892MPD2     N13080   0.418   2.244  14.251 -0.2717 -0.1098 -0.2531
  892MPD2    H513081   0.498   2.226  14.190  1.0164  1.3213  1.0068
  892MPD2    N113082   0.255   2.644  14.487  0.2493  0.3769 -0.3020
  892MPD2    H713083   0.228   2.737  14.454 -0.5717 -0.7053 -2.7405
  893MPD2     C13084   1.603   1.088   1.789  0.3788  0.5711  0.6710
  893MPD2    C113085   1.725   1.112   1.843  0.1634 -0.1694 -0.3804
  893MPD2    C213086   1.734   1.202   1.955 -0.0322  0.6431 -0.1633
  893MPD2    C313087   1.621   1.256   2.011  0.3032  0.6841 -0.5802
  893MPD2    C413088   1.503   1.219   1.962 -0.9961 -0.9156  0.2414
  893MPD2    C513089   1.494   1.134   1.858 -0.1542 -0.3334 -0.0454
  893MPD2     H13090   1.832   1.227   1.992 -0.2142  1.2139 -0.0688
  893MPD2    H113091   1.413   1.253   2.011 -1.2340 -2.3119  0.7718
  893MPD2    H213092   1.584   1.015   1.712  0.9924  2.2782 -1.1170
  893MPD2    H313093   1.394   1.106   1.827 -0.8164  1.0056  0.8747
  893MPD2     N13094   1.631   1.335   2.130  0.2243  0.0560 -0.0094
  893MPD2    H513095   1.544   1.367   2.171  1.3699  2.6247  0.4057
  893MPD2    N113096   1.831   1.059   1.770  1.1587 -0.1548 -0.1387
  893MPD2    H713097   1.815   1.014   1.680  1.7921  2.6044 -1.6459
  894MPD2     C13098   0.246   2.963   0.125  0.2423 -0.1185  0.2194
  894MPD2    C113099   0.168   3.016   0.223  0.3814 -0.2876 -0.6311
  894MPD2    C213100   0.229   3.089   0.327  0.0940 -0.1763  0.2788
  894MPD2    C313101   0.363   3.125   0.322  0.0058 -0.3231 -0.1776
  894MPD2    C413102   0.440   3.063   0.225 -0.0992 -0.1834 -0.2105
  894MPD2    C513103   0.383   2.984   0.127 -0.3983 -0.5944 -0.3844
  894MPD2     H13104   0.159   3.112   0.406  0.2466 -2.6425  1.1108
  894MPD2    H113105   0.546   3.083   0.214 -0.0422  0.0268  0.7339
  894MPD2    H213106   0.204   2.893   0.053  0.0550  0.3945 -0.1674
  894MPD2    H313107   0.443   2.947   0.045  0.7986 -1.4219  0.8704
  894MPD2     N13108   0.421   3.224   0.407 -0.0093 -0.0527  0.6304
  894MPD2    H513109   0.369   3.245   0.492  0.9563 -2.1080  1.7359
  894MPD2    N113110   0.028   3.003   0.225  0.6619 -0.3728 -0.3549
  894MPD2    H713111   4.708   3.030   0.311  1.1558 -1.0025  0.1071
  895MPD2     C13112   4.480   1.574  13.755 -0.1196  0.3035  0.4104
  895MPD2    C113113   4.383   1.505  13.689  0.3252  0.4419  0.0280
  895MPD2    C213114   4.398   1.371  13.666 -0.4756  0.1628  0.3526
  895MPD2    C313115   4.507   1.302  13.725 -0.3891  0.2492  0.3526
  895MPD2    C413116   4.610   1.368  13.787 -0.1096 -0.6782 -0.1253
  895MPD2    C513117   4.596   1.510  13.794  0.0546 -0.1306  0.2530
  895MPD2     H13118   4.315   1.321  13.617 -0.4264 -2.3139  2.7872
  895MPD2    H113119   4.699   1.322  13.828  0.0269 -2.5953 -2.5292
  895MPD2    H213120   4.480   1.680  13.777  2.6819  0.4434 -0.1444
  895MPD2    H313121   4.676   1.577  13.822 -0.9753  1.0994  0.2766
  895MPD2     N13122   4.503   1.162  13.721  0.4661  0.2350  0.0986
  895MPD2    H513123   4.425   1.114  13.677  0.3830  2.4540 -2.1428
  895MPD2    N113124   4.254   1.559  13.654 -0.3021  0.3742 -0.0854
  895MPD2    H713125   4.189   1.498  13.605  1.0140 -0.8590 -0.2611
  896MPD2     C13126   1.951   3.291   0.942 -0.2201 -0.1124  0.2187
  896MPD2    C113127   1.851   3.371   0.994  0.0059 -0.5693 -0.3149
  896MPD2    C213128   1.736   3.317   1.039  0.2096 -0.5372 -1.2660
  896MPD2    C313129   1.708   3.185   1.024  0.2495 -0.1459  0.3189
  896MPD2    C413130   1.801   3.108   0.970 -0.4833  0.4669 -0.6715
  896MPD2    C513131   1.920   3.157   0.931  0.2774  0.2191 -0.2770
  896MPD2     H13132   1.657   3.383   1.074 -0.2451 -1.1157 -1.1933
  896MPD2    H113133   1.789   3.000   0.972  0.1708  0.4004 -0.3912
  896MPD2    H213134   2.042   3.323   0.894 -0.9149  0.8503 -0.4555
  896MPD2    H313135   1.986   3.081   0.891  1.0449  0.5448  0.3845
  896MPD2     N13136   1.592   3.115   1.062 -0.0511 -0.7648  1.3798
  896MPD2    H513137   1.579   3.020   1.027 -1.8637 -0.4383  1.1574
  896MPD2    N113138   1.873   3.514   0.989 -0.2661  0.2939  0.1082
  896MPD2    H713139   1.950   3.557   0.938 -0.8572  2.2988  0.9174
  897MPD2     C13140   2.672   0.764  10.487  0.5382  0.7885 -0.2688
  897MPD2    C113141   2.658   0.904  10.472 -1.1480  0.8573 -0.1646
  897MPD2    C213142   2.572   0.970  10.556 -0.2934 -0.2506  0.2883
  897MPD2    C313143   2.493   0.906  10.643  0.0113  0.1537  0.5091
  897MPD2    C413144   2.504   0.768  10.652  0.1861  0.4617  0.4379
  897MPD2    C513145   2.592   0.699  10.569  0.6321  0.0191  0.4929
  897MPD2     H13146   2.548   1.075  10.544 -0.5791 -0.6512 -2.6451
  897MPD2    H113147   2.442   0.708  10.718  2.8809  0.0597  2.6341
  897MPD2    H213148   2.734   0.700  10.424  1.8496  1.1270  0.6899
  897MPD2    H313149   2.604   0.594  10.593  1.2602  0.2550  1.2252
  897MPD2     N13150   2.391   0.980  10.715  0.6552  0.3288 -0.3642
  897MPD2    H513151   2.385   1.077  10.687 -1.4650 -0.2062 -1.7158
  897MPD2    N113152   2.726   0.967  10.370  0.4994  0.5627 -0.2311
  897MPD2    H713153   2.786   0.913  10.310 -1.0407 -0.7062 -0.6249
  898MPD2     C13154   0.802   1.427   0.011  0.6504  0.6385 -0.6792
  898MPD2    C113155   0.780   1.563   0.020 -0.4581 -0.0745 -0.7159
  898MPD2    C213156   0.715   1.626  17.619 -0.4003  0.2007 -0.0661
  898MPD2    C313157   0.677   1.565  17.502 -0.2285 -0.4920  0.4859
  898MPD2    C413158   0.709   1.433  17.488 -0.3542 -0.1733 -0.9544
  898MPD2    C513159   0.769   1.366  17.598  0.1879 -0.4449  0.0621
  898MPD2     H13160   0.708   1.733  17.632 -1.6123  0.1245 -0.0477
  898MPD2    H113161   0.690   1.382  17.394 -0.0623 -3.0319  0.5411
  898MPD2    H213162   0.846   1.365   0.088  0.0451  0.9688 -0.0686
  898MPD2    H313163   0.782   1.261  17.577  0.5820 -0.3010 -0.4360
  898MPD2     N13164   0.632   1.642  17.395 -0.4236 -0.5793 -0.3144
  898MPD2    H513165   0.625   1.740  17.420  3.5845 -1.1606  3.0725
  898MPD2    N113166   0.830   1.637   0.127 -0.6058 -0.3368  0.6647
  898MPD2    H713167   0.829   1.738   0.115 -3.9724 -0.4877 -0.3730
  899MPD2     C13168   1.171   2.381  16.714 -0.2516  0.1268  0.1090
  899MPD2    C113169   1.150   2.462  16.818  0.0899  0.4935 -1.4217
  899MPD2    C213170   1.080   2.416  16.927  0.4461  0.0210  0.1353
  899MPD2    C313171   1.022   2.284  16.923  0.5156  0.3089  0.7997
  899MPD2    C413172   1.039   2.208  16.813 -0.0978 -0.6147  0.4251
  899MPD2    C513173   1.109   2.255  16.703  0.4204 -0.1162 -0.1897
  899MPD2     H13174   1.059   2.478  17.014  0.8119 -0.2950  0.4507
  899MPD2    H113175   0.994   2.110  16.803  1.5324 -1.3780  0.4337
  899MPD2    H213176   1.233   2.410  16.630  2.3112  0.2880  2.0630
  899MPD2    H313177   1.136   2.188  16.621  1.6408  0.6199 -0.3848
  899MPD2     N13178   0.924   2.240  17.014  0.6645  0.0370 -0.6208
  899MPD2    H513179   0.880   2.150  16.996  1.5452 -0.8281  1.5639
  899MPD2    N113180   1.195   2.597  16.810 -0.0918 -0.6062  0.4182
  899MPD2    H713181   1.240   2.624  16.723 -0.3501  1.0350  0.7888
  900MPD2     C13182   0.556   4.030  12.265 -0.0430  0.8138  0.0010
  900MPD2    C113183   0.423   3.991  12.252  0.5436  0.0499  0.7423
  900MPD2    C213184   0.333   4.084  12.212 -1.1316  0.4466 -0.5576
  900MPD2    C313185   0.365   4.222  12.204  0.1698  0.6332  0.2894
  900MPD2    C413186   0.495   4.260  12.227  0.0356 -0.1429 -0.1307
  900MPD2    C513187   0.585   4.165  12.261 -0.6232  0.2413  0.3466
  900MPD2     H13188   0.230   4.052  12.201 -1.1052  0.1504  0.0253
  900MPD2    H113189   0.528   4.361  12.245 -0.9388  0.5745 -2.4366
  900MPD2    H213190   0.640   3.969  12.298 -0.0883  0.6592 -0.1730
  900MPD2    H313191   0.690   4.194  12.258 -0.6127  0.0020 -1.9477
  900MPD2     N13192   0.267   4.322  12.153  0.0705 -0.0025 -0.2611
  900MPD2    H513193   0.172   4.292  12.134 -0.4544  0.5361  1.5715
  900MPD2    N113194   0.395   3.852  12.275 -0.3175 -0.4916 -0.0139
  900MPD2    H713195   0.465   3.783  12.302 -0.6494 -0.4806  0.8478
  901MPD2     C13196   0.200   2.995  12.837  0.0962  0.8217  0.4794
  901MPD2    C113197   0.244   2.944  12.717  0.3804 -0.2382  0.2899
  901MPD2    C213198   0.279   3.038  12.617  0.0376 -0.1379 -0.4146
  901MPD2    C313199   0.263   3.173  12.631  0.2473 -0.0003  0.3450
  901MPD2    C413200   0.217   3.220  12.755  0.0860 -0.4230  1.2122
  901MPD2    C513201   0.179   3.127  12.851  0.0199 -0.5883 -0.3936
  901MPD2     H13202   0.321   2.997  12.526  3.4332  1.1869  0.5595
  901MPD2    H113203   0.201   3.326  12.771  1.8878 -0.0766  0.6905
  901MPD2    H213204   0.162   2.935  12.919  1.1945  1.0075  1.1205
  901MPD2    H313205   0.146   3.164  12.947  0.4175 -2.7472  0.5720
  901MPD2     N13206   0.297   3.253  12.515  0.0999  0.1536 -0.4815
  901MPD2    H513207   0.328   3.211  12.428  1.7553  2.4754 -1.0424
  901MPD2    N113208   0.251   2.808  12.681  0.4913 -0.1503 -0.4479
  901MPD2    H713209   0.301   2.785  12.596 -0.4493  1.2641 -1.3898
  902MPD2     C13210   3.633   2.205  12.652  1.2954  0.7052  0.7192
  902MPD2    C113211   3.724   2.295  12.699  0.1126 -0.2653 -0.3352
  902MPD2    C213212   3.797   2.255  12.810 -0.1972 -0.9133 -0.1101
  902MPD2    C313213   3.778   2.139  12.882 -0.1862  0.0047  0.3694
  902MPD2    C413214   3.671   2.068  12.844  0.1416  0.4150  0.6069
  902MPD2    C513215   3.609   2.096  12.725  0.1162  0.5554 -0.4948
  902MPD2     H13216   3.886   2.315  12.826 -1.5494  0.7797  1.0834
  902MPD2    H113217   3.650   1.971  12.888 -1.2141 -1.0274 -3.2049
  902MPD2    H213218   3.581   2.227  12.559 -0.2959 -1.0317  1.1917
  902MPD2    H313219   3.535   2.021  12.701 -0.1050  0.8165 -0.6256
  902MPD2     N13220   3.864   2.086  12.983  0.5195  0.4225  0.5047
  902MPD2    H513221   3.848   1.995  13.024 -0.3665  0.8015  1.0304
  902MPD2    N113222   3.754   2.413  12.627 -0.2551 -0.4532 -0.1715
  902MPD2    H713223   3.691   2.425  12.549 -0.1987 -0.6981 -0.2562
  903MPD2     C13224   4.431   2.132  12.617  1.2864  0.5392 -0.2133
  903MPD2    C113225   4.352   2.032  12.674 -0.2330  0.5629  0.0010
  903MPD2    C213226   4.277   1.959  12.589  0.8006 -0.2740  0.3261
  903MPD2    C313227   4.259   2.007  12.455  0.5427 -0.3621 -0.1049
  903MPD2    C413228   4.339   2.106  12.412  0.0276 -0.2861 -0.0656
  903MPD2    C513229   4.434   2.160  12.490 -0.9134  0.1351 -0.8756
  903MPD2     H13230   4.216   1.873  12.614 -0.5946  1.0579  1.5676
  903MPD2    H113231   4.336   2.149  12.313 -3.0989  1.1804  0.6582
  903MPD2    H213232   4.483   2.199  12.685  2.0108 -2.2080  1.9536
  903MPD2    H313233   4.473   2.252  12.450 -0.4612 -0.6638 -2.2728
  903MPD2     N13234   4.157   1.944  12.378  0.0106  0.3178  0.2135
  903MPD2    H513235   4.101   1.872  12.424  1.3529  0.0680  1.4426
  903MPD2    N113236   4.348   2.016  12.811  0.1612 -0.0939  0.5139
  903MPD2    H713237   4.389   2.089  12.869 -0.4314  0.8081 -0.2116
  904MPD2     C13238   4.096   1.170  13.873  0.4384 -0.1633 -0.1324
  904MPD2    C113239   4.034   1.063  13.928 -0.0287 -0.3137 -0.2074
  904MPD2    C213240   4.104   0.975  14.009 -0.5744 -0.0457 -0.7883
  904MPD2    C313241   4.236   1.010  14.040  0.0916 -0.4701 -0.0879
  904MPD2    C413242   4.284   1.136  14.001  0.3184  0.1977 -0.7449
  904MPD2    C513243   4.219   1.212  13.912  0.3593  0.3500 -0.2379
  904MPD2     H13244   4.055   0.884  14.044 -0.2308 -0.4184 -1.2686
  904MPD2    H113245   4.382   1.176  14.024  0.3013  0.3328 -0.9118
  904MPD2    H213246   4.055   1.235  13.796  0.3011  2.0025  1.7421
  904MPD2    H313247   4.254   1.308  13.877 -3.0077  0.9527 -1.9148
  904MPD2     N13248   4.316   0.921  14.122 -0.2391 -0.5014  0.8293
  904MPD2    H513249   4.277   0.827  14.115  0.0523 -0.5485 -0.2125
  904MPD2    N113250   3.906   1.046  13.883 -0.4037  0.2028 -0.5192
  904MPD2    H713251   3.877   1.113  13.812  3.1505  2.6295  0.3339
  905MPD2     C13252   3.835   0.914  13.300  0.2103 -0.5567 -0.4577
  905MPD2    C113253   3.869   0.996  13.403  0.2418 -0.6625 -0.1342
  905MPD2    C213254   4.003   0.985  13.440  0.5958  0.4931 -0.0760
  905MPD2    C313255   4.086   0.887  13.383 -0.4837  0.7372  0.0358
  905MPD2    C413256   4.049   0.814  13.273  0.2371 -0.6544  0.3002
  905MPD2    C513257   3.917   0.823  13.241  0.3602 -0.2055  0.1217
  905MPD2     H13258   4.031   1.033  13.533 -1.2656 -1.2700  1.3909
  905MPD2    H113259   4.099   0.727  13.233  0.4461 -0.5893  0.4162
  905MPD2    H213260   3.732   0.918  13.267  0.9244  3.5517 -2.1260
  905MPD2    H313261   3.870   0.760  13.166  0.2957 -1.3217  1.0874
  905MPD2     N13262   4.211   0.847  13.431 -0.3411 -0.9984  0.2397
  905MPD2    H513263   4.248   0.762  13.389  1.5450 -1.3771  2.6609
  905MPD2    N113264   3.764   1.063  13.473 -0.1407  0.8603  0.1786
  905MPD2    H713265   3.673   1.018  13.463 -0.8396  1.8501  2.0781
  906MPD2     C13266   1.339   1.237  11.027 -0.4061  0.1401 -0.1528
  906MPD2    C113267   1.344   1.164  10.908 -0.0600 -0.0450  0.3892
  906MPD2    C213268   1.383   1.030  10.911 -0.8859  0.3772  0.7999
  906MPD2    C313269   1.406   0.964  11.028 -0.2448 -0.1517 -0.2190
  906MPD2    C413270   1.401   1.039  11.144  0.9658 -0.3269  0.0967
  906MPD2    C513271   1.371   1.171  11.143  0.0551  0.0266  0.0283
  906MPD2     H13272   1.374   0.968  10.822 -0.6274  0.2768  0.8453
  906MPD2    H113273   1.404   0.986  11.238  1.2547  1.6641  1.1930
  906MPD2    H213274   1.310   1.340  11.043 -0.1420  0.2301 -0.2524
  906MPD2    H313275   1.361   1.224  11.237 -0.3899  0.6084 -0.3417
  906MPD2     N13276   1.451   0.829  11.037 -0.5689  0.1999  0.1809
  906MPD2    H513277   1.452   0.790  11.130 -1.2553  1.8103  0.8543
  906MPD2    N113278   1.331   1.221  10.780 -0.1450  0.3699 -0.5248
  906MPD2    H713279   1.314   1.158  10.702  0.4945  0.2470 -0.5704
  907MPD2     C13280   0.091   0.451  15.620  0.0145 -0.5568  0.4759
  907MPD2    C113281   0.158   0.343  15.580  0.4019  0.4764 -0.3681
  907MPD2    C213282   0.256   0.285  15.667 -0.8808 -0.0667 -0.0072
  907MPD2    C313283   0.288   0.337  15.790  0.2891  0.8611  0.7606
  907MPD2    C413284   0.216   0.451  15.823  0.3884  0.0145  0.2802
  907MPD2    C513285   0.127   0.508  15.738 -0.7036  0.1153 -0.1001
  907MPD2     H13286   0.310   0.196  15.636 -0.0920  0.4648 -0.1562
  907MPD2    H113287   0.227   0.505  15.916 -2.2161  1.3124 -0.1694
  907MPD2    H213288   0.032   0.512  15.552  0.1515 -1.6886 -0.6752
  907MPD2    H313289   0.084   0.606  15.753 -1.3847 -0.3640  1.0441
  907MPD2     N13290   0.386   0.269  15.871  1.0893 -0.1188 -0.3309
  907MPD2    H513291   0.435   0.193  15.827  2.3043  0.9877 -0.8871
  907MPD2    N113292   0.149   0.283  15.450 -0.3693  0.1313  0.3153
  907MPD2    H713293   0.211   0.205  15.429  1.1599  1.1132  1.1313
  908MPD2     C13294   2.970   0.607   9.628 -0.0994 -0.3018 -0.7872
  908MPD2    C113295   2.902   0.576   9.739 -0.3344 -0.6346 -0.3286
  908MPD2    C213296   2.892   0.672   9.845 -0.0766  0.2573 -0.1391
  908MPD2    C313297   2.933   0.800   9.829  0.0839 -0.1866 -0.3155
  908MPD2    C413298   2.979   0.837   9.705  0.0692  0.3888  0.1485
  908MPD2    C513299   3.005   0.736   9.612  0.0405  1.3330 -0.1320
  908MPD2     H13300   2.863   0.643   9.945 -0.1133 -0.8293 -0.4587
  908MPD2    H113301   3.026   0.931   9.679 -0.7488  0.9707  0.7952
  908MPD2    H213302   2.987   0.546   9.540  2.4076  1.4909 -1.5258
  908MPD2    H313303   3.047   0.765   9.516 -1.4349  1.3764 -0.7690
  908MPD2     N13304   2.928   0.889   9.935 -0.3380 -0.3931  0.7314
  908MPD2    H513305   2.912   0.843  10.023 -0.0725 -1.7482  0.0745
  908MPD2    N113306   2.865   0.439   9.753 -0.6361  0.0748 -0.0625
  908MPD2    H713307   2.889   0.384   9.671  1.4668 -0.2260  0.7417
  909MPD2     C13308   2.763   3.872  11.268 -0.5195  0.3876 -0.2446
  909MPD2    C113309   2.868   3.938  11.326 -0.1751 -0.5047 -0.7683
  909MPD2    C213310   2.844   3.991  11.448 -0.2289  0.4091  0.0215
  909MPD2    C313311   2.718   3.973  11.512 -0.2652 -0.2348  0.0743
  909MPD2    C413312   2.616   3.921  11.445  0.2678 -0.3557  0.5956
  909MPD2    C513313   2.642   3.865  11.325 -0.9121  0.1720  0.4613
  909MPD2     H13314   2.928   4.045  11.490  1.1382 -0.7572 -1.1766
  909MPD2    H113315   2.517   3.911  11.489 -0.7115  2.2542 -0.9929
  909MPD2    H213316   2.777   3.817  11.176  2.2780  1.0631 -0.2144
  909MPD2    H313317   2.563   3.813  11.272 -0.5235 -0.0780  0.1362
  909MPD2     N13318   2.705   4.029  11.640  0.5427 -0.4574  0.0071
  909MPD2    H513319   2.792   4.067  11.677  1.0557 -0.1270 -1.5078
  909MPD2    N113320   2.996   3.963  11.267  0.1107 -0.8634 -0.3246
  909MPD2    H713321   3.057   4.028  11.316  0.0168 -1.7330  0.9534
  910MPD2     C13322   4.404   1.046  16.149  0.7774  0.3752 -0.1888
  910MPD2    C113323   4.451   0.939  16.072  0.5271 -0.1304  0.3588
  910MPD2    C213324   4.396   0.919  15.947 -0.2285  0.2691  0.1286
  910MPD2    C313325   4.299   1.001  15.894 -0.4646  0.1592  0.0917
  910MPD2    C413326   4.257   1.109  15.972 -0.6399 -0.9199 -0.0406
  910MPD2    C513327   4.303   1.126  16.098  0.1279 -0.2679 -0.3090
  910MPD2     H13328   4.429   0.830  15.895  2.0027  0.2256  1.6230
  910MPD2    H113329   4.180   1.181  15.946  0.1320  0.6100  1.8841
  910MPD2    H213330   4.432   1.055  16.253  0.5209 -2.7563  0.1474
  910MPD2    H313331   4.249   1.202  16.153  0.3216  0.4529 -1.1341
  910MPD2     N13332   4.246   0.987  15.762 -0.4952  0.2105  0.2483
  910MPD2    H513333   4.174   1.050  15.730  0.7517  2.2098  1.3682
  910MPD2    N113334   4.538   0.835  16.115 -0.2854  0.4381 -0.3597
  910MPD2    H713335   4.554   0.761  16.047  1.0843  0.5404 -0.1431
  911MPD2     C13336   2.108   1.224  15.803  0.3664 -0.6646  0.4561
  911MPD2    C113337   2.167   1.296  15.906 -0.5046 -0.2791 -1.3954
  911MPD2    C213338   2.104   1.414  15.945 -0.0722 -0.3621  0.2947
  911MPD2    C313339   1.971   1.435  15.899  0.2057  0.1900 -0.7814
  911MPD2    C413340   1.915   1.361  15.800  0.4632  0.4650  0.1784
  911MPD2    C513341   1.981   1.254  15.750  0.4199  0.6703 -0.1858
  911MPD2     H13342   2.145   1.475  16.024  0.8945 -2.1162  1.1407
  911MPD2    H113343   1.821   1.396  15.759  0.1871 -0.7788 -0.2434
  911MPD2    H213344   2.149   1.129  15.772  2.4257 -0.0235  1.2536
  911MPD2    H313345   1.937   1.199  15.667  1.7906  0.3293 -0.6873
  911MPD2     N13346   1.893   1.546  15.933  0.9277 -0.5213 -0.3677
  911MPD2    H513347   1.798   1.541  15.897  0.4882 -0.0057  0.7355
  911MPD2    N113348   2.282   1.248  15.979 -0.2816 -0.4635 -0.0471
  911MPD2    H713349   2.316   1.157  15.951 -2.5348 -0.7532 -1.8825
  912MPD2     C13350   1.527   1.380  15.591  0.0697  0.1818 -0.2641
  912MPD2    C113351   1.550   1.409  15.721 -0.0622  0.4433 -0.0649
  912MPD2    C213352   1.599   1.300  15.803  0.3678 -0.6533  0.4051
  912MPD2    C313353   1.637   1.181  15.747 -0.0479  0.5462 -0.4579
  912MPD2    C413354   1.618   1.161  15.606 -0.4318 -0.5810 -0.6537
  912MPD2    C513355   1.568   1.266  15.533  0.3247  0.4266 -0.4971
  912MPD2     H13356   1.620   1.314  15.908  2.9212 -1.5763  0.0116
  912MPD2    H113357   1.634   1.069  15.552  0.4678  0.8279 -2.8077
  912MPD2    H213358   1.490   1.460  15.528  0.5414  1.0173  0.5229
  912MPD2    H313359   1.576   1.258  15.425  1.5858  0.3446 -0.4066
  912MPD2     N13360   1.685   1.087  15.839  0.6287 -0.6523 -0.2332
  912MPD2    H513361   1.693   1.118  15.935 -0.2363 -0.8982 -0.0841
  912MPD2    N113362   1.524   1.536  15.775  0.4090 -0.5620  0.0185
  912MPD2    H713363   1.512   1.613  15.710  1.0237 -0.2224  0.3020
  913MPD2     C13364   3.126   2.530  10.883 -0.7493 -0.0377 -0.4081
  913MPD2    C113365   3.088   2.664  10.879  0.6263  0.5247 -0.6974
  913MPD2    C213366   3.055   2.724  10.762  0.4548 -0.0689 -0.4898
  913MPD2    C313367   3.036   2.638  10.651 -0.4941 -0.3784 -0.2805
  913MPD2    C413368   3.054   2.498  10.655 -0.4174 -0.6716 -0.0652
  913MPD2    C513369   3.110   2.449  10.772 -0.6904  0.2768 -0.2267
  913MPD2     H13370   3.049   2.832  10.762 -0.3702 -0.1212 -0.4088
  913MPD2    H113371   3.031   2.430  10.574 -1.2464 -0.3215 -0.1290
  913MPD2    H213372   3.168   2.484  10.972 -0.9481  0.1715 -0.2079
  913MPD2    H313373   3.131   2.344  10.790  2.3545  0.9346  0.0965
  913MPD2     N13374   3.006   2.679  10.523  0.3577 -0.4452 -0.2289
  913MPD2    H513375   2.994   2.604  10.456  0.9416 -1.9422  1.3359
  913MPD2    N113376   3.108   2.734  11.004  0.2540 -0.0748  0.1320
  913MPD2    H713377   3.137   2.680  11.084 -3.3908 -2.2582 -0.0261
  914MPD2     C13378   4.614   2.473  12.010 -0.3533  0.2446 -0.4518
  914MPD2    C113379   0.012   2.529  12.029  0.2081 -0.4859  0.7524
  914MPD2    C213380   0.086   2.490  12.143 -0.4516 -0.0477 -0.1489
  914MPD2    C313381   0.036   2.410  12.240  0.1918 -0.1370 -0.5374
  914MPD2    C413382   4.633   2.365  12.223 -0.3454 -0.1926  0.2124
  914MPD2    C513383   4.562   2.391  12.109 -1.3850  0.8958 -0.3646
  914MPD2     H13384   0.185   2.531  12.159 -0.2074 -0.5771 -0.2961
  914MPD2    H113385   4.582   2.300  12.294 -1.2124  1.2628  0.9392
  914MPD2    H213386   4.560   2.488  11.917 -2.4490 -2.3291  0.3525
  914MPD2    H313387   4.465   2.343  12.097 -1.6910  1.3655  0.2227
  914MPD2     N13388   0.109   2.403  12.362  0.6847  0.5826  0.7089
  914MPD2    H513389   0.200   2.448  12.355  0.8078  0.2196 -0.0419
  914MPD2    N113390   0.069   2.614  11.929 -0.6623 -0.2925  0.2291
  914MPD2    H713391   0.021   2.620  11.840 -0.4177  2.0090  0.2512
  915MPD2     C13392   3.897   2.856  15.334  0.5403  0.5289  0.0285
  915MPD2    C113393   3.790   2.932  15.282 -1.1636  0.0772  0.3666
  915MPD2    C213394   3.710   3.003  15.372  0.3812  0.3706 -0.5568
  915MPD2    C313395   3.743   3.011  15.508 -0.1988  0.3893  0.2585
  915MPD2    C413396   3.861   2.948  15.544 -0.3797 -0.5418  0.2287
  915MPD2    C513397   3.934   2.870  15.463 -0.8198  0.9630  0.0543
  915MPD2     H13398   3.626   3.055  15.328 -0.0871  0.4865  0.4612
  915MPD2    H113399   3.901   2.949  15.645  0.6509 -0.1711 -0.1864
  915MPD2    H213400   3.966   2.807  15.266 -0.9485  0.7888 -1.6662
  915MPD2    H313401   4.020   2.817  15.501 -0.6998  2.1726  1.4635
  915MPD2     N13402   3.658   3.080  15.603 -0.2887  0.3730  0.4313
  915MPD2    H513403   3.567   3.098  15.561 -0.0600 -0.2716 -0.3620
  915MPD2    N113404   3.774   2.930  15.146 -0.0239  0.3542 -0.0298
  915MPD2    H713405   3.834   2.867  15.093  1.0917  0.7440  0.7606
  916MPD2     C13406   1.270   1.039  15.425 -0.5184 -0.0249 -0.4106
  916MPD2    C113407   1.328   0.979  15.541 -0.6081  0.6444  0.2115
  916MPD2    C213408   1.398   0.859  15.523  0.6090 -0.2938 -0.2682
  916MPD2    C313409   1.410   0.796  15.400 -0.6749  0.8200  0.4989
  916MPD2    C413410   1.350   0.863  15.293  0.1469 -0.0609 -0.0027
  916MPD2    C513411   1.284   0.980  15.298 -0.3692  0.0618  0.1761
  916MPD2     H13412   1.448   0.804  15.602 -0.7088  0.8773  1.3865
  916MPD2    H113413   1.357   0.817  15.195  1.2907 -1.3351  0.6734
  916MPD2    H213414   1.215   1.131  15.433 -2.2362 -1.1541  0.8797
  916MPD2    H313415   1.249   1.034  15.211  0.4163  0.7276  0.2734
  916MPD2     N13416   1.494   0.686  15.400 -0.6987 -0.1715  0.1018
  916MPD2    H513417   1.531   0.654  15.489 -3.1859  0.7398  1.4752
  916MPD2    N113418   1.295   1.024  15.673 -0.4720 -0.2944  0.5426
  916MPD2    H713419   1.237   1.106  15.682  1.0796  0.7889  0.6778
  917MPD2     C13420   2.030   3.282  11.087  0.1124 -0.5653 -0.3880
  917MPD2    C113421   1.952   3.384  11.138  0.0937 -0.2516  0.3305
  917MPD2    C213422   1.999   3.518  11.131  0.0209 -0.0845  0.0781
  917MPD2    C313423   2.120   3.535  11.057 -0.4442 -0.6134  0.0760
  917MPD2    C413424   2.191   3.433  10.998  0.4856 -0.1178 -0.5407
  917MPD2    C513425   2.145   3.310  11.019  0.7989 -0.1356 -0.0772
  917MPD2     H13426   1.943   3.606  11.160  1.6113  1.5695 -1.8940
  917MPD2    H113427   2.283   3.446  10.942  0.0821 -0.8502 -1.3810
  917MPD2    H213428   1.990   3.181  11.087 -0.3057 -0.3955  1.7353
  917MPD2    H313429   2.200   3.239  10.959  2.4339  1.1158 -0.0400
  917MPD2     N13430   2.174   3.666  11.044  0.1865  0.2380 -0.7038
  917MPD2    H513431   2.251   3.686  10.981  0.3312  0.0877 -0.5737
  917MPD2    N113432   1.832   3.342  11.206 -0.0943  0.2499 -0.5967
  917MPD2    H713433   1.801   3.246  11.212 -0.8829  0.4524 -1.4431
  918MPD2     C13434   1.747   3.693  12.076 -1.6864  0.5989  0.2088
  918MPD2    C113435   1.847   3.652  11.989 -0.2195 -0.8514 -0.1623
  918MPD2    C213436   1.816   3.580  11.879 -0.5895 -0.1692  0.3064
  918MPD2    C313437   1.686   3.548  11.841 -0.5531  0.1899  0.8351
  918MPD2    C413438   1.591   3.587  11.927  0.1656 -0.2738 -0.3263
  918MPD2    C513439   1.618   3.660  12.040 -0.1770 -0.0991  0.2593
  918MPD2     H13440   1.897   3.555  11.812 -1.3087 -0.5925 -0.4083
  918MPD2    H113441   1.484   3.570  11.915  0.2650 -1.5937  0.7664
  918MPD2    H213442   1.760   3.748  12.169  1.6639 -1.7950  1.1701
  918MPD2    H313443   1.538   3.670  12.112  1.3016 -1.0492  2.0561
  918MPD2     N13444   1.664   3.480  11.723 -0.1553  0.5309 -0.1618
  918MPD2    H513445   1.743   3.457  11.664  1.1826  1.6502  1.1864
  918MPD2    N113446   1.979   3.678  12.022 -0.1763 -0.2557  0.1355
  918MPD2    H713447   2.047   3.633  11.962  0.6182  1.8264 -0.5239
  919MPD2     C13448   2.683   2.835  11.392 -0.0197 -0.4672 -0.1018
  919MPD2    C113449   2.636   2.707  11.366 -0.9383  0.4600 -0.6358
  919MPD2    C213450   2.633   2.660  11.238  0.4344 -0.2724 -0.0146
  919MPD2    C313451   2.698   2.731  11.141  0.2489 -0.5151 -0.3670
  919MPD2    C413452   2.739   2.861  11.158  0.0803  0.8958 -0.2590
  919MPD2    C513453   2.727   2.915  11.286 -0.3577 -0.0936 -0.0353
  919MPD2     H13454   2.582   2.567  11.218 -1.5134  1.2629 -2.1194
  919MPD2    H113455   2.793   2.910  11.078 -2.1099  0.1992 -2.1523
  919MPD2    H213456   2.680   2.872  11.494  0.3263  0.9626 -0.6125
  919MPD2    H313457   2.779   3.008  11.308 -1.9611  0.5920  0.8356
  919MPD2     N13458   2.711   2.679  11.006 -0.4125  0.2644 -0.0353
  919MPD2    H513459   2.735   2.744  10.932 -0.0261  1.0629  0.7893
  919MPD2    N113460   2.617   2.609  11.460  0.4231  0.0497 -0.7104
  919MPD2    H713461   2.605   2.514  11.427 -1.5219  0.1055 -0.1774
  920MPD2     C13462   2.486   2.950  10.091  0.1988  0.5573  0.5325
  920MPD2    C113463   2.432   2.822  10.092 -0.3863 -0.4677 -0.3862
  920MPD2    C213464   2.462   2.740  10.194 -0.2451  0.0332  0.4558
  920MPD2    C313465   2.537   2.776  10.301 -0.1807 -0.2103 -0.3884
  920MPD2    C413466   2.585   2.907  10.298 -0.1598 -0.3383 -0.5200
  920MPD2    C513467   2.558   2.995  10.200 -0.3602 -0.2229 -0.1892
  920MPD2     H13468   2.418   2.641  10.197 -0.1246 -0.0858 -1.5400
  920MPD2    H113469   2.619   2.944  10.395  0.6702  1.1718 -1.3879
  920MPD2    H213470   2.472   3.010  10.002  0.9546  1.7209  1.2028
  920MPD2    H313471   2.591   3.098  10.214  0.9891 -0.2976 -2.6724
  920MPD2     N13472   2.549   2.687  10.407 -0.3229  0.8060 -0.3580
  920MPD2    H513473   2.499   2.599  10.407  1.1329 -0.0174  0.3973
  920MPD2    N113474   2.341   2.778  10.000 -0.0472 -0.9018  0.2951
  920MPD2    H713475   2.295   2.689  10.019  0.4890 -1.2984 -0.2546
  921MPD2     C13476   2.988   1.663  16.586  0.4331  0.7581 -0.5146
  921MPD2    C113477   3.014   1.533  16.551 -0.2236 -0.4563 -0.0179
  921MPD2    C213478   2.918   1.460  16.489 -0.3410  1.4724 -0.5416
  921MPD2    C313479   2.785   1.502  16.467  0.4356 -0.0709 -0.2001
  921MPD2    C413480   2.758   1.626  16.511  0.4602 -0.6672  0.0481
  921MPD2    C513481   2.859   1.707  16.564 -0.5730  0.2459  1.0776
  921MPD2     H13482   2.957   1.366  16.452 -1.0303  0.5223  1.1714
  921MPD2    H113483   2.662   1.677  16.517  1.0180  0.1800  1.8891
  921MPD2    H213484   3.059   1.735  16.625  2.1475 -0.9310 -0.5021
  921MPD2    H313485   2.831   1.807  16.594 -0.8509  0.2413  0.8333
  921MPD2     N13486   2.687   1.422  16.420 -0.3975  0.2770 -0.9202
  921MPD2    H513487   2.605   1.474  16.389 -0.7288  0.5779  0.4589
  921MPD2    N113488   3.147   1.476  16.549 -0.7300  0.4367  0.5337
  921MPD2    H713489   3.149   1.382  16.510  2.6710  0.6797  0.1634
  922MPD2     C13490   4.226   3.479  17.177 -0.4927  1.0812  0.4623
  922MPD2    C113491   4.200   3.514  17.046 -0.4573  0.3070 -0.2965
  922MPD2    C213492   4.074   3.560  17.014 -1.0870  0.5837  0.5615
  922MPD2    C313493   3.971   3.573  17.109 -0.1285  0.5077  0.4172
  922MPD2    C413494   4.008   3.545  17.239 -0.2193  0.5143 -0.6510
  922MPD2    C513495   4.135   3.505  17.274  0.3143  0.1200  0.4652
  922MPD2     H13496   4.051   3.584  16.911  0.6553  1.2253  0.3317
  922MPD2    H113497   3.930   3.547  17.314  0.4716  1.7610  0.0437
  922MPD2    H213498   4.326   3.454  17.210 -1.3140 -1.1942  1.2753
  922MPD2    H313499   4.166   3.492  17.377  0.6494  2.0938  0.6173
  922MPD2     N13500   3.847   3.602  17.066 -0.1092  0.1042 -0.3170
  922MPD2    H513501   3.828   3.593  16.967  1.5390 -2.0890 -0.4234
  922MPD2    N113502   4.295   3.503  16.943  0.4381  0.3857  0.0940
  922MPD2    H713503   4.259   3.552  16.861  0.3083  0.8421  0.4222
  923MPD2     C13504   0.559   1.380   8.572  0.1745 -0.0602 -0.5040
  923MPD2    C113505   0.598   1.461   8.679  0.4573 -0.6976 -0.1464
  923MPD2    C213506   0.692   1.417   8.770 -0.8667  1.1094 -0.6820
  923MPD2    C313507   0.757   1.295   8.750 -0.3529  0.3716  0.0560
  923MPD2    C413508   0.728   1.215   8.636  0.0648 -0.4064  0.1425
  923MPD2    C513509   0.621   1.255   8.550  0.0788  0.2579 -0.3701
  923MPD2     H13510   0.732   1.483   8.847  0.6250 -0.6548  0.0451
  923MPD2    H113511   0.785   1.124   8.625  0.2269  0.0107 -2.4638
  923MPD2    H213512   0.479   1.424   8.513 -0.1309  1.1686  0.8213
  923MPD2    H313513   0.602   1.180   8.475  2.8549  0.2286 -1.0449
  923MPD2     N13514   0.868   1.246   8.829 -0.1631  0.0024  0.0096
  923MPD2    H513515   0.927   1.176   8.784  0.4150  1.1961 -1.0967
  923MPD2    N113516   0.538   1.587   8.700 -0.5734  0.2280  0.6655
  923MPD2    H713517   0.464   1.605   8.632  0.8837  0.8466 -0.7632
  924MPD2     C13518   0.613   4.215  15.687 -0.4509 -0.1173  0.0151
  924MPD2    C113519   0.554   4.213  15.818  0.8898 -0.4199 -0.4405
  924MPD2    C213520   0.563   4.337  15.888 -0.1428  0.4466 -0.4306
  924MPD2    C313521   0.614   4.456  15.830 -0.4299  0.4714  0.2401
  924MPD2    C413522   0.665   4.449  15.705 -0.0232  0.1059 -0.4666
  924MPD2    C513523   0.672   4.329  15.638 -0.2461  0.4798 -0.4454
  924MPD2     H13524   0.538   4.327  15.993  0.0932 -2.5481 -0.6649
  924MPD2    H113525   0.706   4.534  15.652  2.1826  0.8709  2.4540
  924MPD2    H213526   0.611   4.125  15.627 -0.9944  1.2148 -2.0030
  924MPD2    H313527   0.707   4.327  15.535  1.8847  1.7948  0.2473
  924MPD2     N13528   0.620   4.580  15.898  0.5233  0.1465  0.5132
  924MPD2    H513529   0.651   4.654  15.836  1.5080 -0.4670  0.2575
  924MPD2    N113530   0.501   4.087  15.859  0.4836  0.0311 -0.0920
  924MPD2    H713531   0.536   4.000  15.820 -1.0468 -0.8357  0.4817
  925MPD2     C13532   4.390   2.103  14.567 -0.1502  0.3856 -0.1290
  925MPD2    C113533   4.265   2.082  14.511 -0.4518 -0.5814  0.0261
  925MPD2    C213534   4.148   2.072  14.602  0.2390  0.0358  0.3936
  925MPD2    C313535   4.175   2.061  14.737 -0.2345  0.3688 -0.9373
  925MPD2    C413536   4.299   2.083  14.787  0.8310 -0.8296  0.3953
  925MPD2    C513537   4.408   2.097  14.701 -1.0152  0.6358  1.0957
  925MPD2     H13538   4.048   2.057  14.563  0.1115  1.7151  0.0807
  925MPD2    H113539   4.312   2.083  14.894 -1.8716  2.9625  0.7012
  925MPD2    H213540   4.480   2.132  14.514 -0.9480  0.7061 -1.3194
  925MPD2    H313541   4.502   2.104  14.754 -0.6295 -0.9572  0.6325
  925MPD2     N13542   4.071   2.045  14.829  0.0665  0.0474  0.3062
  925MPD2    H513543   4.108   2.036  14.923 -0.4759  1.5101  0.6672
  925MPD2    N113544   4.237   2.070  14.371  0.3652  0.3852 -0.5109
  925MPD2    H713545   4.142   2.065  14.337  0.2711  0.6004 -0.2775
  926MPD2     C13546   2.668   0.402  13.537 -0.3843 -0.0343  0.3377
  926MPD2    C113547   2.676   0.541  13.530  0.4441 -0.6691 -0.0375
  926MPD2    C213548   2.742   0.608  13.437  0.0626  0.4609  1.0623
  926MPD2    C313549   2.819   0.536  13.351 -0.2562  0.1016 -0.4193
  926MPD2    C413550   2.804   0.402  13.344 -0.4180 -0.5542 -0.6615
  926MPD2    C513551   2.720   0.335  13.432 -0.2930 -0.2155 -0.0100
  926MPD2     H13552   2.738   0.716  13.437 -1.4791  0.4073  1.7215
  926MPD2    H113553   2.862   0.340  13.276  1.5483  0.8020 -0.2287
  926MPD2    H213554   2.625   0.355  13.625 -1.5170  0.1304 -0.1145
  926MPD2    H313555   2.727   0.227  13.441 -1.3098 -0.2211  0.6468
  926MPD2     N13556   2.925   0.599  13.274 -0.3488 -0.6385 -0.5443
  926MPD2    H513557   2.980   0.527  13.228  3.0314  1.6109 -0.0285
  926MPD2    N113558   2.604   0.622  13.612  0.1954  0.0121  0.4517
  926MPD2    H713559   2.593   0.722  13.606 -1.1351 -0.2127 -0.7659
  927MPD2     C13560   3.317   3.058   0.284 -0.2173 -0.8987 -0.4319
  927MPD2    C113561   3.235   3.137   0.213 -0.1890 -0.0589  0.4717
  927MPD2    C213562   3.181   3.090   0.098  0.4678 -0.5213  0.2985
  927MPD2    C313563   3.226   2.973   0.040 -0.1198  0.7893  0.3521
  927MPD2    C413564   3.311   2.890   0.114 -0.2542  0.3528 -0.3358
  927MPD2    C513565   3.360   2.940   0.234 -0.3899  0.5883  0.9874
  927MPD2     H13566   3.125   3.153   0.030  0.2640 -1.9941 -0.9173
  927MPD2    H113567   3.339   2.791   0.081 -1.8976 -0.2654  0.1191
  927MPD2    H213568   3.367   3.100   0.371 -0.9068 -0.5045 -0.2225
  927MPD2    H313569   3.437   2.885   0.288 -0.0371  0.3522  0.2568
  927MPD2     N13570   3.193   2.946  17.608  0.2232  0.4030  0.5150
  927MPD2    H513571   3.140   3.021  17.564  1.1782 -0.9930 -3.0069
  927MPD2    N113572   3.196   3.260   0.275 -0.2488  0.2394 -0.2545
  927MPD2    H713573   3.251   3.295   0.352  1.1837  0.7468 -1.5123
  928MPD2     C13574   1.256   1.221   1.561  0.0683  0.7137 -0.4805
  928MPD2    C113575   1.371   1.249   1.492 -0.6836  0.4030  0.1099
  928MPD2    C213576   1.371   1.260   1.351 -0.3621 -0.3819  0.1362
  928MPD2    C313577   1.261   1.229   1.283  0.3635  0.1988  0.1586
  928MPD2    C413578   1.147   1.207   1.357 -0.6022  0.2760 -0.2477
  928MPD2    C513579   1.141   1.202   1.494  0.0224  0.8772  0.3803
  928MPD2     H13580   1.455   1.296   1.292 -0.7501  2.1958  1.1882
  928MPD2    H113581   1.055   1.189   1.302  1.1955 -0.1958 -3.0767
  928MPD2    H213582   1.260   1.215   1.670  1.0937  1.1014 -0.4920
  928MPD2    H313583   1.054   1.160   1.544 -0.1707 -0.0199 -0.6897
  928MPD2     N13584   1.248   1.239   1.142  0.0260 -0.6732 -0.8345
  928MPD2    H513585   1.152   1.237   1.110 -0.3395 -0.1534  0.2393
  928MPD2    N113586   1.482   1.283   1.568 -0.8549  0.4364  0.3081
  928MPD2    H713587   1.465   1.306   1.666 -0.6628  1.4454  0.0944
  929MPD2     C13588   0.935   1.197  10.057 -0.0896 -0.2302  0.3651
  929MPD2    C113589   0.858   1.094  10.110  0.3211 -0.8004  0.5417
  929MPD2    C213590   0.727   1.068  10.058 -0.3517  0.0960  0.3893
  929MPD2    C313591   0.674   1.158   9.965 -0.6950 -0.6204  0.0195
  929MPD2    C413592   0.751   1.262   9.918 -0.4787 -0.3650  0.7168
  929MPD2    C513593   0.882   1.274   9.959  0.1542 -0.3312 -0.2302
  929MPD2     H13594   0.666   0.998  10.114  1.2865  0.0026  2.0574
  929MPD2    H113595   0.727   1.334   9.840 -3.2060 -1.0193  0.9734
  929MPD2    H213596   1.040   1.200  10.082  0.4129 -1.5665 -1.5642
  929MPD2    H313597   0.945   1.350   9.915  1.3333 -0.5652  1.0398
  929MPD2     N13598   0.542   1.148   9.907 -0.1370  0.1266 -0.2529
  929MPD2    H513599   0.523   1.218   9.835  0.5095  0.1167 -0.4380
  929MPD2    N113600   0.919   1.014  10.211  0.1710 -0.1826 -0.4357
  929MPD2    H713601   1.011   1.032  10.249 -0.1634  1.4854 -0.3895
  930MPD2     C13602   2.529   3.202  14.177  0.5403  0.7804 -0.2672
  930MPD2    C113603   2.412   3.271  14.142 -0.0135  0.1526  0.0113
  930MPD2    C213604   2.287   3.214  14.160  0.8134  0.2547 -0.1165
  930MPD2    C313605   2.277   3.080  14.192  0.0832 -0.3951 -0.1804
  930MPD2    C413606   2.392   3.011  14.234 -0.1530  0.1895  0.5031
  930MPD2    C513607   2.513   3.071  14.220 -0.5354 -0.8885  0.0938
  930MPD2     H13608   2.198   3.274  14.143  0.9128  0.4164 -0.0711
  930MPD2    H113609   2.388   2.910  14.273  3.6277  0.1347  0.7364
  930MPD2    H213610   2.621   3.260  14.178 -0.4555  2.4218 -4.3086
  930MPD2    H313611   2.598   3.008  14.242  1.0868  1.6761  1.2219
  930MPD2     N13612   2.154   3.012  14.176  0.1359 -0.0009  0.1329
  930MPD2    H513613   2.159   2.914  14.203 -2.8579 -0.9155 -2.6649
  930MPD2    N113614   2.417   3.404  14.087 -0.2185  0.4723 -0.5254
  930MPD2    H713615   2.505   3.453  14.097 -0.6955  1.2603 -0.1788
  931MPD2     C13616   3.126   3.820   0.816  0.2786 -0.4381  0.3600
  931MPD2    C113617   3.174   3.711   0.741  0.4422 -0.1032  0.0121
  931MPD2    C213618   3.179   3.588   0.802 -0.3764  0.1139  0.4038
  931MPD2    C313619   3.137   3.568   0.932  0.2663  0.1769  0.1976
  931MPD2    C413620   3.091   3.675   1.002  0.2157 -0.1789 -0.1968
  931MPD2    C513621   3.083   3.798   0.945  0.4589 -0.1270 -0.0830
  931MPD2     H13622   3.237   3.509   0.756 -1.5324  0.1756 -1.1727
  931MPD2    H113623   3.058   3.667   1.105  2.0022 -1.0515  0.2982
  931MPD2    H213624   3.131   3.914   0.762 -4.4912 -0.2415  0.2862
  931MPD2    H313625   3.054   3.884   1.004 -2.4075  1.4703 -3.8720
  931MPD2     N13626   3.143   3.441   0.995 -0.1300 -0.0148  0.1029
  931MPD2    H513627   3.127   3.443   1.095 -0.1751 -1.9164  0.1238
  931MPD2    N113628   3.211   3.721   0.603  0.0948  0.6151  0.4314
  931MPD2    H713629   3.203   3.814   0.562  1.5707  0.6341  0.2015
  932MPD2     C13630   3.931   1.611  11.563 -0.3504 -0.0634  0.5523
  932MPD2    C113631   4.047   1.657  11.618  0.4383  1.0972 -0.3073
  932MPD2    C213632   4.097   1.605  11.739  0.3126 -0.3025 -0.5307
  932MPD2    C313633   4.025   1.507  11.802 -0.0302 -0.2351 -0.0247
  932MPD2    C413634   3.905   1.471  11.746 -0.0406  0.4549  0.2759
  932MPD2    C513635   3.857   1.517  11.628  0.1951 -0.1207  0.6854
  932MPD2     H13636   4.179   1.653  11.790 -1.2879  0.2966  1.4627
  932MPD2    H113637   3.842   1.405  11.805  0.2274 -0.3725 -0.3626
  932MPD2    H213638   3.892   1.653  11.471  0.4515  0.9864  0.6942
  932MPD2    H313639   3.761   1.483  11.591  0.5145 -0.7212  0.4025
  932MPD2     N13640   4.053   1.463  11.937  0.4935 -0.3613 -0.7251
  932MPD2    H513641   4.008   1.380  11.975 -0.4616 -0.1385 -1.3909
  932MPD2    N113642   4.117   1.763  11.552  0.4998  0.0811 -0.1625
  932MPD2    H713643   4.190   1.814  11.602 -0.8146  0.5465  1.2666
  933MPD2     C13644   1.914   1.776   2.150  0.4387 -0.1998  0.2186
  933MPD2    C113645   1.811   1.747   2.067  0.3443  0.4600 -0.5554
  933MPD2    C213646   1.688   1.787   2.118  0.0591  0.1798 -0.1247
  933MPD2    C313647   1.670   1.862   2.230  0.6177 -0.0933  0.1335
  933MPD2    C413648   1.783   1.892   2.307 -0.4828  0.2414  0.2135
  933MPD2    C513649   1.904   1.846   2.266 -0.1755 -0.2094  0.3374
  933MPD2     H13650   1.597   1.746   2.078 -0.5999 -0.3888  1.9822
  933MPD2    H113651   1.784   1.962   2.390 -0.0215  0.7389 -0.2140
  933MPD2    H213652   2.011   1.730   2.133 -0.3569 -0.7689 -2.8050
  933MPD2    H313653   1.994   1.865   2.323  0.7985 -2.2933 -0.5201
  933MPD2     N13654   1.539   1.912   2.263 -0.1579 -0.4280 -0.5107
  933MPD2    H513655   1.475   1.896   2.185 -2.2910  0.8481  0.9881
  933MPD2    N113656   1.826   1.653   1.959 -0.2792 -0.6753  0.1127
  933MPD2    H713657   1.915   1.606   1.949 -0.9614 -1.8974 -0.2930
  934MPD2     C13658   1.203   2.792   1.758  0.2792  0.5562 -0.6642
  934MPD2    C113659   1.262   2.778   1.633  0.8606 -0.0339  0.2693
  934MPD2    C213660   1.186   2.743   1.524  0.6009  0.3361 -0.3254
  934MPD2    C313661   1.049   2.725   1.545  0.6658 -0.2765  0.3782
  934MPD2    C413662   0.991   2.750   1.674  0.6093  0.4038  0.0488
  934MPD2    C513663   1.067   2.785   1.783 -0.0280  1.2465  0.5451
  934MPD2     H13664   1.233   2.744   1.426  0.4353 -4.2062 -0.4757
  934MPD2    H113665   0.884   2.743   1.691  1.1323  1.4112  3.7658
  934MPD2    H213666   1.255   2.831   1.845 -0.8167  0.9554 -0.1843
  934MPD2    H313667   1.023   2.808   1.879  0.5862  0.9091  0.9045
  934MPD2     N13668   0.965   2.708   1.433  0.3500  0.2320 -0.4528
  934MPD2    H513669   0.865   2.720   1.443  0.6287  1.1282  1.3370
  934MPD2    N113670   1.391   2.818   1.613  0.0679  0.1787 -0.0799
  934MPD2    H713671   1.429   2.800   1.520  1.2884 -0.8073  0.6228
  935MPD2     C13672   0.836   1.931   0.905  0.2421 -0.4247 -0.3002
  935MPD2    C113673   0.770   2.024   0.828  0.2492 -0.2070  0.2427
  935MPD2    C213674   0.770   2.158   0.868 -0.1771  0.6158 -0.6674
  935MPD2    C313675   0.832   2.203   0.986 -0.1697 -0.8136 -0.3877
  935MPD2    C413676   0.901   2.110   1.054 -0.1561 -0.6842 -0.2317
  935MPD2    C513677   0.898   1.978   1.017  0.3043  0.4503  0.4672
  935MPD2     H13678   0.719   2.231   0.806 -0.2306  1.0721 -0.0891
  935MPD2    H113679   0.972   2.138   1.131 -0.2816  1.2769 -0.8291
  935MPD2    H213680   0.864   1.830   0.878  2.8046 -0.3734  2.1784
  935MPD2    H313681   0.963   1.910   1.070  1.6412  0.3313 -1.3257
  935MPD2     N13682   0.818   2.333   1.045  0.3952 -0.2044 -0.2996
  935MPD2    H513683   0.866   2.348   1.133 -0.3583  0.7536 -0.0588
  935MPD2    N113684   0.711   1.988   0.703 -0.3423 -0.4598  0.2286
  935MPD2    H713685   0.690   2.068   0.645 -1.4101 -0.9207 -0.0118
  936MPD2     C13686   0.281   0.502  12.214 -0.3318  0.5236 -0.3602
  936MPD2    C113687   0.214   0.599  12.285  0.5500  0.1648 -0.3567
  936MPD2    C213688   0.260   0.725  12.289 -0.2496  0.4936  0.0125
  936MPD2    C313689   0.380   0.769  12.235 -0.2117  0.3673 -0.0179
  936MPD2    C413690   0.451   0.671  12.165 -0.5582  0.1892 -0.0910
  936MPD2    C513691   0.405   0.537  12.161 -0.2048 -1.0809  0.1391
  936MPD2     H13692   0.195   0.790  12.347 -1.3286  0.5843 -1.3051
  936MPD2    H113693   0.543   0.701  12.115 -0.0815 -1.4204 -0.1892
  936MPD2    H213694   0.229   0.408  12.195 -0.2887  0.6501 -1.0881
  936MPD2    H313695   0.462   0.468  12.100 -1.2947 -0.8464 -1.1334
  936MPD2     N13696   0.433   0.897  12.252 -0.2068  0.3437  0.3325
  936MPD2    H513697   0.527   0.915  12.217 -0.4813  1.2307  0.0703
  936MPD2    N113698   0.086   0.586  12.347  0.9144 -0.1753  0.0548
  936MPD2    H713699   0.061   0.667  12.402  2.7986 -0.1125  0.8381
  937MPD2     C13700   2.685   1.906  11.473 -0.4266 -0.0069  0.3650
  937MPD2    C113701   2.742   2.031  11.451  0.0245  0.0496 -0.2594
  937MPD2    C213702   2.812   2.051  11.333 -0.6041  0.6971  1.1050
  937MPD2    C313703   2.858   1.942  11.259  0.0169 -0.6259  0.4021
  937MPD2    C413704   2.811   1.810  11.296 -0.0942 -0.0199  0.2824
  937MPD2    C513705   2.723   1.793  11.400  0.1672  0.0501  0.1898
  937MPD2     H13706   2.840   2.152  11.304 -0.0592 -0.4142 -2.2533
  937MPD2    H113707   2.832   1.719  11.242  1.5457  1.5976 -1.8002
  937MPD2    H213708   2.612   1.895  11.553 -1.1936 -1.4640 -0.5281
  937MPD2    H313709   2.693   1.690  11.416  1.9596 -0.2846  1.4188
  937MPD2     N13710   2.950   1.962  11.156  0.3407  0.1540  0.8038
  937MPD2    H513711   2.984   2.057  11.142 -0.3547 -0.0984 -2.4766
  937MPD2    N113712   2.690   2.147  11.517 -0.0114 -0.2398 -0.0092
  937MPD2    H713713   2.712   2.233  11.467 -0.8385 -0.1587 -0.2321
  938MPD2     C13714   0.149   2.537   1.189 -0.3380  0.4763 -0.4884
  938MPD2    C113715   0.267   2.615   1.167  0.5106  0.2370  0.3218
  938MPD2    C213716   0.378   2.591   1.251  0.3117 -0.3437  0.0454
  938MPD2    C313717   0.358   2.495   1.357 -0.2690  0.2666 -0.5111
  938MPD2    C413718   0.246   2.418   1.364 -0.0572 -0.3421 -0.1343
  938MPD2    C513719   0.137   2.444   1.284 -0.2140  0.1289  0.9738
  938MPD2     H13720   0.469   2.646   1.232  0.0772  0.2314  0.6092
  938MPD2    H113721   0.238   2.356   1.452  0.9030  3.6033  2.6986
  938MPD2    H213722   0.074   2.536   1.111 -0.7840 -2.0161 -0.0382
  938MPD2    H313723   0.047   2.385   1.288 -1.2613  1.5019 -2.9817
  938MPD2     N13724   0.458   2.463   1.457  0.6421 -0.2007 -0.2334
  938MPD2    H513725   0.438   2.380   1.512  2.7622  0.0461  0.9018
  938MPD2    N113726   0.285   2.708   1.067  0.2698 -0.7571  0.1483
  938MPD2    H713727   0.379   2.744   1.055 -0.6914  2.4416  2.1523
  939MPD2     C13728   1.438   3.686   0.292 -0.1691 -0.0696  0.7338
  939MPD2    C113729   1.516   3.801   0.305 -0.0628 -0.0357 -0.7103
  939MPD2    C213730   1.603   3.837   0.197 -0.3255 -0.0256 -0.6009
  939MPD2    C313731   1.611   3.766   0.085  0.1723 -0.8542 -0.6737
  939MPD2    C413732   1.528   3.646   0.078 -0.0952 -0.4712  0.1100
  939MPD2    C513733   1.450   3.610   0.182 -0.4737  0.4199  0.0415
  939MPD2     H13734   1.660   3.930   0.201 -0.2347 -0.1969  1.8578
  939MPD2    H113735   1.529   3.574  17.702 -0.5663  0.1402 -0.4401
  939MPD2    H213736   1.378   3.647   0.374  1.9587 -0.3286  2.1721
  939MPD2    H313737   1.390   3.520   0.178  2.1266 -1.3343  0.6347
  939MPD2     N13738   1.699   3.804  17.685  0.1742 -0.8820  0.4235
  939MPD2    H513739   1.763   3.879   0.003  0.7152 -1.3709  0.5147
  939MPD2    N113740   1.520   3.867   0.432  0.2423  0.0594 -0.4758
  939MPD2    H713741   1.451   3.843   0.503 -0.0263  2.4180  0.0452
  940MPD2     C13742   0.121   0.104  12.665 -0.3246  0.1491  0.3525
  940MPD2    C113743   0.242   0.078  12.714 -0.1422  0.0059 -0.2922
  940MPD2    C213744   0.352   0.102  12.625 -0.2253 -0.5516 -0.1247
  940MPD2    C313745   0.331   0.138  12.490  0.2821 -0.4599 -0.3188
  940MPD2    C413746   0.203   0.157  12.449  0.6118  0.5855  0.6716
  940MPD2    C513747   0.096   0.141  12.534  0.4792  0.4509  0.0423
  940MPD2     H13748   0.453   0.089  12.662  0.1448  0.7534 -0.6800
  940MPD2    H113749   0.180   0.194  12.350  0.0486 -3.3721 -0.6811
  940MPD2    H213750   0.033   0.089  12.727 -1.7588 -0.4177 -1.8256
  940MPD2    H313751   4.723   0.155  12.493  0.7846 -0.0702 -0.8612
  940MPD2     N13752   0.442   0.165  12.405  0.1653 -0.4236  0.5415
  940MPD2    H513753   0.422   0.196  12.311  1.2373  2.7443  1.3634
  940MPD2    N113754   0.267   0.030  12.843 -0.0421  0.6383 -0.8831
  940MPD2    H713755   0.366   0.018  12.865 -0.0790  2.5032  0.3125
  941MPD2     C13756   4.527   4.562   9.204 -0.6029 -0.2096 -0.0521
  941MPD2    C113757   4.615   4.492   9.287 -0.1053 -0.1997  0.5760
  941MPD2    C213758   4.562   4.381   9.362 -0.2146  0.8433  0.4848
  941MPD2    C313759   4.433   4.343   9.359  0.0503 -0.3868 -0.7349
  941MPD2    C413760   4.345   4.422   9.281  0.3967 -0.9069 -0.1081
  941MPD2    C513761   4.394   4.524   9.199  0.7145  0.1321  0.5090
  941MPD2     H13762   4.637   4.327   9.419 -1.4970 -0.1870  1.2167
  941MPD2    H113763   4.242   4.396   9.260  0.2675  0.0124 -0.6266
  941MPD2    H213764   4.567   4.647   9.150 -0.2571 -1.4473 -1.7454
  941MPD2    H313765   4.326   4.580   9.136 -0.5951 -1.0424  0.8919
  941MPD2     N13766   4.381   4.228   9.416  0.2767 -0.3158 -0.1383
  941MPD2    H513767   4.282   4.212   9.399  0.1608  0.7250 -0.4580
  941MPD2    N113768   0.029   4.505   9.284  0.7146 -0.0077  0.5756
  941MPD2    H713769   0.081   4.442   9.343  0.7474  0.8537  1.4753
  942MPD2     C13770   4.203   1.648   9.480  0.7955  0.8244 -0.8044
  942MPD2    C113771   4.243   1.561   9.378 -0.0393  0.2300  0.5135
  942MPD2    C213772   4.360   1.580   9.312 -0.4118 -0.5957  0.5306
  942MPD2    C313773   4.443   1.686   9.339 -0.0774  0.6675 -0.2190
  942MPD2    C413774   4.410   1.773   9.437 -0.6550  0.5974 -0.7114
  942MPD2    C513775   4.289   1.753   9.501 -0.3291  0.1581 -0.0375
  942MPD2     H13776   4.382   1.506   9.236 -0.5017  1.6107 -1.6795
  942MPD2    H113777   4.465   1.864   9.458  0.0084  0.3957 -1.5728
  942MPD2    H213778   4.116   1.638   9.544 -0.0928  0.3349 -2.0866
  942MPD2    H313779   4.262   1.816   9.585  0.3585 -3.6873  3.0593
  942MPD2     N13780   4.564   1.685   9.273 -0.5571 -0.7341  0.0339
  942MPD2    H513781   4.595   1.599   9.228 -1.3256 -1.4469  0.8739
  942MPD2    N113782   4.162   1.456   9.326  0.5351 -0.0916  0.5154
  942MPD2    H713783   4.210   1.392   9.263 -1.2648 -0.3046 -0.6191
  943MPD2     C13784   3.165   4.088   9.185  0.1525  0.0323 -0.1743
  943MPD2    C113785   3.185   4.012   9.299  0.6516  0.3637 -0.7876
  943MPD2    C213786   3.251   4.080   9.402 -0.4212 -0.4812  0.3027
  943MPD2    C313787   3.287   4.213   9.397 -0.2163  0.4750 -0.2489
  943MPD2    C413788   3.261   4.285   9.280  0.8253 -0.6694  0.4155
  943MPD2    C513789   3.199   4.220   9.170  0.0543 -0.3361 -1.1231
  943MPD2     H13790   3.278   4.026   9.492  1.4275  0.6037  0.3962
  943MPD2    H113791   3.286   4.390   9.280  0.9176 -0.6896 -1.4433
  943MPD2    H213792   3.114   4.049   9.098  1.9076  2.6050 -2.3616
  943MPD2    H313793   3.169   4.267   9.077 -0.0908 -0.0196 -0.9172
  943MPD2     N13794   3.354   4.284   9.494  0.8726 -0.3404 -1.1914
  943MPD2    H513795   3.379   4.375   9.456 -0.6492 -0.5888 -2.8123
  943MPD2    N113796   3.155   3.873   9.297 -0.1939 -0.4295 -0.0722
  943MPD2    H713797   3.095   3.848   9.219 -0.7118 -0.6885  0.3993
  944MPD2     C13798   3.719   3.676  11.138 -0.6762  0.3747 -0.1381
  944MPD2    C113799   3.649   3.590  11.051  0.1044 -0.5125 -0.3994
  944MPD2    C213800   3.516   3.566  11.083 -0.0548 -0.0436  0.6408
  944MPD2    C313801   3.450   3.631  11.190  0.1299 -0.4022  0.5350
  944MPD2    C413802   3.524   3.725  11.262  0.3503 -0.3343  0.3328
  944MPD2    C513803   3.660   3.744  11.238  0.3494 -0.2755  0.0308
  944MPD2     H13804   3.461   3.509  11.009  0.5976  1.5978 -1.1177
  944MPD2    H113805   3.481   3.797  11.332  1.0121  1.3062 -0.9410
  944MPD2    H213806   3.823   3.699  11.115 -0.3608 -1.0085 -0.0939
  944MPD2    H313807   3.726   3.815  11.287  0.4049  0.1511 -0.6558
  944MPD2     N13808   3.317   3.591  11.225 -0.3413  0.3718 -0.4703
  944MPD2    H513809   3.276   3.523  11.162  0.0443 -2.1243  1.9482
  944MPD2    N113810   3.717   3.531  10.942  0.1376  0.0901 -0.1264
  944MPD2    H713811   3.817   3.548  10.943 -0.1125  1.5758 -0.5648
    1TCq1    O113812   1.294   3.766  13.792 -0.4318 -0.3978 -0.1340
    1TCq1    C113813   1.197   3.840  13.738  0.3379  0.0765 -0.0201
    1TCq1    O213814   1.188   3.868  13.621 -0.5077 -0.0348  0.3127
    1TCq1    C213815   1.132   3.925  13.843  0.3752 -0.0086 -0.4290
    1TCq1    C313816   1.041   4.008  13.801 -1.0126  0.2694  0.8386
    1TCq1    C413817   1.015   4.119  13.876 -0.2572  0.1910  0.2986
    1TCq1    C513818   1.081   4.146  13.993 -0.7170  0.1851  1.1073
    1TCq1    C613819   1.180   4.060  14.038 -0.7153  0.0212 -0.3765
    1TCq1    C713820   1.212   3.953  13.954  0.4824  0.0657  0.2662
    1TCq1    C813821   1.285   4.102  14.127 -1.1586  0.8250  0.2791
    1TCq1    O413822   1.363   4.015  14.162 -0.5394 -0.3471  0.3418
    1TCq1    C913823   0.897   4.197  13.836 -0.3410 -0.2127  0.4145
    1TCq1    O513824   0.819   4.155  13.746 -0.5125  0.0128 -0.3822
    1TCq1    O613825   0.872   4.307  13.894  0.3571  0.1340  0.3541
    1TCq1    H113826   1.259   3.737  13.879 -0.7026  1.6388  0.4245
    1TCq1    H213827   0.999   3.993  13.702 -2.4940  0.3126  1.4619
    1TCq1    H313828   1.045   4.229  14.053  2.5166  1.6624  1.0248
    1TCq1    H413829   1.293   3.888  13.986 -0.7491 -2.0215 -0.8439
    2MPD2     C13830   1.602   4.441  14.336  0.2120  0.8171 -0.6179
    2MPD2    C113831   1.495   4.511  14.292  0.6133  0.5931  0.1368
    2MPD2    C213832   1.391   4.443  14.232  0.2059 -0.0364 -0.6589
    2MPD2    C313833   1.397   4.304  14.218 -0.0514  0.3163 -0.9099
    2MPD2    C413834   1.510   4.240  14.266 -0.3531 -0.5028  0.3578
    2MPD2    C513835   1.612   4.306  14.328 -0.7690 -0.2956 -0.2728
    2MPD2     H13836   1.314   4.498  14.180  1.3424  1.3444 -0.8646
    2MPD2    H113837   1.530   4.137  14.243  0.3437  0.1271 -1.8545
    2MPD2    H213838   1.678   4.486  14.398 -0.0783  1.0919 -0.4587
    2MPD2    H313839   1.696   4.250  14.365 -0.1923  0.7982  0.0831
    2MPD2     N13840   1.291   4.235  14.154 -0.5525 -0.8153  0.2014
    2MPD2    H513841   1.216   4.291  14.114 -1.4317 -1.8538  0.4093
    2MPD2    N113842   1.502   4.653  14.316 -0.0130 -0.2250 -0.1675
    2MPD2    H713843   1.582   4.690  14.365  0.4849 -0.4230 -0.8179
    3TMC2    C113844   1.458   0.156  14.274 -0.2434 -0.3181  1.0366
    3TMC2    C213845   1.526   0.198  14.390 -0.3959  0.2165 -0.0118
    3TMC2    C313846   1.538   0.338  14.401  0.4690 -0.2156 -0.8913
    3TMC2    C413847   1.411   0.245  14.183 -0.2385 -0.3926  0.2346
    3TMC2    C513848   1.425   0.379  14.205  0.7931 -0.4847  0.3248
    3TMC2    C613849   1.497   0.423  14.304  0.1495 -0.5274 -0.6412
    3TMC2     C13850   1.416   0.018  14.260  0.0870  0.0373 -0.7710
    3TMC2     O13851   1.339   4.716  14.170  0.0083 -0.3947 -0.2099
    3TMC2     H13852   1.573   0.134  14.463  2.9420 -1.1108 -3.3266
    3TMC2    H113853   1.373   0.201  14.091  0.5759  2.6917 -1.6039
    3TMC2    H213854   1.516   0.529  14.319  2.5971 -0.7095 -2.4897
    3TMC2    C713855   1.430   0.466  14.091  0.5230 -0.6021  0.5955
    3TMC2    C813856   1.649   0.380  14.479 -0.4946  0.2157 -0.4022
    3TMC2    O113857   1.521   0.547  14.084 -0.0144 -0.0913  0.0878
    3TMC2    O213858   1.657   0.495  14.517 -0.1369 -0.2214 -0.8707
    3TMC2    O513859   1.745   0.323  14.400 -0.2947  0.0663  0.4348
    3TMC2    H513860   1.722   0.238  14.356 -2.4608 -0.3236  2.3469
    4MPD2     C13861   0.027   0.683  13.497 -0.1698 -1.2143 -0.1031
    4MPD2    C113862   0.090   0.733  13.384 -0.0628 -0.4104 -0.0701
    4MPD2    C213863   0.224   0.756  13.381  0.0379 -0.9802  0.3263
    4MPD2    C313864   0.306   0.716  13.488 -0.2933 -0.0425 -1.0346
    4MPD2    C413865   0.237   0.688  13.610  0.2561  0.6335  0.1302
    4MPD2    C513866   0.103   0.671  13.609 -0.4766 -0.2777 -0.3203
    4MPD2     H13867   0.263   0.790  13.286  1.7982 -0.9448  1.0503
    4MPD2    H113868   0.295   0.675  13.700  0.5710 -1.1402 -0.3375
    4MPD2    H213869   4.649   0.660  13.513 -0.6134  1.4186  0.8112
    4MPD2    H313870   0.052   0.653  13.703 -1.3339 -2.9457 -1.2891
    4MPD2     N13871   0.443   0.698  13.464 -0.0360  0.0071 -0.2519
    4MPD2    H513872   0.481   0.708  13.371  3.0849 -0.4106  0.9615
    4MPD2    N113873   4.724   0.770  13.277 -0.2898  0.8237 -0.5624
    4MPD2    H713874   4.631   0.731  13.284  0.2074 -0.3321 -0.4264
    5TCq2    C113875   0.535   0.650  13.557  0.4671 -0.4536 -0.6981
    5TCq2    O213876   0.511   0.605  13.665  0.0194 -0.1639  0.3015
    5TCq2    C213877   0.676   0.626  13.511  0.6016  0.2693  0.0323
    5TCq2    C313878   0.710   0.653  13.373 -0.2066 -0.5758  0.3296
    5TCq2    C413879   0.811   0.577  13.324 -0.8566 -0.1095  0.2013
    5TCq2    C513880   0.898   0.508  13.404 -0.0820 -0.9088 -0.6840
    5TCq2    C613881   0.871   0.506  13.538 -0.2214 -0.3865  0.2903
    5TCq2    C713882   0.761   0.555  13.591 -0.0502  0.1166  0.3110
    5TCq2    C813883   0.975   0.471  13.628 -0.1662 -0.3438  0.0218
    5TCq2    O413884   0.943   0.413  13.727  0.0168  0.1231 -0.1762
    5TCq2    C913885   0.819   0.554  13.174  0.2071  0.1651 -0.0963
    5TCq2    O513886   0.917   0.486  13.128 -0.5247  0.3964  0.6830
    5TCq2    O613887   0.735   0.615  13.105 -0.4432  0.0815 -0.1789
    5TCq2    H213888   0.645   0.702  13.300  1.6950 -1.0207 -1.6719
    5TCq2    H313889   0.974   0.440  13.368  1.7000  0.0934  1.1407
    5TCq2    H413890   0.732   0.538  13.694  0.5880  1.3210  0.6896
    6MPD1     C13891   0.624   1.558  13.585 -0.4489 -1.0051 -0.0222
    6MPD1    C113892   0.504   1.550  13.654  0.1742 -0.3038  0.0017
    6MPD1    C213893   0.384   1.556  13.587  0.2177  0.8612  0.6158
    6MPD1    C313894   0.374   1.559  13.449  0.1430 -0.4126 -0.1349
    6MPD1    C413895   0.495   1.575  13.378 -0.6473  1.2184  0.4091
    6MPD1    C513896   0.616   1.577  13.449 -0.1556 -0.8079 -0.6098
    6MPD1     H13897   0.287   1.537  13.631 -0.5188  0.8349 -1.0283
    6MPD1    H113898   0.506   1.585  13.271 -0.5739 -1.4771  0.1799
    6MPD1    H213899   0.718   1.542  13.637 -1.3262 -1.0851  1.5419
    6MPD1    H313900   0.708   1.572  13.392 -0.2360 -2.0145 -0.6369
    6MPD1     N13901   0.249   1.565  13.380  0.6920 -1.1245  0.5237
    6MPD1    H513902   0.253   1.566  13.278 -0.4801  0.3476  0.4917
    6MPD1    N113903   0.509   1.514  13.789 -0.3907  0.2436 -0.3151
    6MPD1    H613904   0.589   1.561  13.832 -1.0689  1.0303  0.0876
    6MPD1    H713905   0.431   1.557  13.837  0.0350 -0.1462  0.7165
    7MPD2     C13906   4.168   1.473  13.273 -0.0597  0.1709  0.6349
    7MPD2    C113907   4.296   1.429  13.296  0.8086  0.1602 -0.3326
    7MPD2    C213908   4.323   1.295  13.273  0.4948  0.1572 -0.3159
    7MPD2    C313909   4.232   1.209  13.214  0.1580 -0.5724 -0.5149
    7MPD2    C413910   4.111   1.265  13.171  0.9250  0.0519 -0.3406
    7MPD2    C513911   4.082   1.392  13.208 -0.6489 -0.4950 -0.2174
    7MPD2     H13912   4.423   1.258  13.293  0.2772 -1.3039 -1.8775
    7MPD2    H113913   4.050   1.207  13.103 -0.5748  3.5071 -1.9370
    7MPD2    H213914   4.151   1.579  13.280 -4.2907 -0.5453  1.1151
    7MPD2    H313915   3.997   1.419  13.147 -0.6008 -3.0733 -1.4386
    7MPD2     N13916   4.258   1.083  13.160 -0.7416 -0.1354 -0.0988
    7MPD2    H513917   4.186   1.039  13.104  0.4767 -2.0123 -0.1959
    7MPD2    N113918   4.402   1.511  13.344 -0.0410  0.2320  0.0960
    7MPD2    H713919   4.497   1.475  13.344 -1.1107 -2.5445  2.4294
    8TMC3    C113920   4.413   0.920  13.089  0.7386  0.5528  0.7499
    8TMC3    C213921   4.510   0.843  13.138  0.3612  0.8785 -0.1375
    8TMC3    C313922   4.630   0.838  13.068 -0.2497  0.2621  0.2031
    8TMC3    C413923   4.414   0.967  12.957 -0.3338  0.0019  0.1834
    8TMC3    C513924   4.528   0.958  12.884 -0.3148  0.1483  0.2786
    8TMC3    C613925   4.644   0.892  12.939  0.1413 -0.0973  0.1193
    8TMC3     C13926   4.376   1.014  13.189 -0.3749 -0.2462  0.3199
    8TMC3     O13927   4.450   1.015  13.283  0.4841 -0.2087  0.4443
    8TMC3     H13928   4.492   0.807  13.239 -0.6499  2.0483  0.1028
    8TMC3    H113929   4.332   1.023  12.913 -0.7515  0.7023  1.8641
    8TMC3    H213930   0.021   0.915  12.916  0.1591 -0.2605  0.0328
    8TMC3    C713931   4.565   1.085  12.803 -0.1330 -0.7096 -0.0647
    8TMC3    C813932   0.026   0.808  13.144  0.2819  0.2417 -0.7593
    8TMC3    O113933   4.680   1.106  12.778 -0.3991 -0.2383 -0.2510
    8TMC3    O213934   0.139   0.815  13.089 -0.5193  0.3886  0.2488
    9TMC3    C113935   0.010   1.587  13.358 -0.0155  0.0872 -0.4626
    9TMC3    C213936   0.034   1.631  13.230  0.1494 -0.4014  0.0098
    9TMC3    C313937   4.662   1.713  13.179  0.0546 -0.0970 -0.1933
    9TMC3    C413938   4.620   1.622  13.425  0.4169 -0.4594  0.2869
    9TMC3    C513939   4.529   1.694  13.358 -1.3087  0.1594 -0.4275
    9TMC3    C613940   4.553   1.751  13.244  0.2701 -0.2605  0.5952
    9TMC3     C13941   0.122   1.542  13.441 -0.2600 -0.5298 -0.4211
    9TMC3     O13942   0.092   1.501  13.552 -0.2238 -0.2581  0.7887
    9TMC3     H13943   0.119   1.592  13.175  1.5483  0.6390  1.4267
    9TMC3    H113944   4.587   1.565  13.512  0.7411 -1.0420  0.0288
    9TMC3    H213945   4.473   1.793  13.184  0.1917 -4.0594 -2.0199
    9TMC3    C713946   4.393   1.644  13.354 -0.3455  0.7956  0.3076
    9TMC3    C813947   4.638   1.681  13.038  0.7051 -0.0847 -0.4048
    9TMC3    O113948   4.305   1.716  13.317  0.2561  0.7872 -0.1101
    9TMC3    O213949   4.599   1.774  12.972 -0.2772 -1.0382 -0.2170
   10MPD2     C13950   4.375   1.382  12.730  0.5099  0.5089  0.1286
   10MPD2    C113951   4.463   1.301  12.790  0.6798  1.2196 -0.3559
   10MPD2    C213952   4.548   1.355  12.877 -0.5017  0.3650 -0.0502
   10MPD2    C313953   4.556   1.491  12.899  0.1348 -0.0873  0.0055
   10MPD2    C413954   4.467   1.575  12.829  0.1891  0.2480 -0.4838
   10MPD2    C513955   4.385   1.523  12.737  0.5535  0.2344  0.1610
   10MPD2     H13956   4.625   1.292  12.922  0.7514  0.7585 -1.6544
   10MPD2    H113957   4.450   1.677  12.861 -0.5685  0.3432 -1.1954
   10MPD2    H213958   4.307   1.333  12.660  4.1133 -0.7873 -2.4692
   10MPD2    H313959   4.321   1.588  12.679  1.8703  2.3204  1.0663
   10MPD2     N13960   4.631   1.542  13.010  0.2472  0.3842 -0.1760
   10MPD2    H513961   4.664   1.474  13.078  0.2365 -0.2266 -0.7908
   10MPD2    N113962   4.456   1.162  12.771  0.8921  0.7266  1.0147
   10MPD2    H713963   4.370   1.125  12.730  1.5340 -2.0015  2.1574
   11MPD2     C13964   1.454   0.529  13.801  0.9317  0.5307  0.3957
   11MPD2    C113965   1.347   0.464  13.857  0.0093  0.2122 -0.2938
   11MPD2    C213966   1.228   0.449  13.785  0.1621 -0.7871 -0.4570
   11MPD2    C313967   1.223   0.488  13.650 -0.4186 -0.1767  0.6015
   11MPD2    C413968   1.336   0.543  13.594 -0.4225 -1.2543 -0.3089
   11MPD2    C513969   1.449   0.559  13.666  0.3852 -0.0207  0.1706
   11MPD2     H13970   1.140   0.418  13.840  1.1743 -1.5255  0.7391
   11MPD2    H113971   1.340   0.576  13.491 -1.9143 -0.0363  0.0159
   11MPD2    H213972   1.546   0.563  13.847  0.5755  2.1261 -0.0905
   11MPD2    H313973   1.538   0.585  13.610 -1.9736  1.1412 -3.0647
   11MPD2     N13974   1.099   0.509  13.586 -0.6755  0.5021  0.0588
   11MPD2    H513975   1.095   0.563  13.500 -0.1726  0.9012  0.2848
   11MPD2    N113976   1.340   0.429  13.995  0.1684  0.1358 -0.4013
   11MPD2    H713977   1.275   0.358  14.029  0.2823 -0.2182 -0.9318
    1MPD1     C13978   3.677   2.289  17.020  0.0741  0.2310 -0.3453
    1MPD1    C113979   3.587   2.320  16.911 -0.4107  0.4633  0.0842
    1MPD1    C213980   3.599   2.253  16.795  0.0158  0.5367 -0.0947
    1MPD1    C313981   3.707   2.171  16.776  1.0019  0.4119 -0.3340
    1MPD1    C413982   3.804   2.150  16.871  0.1144 -0.6225  0.2691
    1MPD1    C513983   3.786   2.205  16.998  0.1494  0.0100  0.7256
    1MPD1     H13984   3.533   2.291  16.718  0.9957  1.4460 -0.4814
    1MPD1    H113985   3.895   2.095  16.854  0.2113  0.1255 -1.5993
    1MPD1    H213986   3.657   2.341  17.113  0.4715 -0.0650 -0.0956
    1MPD1    H313987   3.866   2.183  17.069  0.1012  0.8222  1.0263
    1MPD1     N13988   3.738   2.111  16.649 -0.1748  0.2549  0.7215
    1MPD1    H513989   3.833   2.085  16.624 -0.5684 -0.7545  0.2733
    1MPD1    N113990   3.470   2.398  16.931 -0.0496  0.5209 -0.4802
    1MPD1    H613991   3.464   2.459  16.849 -2.7613 -1.1123 -1.4993
    1MPD1    H713992   3.468   2.454  17.016  0.4151 -2.6103  1.5647
    2MPD1     C13993   4.425   1.725  16.063 -0.1182  0.0068  0.0443
    2MPD1    C113994   4.334   1.755  15.966 -0.0818  0.1714 -0.4357
    2MPD1    C213995   4.204   1.790  16.009  0.2205 -0.1068  0.6119
    2MPD1    C313996   4.178   1.814  16.141 -0.0998 -0.3623 -0.0214
    2MPD1    C413997   4.283   1.815  16.228  0.3442 -0.5587  0.2106
    2MPD1    C513998   4.392   1.753  16.191  1.0271 -0.0264  0.5345
    2MPD1     H13999   4.133   1.801  15.927  0.8151 -0.4707  0.0494
    2MPD1    H114000   4.275   1.841  16.333 -1.2688  0.0793 -0.0678
    2MPD1    H214001   4.523   1.683  16.038 -0.1500 -1.2261  2.0188
    2MPD1    H314002   4.469   1.742  16.266  0.4166 -1.5452  0.9332
    2MPD1     N14003   4.042   1.850  16.180 -0.1220  0.4450 -0.1273
    2MPD1    H514004   3.979   1.839  16.101 -0.9619  1.5025  0.3953
    2MPD1    N114005   4.350   1.725  15.830  0.4242  0.0576  0.3799
    2MPD1    H614006   4.294   1.789  15.774  0.9047  0.9370  0.9080
    2MPD1    H714007   4.441   1.734  15.787  0.3928  1.4513  0.6013
    3TMC3    C114008   3.857   1.968  16.279  0.5260  0.3711  0.1749
    3TMC3    C214009   3.767   1.888  16.209 -0.1844 -0.2351  0.0579
    3TMC3    C314010   3.636   1.878  16.258  0.5352  0.5250 -0.1979
    3TMC3    C414011   3.822   2.033  16.385 -0.5275 -0.4367 -0.1056
    3TMC3    C514012   3.687   2.036  16.423  0.1760 -0.1414 -0.0130
    3TMC3    C614013   3.591   1.957  16.357 -0.2306  0.4258 -0.1784
    3TMC3     C14014   4.003   1.936  16.283 -0.4927 -0.0248  0.2840
    3TMC3     O14015   4.064   1.961  16.385  0.3932 -0.6517  0.1160
    3TMC3     H14016   3.800   1.806  16.147  1.6621 -1.5689  2.7854
    3TMC3    H114017   3.880   2.106  16.440 -2.0598 -0.5006  1.5668
    3TMC3    H214018   3.486   1.971  16.381 -0.1026 -0.8545  1.0918
    3TMC3    C714019   3.640   2.105  16.548  1.2052 -0.2514  0.0787
    3TMC3    C814020   3.548   1.790  16.179  0.4006 -0.8788  0.1286
    3TMC3    O114021   3.522   2.088  16.571  0.0008 -0.2507 -0.3014
    3TMC3    O214022   3.611   1.718  16.101  0.0049  0.1094 -0.1440
    4MPD1     C14023   3.085   1.621  16.023  0.0499  0.6016  0.5010
    4MPD1    C114024   3.067   1.675  16.151  1.1957  0.1682  0.3132
    4MPD1    C214025   3.173   1.733  16.219  0.6318 -0.2838  0.4717
    4MPD1    C314026   3.300   1.732  16.157 -0.3544  0.2388 -0.4340
    4MPD1    C414027   3.317   1.666  16.031 -0.1028  0.3649 -0.1145
    4MPD1    C514028   3.211   1.616  15.967 -0.1786 -0.0067  0.3456
    4MPD1     H14029   3.172   1.777  16.318 -0.8884 -1.2179  0.8572
    4MPD1    H114030   3.413   1.638  15.990  0.3008  1.7812 -0.1329
    4MPD1    H214031   3.000   1.572  15.976 -0.5727  1.3648  0.8271
    4MPD1    H314032   3.228   1.561  15.875 -0.6633 -0.5452  0.5790
    4MPD1     N14033   3.412   1.795  16.215 -0.2174 -0.1771  0.2784
    4MPD1    H514034   3.394   1.865  16.287  0.7816 -0.4250  0.7677
    4MPD1    N114035   2.945   1.694  16.204 -0.0213  0.6678  0.6128
    4MPD1    H614036   2.950   1.704  16.305 -0.3192  0.4477  0.6512
    4MPD1    H714037   2.878   1.618  16.189  0.1444  0.4056  1.1682
    1TCq1    O114038   0.843   0.713  11.407 -0.0581 -0.5047  0.1386
    1TCq1    C114039   0.717   0.728  11.456 -0.7822 -0.6386 -0.1092
    1TCq1    O214040   0.615   0.760  11.394 -0.4692 -0.1408 -0.5658
    1TCq1    C214041   0.738   0.784  11.592  0.3813 -0.0719 -0.4762
    1TCq1    C314042   0.840   0.871  11.621  0.5048  0.5960 -0.2491
    1TCq1    C414043   0.808   0.973  11.703 -0.8764  0.1054 -0.5742
    1TCq1    C514044   0.705   0.967  11.788  0.0496  1.2259 -0.0741
    1TCq1    C614045   0.615   0.864  11.775 -0.0613  0.7091 -0.1141
    1TCq1    C714046   0.629   0.772  11.674  0.0059 -0.5750 -0.1645
    1TCq1    C814047   0.481   0.884  11.826 -0.4624 -0.0086  0.4744
    1TCq1    O414048   0.395   0.799  11.829 -0.8319 -0.2417  0.1741
    1TCq1    C914049   0.912   1.070  11.732  0.5015  0.3184 -0.3220
    1TCq1    O514050   0.889   1.150  11.830 -0.3070  0.5880  0.7997
    1TCq1    O614051   1.015   1.063  11.658 -0.1942 -0.3042  0.1534
    1TCq1    H114052   0.905   0.693  11.481  2.9657  1.5795 -1.8438
    1TCq1    H214053   0.926   0.882  11.555  0.1017  0.4829 -0.7879
    1TCq1    H314054   0.698   1.043  11.865  2.6302  2.0753 -0.6780
    1TCq1    H414055   0.556   0.695  11.651 -1.5230  0.7168  0.3955
    2MPD1     C14056   0.137   1.204  12.040 -0.2910  0.1063 -0.4163
    2MPD1    C114057   0.234   1.278  11.974 -0.1559  0.0909 -0.4545
    2MPD1    C214058   0.342   1.212  11.915 -0.1238 -0.3019 -0.1426
    2MPD1    C314059   0.352   1.074  11.913  0.6129  0.6990 -0.5147
    2MPD1    C414060   0.249   1.005  11.970 -0.2127 -0.4400 -0.6921
    2MPD1    C514061   0.159   1.070  12.045 -0.0341 -0.2553 -0.1390
    2MPD1     H14062   0.411   1.271  11.857  0.9053  0.2997  1.6932
    2MPD1    H114063   0.241   0.898  11.985  3.3493 -0.9086 -1.9440
    2MPD1    H214064   0.055   1.257  12.087  1.8012  0.8506  2.4540
    2MPD1    H314065   0.093   1.010  12.106  0.6361  1.3846  2.1945
    2MPD1     N14066   0.465   1.019  11.851  0.4030  1.3277  0.6397
    2MPD1    H514067   0.532   1.084  11.813  0.4647  1.1849  0.5028
    2MPD1    N114068   0.252   1.414  11.979 -0.0365  0.1517 -0.2712
    2MPD1    H614069   0.288   1.456  11.894 -0.0828 -1.0018 -0.8547
    2MPD1    H714070   0.157   1.451  11.984  0.1533  0.6072 -0.0198
    1TCq1    O114071   3.723   3.235   0.859 -0.1714  0.2365 -0.2507
    1TCq1    C114072   3.635   3.148   0.799 -0.4629  0.0547 -0.2085
    1TCq1    O214073   3.540   3.178   0.730  0.0394 -0.0301  0.2627
    1TCq1    C214074   3.708   3.023   0.766 -0.1397 -0.2679 -0.0577
    1TCq1    C314075   3.804   2.984   0.854  0.1755 -0.6249  0.2450
    1TCq1    C414076   3.866   2.861   0.824 -0.1885 -0.2774 -0.2778
    1TCq1    C514077   3.864   2.813   0.696 -0.1972 -0.0065  0.0470
    1TCq1    C614078   3.772   2.858   0.609  0.4667 -0.2286  0.1789
    1TCq1    C714079   3.694   2.965   0.643  0.1213  0.1213  0.3753
    1TCq1    C814080   3.748   2.799   0.480  0.9564  0.5272 -0.4569
    1TCq1    O414081   3.662   2.849   0.405  0.1162  0.6943  0.1241
    1TCq1    C914082   3.984   2.813   0.900  0.3913  0.5765  0.1194
    1TCq1    O514083   4.051   2.902   0.961  0.5268 -0.0654  0.0369
    1TCq1    O614084   4.016   2.692   0.878 -0.1479  0.1605 -0.3576
    1TCq1    H114085   3.810   3.192   0.873 -0.5100  0.2747  1.9953
    1TCq1    H214086   3.812   3.018   0.957 -3.0433  2.4637 -0.5457
    1TCq1    H314087   3.931   2.732   0.670  2.2990  1.0011  3.3256
    1TCq1    H414088   3.610   2.995   0.582 -0.5900 -2.3002  0.1617
    2MPD1     C14089   3.732   2.390   0.174  1.1517 -0.2498  0.1134
    2MPD1    C114090   3.803   2.358   0.289  0.5861 -0.1651  0.2965
    2MPD1    C214091   3.835   2.458   0.374  0.2204  0.3545 -0.1135
    2MPD1    C314092   3.778   2.584   0.367  0.3422  0.3291  0.1633
    2MPD1    C414093   3.694   2.611   0.257 -0.3509 -0.4248  0.6889
    2MPD1    C514094   3.672   2.510   0.166 -0.0903 -0.4817  0.6790
    2MPD1     H14095   3.906   2.450   0.456 -0.6834  0.8380  0.7256
    2MPD1    H114096   3.650   2.708   0.237  2.4783  0.8274  0.6423
    2MPD1    H214097   3.732   2.326   0.086 -0.1048  1.8641 -1.4384
    2MPD1    H314098   3.620   2.534   0.073 -0.6535 -4.8143 -0.1233
    2MPD1     N14099   3.812   2.678   0.466  0.0060 -0.3206 -0.0786
    2MPD1    H514100   3.878   2.647   0.537 -1.6957 -0.3422  1.4973
    2MPD1    N114101   3.866   2.238   0.307  0.3379  0.3849  0.5473
    2MPD1    H614102   3.805   2.163   0.275 -0.1848  1.6263 -1.3304
    2MPD1    H714103   3.871   2.212   0.405  2.4976 -0.4740  0.1891
    1MPD1     C14104   1.453   1.554  11.892  0.1257  0.6017 -0.4322
    1MPD1    C114105   1.567   1.519  11.821  0.1136  0.4915 -0.1319
    1MPD1    C214106   1.656   1.618  11.792 -0.3836 -0.0714  0.1618
    1MPD1    C314107   1.652   1.743  11.848 -0.1396 -0.0281  0.7865
    1MPD1    C414108   1.548   1.770  11.938 -0.0506  0.3858 -0.3838
    1MPD1    C514109   1.445   1.679  11.946  0.5249 -0.2550  0.6334
    1MPD1     H14110   1.722   1.602  11.708 -0.5564  0.0625  0.0015
    1MPD1    H114111   1.528   1.871  11.974  0.0655 -0.0011  0.7594
    1MPD1    H214112   1.369   1.487  11.910  2.8348 -3.0235 -1.2932
    1MPD1    H314113   1.353   1.693  12.002  0.3531 -0.6344  0.4506
    1MPD1     N14114   1.752   1.843  11.809 -0.2823  0.4590 -0.0433
    1MPD1    H514115   1.810   1.818  11.731 -0.6193  1.0661 -0.4885
    1MPD1    N114116   1.571   1.388  11.763 -0.3184 -0.0919  0.2899
    1MPD1    H614117   1.663   1.354  11.735  0.0121  0.1451  1.0863
    1MPD1    H714118   1.526   1.316  11.818  2.0723  0.5025  3.0465
    2MPD1     C14119   1.121   2.273  10.742  0.2720  0.1847  1.1105
    2MPD1    C114120   1.251   2.290  10.777 -0.0661  0.0656  0.3036
    2MPD1    C214121   1.350   2.237  10.696  0.7023 -0.1332 -0.1264
    2MPD1    C314122   1.311   2.186  10.572 -0.7351  0.0797 -0.0715
    2MPD1    C414123   1.180   2.175  10.534 -0.1599 -0.0530  0.3298
    2MPD1    C514124   1.091   2.217  10.625  0.8040 -0.3198  0.3993
    2MPD1     H14125   1.452   2.241  10.733 -0.3885  0.6014  2.7689
    2MPD1    H114126   1.142   2.156  10.434  4.2079 -1.1883 -1.1173
    2MPD1    H214127   1.042   2.304  10.809  0.3322 -1.3269  1.8645
    2MPD1    H314128   0.985   2.218  10.605  1.3155  0.3968 -2.2337
    2MPD1     N14129   1.404   2.141  10.478 -0.7754  0.1384  0.1492
    2MPD1    H514130   1.372   2.078  10.405  0.1863 -0.8382  0.5682
    2MPD1    N114131   1.272   2.338  10.902  0.0036  0.2151  0.5997
    2MPD1    H614132   1.360   2.381  10.930 -1.1664  2.9864  0.0944
    2MPD1    H714133   1.205   2.414  10.915 -0.7048 -0.4142  0.6247
    3MPD1     C14134   1.149   1.490  10.162 -0.4515 -0.1795  0.2004
    3MPD1    C114135   1.149   1.544  10.286 -0.2934 -0.0006  0.0479
    3MPD1    C214136   1.261   1.617  10.324  0.8946  0.0775  0.4114
    3MPD1    C314137   1.355   1.645  10.233 -0.0682  0.1928 -0.2126
    3MPD1    C414138   1.358   1.586  10.109  0.9147  0.0640 -0.2786
    3MPD1    C514139   1.254   1.511  10.076 -0.4418  0.2789  0.1090
    3MPD1     H14140   1.255   1.669  10.420  0.2512  0.6937  0.0345
    3MPD1    H114141   1.442   1.604  10.044  0.6502 -3.2568 -1.5204
    3MPD1    H214142   1.077   1.421  10.119 -0.5961  0.5747 -0.7695
    3MPD1    H314143   1.248   1.473   9.974  1.7832 -0.0846  0.1018
    3MPD1     N14144   1.452   1.731  10.277  0.7194 -0.1288 -0.3152
    3MPD1    H514145   1.440   1.765  10.372 -0.2870  2.0253 -1.2130
    3MPD1    N114146   1.046   1.523  10.368  0.2639  0.0060 -0.3526
    3MPD1    H614147   1.060   1.543  10.467 -0.5492  0.2493 -0.2837
    3MPD1    H714148   1.005   1.430  10.361  0.6915 -0.1430 -0.7781
    4MPD2     C14149   2.191   2.497  11.566 -0.7767 -0.0970  1.3175
    4MPD2    C114150   2.228   2.365  11.578  0.2745  0.4343  0.2479
    4MPD2    C214151   2.312   2.304  11.483  0.0605 -0.0301 -0.8774
    4MPD2    C314152   2.347   2.379  11.369  0.3080  0.4959  0.9077
    4MPD2    C414153   2.313   2.509  11.361 -0.0918 -0.8356 -0.7976
    4MPD2    C514154   2.245   2.572  11.464 -0.1956  0.5485  0.0433
    4MPD2     H14155   2.350   2.203  11.499  0.5498 -0.0655 -2.2387
    4MPD2    H114156   2.339   2.568  11.274 -1.3881  2.3173  0.9514
    4MPD2    H214157   2.142   2.550  11.647  0.4184  1.4199  1.0641
    4MPD2    H314158   2.212   2.676  11.458 -0.8611  0.3283 -0.1286
    4MPD2     N14159   2.399   2.300  11.271  0.2903 -0.1127 -0.4556
    4MPD2    H514160   2.418   2.204  11.298  1.2582 -0.4353 -2.2279
    4MPD2    N114161   2.174   2.277  11.685 -0.0886  0.6535 -0.2060
    4MPD2    H714162   2.220   2.187  11.694  0.7122  1.1994  1.1585
    5TMC3    C114163   2.066   2.196  11.867 -0.0055 -0.5230  0.1164
    5TMC3    C214164   1.936   2.146  11.872  0.1540 -0.6532 -0.6003
    5TMC3    C314165   1.913   2.012  11.854 -0.1976  0.6469  0.0111
    5TMC3    C414166   2.178   2.105  11.868 -0.7187 -0.9221  0.4073
    5TMC3    C514167   2.144   1.969  11.853 -0.1596  0.2185 -0.0905
    5TMC3    C614168   2.013   1.920  11.846  0.4638  0.6555  0.3368
    5TMC3     C14169   2.086   2.310  11.787 -0.5376 -0.0664  0.3111
    5TMC3     O14170   2.010   2.407  11.785 -0.3363 -0.2080  0.2163
    5TMC3     H14171   1.850   2.212  11.871 -0.4092 -1.3699 -0.2929
    5TMC3    H114172   2.276   2.151  11.875 -0.7358 -0.8796  0.3675
    5TMC3    H214173   1.995   1.813  11.850 -3.8249  1.3238 -2.1106
    5TMC3    C714174   2.234   1.925  11.752  0.0432  0.7515 -0.2304
    5TMC3    C814175   1.784   1.955  11.887  0.0737  0.7745 -0.1193
    5TMC3    O114176   2.298   2.012  11.688 -0.3211  0.0487  0.3327
    5TMC3    O214177   1.736   1.999  11.990  0.0788  0.2177  0.4453
    6TMC3    C114178   1.607   2.084  10.381  0.1855 -0.4494  0.4308
    6TMC3    C214179   1.544   1.977  10.322  0.5209  1.0269  0.1827
    6TMC3    C314180   1.625   1.881  10.274 -0.6466  0.0204  0.1203
    6TMC3    C414181   1.741   2.082  10.398 -0.1308 -0.1351 -0.4309
    6TMC3    C514182   1.821   1.978  10.359  0.1940  0.8050 -0.4843
    6TMC3    C614183   1.761   1.871  10.297  0.3764 -0.1376  0.0513
    6TMC3     C14184   1.540   2.162  10.488 -0.1072  0.4648  0.4938
    6TMC3     O14185   1.602   2.243  10.555  0.2572 -0.1990  0.5628
    6TMC3     H14186   1.439   1.973  10.295  0.1026  1.1262  1.7959
    6TMC3    H114187   1.784   2.152  10.468  2.3707 -4.4060  2.3063
    6TMC3    H214188   1.816   1.784  10.262 -0.3593 -0.1528 -1.0440
    6TMC3    C714189   1.952   1.966  10.422 -0.2495 -0.0507 -0.7080
    6TMC3    C814190   1.568   1.766  10.213  0.3201  0.3125  0.2074
    6TMC3    O114191   2.004   2.072  10.460 -0.1874 -0.6097 -0.0506
    6TMC3    O214192   1.632   1.712  10.121  0.5570  0.4589  0.0957
    7MPD2     C14193   2.394   1.584  11.409  0.7418 -0.4428 -0.4422
    7MPD2    C114194   2.380   1.721  11.396  0.1754  0.6445  0.1285
    7MPD2    C214195   2.326   1.784  11.507  0.3022  0.1402  0.4181
    7MPD2    C314196   2.278   1.722  11.621  0.0282 -0.3253  0.3663
    7MPD2    C414197   2.298   1.586  11.629  0.1377 -0.0685 -0.0131
    7MPD2    C514198   2.356   1.519  11.523 -0.4211 -0.1359 -0.1683
    7MPD2     H14199   2.293   1.887  11.497  1.4663  0.5400  0.7296
    7MPD2    H114200   2.289   1.530  11.722  0.4940 -1.2376 -0.6763
    7MPD2    H214201   2.434   1.524  11.328 -0.3096 -1.8196  0.0472
    7MPD2    H314202   2.376   1.414  11.539  0.5942  0.0013 -0.5733
    7MPD2     N14203   2.215   1.795  11.727  0.5648  0.5830  0.5185
    7MPD2    H514204   2.161   1.739  11.792  0.5050  1.5692  1.3224
    7MPD2    N114205   2.429   1.789  11.278 -0.7115  0.7095  0.4761
    7MPD2    H714206   2.471   1.739  11.200  0.4186  2.1989  0.1131
    8TMC3    C114207   2.478   1.970  11.141  0.8162  0.2448 -0.0397
    8TMC3    C214208   2.380   1.948  11.046  0.0812 -0.2982 -0.1095
    8TMC3    C314209   2.332   2.051  10.969  0.8133 -0.1596  1.2237
    8TMC3    C414210   2.526   2.099  11.153 -0.8448  0.1669  0.2022
    8TMC3    C514211   2.468   2.201  11.074  0.0137 -0.0811 -0.3659
    8TMC3    C614212   2.384   2.177  10.968  0.1684  0.2059 -0.3967
    8TMC3     C14213   2.422   1.930  11.264 -0.3188  0.5906  0.3652
    8TMC3     O14214   2.390   2.023  11.338  0.0603 -0.1382 -0.4479
    8TMC3     H14215   2.348   1.844  11.047 -3.4207  0.7896 -0.7330
    8TMC3    H114216   2.584   2.132  11.238  0.7290  2.1898 -1.6801
    8TMC3    H214217   2.325   2.257  10.927 -2.8120 -1.6950  0.1976
    8TMC3    C714218   2.428   2.330  11.140  0.0447  0.3749  0.0073
    8TMC3    C814219   2.278   2.020  10.838  0.6090  0.0084 -0.6511
    8TMC3    O114220   2.393   2.428  11.073 -0.2461 -0.4939 -0.1737
    8TMC3    O214221   2.239   2.106  10.765  0.4466  0.4757 -0.7446
    9MPD2     C14222   2.287   1.685  10.681 -0.5938  0.8135 -0.1787
    9MPD2    C114223   2.249   1.815  10.699  0.4040 -0.2066  0.0879
    9MPD2    C214224   2.145   1.865  10.620  1.0364 -0.1286  0.2436
    9MPD2    C314225   2.086   1.784  10.527 -1.2286 -0.4886  0.1963
    9MPD2    C414226   2.126   1.656  10.513 -0.3844  0.1402  0.0267
    9MPD2    C514227   2.225   1.600  10.592 -0.0266 -0.3422  0.2406
    9MPD2     H14228   2.124   1.971  10.621  0.9848 -0.1133 -1.4313
    9MPD2    H114229   2.105   1.596  10.425  0.3146  0.1962 -0.1720
    9MPD2    H214230   2.367   1.649  10.744 -0.9516  0.0738 -0.1527
    9MPD2    H314231   2.274   1.508  10.562 -1.2002 -0.4399 -1.3818
    9MPD2     N14232   1.984   1.833  10.442 -0.2919  0.4848 -0.1362
    9MPD2    H514233   1.928   1.766  10.391 -0.5712  0.9935 -0.5007
    9MPD2    N114234   2.316   1.892  10.800  0.3477  0.2563 -0.2359
    9MPD2    H714235   2.381   1.835  10.853 -0.0887  1.5220  1.6768
    1MPD1     C14236   0.980   0.710  16.724 -0.7716  0.0245  0.4166
    1MPD1    C114237   1.056   0.654  16.822 -0.7516  0.2726 -0.5108
    1MPD1    C214238   1.146   0.557  16.802  0.0464 -0.6149 -0.3343
    1MPD1    C314239   1.157   0.502  16.677 -0.3917  0.0403  0.5852
    1MPD1    C414240   1.079   0.544  16.577  0.5528 -0.0068  0.1161
    1MPD1    C514241   0.993   0.649  16.600  0.0630  0.3612 -0.1712
    1MPD1     H14242   1.203   0.514  16.883  0.6828  1.2759  0.2154
    1MPD1    H114243   1.084   0.511  16.474  0.0011 -0.8354  0.3582
    1MPD1    H214244   0.904   0.785  16.743 -1.9855 -1.1968  0.3459
    1MPD1    H314245   0.942   0.676  16.509 -2.0068  0.2149  0.9333
    1MPD1     N14246   1.241   0.397  16.648 -0.3547  0.5327  0.0477
    1MPD1    H514247   1.238   0.363  16.552 -1.6389  2.9800 -0.7767
    1MPD1    N114248   1.030   0.687  16.956 -1.0696  0.1206  0.0574
    1MPD1    H614249   0.987   0.778  16.970  2.5287  1.6444  1.1619
    1MPD1    H714250   1.115   0.675  17.011 -1.9438 -0.4501  1.2861
    2MPD1     C14251   1.996   4.341  16.813  0.2191  0.2061  0.6622
    2MPD1    C114252   1.970   4.366  16.675  0.7269  0.4905 -0.4649
    2MPD1    C214253   1.905   4.481  16.644 -0.2027 -0.9874  0.1431
    2MPD1    C314254   1.824   4.538  16.744 -0.7477 -0.4198  0.3671
    2MPD1    C414255   1.826   4.497  16.871  0.2929 -0.7175  0.7577
    2MPD1    C514256   1.908   4.397  16.906 -0.7637 -0.5914 -0.2575
    2MPD1     H14257   1.905   4.521  16.544  0.8878  0.8661  0.8786
    2MPD1    H114258   1.760   4.534  16.949 -0.3226 -0.1121 -0.0584
    2MPD1    H214259   2.074   4.275  16.848  1.1033  0.2712 -1.1686
    2MPD1    H314260   1.904   4.373  17.012  1.1103 -0.5946 -0.1811
    2MPD1     N14261   1.749   4.642  16.701  0.0014 -1.0339 -0.4058
    2MPD1    H514262   1.749   4.655  16.600  1.2470  1.2757 -0.0940
    2MPD1    N114263   2.045   4.295  16.582  0.2639 -0.1287  0.2449
    2MPD1    H614264   2.046   4.200  16.619  2.1393 -0.2424 -0.1047
    2MPD1    H714265   1.986   4.292  16.500 -2.5393 -0.5459  2.2826
    3TCq2    C114266   1.657   4.713  16.772  0.3308  0.2258 -0.1569
    3TCq2    O214267   1.621   4.701  16.892  0.4325 -0.1252 -0.1498
    3TCq2    C214268   1.588   0.087  16.680  0.3235  0.4105 -0.6242
    3TCq2    C314269   1.641   0.124  16.552  1.0487 -0.0366  0.7533
    3TCq2    C414270   1.564   0.210  16.480  0.3330  0.7231 -0.8411
    3TCq2    C514271   1.453   0.268  16.530 -0.2095  0.2950 -0.0491
    3TCq2    C614272   1.414   0.235  16.657 -0.2645 -0.1839 -0.0650
    3TCq2    C714273   1.482   0.154  16.727 -0.0507 -0.7611  0.1352
    3TCq2    C814274   1.320   0.321  16.732  0.3134  0.2715 -0.8353
    3TCq2    O414275   1.325   0.326  16.855 -0.8931  0.2585 -0.3637
    3TCq2    C914276   1.623   0.257  16.354  0.0484 -0.5412 -0.0566
    3TCq2    O514277   1.705   0.183  16.294 -0.3338 -0.4892  0.0245
    3TCq2    O614278   1.562   0.349  16.299  0.4693 -0.1013 -0.0332
    3TCq2    H214279   1.730   0.085  16.504  1.0410  1.4564 -0.4720
    3TCq2    H314280   1.396   0.340  16.472 -1.4044 -0.0634  0.6756
    3TCq2    H414281   1.443   0.118  16.822  0.8810  1.0185  1.1986
    1TCq1    O114282   4.024   4.151  12.265  0.2175 -0.0739 -0.4803
    1TCq1    C114283   3.954   4.227  12.359 -0.0620  0.2436  0.2448
    1TCq1    O214284   3.833   4.241  12.346 -0.0118  0.3372 -0.3404
    1TCq1    C214285   4.027   4.223  12.485  0.1817  0.0295  0.8798
    1TCq1    C314286   3.963   4.154  12.585 -0.3846 -0.4681  0.2016
    1TCq1    C414287   4.045   4.123  12.695  0.1652  0.2397 -1.2351
    1TCq1    C514288   4.173   4.173  12.712  0.6406  0.0845 -0.0692
    1TCq1    C614289   4.228   4.240  12.607 -0.1848  0.0314  0.0734
    1TCq1    C714290   4.160   4.269  12.492  0.5606 -0.1555 -0.9667
    1TCq1    C814291   4.362   4.297  12.609 -0.8406 -0.1154 -0.5366
    1TCq1    O414292   4.380   4.396  12.536  0.2397 -0.4161 -0.6292
    1TCq1    C914293   3.985   4.042  12.800 -0.3539 -0.3559  0.8404
    1TCq1    O514294   4.074   3.991  12.873  0.3619 -0.2777 -0.0517
    1TCq1    O614295   3.864   4.014  12.799  0.5574 -0.0494  0.1608
    1TCq1    H114296   4.112   4.114  12.287 -1.0387 -2.0884  1.2143
    1TCq1    H214297   3.860   4.121  12.588 -0.6576  0.4890  1.1078
    1TCq1    H314298   4.228   4.154  12.803 -0.0970  0.9943  0.5723
    1TCq1    H414299   4.200   4.336  12.416  1.2756 -1.6764 -1.9360
    2MPD2     C14300   4.609   4.436  12.710 -0.5334 -0.0068  0.5536
    2MPD2    C114301   4.573   4.309  12.746 -0.2795  0.4414 -0.9900
    2MPD2    C214302   4.666   4.232  12.817  1.2432  0.0150 -0.8046
    2MPD2    C314303   0.063   4.279  12.859 -0.6758 -0.4687  0.0773
    2MPD2    C414304   0.094   4.406  12.818 -0.4673  0.6612  0.7021
    2MPD2    C514305   0.010   4.477  12.740 -0.3228  0.1844 -0.3018
    2MPD2     H14306   4.648   4.126  12.829 -1.0523  0.5594  0.6391
    2MPD2    H114307   0.191   4.444  12.848 -1.0557  0.7545  2.4541
    2MPD2    H214308   4.548   4.508  12.655  1.9421 -0.2256 -2.4440
    2MPD2    H314309   0.031   4.578  12.708 -1.4461 -0.0729 -1.8392
    2MPD2     N14310   0.157   4.187  12.923  0.7255  0.4129 -0.2265
    2MPD2    H514311   0.114   4.096  12.933 -0.7307  1.3097  1.5615
    2MPD2    N114312   4.450   4.251  12.706  0.5208  0.1810  0.2497
    2MPD2    H714313   4.433   4.162  12.752 -1.0434 -1.2293 -3.0655
    3TCq1    O114314   0.270   3.824  13.326 -0.7609  0.0076 -0.3684
    3TCq1    C114315   0.229   3.803  13.195 -0.7352 -0.1048 -0.8433
    3TCq1    O214316   0.115   3.781  13.164 -0.3865 -0.2226 -0.1693
    3TCq1    C214317   0.316   3.885  13.119 -0.7029 -0.8613  0.6699
    3TCq1    C314318   0.448   3.878  13.145  0.4425 -0.1339  0.2572
    3TCq1    C414319   0.533   3.977  13.112  0.1833  0.1793  0.0102
    3TCq1    C514320   0.482   4.097  13.062  0.9523 -0.2385  0.1345
    3TCq1    C614321   0.346   4.097  13.039  0.9321  0.8956 -0.4748
    3TCq1    C714322   0.264   3.992  13.061 -0.2272  0.6059  0.1355
    3TCq1    C814323   0.280   4.215  12.982  0.8808 -0.1133 -0.2434
    3TCq1    O414324   0.334   4.325  12.994 -0.1504  0.3051 -0.0133
    3TCq1    C914325   0.671   3.947  13.141  0.3671 -0.4268  0.2796
    3TCq1    O514326   0.748   4.035  13.104 -0.3195 -0.2377 -0.7010
    3TCq1    O614327   0.683   3.894  13.251 -0.3931 -0.6452  0.1918
    3TCq1    H114328   0.364   3.847  13.343 -0.6831 -0.7868  0.2538
    3TCq1    H214329   0.498   3.787  13.177  1.1312  0.2262  0.2246
    3TCq1    H314330   0.532   4.185  13.025  1.1603 -0.4568 -0.1011
    3TCq1    H414331   0.158   3.994  13.037  0.3561  3.6820 -2.2805
    1MPD2     C14332   3.782   0.893  14.861 -0.9153 -0.3453  0.3551
    1MPD2    C114333   3.724   0.780  14.820  0.4334 -0.1795 -0.0930
    1MPD2    C214334   3.797   0.665  14.816  0.1854 -0.7647  1.1699
    1MPD2    C314335   3.934   0.661  14.845  0.0296  0.1571  0.3003
    1MPD2    C414336   3.991   0.778  14.886  0.3807  0.3825  0.8962
    1MPD2    C514337   3.914   0.892  14.900 -0.4682 -0.1389  0.6778
    1MPD2     H14338   3.754   0.573  14.777  0.4663 -0.9142  1.2139
    1MPD2    H114339   4.095   0.785  14.917 -0.3156  2.6269  2.7043
    1MPD2    H214340   3.726   0.986  14.860 -1.5163 -0.7070 -0.1022
    1MPD2    H314341   3.965   0.982  14.930 -0.5001 -0.2824  1.1520
    1MPD2     N14342   4.015   0.543  14.847 -0.9025 -0.4599  0.3375
    1MPD2    H514343   4.113   0.551  14.874 -0.7179 -0.2485 -0.4051
    1MPD2    N114344   3.585   0.785  14.811  0.1309 -0.1074  0.0041
    1MPD2    H714345   3.545   0.877  14.794  1.8249  0.6699  0.1916
    2TMC3    C114346   3.370   0.696  14.777  0.0038  0.6899 -0.5822
    2TMC3    C214347   3.293   0.593  14.824  0.8116  1.1518 -0.0761
    2TMC3    C314348   3.228   0.523  14.721  0.6465  0.0786  0.6536
    2TMC3    C414349   3.356   0.755  14.657  0.0712 -0.9299  0.2030
    2TMC3    C514350   3.278   0.685  14.568 -0.2745 -0.2232  0.0451
    2TMC3    C614351   3.219   0.564  14.597  0.0116 -0.1696  0.1246
    2TMC3     C14352   3.504   0.677  14.834  0.9157 -0.9909 -0.7644
    2TMC3     O14353   3.534   0.569  14.883  0.0941  0.0846  0.5038
    2TMC3     H14354   3.305   0.560  14.926  2.2857 -1.9269 -1.2428
    2TMC3    H114355   3.427   0.829  14.622  0.0191 -0.4589  1.0918
    2TMC3    H214356   3.161   0.501  14.530  1.4552 -1.2256 -0.1229
    2TMC3    C714357   3.261   0.748  14.437 -0.0183  0.0574 -0.5311
    2TMC3    C814358   3.237   0.383  14.744 -0.3035 -0.1093 -0.4712
    2TMC3    O114359   3.163   0.701  14.377  0.9361  0.2438  0.2848
    2TMC3    O214360   3.151   0.308  14.700 -0.3354  0.2670 -0.2583
    3TCq1    O114361   3.682   1.747  13.986 -0.1480  0.0720  0.3085
    3TCq1    C114362   3.734   1.765  14.113 -0.0083 -0.4414  0.3586
    3TCq1    O214363   3.819   1.843  14.152 -0.3940  0.4524  0.4740
    3TCq1    C214364   3.693   1.651  14.194 -0.9040 -0.1624  0.4179
    3TCq1    C314365   3.773   1.610  14.304  0.1155 -0.9278  0.2685
    3TCq1    C414366   3.732   1.493  14.366 -0.0888  0.5715  0.3307
    3TCq1    C514367   3.614   1.433  14.340 -0.1439 -0.1174  0.3462
    3TCq1    C614368   3.528   1.493  14.247  0.1070 -0.4731  0.1797
    3TCq1    C714369   3.567   1.598  14.177 -0.1281 -1.0670  0.5948
    3TCq1    C814370   3.427   1.409  14.183  0.2345  0.4367 -0.2893
    3TCq1    O414371   3.432   1.416  14.061 -0.3833 -0.2102 -0.7455
    3TCq1    C914372   3.833   1.431  14.442  0.0521 -0.0564 -0.5941
    3TCq1    O514373   3.924   1.505  14.491  0.3418  0.1128  0.0795
    3TCq1    O614374   3.814   1.311  14.474  0.6523  0.0664 -0.4690
    3TCq1    H114375   3.632   1.663  13.982  0.0057 -0.1440  3.3932
    3TCq1    H214376   3.871   1.655  14.310 -0.4214  0.3080 -0.2992
    3TCq1    H314377   3.599   1.335  14.383 -0.4810  0.1793  0.9097
    3TCq1    H414378   3.501   1.638  14.100 -1.3587 -2.5162  0.9027
    4MPD2     C14379   3.297   1.144  14.100  0.3325 -0.4325 -0.4304
    4MPD2    C114380   3.333   1.183  14.229 -0.2719  0.1140  0.0153
    4MPD2    C214381   3.340   1.091  14.331 -0.1831  0.3764  0.5029
    4MPD2    C314382   3.299   0.966  14.312  0.2504 -0.1588 -0.1671
    4MPD2    C414383   3.245   0.924  14.188 -0.2000 -0.4919  0.4446
    4MPD2    C514384   3.241   1.018  14.086  0.2005  0.6145 -0.2216
    4MPD2     H14385   3.356   1.118  14.435  0.4930 -1.6667  0.9339
    4MPD2    H114386   3.210   0.828  14.152  1.4681 -0.4130 -1.3946
    4MPD2    H214387   3.295   1.207  14.012 -0.4813 -1.8690 -1.4401
    4MPD2    H314388   3.186   0.996  13.995  0.8260 -0.8620 -0.2412
    4MPD2     N14389   3.318   0.878  14.426  0.4186 -0.5037  0.1325
    4MPD2    H514390   3.378   0.904  14.504  3.1671 -2.9769 -1.1809
    4MPD2    N114391   3.386   1.309  14.263 -0.1016 -0.1389  0.3223
    4MPD2    H714392   3.403   1.327  14.362  0.0670 -0.3991  0.3423
    5TMC2    C114393   3.977   0.090  14.899  0.3517  0.9588 -0.6060
    5TMC2    C214394   4.032   0.090  15.022 -0.6723 -0.2474 -0.0183
    5TMC2    C314395   4.111   0.197  15.054  0.0632 -0.3035  0.3407
    5TMC2    C414396   3.993   0.200  14.817  0.3558 -0.1483 -0.1145
    5TMC2    C514397   4.057   0.312  14.856  0.1823 -0.3451 -0.2112
    5TMC2    C614398   4.120   0.312  14.974 -0.0065  0.3252  0.2737
    5TMC2     C14399   3.849   0.031  14.891  0.1160 -0.1292  0.3937
    5TMC2     O14400   3.820   4.655  14.949  0.2899 -0.0447 -0.0294
    5TMC2     H14401   4.004   0.016  15.096  0.7891 -0.7135  0.0720
    5TMC2    H114402   3.954   0.196  14.716 -1.4141 -1.8915  0.6377
    5TMC2    H214403   4.172   0.397  15.016  1.4020  0.0967 -1.0287
    5TMC2    C714404   3.972   0.419  14.808 -0.1615  0.4164  0.0924
    5TMC2    C814405   4.184   0.208  15.179 -0.1610  0.0473 -0.4504
    5TMC2    O114406   3.864   0.391  14.763  0.0181  0.8776  0.0855
    5TMC2    O214407   4.299   0.252  15.179  0.1134 -0.1962 -0.5304
    5TMC2    O514408   4.124   0.138  15.281 -0.4870  0.4468  0.3223
    5TMC2    H514409   4.026   0.148  15.276 -0.6513 -0.7703  1.1238
    6MPD2     C14410   3.355   0.111  14.830 -0.0448  0.2964  0.2681
    6MPD2    C114411   3.420   0.229  14.802 -0.5544 -0.3525  0.1803
    6MPD2    C214412   3.558   0.231  14.818 -0.1514  0.2372  0.5258
    6MPD2    C314413   3.628   0.117  14.838 -0.3949  0.6183 -0.9562
    6MPD2    C414414   3.562   4.719  14.844 -0.3093 -0.1546  0.3702
    6MPD2    C514415   3.424   4.722  14.844  0.9555 -0.0475 -0.0136
    6MPD2     H14416   3.609   0.326  14.828 -0.6525  0.7761 -2.0856
    6MPD2    H114417   3.613   4.624  14.854 -0.1155 -0.0085  0.7244
    6MPD2    H214418   3.246   0.111  14.830 -0.0393  1.2034 -1.3021
    6MPD2    H314419   3.368   4.629  14.852  0.4539  0.3741  1.3632
    6MPD2     N14420   3.763   0.131  14.849  0.1089 -0.3854 -0.1274
    6MPD2    H514421   3.807   0.219  14.826 -1.3886  1.3307  3.5820
    6MPD2    N114422   3.363   0.358  14.784 -0.0146  0.0947  0.4307
    6MPD2    H714423   3.425   0.439  14.784 -1.2068  1.0226 -1.1412
  945NH3     N114424   2.306   4.059   1.161  0.6888  0.3308  0.1862
  945NH3     H214425   2.233   3.995   1.190  1.4488  0.1320  1.6578
  945NH3     H314426   2.352   4.095   1.244  1.0962  2.2840 -0.8746
  945NH3     H414427   2.269   4.143   1.117 -1.6167 -1.8152 -1.9754
  946SOD     NA14428   2.052   0.326  13.244 -0.7523 -0.0773 -0.0951
  947SOD     NA14429   1.188   2.844  13.383  0.3495 -0.2474 -0.2149
  948SOD     NA14430   3.192   1.115   1.061 -0.2721 -0.1695 -0.4208
  949SOD     NA14431   1.196   0.596   2.713 -0.0919  0.0815 -0.2315
  950SOD     NA14432   0.108   1.405  17.316 -0.2855 -0.2877 -0.3058
  951SOD     NA14433   2.464   2.246   2.249  0.1251 -0.1012 -0.3303
  952SOD     NA14434   2.683   0.283  10.884 -0.2160  0.2175 -0.1184
  953SOD     NA14435   4.010   0.675   4.191  0.0033  0.0431  0.2655
  954SOD     NA14436   0.955   4.055  13.024  0.3807 -0.3584  0.2663
  955SOD     NA14437   0.827   4.673  14.613  0.1925  0.3041 -0.7227
  956SOD     NA14438   1.791   2.164  10.948  0.1919  0.2947 -0.0458
  957SOD     NA14439   0.697   4.350  13.766  0.3439  0.0361 -0.2188
  958SOD     NA14440   2.893   0.669   1.742  0.0467 -0.2080  0.4823
  959SOD     NA14441   1.559   1.532  12.439  0.0128  0.0791 -0.0231
  960SOD     NA14442   0.398   4.475   9.795  0.0046  0.2093 -0.0948
  961SOD     NA14443   3.962   1.290   0.251 -0.1284 -0.7063  0.0181
  962SOD     NA14444   4.504   0.424  11.598  0.3044  0.0748 -0.6234
  963SOD     NA14445   2.310   1.933  16.286  0.1885  0.2612 -0.6310
  964SOD     NA14446   1.380   0.902   0.787  0.0346  0.2405 -0.3409
  965SOD     NA14447   3.248   3.180   9.200  0.0298  0.1961 -0.1317
  966SOD     NA14448   3.945   1.132  14.434  0.3220  0.0375 -0.2186
  967SOD     NA14449   4.022   2.231  10.018  0.1004  0.3485  0.3056
  968SOD     NA14450   3.182   4.639   7.701 -0.0265 -0.5529 -0.1137
  969SOD     NA14451   1.038   3.185   2.938 -0.5489  0.1355  0.1805
  970SOD     NA14452   3.979   4.387   9.529  0.4068 -0.2745 -0.2346
  971SOD     NA14453   0.782   4.107  13.316 -0.1641  0.2211  0.0071
  972SOD     NA14454   0.083   0.253  10.781  0.2177  0.0274 -0.1332
  973SOD     NA14455   4.599   0.292  11.910  0.2729 -0.0822  0.7382
  974SOD     NA14456   0.646   1.401  11.631 -0.2682 -0.3160  0.4956
  975SOD     NA14457   2.912   3.072   9.178 -0.0086  0.3397 -0.1357
  976SOD     NA14458   2.158   3.187  13.453  0.1471  0.2167  0.2064
  977SOD     NA14459   3.520   0.989  11.217 -0.0138  0.1854 -0.1396
  978SOD     NA14460   1.339   3.628   1.065 -0.3419 -0.0343 -0.3802
  979SOD     NA14461   4.158   3.335  12.640  0.5973 -0.4389  0.1242
  980SOD     NA14462   1.994   4.231  11.440  0.3116 -0.6318  0.1678
  981SOD     NA14463   4.438   3.964  11.733  0.2892 -0.0385  0.5433
  982SOD     NA14464   4.039   0.199   9.658  0.2272  0.4630 -0.0341
  983SOD     NA14465   3.145   1.646   8.649  0.0997 -0.3051  0.0086
  984SOD     NA14466   2.374   2.963  11.876  0.4323 -0.0395 -0.2270
  985SOD     NA14467   4.679   3.771  10.416 -0.1798  0.1057 -0.1972
  986SOD     NA14468   2.020   2.568  15.793  0.1177 -0.0171  0.4182
  987SOD     NA14469   1.867   3.221   1.861  0.3944 -0.1613 -0.0683
  988SOD     NA14470   0.149   0.155   3.054  0.4225  0.3727 -0.2604
  989SOD     NA14471   4.332   3.666  10.100 -0.1416 -0.5624 -0.0259
  990SOD     NA14472   3.104   1.549  17.005  0.2082  0.4564  0.3339
  991SOD     NA14473   4.173   4.346  15.296  0.0411 -0.0061 -0.3431
  992SOD     NA14474   3.686   1.008  15.220  0.4861  0.2528 -0.3553
  993SOD     NA14475   0.076   0.955   0.557 -0.3265  0.0099  0.2552
  994SOD     NA14476   2.638   4.496  11.260  0.5869 -0.3932 -0.0426
  995SOD     NA14477   4.437   0.083  11.443  0.0185  0.2741  0.6668
  996SOD     NA14478   0.841   3.251   0.261  0.2254 -0.2460 -0.0863
  997SOD     NA14479   3.703   2.254   2.671  0.1181  0.0739 -0.1019
  998SOD     NA14480   4.080   3.889   8.802  0.7737  0.4482 -0.4567
  999SOD     NA14481   3.815   0.525   2.191 -0.2515  0.1497  0.1528
 1000SOD     NA14482   1.725   0.318  16.126  0.4181  0.2257  0.2569
 1001SOD     NA14483   0.890   4.470  14.043 -0.2207 -0.5276  0.4618
 1002SOD     NA14484   1.277   0.668  12.867  0.4534  0.6708  0.6645
 1003SOD     NA14485   4.716   4.190  10.693 -0.3993 -0.7111  0.4765
 1004SOD     NA14486   1.849   0.896  15.005  0.1932 -0.3474  0.2527
 1005SOD     NA14487   2.950   3.693  14.764 -0.1254  0.3053  0.2017
 1006SOD     NA14488   1.777   0.428  14.824 -0.3657  0.4088  0.7334
 1007SOD     NA14489   2.165   4.353  17.381  0.1548 -0.2884  0.5543
 1008SOD     NA14490   3.393   3.190  15.196 -0.6582  0.0196 -0.2056
 1009SOD     NA14491   3.861   4.008   9.962 -0.2335  0.0140  0.4129
 1010SOD     NA14492   2.302   2.902   2.662 -0.0410 -0.6151  0.5232
 1011SOD     NA14493   2.537   3.692   1.707 -0.2053  0.0686 -0.0122
 1012SOL     OW14494   0.787   2.069   8.367  0.3697 -0.1395  0.5551
 1012SOL    HW114495   0.721   2.026   8.420 -0.7286  0.9861  0.0958
 1012SOL    HW214496   0.769   2.160   8.391  0.5632  0.6677 -2.3081
 1013SOL     OW14497   1.021   1.389   1.908 -0.0507 -0.5823  0.3432
 1013SOL    HW114498   0.977   1.383   1.823 -0.7725 -1.2783  0.7564
 1013SOL    HW214499   1.021   1.483   1.923  2.3180 -0.7680  1.4416
 1014SOL     OW14500   4.223   0.618   9.595  0.3376  0.1509  0.3201
 1014SOL    HW114501   4.204   0.653   9.508 -1.0964  2.8933  1.7507
 1014SOL    HW214502   4.298   0.567   9.564  0.2963  0.7746 -0.7768
 1015SOL     OW14503   4.274   3.355   5.829  0.3020  0.5238 -0.1480
 1015SOL    HW114504   4.192   3.371   5.876 -0.2900 -0.9514 -0.6640
 1015SOL    HW214505   4.256   3.399   5.746  0.0360  0.5332 -0.0876
 1016SOL     OW14506   0.708   0.407   0.943  0.0182  0.2849  0.1226
 1016SOL    HW114507   0.797   0.402   0.909 -1.1227 -0.1569 -2.7218
 1016SOL    HW214508   0.714   0.352   1.021 -0.5309 -0.3550 -0.2835
 1017SOL     OW14509   4.633   2.261  13.904  0.2825  0.2905  0.3631
 1017SOL    HW114510   4.550   2.293  13.940  0.2970  0.0959  0.5676
 1017SOL    HW214511   4.621   2.285  13.812 -0.8368 -2.7342 -0.2696
 1018SOL     OW14512   3.598   2.048  12.029 -0.3438  0.4513  0.2440
 1018SOL    HW114513   3.550   2.130  12.027 -1.3454 -0.1836 -2.1376
 1018SOL    HW214514   3.677   2.075  11.984 -1.1394  0.2101 -1.2960
 1019SOL     OW14515   4.092   0.740  11.333 -0.2054  0.0497 -0.6124
 1019SOL    HW114516   4.046   0.733  11.417 -1.9486  1.3291 -1.4611
 1019SOL    HW214517   4.013   0.728  11.280  0.0760 -1.2858 -0.7292
 1020SOL     OW14518   2.577   3.425  17.648 -0.7933 -0.0238 -0.6086
 1020SOL    HW114519   2.576   3.514  17.611  0.6643 -0.3110 -1.3698
 1020SOL    HW214520   2.497   3.429  17.700  1.1121 -0.9538  2.3600
 1021SOL     OW14521   0.776   0.058  15.758  0.3675 -0.4045  0.2336
 1021SOL    HW114522   0.753   0.136  15.707 -0.7588 -0.8023  0.1209
 1021SOL    HW214523   0.858   0.031  15.718 -0.8613 -0.0243 -2.5377
 1022SOL     OW14524   0.585   4.586   7.967  0.5749 -0.0084 -0.0152
 1022SOL    HW114525   0.522   4.582   7.895  1.1803  1.7596 -0.6509
 1022SOL    HW214526   0.533   4.535   8.028  2.1287 -0.8200  0.6273
 1023SOL     OW14527   1.731   4.128   8.618 -0.2691 -0.2340  0.6462
 1023SOL    HW114528   1.676   4.205   8.630  1.3599  1.1743 -0.9608
 1023SOL    HW214529   1.805   4.168   8.572 -0.6638  0.3950  0.5609
 1024SOL     OW14530   1.000   0.721   6.361  0.0003 -0.1645  0.7667
 1024SOL    HW114531   0.968   0.811   6.356 -2.1448 -0.8618  1.8466
 1024SOL    HW214532   1.062   0.732   6.433  1.4469 -2.4569 -0.1240
 1025SOL     OW14533   3.761   4.021  16.804 -0.1258  0.1341 -0.1590
 1025SOL    HW114534   3.748   4.034  16.898  0.5822  0.0874 -0.0517
 1025SOL    HW214535   3.754   4.111  16.772 -3.4244  0.2743  1.0027
 1026SOL     OW14536   1.450   3.231   7.186  0.3631 -0.0731 -0.4384
 1026SOL    HW114537   1.423   3.195   7.271  0.6393  0.5037 -0.1084
 1026SOL    HW214538   1.537   3.263   7.209 -0.5957  1.1027  1.5442
 1027SOL     OW14539   4.663   0.940   6.335  0.3385 -0.2482 -0.1794
 1027SOL    HW114540   0.019   0.892   6.322  0.9887  1.2619 -1.6820
 1027SOL    HW214541   4.658   0.942   6.431  0.8440  0.5484 -0.1655
 1028SOL     OW14542   4.619   4.192   4.199  0.0023  0.1097 -0.2661
 1028SOL    HW114543   4.571   4.274   4.209 -1.5464 -0.6857 -1.1773
 1028SOL    HW214544   4.546   4.131   4.207 -0.2011  0.7626  2.7640
 1029SOL     OW14545   4.604   1.472   7.897 -0.0285 -0.4665  0.0983
 1029SOL    HW114546   4.642   1.420   7.826 -1.7587 -0.9464 -0.4696
 1029SOL    HW214547   4.602   1.556   7.853  0.3211  0.9385  2.7262
 1030SOL     OW14548   1.446   1.903   0.304  0.0292 -0.3092  0.2913
 1030SOL    HW114549   1.489   1.941   0.227 -1.2026  1.2724  0.3709
 1030SOL    HW214550   1.497   1.823   0.310  0.1774 -0.4009 -2.2583
 1031SOL     OW14551   2.355   1.271   4.389  0.0235 -0.1600  0.0664
 1031SOL    HW114552   2.284   1.246   4.448  1.0764 -2.9745  0.1280
 1031SOL    HW214553   2.329   1.357   4.356  2.5859  0.4679 -0.3452
 1032SOL     OW14554   0.688   1.962   9.494  0.4575  0.1523 -0.1789
 1032SOL    HW114555   0.694   2.044   9.444  1.7390 -1.1963 -2.2350
 1032SOL    HW214556   0.610   1.919   9.460  0.2962 -0.9413  1.5394
 1033SOL     OW14557   2.694   2.136  16.125 -0.1826 -0.0497  0.0179
 1033SOL    HW114558   2.663   2.215  16.081  0.8415 -0.3131 -1.1664
 1033SOL    HW214559   2.749   2.091  16.061  0.9794  0.7023  0.4777
 1034SOL     OW14560   1.746   4.671  16.198  0.2001 -0.1853  0.4815
 1034SOL    HW114561   1.707   4.623  16.271 -0.8670  0.3272  0.2549
 1034SOL    HW214562   1.721   0.033  16.225  2.1664  1.0080 -1.6018
 1035SOL     OW14563   3.389   1.624   2.659  0.5676 -0.1725  0.5747
 1035SOL    HW114564   3.417   1.556   2.721 -0.1143 -1.2427 -0.2880
 1035SOL    HW214565   3.343   1.571   2.593  0.4776  0.7305 -0.0789
 1036SOL     OW14566   2.624   3.377   2.532 -0.7247  0.2148 -0.2781
 1036SOL    HW114567   2.626   3.311   2.463 -0.4993 -1.0114  0.9000
 1036SOL    HW214568   2.582   3.315   2.593 -0.1828  1.1878  1.0898
 1037SOL     OW14569   2.759   3.237  17.543 -0.3363 -0.3863 -0.0567
 1037SOL    HW114570   2.707   3.168  17.503 -1.6202  0.4499  0.1480
 1037SOL    HW214571   2.694   3.308  17.542 -0.0635 -0.1454 -0.8563
 1038SOL     OW14572   0.710   0.408   3.631  0.2347 -0.3321  0.2849
 1038SOL    HW114573   0.718   0.313   3.620 -2.7093 -0.4807 -0.6660
 1038SOL    HW214574   0.753   0.415   3.715 -0.0645  0.5919  0.3619
 1039SOL     OW14575   3.840   1.484   9.708 -0.8254  0.3406  0.1298
 1039SOL    HW114576   3.916   1.514   9.758 -1.0515  0.6856  0.2674
 1039SOL    HW214577   3.878   1.472   9.621  0.0357 -3.1820  1.0016
 1040SOL     OW14578   0.292   0.438   0.207 -0.0166  0.3333 -0.0901
 1040SOL    HW114579   0.344   0.397   0.276  0.1409 -1.0551 -1.0420
 1040SOL    HW214580   0.205   0.436   0.245  0.0117 -1.0252 -0.0990
 1041SOL     OW14581   1.351   0.490  12.988 -0.0560 -0.1002 -0.3373
 1041SOL    HW114582   1.328   0.406  12.948  1.1481  0.4840 -2.2622
 1041SOL    HW214583   1.302   0.480  13.069  1.2369  3.0949  0.8447
 1042SOL     OW14584   4.109   2.632   4.911  0.3137  0.5254 -0.0849
 1042SOL    HW114585   4.153   2.692   4.851 -0.5504  1.0209 -0.2308
 1042SOL    HW214586   4.102   2.677   4.995  1.1896 -0.1769  0.3538
 1043SOL     OW14587   3.589   3.453   6.481 -0.0121  0.6396 -0.0402
 1043SOL    HW114588   3.629   3.453   6.394  0.2466 -1.3740  0.0845
 1043SOL    HW214589   3.656   3.497   6.534  0.8696  3.1588 -3.2150
 1044SOL     OW14590   1.693   3.994   9.465 -0.4724  0.0145 -0.2842
 1044SOL    HW114591   1.744   3.993   9.384  1.2168  0.3736  0.7703
 1044SOL    HW214592   1.728   3.912   9.501 -2.0813 -0.2072  0.7631
 1045SOL     OW14593   1.105   4.034  14.380 -0.1287 -0.2871 -0.1270
 1045SOL    HW114594   1.024   4.081  14.362 -1.6319 -2.0715  2.0624
 1045SOL    HW214595   1.161   4.103  14.414 -0.9057 -0.2696  1.0873
 1046SOL     OW14596   1.906   2.158  17.636 -0.2942  0.1732 -0.2480
 1046SOL    HW114597   1.892   2.179   0.023  1.1947  1.2786 -0.2756
 1046SOL    HW214598   1.991   2.196  17.615 -0.5027  1.4471  1.2033
 1047SOL     OW14599   0.424   4.542   6.472  0.0125 -0.6158 -0.2363
 1047SOL    HW114600   0.377   4.558   6.554  0.9044 -3.3890  0.8128
 1047SOL    HW214601   0.514   4.573   6.486 -0.7547  0.8451  1.4184
 1048SOL     OW14602   2.589   1.870  16.748  0.6860 -0.3077  0.8400
 1048SOL    HW114603   2.674   1.887  16.707  0.7046  0.3859  1.1828
 1048SOL    HW214604   2.589   1.914  16.832 -1.0987  0.1806  0.5856
 1049SOL     OW14605   2.051   3.307   7.889 -0.0637  0.3417  0.2499
 1049SOL    HW114606   2.061   3.400   7.872  0.1668  0.5255  1.3333
 1049SOL    HW214607   2.140   3.287   7.919 -0.5034 -2.2611 -0.1455
 1050SOL     OW14608   2.099   1.775   5.289  0.5332  0.2044  0.1486
 1050SOL    HW114609   2.163   1.747   5.223  0.9055  1.0763  0.1439
 1050SOL    HW214610   2.120   1.716   5.361  1.1566  0.0286 -0.1719
 1051SOL     OW14611   4.308   3.774  11.675  1.1489 -0.5937  0.0320
 1051SOL    HW114612   4.283   3.764  11.583 -1.3096  0.0452  0.6397
 1051SOL    HW214613   4.246   3.715  11.717  2.8134 -0.8915  2.0925
 1052SOL     OW14614   0.602   2.931   5.983  0.2384  0.8310 -0.0464
 1052SOL    HW114615   0.606   3.010   5.929  1.0146 -0.1609 -1.4166
 1052SOL    HW214616   0.614   2.871   5.910  0.7858  0.2578  0.5156
 1053SOL     OW14617   1.244   0.080   9.605 -0.2479 -0.7727  0.6324
 1053SOL    HW114618   1.167   0.074   9.661 -0.8204 -1.3096 -0.2280
 1053SOL    HW214619   1.204   0.042   9.527  1.2554 -0.6855 -0.1817
 1054SOL     OW14620   4.380   4.008   4.226  0.4454 -0.5044 -0.5068
 1054SOL    HW114621   4.358   3.944   4.159 -1.6211  0.1166 -0.4372
 1054SOL    HW214622   4.329   3.974   4.300  0.2676  0.8768  0.0193
 1055SOL     OW14623   4.032   3.869   2.538  0.2838  0.4577 -0.3019
 1055SOL    HW114624   3.951   3.916   2.517 -0.3654  0.3349  1.8240
 1055SOL    HW214625   4.035   3.893   2.631  0.9474  0.2294 -0.2642
 1056SOL     OW14626   2.902   1.083  13.588 -0.1214  0.1421 -0.3653
 1056SOL    HW114627   2.908   1.179  13.592  3.2290 -0.0661 -0.5934
 1056SOL    HW214628   2.975   1.053  13.642 -0.6044 -0.0594  0.1761
 1057SOL     OW14629   4.097   3.517   5.203 -0.5048  0.0128 -0.3687
 1057SOL    HW114630   4.122   3.433   5.165  0.0486 -0.2862  0.6382
 1057SOL    HW214631   4.169   3.540   5.262 -0.4271  3.2187 -1.7481
 1058SOL     OW14632   1.915   0.345   6.823 -0.1179 -0.2080  0.4510
 1058SOL    HW114633   1.851   0.296   6.772  1.6170 -2.3322  0.2964
 1058SOL    HW214634   1.861   0.378   6.895 -2.0332 -3.1273  0.3383
 1059SOL     OW14635   1.336   0.908   4.211  0.4153  0.2142 -0.3509
 1059SOL    HW114636   1.254   0.922   4.257  0.7114 -3.0137  1.1693
 1059SOL    HW214637   1.394   0.943   4.279 -1.0675  1.0258  0.4865
 1060SOL     OW14638   1.407   1.027   9.502 -0.7061 -0.2569  0.0308
 1060SOL    HW114639   1.326   1.077   9.492 -0.7555 -0.4087 -0.3185
 1060SOL    HW214640   1.431   1.001   9.413 -1.9931  1.2477 -0.7584
 1061SOL     OW14641   2.888   2.414  16.147  0.0745 -0.3721 -0.4274
 1061SOL    HW114642   2.799   2.386  16.166 -0.5197  1.6479 -0.3441
 1061SOL    HW214643   2.921   2.359  16.075 -0.1845 -1.0074 -0.0659
 1062SOL     OW14644   1.243   4.292  12.792 -0.8368  0.4093  0.0136
 1062SOL    HW114645   1.307   4.305  12.862 -2.8491  0.4359  1.8404
 1062SOL    HW214646   1.205   4.207  12.811  4.0010 -1.7096  0.3101
 1063SOL     OW14647   1.867   1.699   6.845 -0.2981  0.7415  0.2692
 1063SOL    HW114648   1.924   1.673   6.917 -0.5246  3.2814  1.3837
 1063SOL    HW214649   1.887   1.623   6.791 -0.0191  0.9860  0.0237
 1064SOL     OW14650   0.942   0.010   0.805 -0.0875  0.1576 -0.1161
 1064SOL    HW114651   1.024   4.696   0.831  1.4370  2.4332 -1.4363
 1064SOL    HW214652   0.900   4.716   0.888 -1.3142 -0.5211 -0.8948
 1065SOL     OW14653   4.646   0.668  10.624 -0.2782 -0.6647  0.3852
 1065SOL    HW114654   4.555   0.640  10.611 -0.6008 -0.1073  1.3840
 1065SOL    HW214655   4.647   0.694  10.716 -0.3014 -0.1692  0.2424
 1066SOL     OW14656   3.153   4.583   5.147 -0.2382  0.4299 -0.4306
 1066SOL    HW114657   3.098   4.563   5.223 -0.3720 -0.3592 -0.7422
 1066SOL    HW214658   3.180   4.667   5.184 -0.4083  1.1069 -1.8457
 1067SOL     OW14659   1.862   0.219   8.400  0.4307  0.5010 -0.5630
 1067SOL    HW114660   1.837   0.149   8.340  0.9969 -0.7822  0.7159
 1067SOL    HW214661   1.957   0.233   8.399  0.5103 -0.0508 -0.2671
 1068SOL     OW14662   3.514   2.220  14.644  0.1899  0.7565  0.1683
 1068SOL    HW114663   3.528   2.272  14.723  1.2771  1.1649 -0.2922
 1068SOL    HW214664   3.451   2.280  14.604  1.7669  0.7198 -2.3554
 1069SOL     OW14665   0.612   4.335   2.271 -0.5467  0.5574  0.2696
 1069SOL    HW114666   0.704   4.338   2.297 -0.1961  2.5510 -1.2220
 1069SOL    HW214667   0.600   4.240   2.273 -2.3731  0.7783 -0.1282
 1070SOL     OW14668   3.190   1.870   3.274 -0.2757 -0.6161  0.1887
 1070SOL    HW114669   3.105   1.860   3.316 -0.6860 -1.4563 -0.8243
 1070SOL    HW214670   3.217   1.781   3.296 -0.3212 -0.7454 -0.2844
 1071SOL     OW14671   4.716   3.170   8.718  0.0410  0.1764 -0.5673
 1071SOL    HW114672   4.639   3.118   8.694 -0.2904 -0.2820  1.5161
 1071SOL    HW214673   4.677   3.241   8.769  3.0861  1.8830 -0.6279
 1072SOL     OW14674   3.817   3.338   1.427 -0.0374  0.1595  0.2405
 1072SOL    HW114675   3.808   3.327   1.522 -1.6788  0.7562  0.1610
 1072SOL    HW214676   3.888   3.281   1.397 -0.7311  0.0999 -1.3123
 1073SOL     OW14677   2.964   1.724   5.147  0.0254 -0.2491  0.0321
 1073SOL    HW114678   3.018   1.798   5.176  2.1000 -1.4564 -0.7498
 1073SOL    HW214679   2.907   1.724   5.224 -0.0941  0.5987 -0.0548
 1074SOL     OW14680   3.548   2.107   7.104 -0.3590 -0.2286  0.5165
 1074SOL    HW114681   3.453   2.115   7.109 -0.5324 -1.0971 -1.5975
 1074SOL    HW214682   3.573   2.138   7.191  2.5536  0.6120 -0.6178
 1075SOL     OW14683   3.351   0.642   1.816 -0.4628  0.0955 -0.3141
 1075SOL    HW114684   3.413   0.706   1.851 -1.6885  2.3278 -2.2562
 1075SOL    HW214685   3.308   0.692   1.746  0.9450  0.6225 -0.7957
 1076SOL     OW14686   0.608   1.740   7.767  0.0827  0.3676 -0.0137
 1076SOL    HW114687   0.619   1.799   7.693  1.3648  0.8105  0.5278
 1076SOL    HW214688   0.546   1.675   7.734  0.3018  0.2796 -0.2523
 1077SOL     OW14689   1.142   2.454   6.530 -0.3900 -0.3955 -0.0564
 1077SOL    HW114690   1.051   2.437   6.504 -0.4804  2.3978 -1.5509
 1077SOL    HW214691   1.186   2.413   6.455 -0.3975 -2.5119  1.0983
 1078SOL     OW14692   2.982   0.929   6.898 -0.1461  0.3500  0.0328
 1078SOL    HW114693   2.952   0.838   6.893  2.4793 -0.3394 -2.7866
 1078SOL    HW214694   2.942   0.961   6.817 -2.7330 -2.6545  0.1169
 1079SOL     OW14695   4.185   4.315   0.564  0.0392 -0.1207 -0.2283
 1079SOL    HW114696   4.275   4.285   0.562 -0.0058 -0.0767 -2.7053
 1079SOL    HW214697   4.137   4.233   0.568 -0.9888  0.4717 -0.2763
 1080SOL     OW14698   3.930   1.783   9.418  0.1030 -0.1885  0.6108
 1080SOL    HW114699   3.842   1.758   9.388  0.8918  0.2815 -2.0814
 1080SOL    HW214700   3.952   1.700   9.461 -3.1652 -0.1690  2.3188
 1081SOL     OW14701   4.277   0.880   3.210  0.2376 -0.1336  0.0170
 1081SOL    HW114702   4.326   0.896   3.291  1.8057 -1.5075 -0.6638
 1081SOL    HW214703   4.343   0.882   3.141  0.8343  1.3233  0.6277
 1082SOL     OW14704   1.806   3.461   2.475  0.1390 -0.1256 -0.2210
 1082SOL    HW114705   1.720   3.474   2.435 -0.2104 -2.0259 -0.1105
 1082SOL    HW214706   1.860   3.458   2.396 -0.7231 -0.4351 -0.8028
 1083SOL     OW14707   0.671   1.711   4.390 -0.4330 -0.0893  0.3592
 1083SOL    HW114708   0.621   1.697   4.310 -1.8419 -1.0356  1.3992
 1083SOL    HW214709   0.702   1.797   4.362  1.5205 -0.8968  0.0761
 1084SOL     OW14710   2.441   2.131  16.379 -0.2951 -0.2566 -0.5632
 1084SOL    HW114711   2.419   2.132  16.472  2.9130  1.1230  0.1956
 1084SOL    HW214712   2.525   2.178  16.381 -0.0033 -0.7908 -0.4446
 1085SOL     OW14713   4.247   3.986  16.562 -0.2791 -0.3565  0.1108
 1085SOL    HW114714   4.289   4.060  16.519  1.0652 -1.6354 -0.7691
 1085SOL    HW214715   4.294   3.910  16.526 -1.6473 -1.6189  0.9571
 1086SOL     OW14716   0.143   3.638  13.823  0.3305  0.0892  0.0136
 1086SOL    HW114717   0.073   3.689  13.862  0.8023 -0.5408  1.6802
 1086SOL    HW214718   0.208   3.707  13.810  0.4013 -0.0787 -0.5233
 1087SOL     OW14719   0.790   2.319   8.486  0.1809 -0.2037 -0.4585
 1087SOL    HW114720   0.722   2.384   8.504 -0.3462 -0.7441 -0.4973
 1087SOL    HW214721   0.831   2.309   8.572  1.5291  0.2197 -1.0496
 1088SOL     OW14722   0.688   2.753   4.581 -0.6531  0.3158  0.1634
 1088SOL    HW114723   0.666   2.673   4.630 -0.5035 -0.2904 -0.7534
 1088SOL    HW214724   0.632   2.747   4.504 -0.4391  2.3575 -0.1496
 1089SOL     OW14725   0.971   4.278   0.560 -0.3905 -0.0028  0.0096
 1089SOL    HW114726   1.046   4.308   0.509  0.5229  0.6197  1.7444
 1089SOL    HW214727   0.930   4.360   0.584 -0.2052  0.1013 -0.0305
 1090SOL     OW14728   0.197   3.492   5.657 -0.2322  0.5524 -0.1798
 1090SOL    HW114729   0.169   3.402   5.640 -0.0578 -0.1149  2.9863
 1090SOL    HW214730   0.125   3.523   5.712 -0.6137 -0.9908  0.2128
 1091SOL     OW14731   0.230   1.357   6.754 -0.6010 -0.0324 -0.3202
 1091SOL    HW114732   0.225   1.402   6.670  1.1296 -1.7989 -1.3516
 1091SOL    HW214733   0.196   1.429   6.807  1.9983  0.1442  1.1319
 1092SOL     OW14734   1.338   0.044   6.221  0.2006 -0.4984  0.5449
 1092SOL    HW114735   1.341   0.111   6.153 -0.6657  0.5151  1.5114
 1092SOL    HW214736   1.423   0.002   6.206 -0.9622 -0.9146 -4.8876
 1093SOL     OW14737   2.100   0.585   5.294 -0.5745 -0.1256 -0.5370
 1093SOL    HW114738   2.014   0.545   5.304 -0.4617  0.3813  2.2682
 1093SOL    HW214739   2.080   0.674   5.324 -0.8611 -0.0539 -0.9353
 1094SOL     OW14740   1.901   2.020   8.964 -0.4748  0.0007 -0.5236
 1094SOL    HW114741   1.850   2.096   8.938 -2.4803 -1.3521 -0.5254
 1094SOL    HW214742   1.854   1.940   8.942 -3.1864  2.0281 -2.1459
 1095SOL     OW14743   1.475   2.398   4.264 -0.0770  0.5343  0.2247
 1095SOL    HW114744   1.410   2.328   4.271  2.9141 -2.4443 -1.6444
 1095SOL    HW214745   1.418   2.472   4.285  0.8447  1.1373  0.5840
 1096SOL     OW14746   1.193   4.408   8.776  0.3834 -0.1164 -0.0470
 1096SOL    HW114747   1.235   4.494   8.781 -0.4431  0.3280 -0.9302
 1096SOL    HW214748   1.115   4.410   8.833 -0.3156  1.5506 -1.0783
 1097SOL     OW14749   2.051   0.981   2.808  0.4204  0.3784  0.3253
 1097SOL    HW114750   1.986   1.009   2.871  1.4008 -1.2393  2.0410
 1097SOL    HW214751   2.016   0.896   2.783 -1.4624  1.2373  0.0709
 1098SOL     OW14752   1.947   4.185   4.403  0.6282 -0.0991  0.3661
 1098SOL    HW114753   1.852   4.180   4.391  0.6121  0.4514  0.2488
 1098SOL    HW214754   1.967   4.099   4.438  0.8731  0.2560  1.0918
 1099SOL     OW14755   2.501   2.250   5.498 -0.1079  0.3870 -0.6569
 1099SOL    HW114756   2.534   2.285   5.581 -3.8940  0.6692  0.7350
 1099SOL    HW214757   2.472   2.162   5.524  1.1188 -0.1400 -1.0913
 1100SOL     OW14758   1.655   2.129   8.058 -0.0561  0.0953  0.2017
 1100SOL    HW114759   1.696   2.189   8.121  1.4487 -0.8526  0.1185
 1100SOL    HW214760   1.573   2.172   8.033 -1.4699 -3.0610 -0.6370
 1101SOL     OW14761   3.194   0.274   2.195 -0.0140  0.0501 -0.1553
 1101SOL    HW114762   3.146   0.284   2.277 -1.8833 -0.3245 -1.2048
 1101SOL    HW214763   3.239   0.358   2.186  1.0538 -0.5478 -0.3899
 1102SOL     OW14764   2.852   0.953   2.211  0.1585  0.2055  0.3212
 1102SOL    HW114765   2.781   0.913   2.159 -1.9736  0.9845  2.6602
 1102SOL    HW214766   2.911   0.989   2.145 -2.0904 -0.6967 -2.1945
 1103SOL     OW14767   1.864   3.689   2.694  0.0832  0.5325  0.0710
 1103SOL    HW114768   1.878   3.759   2.630 -0.9569 -1.1880 -2.0723
 1103SOL    HW214769   1.837   3.620   2.633  1.8431  1.0779 -1.3105
 1104SOL     OW14770   0.579   0.661   6.409  0.1042 -0.1535  0.1126
 1104SOL    HW114771   0.506   0.683   6.466 -0.9251 -0.6940 -0.9935
 1104SOL    HW214772   0.637   0.629   6.478 -0.2967 -1.1301  0.0013
 1105SOL     OW14773   1.184   4.447   4.634  0.0892 -0.2047  0.5099
 1105SOL    HW114774   1.234   4.375   4.672  2.9900  0.7193 -1.4930
 1105SOL    HW214775   1.097   4.426   4.666  0.4709 -3.7323 -0.7323
 1106SOL     OW14776   2.339   3.232   3.326 -0.1191 -0.0977 -0.5790
 1106SOL    HW114777   2.428   3.267   3.330  0.3944 -1.3644 -0.8723
 1106SOL    HW214778   2.289   3.313   3.317  0.1677  0.0929 -0.4728
 1107SOL     OW14779   2.794   3.650   4.083  0.1600 -0.1875  0.1276
 1107SOL    HW114780   2.813   3.675   4.174 -1.2599 -0.7240  0.5711
 1107SOL    HW214781   2.722   3.588   4.092 -0.5620  0.4936 -1.0340
 1108SOL     OW14782   4.209   2.038   3.870 -0.3156 -0.3688  0.1617
 1108SOL    HW114783   4.286   2.087   3.841 -1.2489 -0.0425 -1.7498
 1108SOL    HW214784   4.173   2.096   3.938 -0.7379 -0.5265  0.0755
 1109SOL     OW14785   1.740   2.870  12.854 -0.4113 -0.0342  0.0130
 1109SOL    HW114786   1.719   2.963  12.854 -0.8873 -0.1524  0.9139
 1109SOL    HW214787   1.670   2.833  12.800 -0.9415 -0.1130  0.7661
 1110SOL     OW14788   2.145   4.511   4.804 -0.2385  0.2766 -0.3275
 1110SOL    HW114789   2.094   4.535   4.881 -0.6476 -2.0402  0.1415
 1110SOL    HW214790   2.087   4.457   4.749  0.9589 -1.7409  0.3890
 1111SOL     OW14791   3.590   0.813  11.035 -0.3957 -0.0980  0.0759
 1111SOL    HW114792   3.590   0.718  11.052 -0.2577  0.0611  0.9367
 1111SOL    HW214793   3.594   0.815  10.939  0.0027 -2.3886  0.0473
 1112SOL     OW14794   3.123   3.784   4.266  0.5605 -0.3004 -0.0021
 1112SOL    HW114795   3.098   3.838   4.341 -0.2139 -2.1896  1.1104
 1112SOL    HW214796   3.203   3.830   4.241  0.2796 -0.2852 -0.8789
 1113SOL     OW14797   4.239   3.077   5.511 -0.5435  0.0965  0.1667
 1113SOL    HW114798   4.144   3.083   5.524 -0.1645  1.6909  2.1447
 1113SOL    HW214799   4.269   3.071   5.601  1.9117 -1.3959 -0.7657
 1114SOL     OW14800   0.689   4.341   5.366  0.4304  0.1427  0.1917
 1114SOL    HW114801   0.739   4.292   5.432  2.9582  2.9427  0.3509
 1114SOL    HW214802   0.608   4.362   5.411  1.1410 -2.0127  2.5293
 1115SOL     OW14803   0.563   1.909   7.179 -0.2553 -0.7162 -0.0825
 1115SOL    HW114804   0.563   1.828   7.127 -1.4877 -1.0276  0.3884
 1115SOL    HW214805   0.490   1.895   7.240  0.2711 -2.0128  0.2495
 1116SOL     OW14806   4.065   0.297   0.542  0.1022  0.4886 -0.8357
 1116SOL    HW114807   3.996   0.271   0.481  0.2023  1.0518 -1.1956
 1116SOL    HW214808   4.079   0.215   0.589  1.3073  1.3184  0.2705
 1117SOL     OW14809   3.503   0.695   6.271 -0.1405 -0.1967 -0.0467
 1117SOL    HW114810   3.591   0.717   6.240 -0.4204 -0.9265 -1.3626
 1117SOL    HW214811   3.496   0.601   6.258 -2.1811  0.0612 -0.8708
 1118SOL     OW14812   3.238   2.507   1.891 -0.0424 -0.3686 -0.1433
 1118SOL    HW114813   3.218   2.565   1.818  2.3500  0.0267 -0.4843
 1118SOL    HW214814   3.154   2.472   1.919 -0.3452 -0.9947 -1.8295
 1119SOL     OW14815   4.673   4.308   5.431  0.0902  0.3406  0.0124
 1119SOL    HW114816   0.021   4.339   5.381 -0.8272  1.5877 -0.5811
 1119SOL    HW214817   4.614   4.378   5.403  2.0151  1.6268 -0.8033
 1120SOL     OW14818   0.531   0.892   0.788 -0.5409 -0.1896 -0.3351
 1120SOL    HW114819   0.480   0.971   0.807 -1.8335 -0.6912 -1.7247
 1120SOL    HW214820   0.561   0.870   0.876  0.9826  1.4904 -0.4483
 1121SOL     OW14821   2.147   2.069  10.085 -0.0124  0.2443 -0.0822
 1121SOL    HW114822   2.134   2.028   9.999  2.7163  0.3256 -0.5369
 1121SOL    HW214823   2.236   2.036  10.099  0.1625  1.1584  0.9096
 1122SOL     OW14824   0.234   3.722   1.606 -0.3408 -0.2249 -0.0111
 1122SOL    HW114825   0.292   3.743   1.533 -0.5986  2.4440  0.5639
 1122SOL    HW214826   0.147   3.702   1.570 -0.0107  0.3284 -1.1062
 1123SOL     OW14827   3.151   1.164   6.841  0.3118 -0.4187 -0.1085
 1123SOL    HW114828   3.179   1.099   6.777 -1.4554 -1.7377  0.4459
 1123SOL    HW214829   3.104   1.113   6.908  0.0240 -0.5809 -0.4311
 1124SOL     OW14830   4.497   4.498   1.336  0.0291 -0.1737 -0.0884
 1124SOL    HW114831   4.485   4.447   1.416 -0.3899 -0.4171 -0.3086
 1124SOL    HW214832   4.519   4.433   1.270  2.4919  0.9499 -0.3907
 1125SOL     OW14833   1.811   1.866   3.155 -0.0572  0.7035  0.0519
 1125SOL    HW114834   1.899   1.841   3.183 -1.4094 -0.6364  3.0833
 1125SOL    HW214835   1.797   1.919   3.234  0.1478  0.1817  0.4340
 1126SOL     OW14836   2.217   2.190   8.114  0.2825  0.1222  0.0780
 1126SOL    HW114837   2.209   2.275   8.072  1.0956  0.2701  0.2246
 1126SOL    HW214838   2.268   2.208   8.193 -2.8630 -0.6039  2.3170
 1127SOL     OW14839   3.597   0.462   1.911  0.4656  0.0183  0.1892
 1127SOL    HW114840   3.520   0.514   1.889  1.0622  1.1343  0.7410
 1127SOL    HW214841   3.659   0.504   1.851  0.8399  0.4881  0.9071
 1128SOL     OW14842   1.280   2.679  16.518 -0.9624 -0.7659  0.4650
 1128SOL    HW114843   1.361   2.632  16.499 -0.1987  0.4789  0.6304
 1128SOL    HW214844   1.215   2.625  16.472 -0.9035 -1.6149  1.3965
 1129SOL     OW14845   2.061   1.245  13.184  0.1666  0.9526  0.0575
 1129SOL    HW114846   2.116   1.272  13.110 -0.6853 -2.3455 -1.8174
 1129SOL    HW214847   2.068   1.151  13.168  0.0457  1.0962 -0.8382
 1130SOL     OW14848   0.951   2.309   5.723  0.1237 -0.2441  0.0152
 1130SOL    HW114849   0.964   2.300   5.817  2.9745 -2.6777 -0.6017
 1130SOL    HW214850   1.034   2.352   5.703 -0.0638  0.7067  1.3118
 1131SOL     OW14851   4.178   3.923   0.501  0.2004 -0.4113 -0.0065
 1131SOL    HW114852   4.225   3.939   0.583  0.4585 -1.7783  0.0948
 1131SOL    HW214853   4.252   3.926   0.440  0.5441  2.8310  0.5742
 1132SOL     OW14854   4.392   1.188   2.895  0.2540 -0.5858 -0.3069
 1132SOL    HW114855   4.437   1.269   2.920  0.3797 -0.8981  0.4838
 1132SOL    HW214856   4.435   1.177   2.810 -0.5314  1.2750 -0.9483
 1133SOL     OW14857   0.666   2.669  12.201  0.4161  0.1105  0.1260
 1133SOL    HW114858   0.707   2.606  12.142 -0.3989 -1.0815  0.8344
 1133SOL    HW214859   0.647   2.614  12.277 -0.0781 -0.0174 -0.0904
 1134SOL     OW14860   2.172   2.204   6.025  0.6287 -0.0643  0.3498
 1134SOL    HW114861   2.181   2.299   6.033  2.7440 -0.2488  0.2522
 1134SOL    HW214862   2.107   2.185   5.957  1.2638 -0.6871 -0.0845
 1135SOL     OW14863   0.741   3.190   4.192 -0.0942  0.5478  0.2162
 1135SOL    HW114864   0.647   3.183   4.208 -0.1225 -0.0547 -0.1777
 1135SOL    HW214865   0.752   3.140   4.111  1.9100  4.1620 -1.7462
 1136SOL     OW14866   3.892   0.531   4.327 -0.5136 -0.0865 -0.1968
 1136SOL    HW114867   3.910   0.539   4.421 -0.0785 -0.0609 -0.2822
 1136SOL    HW214868   3.879   0.437   4.319 -2.7106 -0.0011  2.1123
 1137SOL     OW14869   3.640   1.137   9.001 -0.2045 -0.2547  0.3431
 1137SOL    HW114870   3.561   1.082   8.995 -1.6673  1.8649  0.0020
 1137SOL    HW214871   3.598   1.223   9.004  0.9129  0.2878  0.1105
 1138SOL     OW14872   3.975   3.432   8.621 -0.6223  0.5592 -0.0154
 1138SOL    HW114873   3.998   3.378   8.696 -0.5182  1.0873  0.3353
 1138SOL    HW214874   4.062   3.457   8.590 -0.4278 -0.0097  0.0717
 1139SOL     OW14875   2.997   2.874   5.557 -0.4727  0.5358 -0.0717
 1139SOL    HW114876   2.912   2.847   5.521 -1.6574  1.3405  2.1857
 1139SOL    HW214877   3.054   2.836   5.490  0.4261 -0.7580  1.4329
 1140SOL     OW14878   0.693   0.882  13.046  0.2558  0.6359  0.0854
 1140SOL    HW114879   0.644   0.868  12.965 -0.5756  2.2736  0.3000
 1140SOL    HW214880   0.706   0.791  13.071 -0.4011 -0.0190 -1.9567
 1141SOL     OW14881   4.366   2.590   4.511  0.5578  0.5088 -0.4379
 1141SOL    HW114882   4.414   2.665   4.548  2.2050 -0.5867 -0.3281
 1141SOL    HW214883   4.420   2.523   4.554  0.3542 -0.9111 -2.4328
 1142SOL     OW14884   0.315   4.692   2.672  0.1142  0.3087 -0.3847
 1142SOL    HW114885   0.411   4.696   2.665  0.2312  0.3632  1.2387
 1142SOL    HW214886   0.278   4.654   2.593  2.7745 -1.4174 -0.8217
 1143SOL     OW14887   1.279   1.497   6.456 -0.7483 -0.0368 -0.4675
 1143SOL    HW114888   1.193   1.454   6.453 -0.2692 -1.1507  2.1284
 1143SOL    HW214889   1.304   1.502   6.548 -0.3186  0.0136 -0.5873
 1144SOL     OW14890   4.153   1.978   3.549  0.0069  0.6216 -0.1239
 1144SOL    HW114891   4.222   2.035   3.514  0.0369  1.0703  0.6670
 1144SOL    HW214892   4.152   2.002   3.641  0.6612  2.3068 -0.5567
 1145SOL     OW14893   1.298   2.032   7.935  0.2642 -0.3567  0.5448
 1145SOL    HW114894   1.285   2.079   7.853 -3.1831  1.6873  2.2170
 1145SOL    HW214895   1.232   2.062   7.998 -0.5811  1.8834 -1.4377
 1146SOL     OW14896   3.294   0.182   4.979 -0.1247  0.0677 -0.1409
 1146SOL    HW114897   3.347   0.160   5.055  0.6494 -1.6273 -1.1857
 1146SOL    HW214898   3.212   0.212   5.018 -0.0358 -1.2085  1.0241
 1147SOL     OW14899   1.097   0.129  15.409 -0.3520 -0.1980 -0.4985
 1147SOL    HW114900   1.120   0.086  15.326 -0.3208  1.0387 -1.1349
 1147SOL    HW214901   1.066   0.208  15.366 -0.4224  0.0915  0.0867
 1148SOL     OW14902   3.678   1.022   5.031 -0.0451 -0.1769 -0.1125
 1148SOL    HW114903   3.603   0.987   4.983 -0.1578 -0.2295  0.1031
 1148SOL    HW214904   3.679   1.114   5.007  1.1714 -0.1607  0.0151
 1149SOL     OW14905   3.676   3.879   5.241 -0.2665 -0.4054  0.5101
 1149SOL    HW114906   3.648   3.788   5.250 -1.2934 -0.0466  0.8879
 1149SOL    HW214907   3.660   3.907   5.331 -1.6423  1.9410 -0.4759
 1150SOL     OW14908   0.897   3.725  14.896 -0.1474 -0.0747 -0.5136
 1150SOL    HW114909   0.806   3.700  14.914 -0.2569 -0.3458 -1.4400
 1150SOL    HW214910   0.879   3.793  14.830 -2.3348 -2.2989 -2.1943
 1151SOL     OW14911   3.032   0.088  17.042 -0.1447 -0.3513  0.6035
 1151SOL    HW114912   2.978   0.122  16.971 -0.4671 -0.9798  0.5460
 1151SOL    HW214913   3.117   0.103  17.002 -0.7455  2.8157  0.4977
 1152SOL     OW14914   2.389   1.056   3.289  0.6404  0.0629 -0.0552
 1152SOL    HW114915   2.421   0.976   3.330 -0.7754 -0.3520  0.2480
 1152SOL    HW214916   2.424   1.051   3.200 -0.4163 -1.4201 -0.3828
 1153SOL     OW14917   0.341   0.741  12.949 -0.5605 -0.1770 -0.8569
 1153SOL    HW114918   0.374   0.677  13.012 -1.0786  1.5683  1.1996
 1153SOL    HW214919   0.260   0.774  12.988  1.4163  2.2914  1.2397
 1154SOL     OW14920   4.492   1.147  11.193 -0.7898  0.5268 -0.4959
 1154SOL    HW114921   4.553   1.092  11.241 -2.1363 -1.2242 -0.7744
 1154SOL    HW214922   4.486   1.224  11.250  0.0053  1.0896 -1.1704
 1155SOL     OW14923   1.410   0.402   8.528  0.0128 -0.0254  0.1209
 1155SOL    HW114924   1.382   0.493   8.534 -0.9654 -0.2254 -1.2260
 1155SOL    HW214925   1.412   0.389   8.433  1.3678 -1.8421  0.4004
 1156SOL     OW14926   1.930   4.641   9.030 -0.0034 -0.1133  0.1531
 1156SOL    HW114927   1.932   4.652   9.126 -3.2968 -0.2097  0.2499
 1156SOL    HW214928   1.841   4.675   9.018 -0.0104 -0.1056  0.2249
 1157SOL     OW14929   4.270   3.393   3.599  0.1190 -0.3565 -0.4644
 1157SOL    HW114930   4.244   3.480   3.568 -0.0324  0.4891  2.1014
 1157SOL    HW214931   4.194   3.383   3.656  0.8875 -0.2927  0.5503
 1158SOL     OW14932   1.062   1.176   3.187 -0.3830 -0.5747  0.5295
 1158SOL    HW114933   1.155   1.189   3.205  0.0982 -0.0600 -2.2259
 1158SOL    HW214934   1.058   1.083   3.165  1.7694 -0.7078  0.6314
 1159SOL     OW14935   2.305   3.297   7.960  0.2006 -0.2644 -0.2133
 1159SOL    HW114936   2.299   3.352   8.039  0.6615  2.4364 -2.0639
 1159SOL    HW214937   2.381   3.248   7.990 -0.1352 -0.7722 -0.1848
 1160SOL     OW14938   1.799   3.021  17.495  0.3111  0.1349 -0.1348
 1160SOL    HW114939   1.735   2.966  17.541  0.1932 -0.2215 -0.7224
 1160SOL    HW214940   1.876   2.978  17.534 -0.7145  0.1146  1.8242
 1161SOL     OW14941   2.828   3.544   4.889  0.1659  0.2919  0.1516
 1161SOL    HW114942   2.910   3.536   4.841  0.3008  1.1533  0.2367
 1161SOL    HW214943   2.780   3.607   4.834  0.4831  0.8877  0.5609
 1162SOL     OW14944   2.044   3.248  16.668 -0.6610 -0.1712  0.3538
 1162SOL    HW114945   1.995   3.229  16.588 -1.2927  0.4002  0.6071
 1162SOL    HW214946   2.001   3.328  16.699  1.2870 -0.0673  2.7444
 1163SOL     OW14947   3.805   4.345   0.666 -0.1033  0.0743  0.0543
 1163SOL    HW114948   3.812   4.330   0.572  0.4832  1.2977 -0.0889
 1163SOL    HW214949   3.859   4.271   0.693  0.7098  1.6100  2.6238
 1164SOL     OW14950   2.456   0.563  12.788 -0.0860 -0.1216  0.2359
 1164SOL    HW114951   2.419   0.474  12.786  1.6704 -0.8768  2.8399
 1164SOL    HW214952   2.498   0.563  12.873  1.6911  0.1203 -0.6487
 1165SOL     OW14953   4.072   1.515   3.626 -0.2789  0.1895 -0.1303
 1165SOL    HW114954   4.093   1.590   3.570 -0.0972 -0.4682 -0.9360
 1165SOL    HW214955   4.030   1.466   3.555  1.5815 -0.5121 -0.7390
 1166SOL     OW14956   0.976   2.572   3.515  0.1137 -0.2507 -0.5182
 1166SOL    HW114957   0.949   2.480   3.522 -1.4206  0.0429 -2.4414
 1166SOL    HW214958   1.006   2.566   3.424 -0.2354  1.2504 -0.7307
 1167SOL     OW14959   3.265   0.380   3.646 -0.3643  0.4882 -0.2097
 1167SOL    HW114960   3.287   0.447   3.581  1.5763 -1.7912 -1.9364
 1167SOL    HW214961   3.273   0.300   3.593 -1.2553  1.4462 -1.7914
 1168SOL     OW14962   3.575   0.793  15.553  0.0989  0.2534 -0.1037
 1168SOL    HW114963   3.531   0.869  15.591 -0.9313  0.4313 -1.6962
 1168SOL    HW214964   3.646   0.844  15.512 -0.1332  0.9118  0.3203
 1169SOL     OW14965   1.956   2.081   8.247 -0.0647 -0.1073 -0.1276
 1169SOL    HW114966   1.925   2.160   8.204 -2.1528 -0.1184  1.3858
 1169SOL    HW214967   2.047   2.111   8.259 -0.3114  1.2696 -1.6721
 1170SOL     OW14968   3.866   4.580   8.641  0.4470 -0.2754 -0.7958
 1170SOL    HW114969   3.831   4.602   8.727  1.7679 -1.4575  0.0507
 1170SOL    HW214970   3.908   4.665   8.625 -1.6112  1.0342  0.7140
 1171SOL     OW14971   0.244   4.714   7.582  0.1875  0.0751  0.0950
 1171SOL    HW114972   0.194   4.710   7.501 -0.1655  0.4778  0.2925
 1171SOL    HW214973   0.204   4.651   7.641 -0.5469  1.2643  0.8573
 1172SOL     OW14974   1.160   2.602   3.141 -0.1674 -0.6385  0.1967
 1172SOL    HW114975   1.182   2.518   3.102  1.5064 -1.0568  2.0307
 1172SOL    HW214976   1.079   2.582   3.188  0.2946 -2.8932  0.0350
 1173SOL     OW14977   3.412   4.615   2.178 -0.6100 -0.2790 -0.1919
 1173SOL    HW114978   3.397   4.542   2.238  0.0661 -1.2049 -1.1387
 1173SOL    HW214979   3.318   4.634   2.173 -1.1261 -2.3950  1.3769
 1174SOL     OW14980   3.381   2.633   2.103  0.3887 -0.3633 -0.3511
 1174SOL    HW114981   3.340   2.560   2.149 -1.9194  1.0452 -0.2208
 1174SOL    HW214982   3.348   2.614   2.015  0.6421  0.0384 -0.5329
 1175SOL     OW14983   4.641   1.272   8.278 -0.2335 -0.1030 -0.2800
 1175SOL    HW114984   4.671   1.312   8.360 -1.3422  2.0275 -0.9048
 1175SOL    HW214985   4.689   1.328   8.217  0.5375  0.3960  0.7743
 1176SOL     OW14986   4.117   1.217  14.999 -0.8104 -0.1740 -0.5992
 1176SOL    HW114987   4.137   1.144  15.058  0.3130  0.6425  0.0403
 1176SOL    HW214988   4.183   1.203  14.930  1.7229  0.9021  1.6109
 1177SOL     OW14989   0.176   4.024  11.232 -0.3624 -0.1838 -0.6767
 1177SOL    HW114990   0.259   4.056  11.266 -0.5277 -0.3478 -0.1136
 1177SOL    HW214991   0.161   4.089  11.163 -1.5533  1.7664  1.4177
 1178SOL     OW14992   3.074   4.639   7.514  0.0738  0.1617 -0.0064
 1178SOL    HW114993   3.101   4.555   7.477  1.3000  0.9459 -0.8642
 1178SOL    HW214994   2.994   4.648   7.462 -0.2760  0.3417  0.5652
 1179SOL     OW14995   1.385   4.220   7.000 -0.3552  0.6188 -0.6054
 1179SOL    HW114996   1.298   4.203   7.036 -0.9146  0.5062 -2.0001
 1179SOL    HW214997   1.442   4.167   7.057  1.0581  0.6899 -1.9536
 1180SOL     OW14998   1.066   3.969   7.380 -0.5847 -0.2853 -0.5490
 1180SOL    HW114999   1.015   3.890   7.359  0.9524 -1.7755  1.2444
 1180SOL    HW215000   1.044   3.977   7.473 -1.3651  0.8940 -0.8500
 1181SOL     OW15001   2.153   3.635  12.792  0.0828  0.4036 -0.3150
 1181SOL    HW115002   2.160   3.540  12.796 -1.0316  0.2819 -1.4184
 1181SOL    HW215003   2.178   3.650  12.701 -0.5628 -1.5388 -0.8026
 1182SOL     OW15004   2.348   2.681  10.938 -0.0003  0.3299 -0.1022
 1182SOL    HW115005   2.371   2.770  10.914 -1.0473  0.9126  1.0579
 1182SOL    HW215006   2.312   2.703  11.024 -0.3663 -2.8317  0.5486
 1183SOL     OW15007   1.438   1.923  10.823 -0.1409  0.2263 -0.2669
 1183SOL    HW115008   1.395   1.840  10.841 -0.9610  0.5645 -0.6471
 1183SOL    HW215009   1.459   1.963  10.907 -0.6654 -2.0398  0.9442
 1184SOL     OW15010   2.312   2.811   4.761 -0.1280 -0.2145  0.1820
 1184SOL    HW115011   2.352   2.727   4.786 -0.0944 -0.1109  0.4679
 1184SOL    HW215012   2.365   2.831   4.684  0.8608  0.7922  1.1483
 1185SOL     OW15013   0.097   2.946  11.107 -0.4200 -0.0241 -0.0127
 1185SOL    HW115014   0.108   3.028  11.155  0.6188 -2.3200  3.6775
 1185SOL    HW215015   0.005   2.957  11.083 -0.2455  2.8655  0.7395
 1186SOL     OW15016   4.211   3.843   2.356  0.2689  0.2895 -0.5791
 1186SOL    HW115017   4.232   3.755   2.386  0.4072  0.7430  0.6434
 1186SOL    HW215018   4.142   3.857   2.421  0.8191 -0.5798  0.1783
 1187SOL     OW15019   3.348   0.327   6.959 -0.6493 -0.0885 -0.5568
 1187SOL    HW115020   3.351   0.418   6.989  1.0759 -0.4830  0.4430
 1187SOL    HW215021   3.321   0.334   6.867 -0.7538 -1.3367 -0.6198
 1188SOL     OW15022   4.410   3.434   1.449  0.1305  0.7682 -0.1097
 1188SOL    HW115023   4.484   3.384   1.415 -1.5033 -0.7582 -1.4348
 1188SOL    HW215024   4.388   3.475   1.365  0.0348  0.8156 -0.0618
 1189SOL     OW15025   0.053   4.194   7.581 -0.1792 -0.0493 -0.1739
 1189SOL    HW115026   4.706   4.208   7.519  0.1783 -0.0221 -0.5915
 1189SOL    HW215027   0.128   4.168   7.528  0.5195  1.2632  0.1727
 1190SOL     OW15028   0.282   1.085   3.940  0.4584 -0.3088  0.0535
 1190SOL    HW115029   0.256   1.040   3.860  2.7891 -2.9652  0.7994
 1190SOL    HW215030   0.325   1.161   3.899  1.3057 -1.2398 -0.7651
 1191SOL     OW15031   2.912   1.775  10.366  0.2527 -0.4402  0.0058
 1191SOL    HW115032   2.964   1.783  10.286  0.4238  0.7912  0.2479
 1191SOL    HW215033   2.829   1.818  10.346  1.6549  2.3266  0.2092
 1192SOL     OW15034   4.485   3.567   6.919  0.4856 -0.3230  0.7745
 1192SOL    HW115035   4.521   3.487   6.880  0.9538  1.1709 -1.8777
 1192SOL    HW215036   4.554   3.633   6.919  1.2536 -1.1218  0.8286
 1193SOL     OW15037   3.732   2.139   7.937 -0.1252  0.4776  0.2148
 1193SOL    HW115038   3.760   2.231   7.939  1.6469 -0.0785  1.0591
 1193SOL    HW215039   3.798   2.096   7.882 -1.2077  2.0356 -2.3012
 1194SOL     OW15040   4.014   1.952   9.627 -0.5290  0.0351  0.7052
 1194SOL    HW115041   4.033   1.871   9.674  0.3046 -0.2563 -0.1454
 1194SOL    HW215042   3.991   1.916   9.542  0.6959 -0.3359  0.5239
 1195SOL     OW15043   1.908   0.948   6.796  0.5995  0.7540 -0.1172
 1195SOL    HW115044   1.839   0.886   6.772  1.3219 -0.3253  0.6046
 1195SOL    HW215045   1.917   0.944   6.891 -0.7747  1.5455  0.0491
 1196SOL     OW15046   0.581   1.746   1.301  0.1066 -0.1250  0.7085
 1196SOL    HW115047   0.580   1.656   1.333  1.2890 -0.3850  0.0148
 1196SOL    HW215048   0.657   1.774   1.352  1.1556 -1.6922  0.0052
 1197SOL     OW15049   0.561   0.517   5.439  0.1111 -0.2469  0.4231
 1197SOL    HW115050   0.574   0.425   5.417 -1.4432 -0.6115  1.0307
 1197SOL    HW215051   0.473   0.504   5.474  0.0517 -1.1255 -0.0812
 1198SOL     OW15052   0.493   0.565  14.160  0.1192  0.3249 -0.5245
 1198SOL    HW115053   0.524   0.531  14.076  2.0732  1.4951 -0.2478
 1198SOL    HW215054   0.398   0.552  14.150  0.2564 -1.0102 -0.1964
 1199SOL     OW15055   2.494   1.628   5.205  0.2673 -0.7918  0.0252
 1199SOL    HW115056   2.469   1.554   5.150  1.1852 -3.2018  2.8147
 1199SOL    HW215057   2.425   1.691   5.182  0.7110  0.4835  2.1385
 1200SOL     OW15058   0.397   4.194   5.855 -0.2635  0.1985  0.0787
 1200SOL    HW115059   0.381   4.102   5.830  1.6341 -0.5767  1.6830
 1200SOL    HW215060   0.459   4.172   5.925 -1.2022  0.3379  0.9444
 1201SOL     OW15061   3.351   1.863   2.530  0.0402  0.1060  0.4439
 1201SOL    HW115062   3.441   1.884   2.503 -0.8306  0.1917 -2.3735
 1201SOL    HW215063   3.359   1.775   2.565 -0.1411  0.4552  1.3540
 1202SOL     OW15064   0.588   2.573   3.384  0.7170  0.3672 -0.1723
 1202SOL    HW115065   0.617   2.487   3.353  1.4181  1.1483 -1.6927
 1202SOL    HW215066   0.493   2.565   3.392  0.9711 -2.8392 -0.3581
 1203SOL     OW15067   1.045   2.704   6.286  0.2273 -0.2568 -0.1555
 1203SOL    HW115068   1.011   2.783   6.244 -0.8112  0.0303  1.2411
 1203SOL    HW215069   1.047   2.731   6.378  2.2815 -0.3895 -0.1499
 1204SOL     OW15070   2.902   3.956  15.146 -0.5427  0.1968 -0.4061
 1204SOL    HW115071   2.880   4.032  15.092  1.4352  0.5511 -0.7354
 1204SOL    HW215072   2.820   3.909  15.135 -0.5800 -0.4376  2.4114
 1205SOL     OW15073   3.189   3.177  15.637  0.3376  0.4493 -0.4848
 1205SOL    HW115074   3.215   3.113  15.704 -1.3282  0.7192  0.4208
 1205SOL    HW215075   3.178   3.262  15.681 -1.4945  0.1816 -0.4469
 1206SOL     OW15076   4.109   3.717  10.111 -0.4689  0.7081  1.1795
 1206SOL    HW115077   4.043   3.706  10.043 -0.0208  1.4011  0.6313
 1206SOL    HW215078   4.072   3.776  10.176  0.0403  3.2280 -0.8137
 1207SOL     OW15079   3.946   4.415  15.348  0.0478  0.3488  0.0541
 1207SOL    HW115080   3.961   4.500  15.390  0.5597  0.9679 -1.3886
 1207SOL    HW215081   3.851   4.416  15.336  0.1547  2.1998 -0.6265
 1208SOL     OW15082   4.528   1.858   3.873 -0.4919  0.1425 -0.0392
 1208SOL    HW115083   4.494   1.924   3.812 -0.7982  0.9896  1.0457
 1208SOL    HW215084   4.493   1.881   3.959 -0.4096  0.2987 -0.0464
 1209SOL     OW15085   0.921   2.622   8.052 -0.4878  0.3982  0.1266
 1209SOL    HW115086   0.919   2.550   7.989  2.4851  0.1898  0.2403
 1209SOL    HW215087   0.926   2.569   8.132  0.1467 -2.0874 -1.5809
 1210SOL     OW15088   2.422   1.765  12.020 -0.6020  0.6757 -0.4894
 1210SOL    HW115089   2.331   1.744  12.002  0.3175 -0.7767 -3.3957
 1210SOL    HW215090   2.472   1.695  11.979 -1.3250  0.2787 -0.6814
 1211SOL     OW15091   2.177   2.808   6.608 -0.5646  0.0649 -0.2351
 1211SOL    HW115092   2.087   2.829   6.635 -0.6383 -2.6897  1.6841
 1211SOL    HW215093   2.235   2.863   6.661 -1.2228  2.0015 -1.5018
 1212SOL     OW15094   4.450   1.312   4.689 -0.4912 -0.5713  0.0588
 1212SOL    HW115095   4.499   1.230   4.688 -0.1153 -0.2905 -3.0072
 1212SOL    HW215096   4.451   1.331   4.783 -1.0815  1.2147 -0.2865
 1213SOL     OW15097   1.318   4.724   8.431 -0.3666 -0.5871 -0.3853
 1213SOL    HW115098   1.295   0.066   8.367  0.3656 -1.2011 -1.3112
 1213SOL    HW215099   1.408   0.017   8.458 -0.0986 -0.5612 -1.2938
 1214SOL     OW15100   0.862   0.775   0.367 -0.3757 -0.0757  0.2070
 1214SOL    HW115101   0.787   0.831   0.386 -1.8429 -1.7302 -0.7997
 1214SOL    HW215102   0.860   0.771   0.272 -1.2493 -0.8712  0.2662
 1215SOL     OW15103   1.931   3.747   1.638  0.3903 -0.5043 -0.1611
 1215SOL    HW115104   1.846   3.780   1.612  0.3439 -0.4529  0.0571
 1215SOL    HW215105   1.960   3.703   1.558 -0.3272 -0.7064 -0.3038
 1216SOL     OW15106   4.661   2.891   1.509 -0.3619  0.3545 -0.9758
 1216SOL    HW115107   4.580   2.881   1.460 -0.7163  0.2182 -0.3680
 1216SOL    HW215108   4.700   2.973   1.480 -1.1393  0.9243 -0.3954
 1217SOL     OW15109   1.865   3.127  14.805  0.1792  0.1025 -0.0855
 1217SOL    HW115110   1.914   3.199  14.764 -0.3094  0.3400 -0.2504
 1217SOL    HW215111   1.832   3.097  14.721  0.7890 -1.3977  0.2173
 1218SOL     OW15112   3.801   1.394   7.332 -0.1518  0.1311  0.1834
 1218SOL    HW115113   3.788   1.482   7.299  1.0739  1.0417  2.1480
 1218SOL    HW215114   3.716   1.365   7.367 -0.4566  0.5364 -0.2216
 1219SOL     OW15115   2.784   4.178   2.965 -0.3446  0.4212 -0.0667
 1219SOL    HW115116   2.747   4.157   3.051  1.0679 -0.9480  0.2076
 1219SOL    HW215117   2.779   4.274   2.969 -2.3127  0.3909 -1.2513
 1220SOL     OW15118   0.380   2.076   4.920 -0.4644 -0.4348  0.0136
 1220SOL    HW115119   0.370   2.163   4.881  0.5789  0.0449  0.8033
 1220SOL    HW215120   0.313   2.022   4.877  0.1350 -0.6524 -0.6623
 1221SOL     OW15121   0.785   1.153   7.330 -0.1793 -0.0088 -0.2722
 1221SOL    HW115122   0.740   1.163   7.246 -0.6305  0.3440  0.0091
 1221SOL    HW215123   0.793   1.058   7.329 -0.9619 -0.0730  0.4845
 1222SOL     OW15124   3.495   4.243   7.889 -0.1041  0.5523  0.0985
 1222SOL    HW115125   3.417   4.297   7.875 -0.4381  0.4748  1.7169
 1222SOL    HW215126   3.509   4.211   7.799  0.2433 -0.9122  0.6664
 1223SOL     OW15127   3.080   2.398   9.246  0.6219  0.2231 -0.1641
 1223SOL    HW115128   3.134   2.320   9.259  0.3601  0.1759  0.6677
 1223SOL    HW215129   3.118   2.464   9.303  0.0853  0.9633 -0.6645
 1224SOL     OW15130   2.906   4.329   9.023  0.2504  0.2499 -0.5761
 1224SOL    HW115131   2.940   4.393   9.086  1.4722  0.6175 -1.6047
 1224SOL    HW215132   2.975   4.338   8.957 -0.8814  0.5632 -1.6991
 1225SOL     OW15133   2.879   2.923   3.423  0.0733  0.6606 -0.2305
 1225SOL    HW115134   2.796   2.958   3.456  0.2657  0.1309  0.8267
 1225SOL    HW215135   2.944   2.992   3.436 -1.1039  1.5748  0.9016
 1226SOL     OW15136   0.201   2.567   7.027  0.0898  0.0178  0.1769
 1226SOL    HW115137   0.231   2.656   7.006 -3.4499  1.7130  2.1731
 1226SOL    HW215138   0.109   2.578   7.003 -0.1851 -1.3002  0.6253
 1227SOL     OW15139   1.568   1.427   4.582  0.2644 -0.3984 -0.3395
 1227SOL    HW115140   1.560   1.512   4.624  0.6721  0.5553 -2.1886
 1227SOL    HW215141   1.616   1.462   4.507 -1.2879  1.8476 -0.2800
 1228SOL     OW15142   0.851   4.722   9.227 -0.0989  0.0616 -0.4582
 1228SOL    HW115143   0.926   4.674   9.261 -0.3255  0.9219  1.2679
 1228SOL    HW215144   0.874   0.084   9.258  0.5401  0.1052 -1.0497
 1229SOL     OW15145   2.274   2.706   8.238 -0.4333 -0.5955  0.4521
 1229SOL    HW115146   2.310   2.666   8.159 -0.9548 -0.1654 -0.0039
 1229SOL    HW215147   2.321   2.655   8.304 -1.1611 -3.4624 -1.2833
 1230SOL     OW15148   3.913   4.610   3.800  0.7269  0.1915  0.5967
 1230SOL    HW115149   3.828   4.570   3.813  0.5885  0.7055  1.3138
 1230SOL    HW215150   3.897   4.661   3.721 -4.8693  1.3203  2.4548
 1231SOL     OW15151   2.001   0.801   5.971  0.0975 -0.8171 -0.5183
 1231SOL    HW115152   1.934   0.753   6.018 -0.8220 -0.1931 -1.1979
 1231SOL    HW215153   1.993   0.884   6.019  3.4694 -0.6665 -0.1933
 1232SOL     OW15154   1.608   1.314  12.134 -0.0249  0.0021 -0.0816
 1232SOL    HW115155   1.570   1.258  12.067 -2.8199  1.2926  0.4296
 1232SOL    HW215156   1.684   1.340  12.082  1.0387 -3.1899 -0.0891
 1233SOL     OW15157   1.560   1.163   4.650 -0.1114 -0.2567  0.4153
 1233SOL    HW115158   1.650   1.134   4.663 -0.7019 -2.0427  0.4745
 1233SOL    HW215159   1.566   1.257   4.630 -0.2731 -0.4294 -0.4611
 1234SOL     OW15160   4.127   2.019   2.856 -0.0457 -0.4875 -0.2525
 1234SOL    HW115161   4.034   1.995   2.866  0.1452  0.0058  2.8661
 1234SOL    HW215162   4.177   1.952   2.903 -0.9093 -1.4326 -0.6795
 1235SOL     OW15163   3.669   0.398   9.820 -0.3623  0.1803  0.3765
 1235SOL    HW115164   3.717   0.451   9.884  1.4523 -1.6849  0.5423
 1235SOL    HW215165   3.589   0.449   9.807  0.8870  1.9932 -0.2660
 1236SOL     OW15166   0.145   4.137   3.577 -0.3514 -0.0377 -0.6478
 1236SOL    HW115167   0.102   4.076   3.637  0.8087 -0.2626 -0.0395
 1236SOL    HW215168   0.134   4.217   3.628 -1.3761 -0.1750 -0.6559
 1237SOL     OW15169   1.345   3.638   9.872  0.6050  0.1005 -0.5171
 1237SOL    HW115170   1.438   3.661   9.875  1.4056 -3.4297  2.0978
 1237SOL    HW215171   1.338   3.581   9.949 -0.2813 -1.0790 -1.4770
 1238SOL     OW15172   4.394   2.432   3.786 -0.1976 -0.1736  0.0693
 1238SOL    HW115173   4.376   2.393   3.701  1.1514  0.3611 -0.4643
 1238SOL    HW215174   4.490   2.428   3.789 -0.0934 -0.4748 -3.3985
 1239SOL     OW15175   3.906   4.282   7.661  0.0786 -0.6538  0.2408
 1239SOL    HW115176   3.966   4.212   7.685  0.3962 -0.5257 -0.1958
 1239SOL    HW215177   3.896   4.327   7.745  1.5104 -1.2371  0.7240
 1240SOL     OW15178   3.499   1.076  16.271  0.7985  0.6579 -0.2258
 1240SOL    HW115179   3.568   1.050  16.210  1.3159 -2.3379  1.6555
 1240SOL    HW215180   3.421   1.031  16.238  1.2661  0.3379 -0.8936
 1241SOL     OW15181   3.254   1.941   5.055  0.1203  0.2527 -0.4178
 1241SOL    HW115182   3.231   2.004   5.123 -0.8643 -1.1747  0.5792
 1241SOL    HW215183   3.350   1.945   5.055  0.1060  0.6272 -0.0411
 1242SOL     OW15184   1.815   3.433  13.257  0.6507 -0.1409  0.4105
 1242SOL    HW115185   1.731   3.389  13.240  0.4002  0.0995  1.0181
 1242SOL    HW215186   1.785   3.520  13.230  0.5248 -0.2642  0.1511
 1243SOL     OW15187   1.436   1.097   5.377  0.0620 -0.0075 -0.0758
 1243SOL    HW115188   1.487   1.076   5.298 -0.6877 -0.6756 -0.3739
 1243SOL    HW215189   1.494   1.072   5.449 -3.1711 -2.5843  1.6172
 1244SOL     OW15190   3.141   0.309  15.886  0.4828  0.1986  0.1426
 1244SOL    HW115191   3.062   0.347  15.848  1.4104  1.2535 -0.7538
 1244SOL    HW215192   3.096   0.232  15.920  0.5367  1.7094  3.6584
 1245SOL     OW15193   0.651   2.325  10.699 -0.0652 -0.6209  0.0229
 1245SOL    HW115194   0.644   2.400  10.641  2.5925  0.2076  0.7492
 1245SOL    HW215195   0.685   2.376  10.772 -2.9812  0.1168  0.8621
 1246SOL     OW15196   0.210   3.046   3.425 -0.0103 -0.2743 -0.3778
 1246SOL    HW115197   0.293   3.002   3.407  0.9436 -0.0141  3.3010
 1246SOL    HW215198   0.202   3.007   3.512 -0.5084 -1.9527 -1.1671
 1247SOL     OW15199   3.717   1.231   7.969  0.0268 -0.1717  0.1985
 1247SOL    HW115200   3.729   1.137   7.956  1.2558  0.1696 -1.1892
 1247SOL    HW215201   3.637   1.260   7.925  1.6546  3.3886 -0.3921
 1248SOL     OW15202   2.887   1.590   1.994  0.1062  0.0498  0.0302
 1248SOL    HW115203   2.917   1.499   1.986 -0.6722 -0.4289  2.3574
 1248SOL    HW215204   2.887   1.630   1.908 -1.5583  0.7074  0.3384
 1249SOL     OW15205   0.104   1.678   3.360  0.1174  0.1798 -0.3761
 1249SOL    HW115206   0.149   1.743   3.414  0.4352  0.3969 -0.9007
 1249SOL    HW215207   0.015   1.674   3.394  0.1322 -3.3503 -0.7746
 1250SOL     OW15208   4.646   1.352   2.926  0.2733  0.1694  0.7431
 1250SOL    HW115209   4.714   1.289   2.903 -1.9039 -1.8512 -0.1603
 1250SOL    HW215210   4.673   1.427   2.873  1.0467  0.7113  1.9101
 1251SOL     OW15211   2.663   0.728  15.550 -0.0901 -0.0814 -0.1785
 1251SOL    HW115212   2.648   0.818  15.577 -0.8003 -0.4109  0.5299
 1251SOL    HW215213   2.575   0.700  15.525 -1.9244  2.3234  3.7042
 1252SOL     OW15214   2.198   1.995   1.000  0.1433  0.1860 -0.5126
 1252SOL    HW115215   2.212   2.090   0.996 -2.4209  0.5674 -0.3255
 1252SOL    HW215216   2.255   1.961   0.931 -1.2475 -0.1168 -1.5081
 1253SOL     OW15217   3.372   0.884  10.550  0.6772  0.6401 -0.6049
 1253SOL    HW115218   3.408   0.812  10.602  2.8598 -0.3859 -3.5127
 1253SOL    HW215219   3.326   0.836  10.481 -1.2886  3.5002 -1.2798
 1254SOL     OW15220   1.246   3.059   8.893 -0.3163  0.2821 -0.2667
 1254SOL    HW115221   1.169   3.087   8.943 -1.1018 -1.1831 -0.6587
 1254SOL    HW215222   1.229   2.966   8.877 -3.5555  0.9670 -0.7308
 1255SOL     OW15223   2.655   1.177   5.787  0.4027 -0.1211 -0.2846
 1255SOL    HW115224   2.713   1.228   5.731  0.6708 -1.9117 -1.6161
 1255SOL    HW215225   2.620   1.106   5.734 -1.8967  0.4815  0.4425
 1256SOL     OW15226   2.899   2.014   6.587  0.5802 -0.2992  0.0211
 1256SOL    HW115227   2.807   2.013   6.561  0.7612 -1.6157 -0.5900
 1256SOL    HW215228   2.890   2.063   6.669 -1.5105  0.3810 -0.6170
 1257SOL     OW15229   0.592   3.723  14.740 -0.2571  0.0155 -0.2197
 1257SOL    HW115230   0.613   3.799  14.686  1.9070  0.2076  0.8909
 1257SOL    HW215231   0.571   3.648  14.685 -0.0780  1.3959 -2.1827
 1258SOL     OW15232   4.540   2.647   1.062 -0.3284 -0.0523 -0.0459
 1258SOL    HW115233   4.615   2.704   1.051  0.3716 -0.8349  0.6332
 1258SOL    HW215234   4.480   2.673   0.993  0.4517 -0.4336 -0.8664
 1259SOL     OW15235   3.622   4.068  16.233 -0.0071  0.1463 -0.2524
 1259SOL    HW115236   3.678   4.104  16.302  1.5582 -1.3005 -0.7755
 1259SOL    HW215237   3.610   3.976  16.257  0.1213  0.3502  0.5895
 1260SOL     OW15238   3.855   1.896   2.830 -0.1685  0.3803 -0.2484
 1260SOL    HW115239   3.789   1.848   2.779 -0.9479 -0.4395  1.5642
 1260SOL    HW215240   3.803   1.925   2.905  1.3247 -1.4747  1.4733
 1261SOL     OW15241   3.886   2.915   1.518 -0.3204  0.0778 -0.0992
 1261SOL    HW115242   3.945   2.861   1.571 -2.0201 -0.0209  1.6748
 1261SOL    HW215243   3.939   2.995   1.515  1.4844 -1.1436 -0.8334
 1262SOL     OW15244   4.198   2.963   3.916 -0.3310 -0.2409  0.2091
 1262SOL    HW115245   4.167   3.044   3.957  1.9955 -0.4470  2.4148
 1262SOL    HW215246   4.135   2.908   3.963  1.0862 -3.1847 -1.3374
 1263SOL     OW15247   4.216   2.623   7.188 -0.2745  0.1434  0.3727
 1263SOL    HW115248   4.283   2.591   7.128  1.7006 -1.0809  3.2547
 1263SOL    HW215249   4.157   2.548   7.193  0.7050 -0.6907 -0.5607
 1264SOL     OW15250   4.091   2.938   7.140 -0.0478 -0.2571 -0.1840
 1264SOL    HW115251   4.090   2.857   7.192  1.6814  1.0065  1.8000
 1264SOL    HW215252   4.086   2.911   7.048  0.5853  1.2139 -0.6530
 1265SOL     OW15253   3.943   2.277   0.990  0.1419 -0.0387  0.3676
 1265SOL    HW115254   3.863   2.307   0.946  0.6835 -1.8329 -1.8039
 1265SOL    HW215255   3.967   2.355   1.040 -0.6044 -0.6736  1.7266
 1266SOL     OW15256   3.098   0.926  17.118 -0.2784 -0.0159  0.2340
 1266SOL    HW115257   3.090   1.019  17.140  3.6286 -0.2923  2.7087
 1266SOL    HW215258   3.136   0.895  17.200  2.3324  0.2396 -0.8854
 1267SOL     OW15259   3.660   2.165   4.119 -0.1830  0.3425 -0.3838
 1267SOL    HW115260   3.669   2.154   4.024 -0.2165 -2.0510 -0.1196
 1267SOL    HW215261   3.684   2.256   4.139  0.5739  0.4039 -1.5784
 1268SOL     OW15262   3.042   0.138   2.670 -0.2944  0.5843 -0.9019
 1268SOL    HW115263   3.058   0.065   2.611 -2.2823 -0.4518 -0.1755
 1268SOL    HW215264   2.999   0.099   2.746  1.3944  2.0915  0.8208
 1269SOL     OW15265   1.846   0.880   9.331  0.4473  0.3674  0.3499
 1269SOL    HW115266   1.836   0.809   9.394  4.1975  0.4616  1.0472
 1269SOL    HW215267   1.818   0.962   9.371  1.0110  0.2383  1.0112
 1270SOL     OW15268   1.904   4.665  11.255  0.5133 -0.3674 -1.0583
 1270SOL    HW115269   1.828   4.614  11.229  0.7694 -0.3389 -1.8566
 1270SOL    HW215270   1.973   4.600  11.266 -0.2700 -0.9860  0.1927
 1271SOL     OW15271   4.494   0.796   2.661 -0.0758  0.2348  0.3294
 1271SOL    HW115272   4.562   0.766   2.600  0.1907 -0.5891  1.0200
 1271SOL    HW215273   4.421   0.814   2.602 -2.5289 -1.4809  2.8519
 1272SOL     OW15274   0.129   1.479  17.536  0.1184 -0.1165 -0.0679
 1272SOL    HW115275   0.046   1.479  17.584 -0.5168  0.8177 -1.1573
 1272SOL    HW215276   0.185   1.442  17.605 -0.0436 -0.3244 -0.0462
 1273SOL     OW15277   3.637   2.729   2.129 -0.2681  0.0154  0.3785
 1273SOL    HW115278   3.664   2.644   2.096  0.6290  0.4680 -0.0499
 1273SOL    HW215279   3.549   2.698   2.151 -1.0466  1.3316 -0.8917
 1274SOL     OW15280   0.076   1.459   1.487  0.5195 -0.3622 -0.0338
 1274SOL    HW115281   4.709   1.474   1.503  0.3185 -1.0429 -0.5335
 1274SOL    HW215282   0.076   1.388   1.422 -0.0379 -1.3685  1.0634
 1275SOL     OW15283   2.543   1.667   3.412  0.5221 -0.1373  0.0759
 1275SOL    HW115284   2.632   1.631   3.409  1.7752  3.2012 -2.4825
 1275SOL    HW215285   2.500   1.618   3.482  3.3181  0.4509  2.2062
 1276SOL     OW15286   4.103   0.888   4.940 -0.4206 -0.5948  0.4690
 1276SOL    HW115287   4.086   0.809   4.991 -0.0132 -0.8157  0.2620
 1276SOL    HW215288   4.194   0.883   4.911 -0.5202  0.1053  0.0479
 1277SOL     OW15289   3.241   3.139   8.513  0.5499  0.0426 -0.4942
 1277SOL    HW115290   3.291   3.121   8.592  1.4564 -0.1295 -1.1091
 1277SOL    HW215291   3.284   3.214   8.473 -0.5172  0.6870 -0.4379
 1278SOL     OW15292   3.467   1.515  12.700  0.4393 -0.2477  0.5936
 1278SOL    HW115293   3.529   1.574  12.743  0.7709 -0.0020 -0.2096
 1278SOL    HW215294   3.421   1.477  12.774  0.1866  1.5295  1.3385
 1279SOL     OW15295   2.004   2.083  12.912 -0.2436 -0.4272  0.0527
 1279SOL    HW115296   2.065   2.107  12.981  1.9249 -0.0209 -1.9733
 1279SOL    HW215297   1.982   2.171  12.883  0.2048  0.0893  1.3033
 1280SOL     OW15298   1.129   1.848   7.703  0.2671  0.2410  0.0218
 1280SOL    HW115299   1.135   1.757   7.731  0.7375  0.5222  0.8352
 1280SOL    HW215300   1.036   1.863   7.718  0.0577  3.5044 -4.4543
 1281SOL     OW15301   2.101   3.395   7.028 -0.0298  0.2333  0.0535
 1281SOL    HW115302   2.045   3.398   6.950 -0.2877 -1.5348  0.1837
 1281SOL    HW215303   2.112   3.488   7.048 -0.4994  0.1250  0.7965
 1282SOL     OW15304   1.046   1.253   4.489 -0.4501  0.2571 -0.0617
 1282SOL    HW115305   1.131   1.272   4.529  0.0751  2.5312 -2.1916
 1282SOL    HW215306   1.031   1.329   4.432 -0.9533  0.3593  0.2054
 1283SOL     OW15307   4.501   0.191   8.305 -0.2780  0.0412  0.1441
 1283SOL    HW115308   4.551   0.200   8.224  0.1665 -0.7603  0.3288
 1283SOL    HW215309   4.415   0.165   8.271  0.6185 -1.7520 -0.7834
 1284SOL     OW15310   3.692   2.506   1.916  0.4645  0.2062 -0.2144
 1284SOL    HW115311   3.782   2.473   1.921 -0.6061 -2.4497  1.1035
 1284SOL    HW215312   3.711   2.558   1.838  0.4255 -1.6958 -1.5051
 1285SOL     OW15313   0.296   0.149   3.629  0.5910  0.1912 -0.1038
 1285SOL    HW115314   0.371   0.183   3.580  0.2056  1.7099  0.3544
 1285SOL    HW215315   0.321   0.056   3.637  1.1860  0.3702  0.1432
 1286SOL     OW15316   0.183   1.013  12.745  0.3826  0.1602 -0.0720
 1286SOL    HW115317   0.243   1.068  12.795  1.7026 -1.2146 -0.1127
 1286SOL    HW215318   0.104   1.066  12.750 -0.1278 -0.4701 -1.4068
 1287SOL     OW15319   1.182   3.031   3.567  0.1992 -0.6454 -0.1883
 1287SOL    HW115320   1.180   2.936   3.562  1.2488 -0.6647 -0.3909
 1287SOL    HW215321   1.217   3.052   3.480 -0.4407  1.9634  0.1819
 1288SOL     OW15322   0.530   2.945   2.839 -0.4328  0.4479 -0.7331
 1288SOL    HW115323   0.596   2.953   2.907 -1.5260 -1.4860  0.5700
 1288SOL    HW215324   0.484   2.863   2.859  1.1668 -0.5848 -1.2795
 1289SOL     OW15325   3.216   1.940   4.367  0.0876 -0.1996 -0.0875
 1289SOL    HW115326   3.262   1.974   4.291 -1.0258  0.7156 -0.3474
 1289SOL    HW215327   3.166   2.018   4.389  0.6753 -0.5130  2.3790
 1290SOL     OW15328   2.565   1.461   3.785 -0.5054 -0.3452 -0.5261
 1290SOL    HW115329   2.515   1.487   3.708  0.9662 -0.9933 -1.7114
 1290SOL    HW215330   2.634   1.411   3.741 -0.0428 -0.3807  0.2407
 1291SOL     OW15331   3.331   3.338   2.072 -0.0229  0.0895 -0.1768
 1291SOL    HW115332   3.258   3.292   2.114  0.4764 -1.2457 -0.7832
 1291SOL    HW215333   3.291   3.358   1.988 -1.5242 -1.9648  0.0355
 1292SOL     OW15334   2.138   3.498   9.898  0.0144  0.6829  0.0554
 1292SOL    HW115335   2.073   3.546   9.950  0.1221  0.2958  0.5500
 1292SOL    HW215336   2.185   3.449   9.966 -1.7353  0.8871  1.4175
 1293SOL     OW15337   3.486   0.508   7.304 -0.3776 -0.3712 -0.4532
 1293SOL    HW115338   3.560   0.551   7.260 -0.9444  0.6132 -0.4432
 1293SOL    HW215339   3.417   0.560   7.264 -1.5311  0.0341  2.0593
 1294SOL     OW15340   4.617   2.130   7.899  1.0072  0.1854 -0.2088
 1294SOL    HW115341   4.649   2.041   7.884  2.2956  0.5027  0.6616
 1294SOL    HW215342   4.637   2.180   7.820  0.8289 -0.2590 -0.5346
 1295SOL     OW15343   0.984   0.943  15.846  0.0793 -0.3105 -0.2161
 1295SOL    HW115344   0.959   0.980  15.761  2.3602  0.1373 -0.6812
 1295SOL    HW215345   0.910   0.973  15.898 -0.0582 -2.6250  0.9418
 1296SOL     OW15346   0.243   1.438   9.563 -0.0619 -0.3739 -0.4416
 1296SOL    HW115347   0.240   1.422   9.469 -0.6435 -2.3377 -0.0976
 1296SOL    HW215348   0.178   1.509   9.561  0.2012 -0.1355 -0.4303
 1297SOL     OW15349   1.616   1.036  11.805  0.2704  0.3930  0.9498
 1297SOL    HW115350   1.692   1.024  11.862  0.2262  0.1912  0.9673
 1297SOL    HW215351   1.652   0.986  11.733 -1.5702  0.0492  0.2585
 1298SOL     OW15352   2.776   4.247   0.390 -0.1255  0.1090  0.4414
 1298SOL    HW115353   2.826   4.185   0.338  0.9569  1.1925  0.1784
 1298SOL    HW215354   2.777   4.328   0.338 -0.0676  0.9279  1.7362
 1299SOL     OW15355   4.021   3.681   8.392  0.4205  0.2145 -0.6549
 1299SOL    HW115356   3.983   3.741   8.328  0.7493  1.3312  0.2116
 1299SOL    HW215357   3.949   3.623   8.416  0.3772  0.4369 -0.2499
 1300SOL     OW15358   2.688   2.815  14.802 -0.1139  0.0615  0.0706
 1300SOL    HW115359   2.779   2.840  14.813  0.3213 -0.8824 -1.3429
 1300SOL    HW215360   2.694   2.725  14.833 -1.2874  0.2478  0.8784
 1301SOL     OW15361   3.581   3.779   6.031  0.1253  0.1621 -0.2006
 1301SOL    HW115362   3.571   3.696   5.983 -0.1716 -0.2281  0.5246
 1301SOL    HW215363   3.670   3.772   6.065 -0.1573  0.9104  0.6662
 1302SOL     OW15364   2.735   2.175   3.195  0.4108 -0.1128  0.2550
 1302SOL    HW115365   2.655   2.124   3.210 -1.1668  2.1838 -0.4035
 1302SOL    HW215366   2.705   2.233   3.126 -2.5309 -0.8521  0.8943
 1303SOL     OW15367   4.118   3.235  11.982  0.0024  0.1010  0.3470
 1303SOL    HW115368   4.140   3.321  12.017 -2.1514  0.9713 -0.4513
 1303SOL    HW215369   4.204   3.196  11.969 -0.2853 -0.4234 -0.0100
 1304SOL     OW15370   4.154   2.976   8.574 -0.0777  0.6195 -0.2002
 1304SOL    HW115371   4.070   3.011   8.604  0.2645  0.8654  0.4732
 1304SOL    HW215372   4.196   3.060   8.554  1.8486 -0.5649 -1.0818
 1305SOL     OW15373   1.397   2.483   7.291  0.5438  1.0308  0.3642
 1305SOL    HW115374   1.450   2.410   7.261 -1.1400 -0.3667  0.8002
 1305SOL    HW215375   1.396   2.534   7.210  1.8742 -0.7947 -0.7803
 1306SOL     OW15376   0.077   3.891  12.841 -0.4754  0.1779  0.1279
 1306SOL    HW115377   0.037   3.823  12.786  0.4333 -0.2383 -0.0216
 1306SOL    HW215378   0.156   3.842  12.862  0.0982  0.6567 -0.8993
 1307SOL     OW15379   3.444   0.471  17.470 -0.0858 -0.4854  0.0218
 1307SOL    HW115380   3.478   0.418  17.542 -2.6703 -0.6844  1.0662
 1307SOL    HW215381   3.479   0.433  17.390  3.1946  0.2049  1.1205
 1308SOL     OW15382   0.974   0.581   6.816  0.3893  0.4162  0.3675
 1308SOL    HW115383   1.065   0.609   6.825  0.5251 -0.0045  0.3064
 1308SOL    HW215384   0.986   0.487   6.831  0.8865  0.5414  0.7624
 1309SOL     OW15385   1.833   3.302   6.228  0.0422  0.1280 -0.5599
 1309SOL    HW115386   1.811   3.212   6.203  1.3707 -0.2957 -0.1949
 1309SOL    HW215387   1.913   3.279   6.275 -1.5064  1.9145  2.9029
 1310SOL     OW15388   4.600   1.969   4.558  0.1612  0.2287  0.1430
 1310SOL    HW115389   4.555   2.006   4.482 -0.1796  0.4141  0.4315
 1310SOL    HW215390   4.593   1.881   4.523 -2.1310 -0.3105  1.9763
 1311SOL     OW15391   3.021   4.487   5.890 -0.0294  0.6891 -0.2516
 1311SOL    HW115392   3.001   4.471   5.798 -1.2401 -0.2760  0.1767
 1311SOL    HW215393   2.940   4.529   5.919 -0.6874 -0.5979 -0.1921
 1312SOL     OW15394   0.252   3.807   9.470  0.2768  0.3190 -0.5752
 1312SOL    HW115395   0.202   3.853   9.403 -0.1869  1.0624  0.2818
 1312SOL    HW215396   0.239   3.718   9.437 -1.2582  1.0666 -1.9577
 1313SOL     OW15397   2.385   1.831  16.513 -0.6612  0.4357  0.2428
 1313SOL    HW115398   2.471   1.830  16.554  0.5939 -0.3294 -2.4181
 1313SOL    HW215399   2.346   1.759  16.561 -0.2522  0.6623  0.9024
 1314SOL     OW15400   1.221   3.959  11.749  0.3614 -0.2253  0.5779
 1314SOL    HW115401   1.307   3.951  11.789  0.3733  1.1484  0.8161
 1314SOL    HW215402   1.187   3.878  11.787  0.8556 -0.2649  0.9268
 1315SOL     OW15403   3.279   0.352   0.415 -0.1475 -0.0082  0.1690
 1315SOL    HW115404   3.266   0.276   0.472  1.1167  0.1778  0.6998
 1315SOL    HW215405   3.203   0.329   0.362  0.4768  0.2126 -0.8083
 1316SOL     OW15406   2.570   2.950  16.219  0.3009 -0.2921  0.0458
 1316SOL    HW115407   2.517   2.917  16.291  0.1302 -2.5105 -1.0814
 1316SOL    HW215408   2.642   2.887  16.218  1.6353  1.2708 -1.6770
 1317SOL     OW15409   1.015   2.749   6.953 -0.5836 -0.6299 -0.3134
 1317SOL    HW115410   1.072   2.710   7.019 -0.2926 -0.8606 -0.6986
 1317SOL    HW215411   1.062   2.755   6.870 -1.5847  1.6715 -0.7171
 1318SOL     OW15412   4.391   0.157   2.988 -0.2673  0.4238 -0.2052
 1318SOL    HW115413   4.361   0.244   3.012  0.6178  0.5209  0.5193
 1318SOL    HW215414   4.306   0.113   2.995 -0.5556  1.2743  1.4426
 1319SOL     OW15415   0.694   1.281   0.350  0.3080 -0.1869  0.0674
 1319SOL    HW115416   0.634   1.343   0.393  0.3519  0.8704 -1.3883
 1319SOL    HW215417   0.758   1.341   0.311  2.4523 -1.2574  1.9428
 1320SOL     OW15418   4.578   1.547   2.007  0.4405 -0.7899 -0.3426
 1320SOL    HW115419   4.486   1.524   1.990  0.9882 -1.2777 -2.5914
 1320SOL    HW215420   4.576   1.590   2.093  0.8142  0.9076 -1.1786
 1321SOL     OW15421   0.740   2.960   4.929 -0.3835  0.1790 -0.0871
 1321SOL    HW115422   0.673   3.012   4.885  1.3515  1.1345 -1.6197
 1321SOL    HW215423   0.792   2.922   4.858  0.2236 -1.1570  1.0884
 1322SOL     OW15424   0.330   1.344  17.266  0.4076 -0.4405  0.3430
 1322SOL    HW115425   0.412   1.392  17.254 -0.1934  0.6208  0.4667
 1322SOL    HW215426   0.364   1.287  17.336 -2.4072 -1.7227  0.6461
 1323SOL     OW15427   4.073   3.859   9.254  0.5741 -0.2111  0.4807
 1323SOL    HW115428   4.161   3.894   9.238  0.2684  1.1994  1.9410
 1323SOL    HW215429   4.052   3.900   9.338 -1.8696  0.1613 -0.2961
 1324SOL     OW15430   0.207   4.043   7.020  0.4773  0.4423 -0.3210
 1324SOL    HW115431   0.210   4.122   6.966 -1.6376 -0.5582 -1.9064
 1324SOL    HW215432   0.287   4.046   7.072 -0.7019  3.7000  1.3057
 1325SOL     OW15433   0.994   2.156   9.062 -0.5460  0.2955  0.6548
 1325SOL    HW115434   1.052   2.205   9.003 -1.9676  0.3579 -0.6843
 1325SOL    HW215435   0.999   2.063   9.039 -1.9676  0.4182 -0.1090
 1326SOL     OW15436   2.647   1.640   5.900  0.3991  0.0438  0.4664
 1326SOL    HW115437   2.592   1.573   5.941  1.1756  0.2203  1.7875
 1326SOL    HW215438   2.587   1.711   5.925 -0.2642 -0.3522  0.0069
 1327SOL     OW15439   4.213   3.866   8.221  0.1337 -0.0755 -0.1778
 1327SOL    HW115440   4.263   3.922   8.280 -1.8860  1.2157  0.3114
 1327SOL    HW215441   4.270   3.790   8.213 -0.4073 -0.2458 -2.4179
 1328SOL     OW15442   3.715   3.239   6.599 -0.0022 -0.4536 -0.5056
 1328SOL    HW115443   3.628   3.280   6.594 -0.1001 -0.5341  0.6028
 1328SOL    HW215444   3.764   3.283   6.530 -1.1162 -1.2078 -1.7684
 1329SOL     OW15445   1.173   3.570   2.470  0.2830  0.0352 -0.1027
 1329SOL    HW115446   1.154   3.662   2.488 -1.4616 -0.3980  0.2197
 1329SOL    HW215447   1.149   3.560   2.378 -2.4629  0.7058  0.5520
 1330SOL     OW15448   1.299   0.344  15.245 -0.1554 -0.1508  0.1022
 1330SOL    HW115449   1.289   0.416  15.182  0.8133  0.7152  0.9317
 1330SOL    HW215450   1.219   0.340  15.296 -0.3689 -1.1298 -0.3084
 1331SOL     OW15451   4.281   4.478  11.268  0.4217  0.1940 -0.3781
 1331SOL    HW115452   4.245   4.494  11.180 -1.2756 -1.8868 -0.0448
 1331SOL    HW215453   4.374   4.475  11.242  0.3079  0.7086 -0.8580
 1332SOL     OW15454   4.688   1.733   5.992  0.0738 -0.8427  0.4492
 1332SOL    HW115455   0.003   1.757   6.075  0.9754  3.7904 -1.3723
 1332SOL    HW215456   4.622   1.665   6.008 -1.9827  0.9414 -0.4479
 1333SOL     OW15457   2.565   3.023   4.123 -0.8881 -0.6271  0.0618
 1333SOL    HW115458   2.470   3.039   4.117 -1.2883 -2.9612  0.4332
 1333SOL    HW215459   2.580   3.055   4.211 -1.6228  0.8817 -0.3565
 1334SOL     OW15460   0.297   2.233   4.333 -0.2851  0.1119  0.0682
 1334SOL    HW115461   0.344   2.317   4.325 -1.4682  0.4911 -2.9769
 1334SOL    HW215462   0.358   2.178   4.382 -1.4355 -1.7568 -0.6379
 1335SOL     OW15463   3.434   0.139   9.705  0.1195 -0.1360  0.4629
 1335SOL    HW115464   3.492   0.121   9.631  0.3413  0.6042  0.4560
 1335SOL    HW215465   3.483   0.096   9.775  0.8690  1.6256  1.0069
 1336SOL     OW15466   1.855   2.519   6.841  0.0959  0.7006  0.2860
 1336SOL    HW115467   1.791   2.590   6.831 -0.2338  0.3532 -0.0625
 1336SOL    HW215468   1.828   2.495   6.930 -2.6334 -0.6468 -0.9094
 1337SOL     OW15469   1.288   2.921   6.364 -0.0006  0.1520 -0.2606
 1337SOL    HW115470   1.213   2.888   6.413  1.4273 -1.1861  1.0459
 1337SOL    HW215471   1.347   2.848   6.347 -2.4067 -1.4462 -1.6894
 1338SOL     OW15472   1.539   4.178  12.753  0.4309  0.0397  0.5246
 1338SOL    HW115473   1.625   4.196  12.790  0.1214 -1.4462  1.9571
 1338SOL    HW215474   1.482   4.232  12.807 -0.3281 -0.8006  0.5651
 1339SOL     OW15475   2.332   0.396   8.347  0.5512 -0.2672 -0.0227
 1339SOL    HW115476   2.338   0.416   8.254 -1.6764 -0.3592 -0.1836
 1339SOL    HW215477   2.285   0.473   8.379  1.7415 -0.0760  1.2798
 1340SOL     OW15478   2.326   1.339   0.198 -0.2338 -0.0996 -0.1351
 1340SOL    HW115479   2.318   1.366   0.290  3.5632  1.0510 -0.1367
 1340SOL    HW215480   2.422   1.342   0.201 -0.3950  2.1658  2.7334
 1341SOL     OW15481   2.175   0.710  10.455 -0.1778  0.0675 -0.0221
 1341SOL    HW115482   2.250   0.677  10.406  1.4388 -0.4436  2.7877
 1341SOL    HW215483   2.160   0.794  10.412 -4.3619 -0.7612 -0.1019
 1342SOL     OW15484   0.244   1.575  15.439  0.7391 -0.7783 -0.2337
 1342SOL    HW115485   0.190   1.651  15.415  2.5205  0.1227 -1.4200
 1342SOL    HW215486   0.277   1.614  15.520 -1.5241  2.2400 -0.7692
 1343SOL     OW15487   1.153   0.926   0.773 -0.2737  0.0659 -0.3648
 1343SOL    HW115488   1.109   0.990   0.717  1.0304  1.0223 -0.2874
 1343SOL    HW215489   1.084   0.862   0.791  1.4281 -1.4068  0.8666
 1344SOL     OW15490   0.443   0.830  10.955 -0.4344 -0.5311 -0.1156
 1344SOL    HW115491   0.455   0.756  11.015  3.7346  0.9116  0.8233
 1344SOL    HW215492   0.509   0.831  10.887  0.0011  1.5092  0.3362
 1345SOL     OW15493   3.325   3.329   3.414  0.3325  0.2835 -0.0938
 1345SOL    HW115494   3.268   3.351   3.488  1.1838 -0.5315  0.7975
 1345SOL    HW215495   3.288   3.371   3.336 -0.0484 -0.4883 -0.3257
 1346SOL     OW15496   4.346   0.977   1.232 -0.4439  0.3001 -0.7303
 1346SOL    HW115497   4.264   1.020   1.208 -0.4550  0.8955  0.4200
 1346SOL    HW215498   4.380   1.033   1.301  2.4450 -0.7416 -1.3180
 1347SOL     OW15499   3.226   0.263  10.942  0.4198 -0.4760 -0.0181
 1347SOL    HW115500   3.235   0.277  10.848 -1.2939  0.0923 -0.1049
 1347SOL    HW215501   3.140   0.304  10.952  0.7931  0.1171  0.6901
 1348SOL     OW15502   2.394   4.679   4.755  0.5058 -0.2052 -0.2143
 1348SOL    HW115503   2.327   4.666   4.688 -1.2473 -0.4909  1.5523
 1348SOL    HW215504   2.345   4.699   4.835  2.2640  0.5673  0.6718
 1349SOL     OW15505   3.317   2.819   4.167  0.7636  0.5297  0.4928
 1349SOL    HW115506   3.222   2.821   4.153  1.0873  0.8664 -1.6184
 1349SOL    HW215507   3.312   2.869   4.248 -0.6400  0.7602  0.2667
 1350SOL     OW15508   2.996   0.103   0.504 -0.4732  0.0111 -0.1205
 1350SOL    HW115509   2.929   0.041   0.531 -3.4849  3.6085  0.6589
 1350SOL    HW215510   3.066   0.073   0.563  0.7868 -2.1755 -2.7280
 1351SOL     OW15511   3.510   1.727   2.230  0.2690 -0.1257  0.2422
 1351SOL    HW115512   3.534   1.763   2.315  1.5178 -0.7315  0.1451
 1351SOL    HW215513   3.562   1.777   2.167  0.0899 -1.9642 -1.3722
 1352SOL     OW15514   0.231   0.966   5.211 -0.0594 -0.4689 -0.3966
 1352SOL    HW115515   0.219   0.892   5.270 -0.3978  0.8104  1.1570
 1352SOL    HW215516   0.241   1.042   5.269  1.0888 -1.6527  0.9291
 1353SOL     OW15517   1.837   2.442   2.745 -0.2700  0.0116 -0.0928
 1353SOL    HW115518   1.829   2.356   2.786  1.0018  0.2115  0.5683
 1353SOL    HW215519   1.775   2.445   2.672 -0.6549  3.1915  0.3523
 1354SOL     OW15520   0.788   3.674  15.231 -0.1268 -0.4213 -0.0161
 1354SOL    HW115521   0.748   3.661  15.145  1.3334  2.4816 -1.1262
 1354SOL    HW215522   0.814   3.765  15.217  0.6760 -0.9915 -2.2395
 1355SOL     OW15523   2.268   1.562   8.944 -0.6766  0.6006  0.3676
 1355SOL    HW115524   2.355   1.601   8.935 -0.7079 -0.0149 -2.7113
 1355SOL    HW215525   2.257   1.572   9.039 -0.8928 -0.2432  0.4307
 1356SOL     OW15526   2.207   1.570  11.065  0.0377 -0.2011 -0.0572
 1356SOL    HW115527   2.300   1.595  11.065 -0.4237  1.5079 -0.8754
 1356SOL    HW215528   2.177   1.634  11.130 -0.4613 -0.5145  0.0158
 1357SOL     OW15529   3.551   4.337   9.099  0.5483 -0.5096 -0.3431
 1357SOL    HW115530   3.588   4.421   9.125  0.7929 -0.9273  0.6586
 1357SOL    HW215531   3.577   4.277   9.169 -1.4049  0.4683  1.2245
 1358SOL     OW15532   2.871   0.131   7.059 -0.4812  0.0124 -0.0785
 1358SOL    HW115533   2.900   0.049   7.018  0.3684 -0.0902  0.7463
 1358SOL    HW215534   2.849   0.188   6.986  2.0496  0.1430 -0.7353
 1359SOL     OW15535   4.100   0.598   4.807  0.5690 -0.2654 -0.4212
 1359SOL    HW115536   4.170   0.600   4.742 -0.0930  1.8929 -1.0852
 1359SOL    HW215537   4.155   0.552   4.870  1.8058  0.4816 -0.9704
 1360SOL     OW15538   4.523   0.259   6.280  0.9609 -0.0040  0.1678
 1360SOL    HW115539   4.576   0.204   6.222  0.6531  0.8766 -0.9341
 1360SOL    HW215540   4.473   0.303   6.212 -1.4130  1.2153  2.7073
 1361SOL     OW15541   1.855   3.728  14.258  0.0182 -0.0398  0.5229
 1361SOL    HW115542   1.788   3.669  14.221  0.1375 -0.3735  0.8395
 1361SOL    HW215543   1.829   3.813  14.222  3.0604  1.3720  1.6947
 1362SOL     OW15544   3.666   0.743  11.577  0.3616 -0.1945  0.0768
 1362SOL    HW115545   3.725   0.677  11.541 -1.3382 -0.5701 -1.9925
 1362SOL    HW215546   3.715   0.790  11.645  0.2025 -0.2397  0.2228
 1363SOL     OW15547   3.766   2.142  14.489 -0.3740 -0.0745  0.1976
 1363SOL    HW115548   3.682   2.183  14.509 -1.1463 -1.4857 -0.1409
 1363SOL    HW215549   3.807   2.141  14.575  0.9079 -2.6910 -0.4516
 1364SOL     OW15550   0.876   3.668  12.704  0.1042 -0.1998 -0.1839
 1364SOL    HW115551   0.823   3.731  12.752  2.9182  0.1132  2.4825
 1364SOL    HW215552   0.882   3.705  12.616  0.9118  0.1112 -0.0003
 1365SOL     OW15553   0.944   3.599   3.475 -0.2143 -0.1942  0.2843
 1365SOL    HW115554   0.948   3.663   3.405  0.8395 -0.5881 -0.0285
 1365SOL    HW215555   0.863   3.550   3.460 -1.6620  1.4080  2.8703
 1366SOL     OW15556   2.522   2.606  16.191 -0.1083  0.3883 -0.0246
 1366SOL    HW115557   2.438   2.648  16.172 -0.5164 -0.0827  0.7339
 1366SOL    HW215558   2.582   2.668  16.149  0.9131 -1.4581 -1.2627
 1367SOL     OW15559   3.356   4.632  13.476 -0.3345 -0.7927  0.4889
 1367SOL    HW115560   3.391   4.632  13.565  0.7943  2.2686  0.0486
 1367SOL    HW215561   3.419   4.572  13.435  1.3956  2.5622 -1.7867
 1368SOL     OW15562   2.406   3.776   8.946 -0.3801  0.6382  0.6712
 1368SOL    HW115563   2.341   3.713   8.977 -0.7639  1.3028  1.2461
 1368SOL    HW215564   2.443   3.805   9.030 -0.7610 -1.4531  1.5495
 1369SOL     OW15565   4.293   2.524   7.450 -0.4065  0.4234  0.3012
 1369SOL    HW115566   4.274   2.542   7.358 -0.5979  2.5605  0.7570
 1369SOL    HW215567   4.262   2.598   7.503 -1.5658  1.9055 -2.4328
 1370SOL     OW15568   3.109   0.322   1.593 -0.3820  0.4066  0.0231
 1370SOL    HW115569   3.138   0.235   1.566  0.0685  0.9425 -1.2204
 1370SOL    HW215570   3.191   0.345   1.636 -0.3581 -1.4984  0.9782
 1371SOL     OW15571   0.373   3.087  14.767  0.0104  0.0005 -0.7628
 1371SOL    HW115572   0.452   3.073  14.819 -1.5344 -0.8422  1.3353
 1371SOL    HW215573   0.399   3.175  14.739 -0.1834  0.3821  0.2437
 1372SOL     OW15574   1.957   4.132   5.500 -0.0340 -0.0781  0.3569
 1372SOL    HW115575   1.884   4.114   5.440  0.5993  0.2725 -0.5333
 1372SOL    HW215576   1.935   4.225   5.509 -1.1767 -0.3014 -0.1102
 1373SOL     OW15577   3.831   4.482   5.136  0.3496 -0.7482 -0.0269
 1373SOL    HW115578   3.903   4.495   5.197 -0.4564 -0.5993  0.8999
 1373SOL    HW215579   3.819   4.387   5.134  0.1720 -0.7587  1.8700
 1374SOL     OW15580   1.432   4.496   9.758  0.0857 -0.1408 -0.5745
 1374SOL    HW115581   1.449   4.575   9.809 -0.5096  1.3400 -2.7013
 1374SOL    HW215582   1.474   4.522   9.677 -1.4594  2.0603 -0.6502
 1375SOL     OW15583   4.648   3.721   6.565 -0.3509 -0.4595 -0.8355
 1375SOL    HW115584   4.612   3.713   6.654  3.1126 -2.1109  0.4207
 1375SOL    HW215585   4.712   3.792   6.562 -1.5097  0.6081 -0.6470
 1376SOL     OW15586   1.943   3.113   8.099  0.3867  0.4943  0.3881
 1376SOL    HW115587   1.937   3.177   8.029  1.4584 -1.0741 -1.1314
 1376SOL    HW215588   2.022   3.065   8.073  1.2587  0.6738  2.6164
 1377SOL     OW15589   4.128   1.492  11.329  0.0236  0.1990 -0.2197
 1377SOL    HW115590   4.209   1.495  11.278 -0.4303 -0.9322 -0.9888
 1377SOL    HW215591   4.112   1.587  11.327 -1.4860 -0.0518  0.8397
 1378SOL     OW15592   3.181   2.542   7.783  0.0332  0.1825  0.1048
 1378SOL    HW115593   3.272   2.570   7.771 -0.3957  1.0067 -1.1670
 1378SOL    HW215594   3.147   2.613   7.837 -0.0294 -1.0786  1.7544
 1379SOL     OW15595   4.603   4.268   7.366 -0.3308 -0.1477  0.0014
 1379SOL    HW115596   4.544   4.344   7.359 -0.0625  0.2146  1.6570
 1379SOL    HW215597   4.533   4.203   7.359  1.0552 -1.5667 -0.4104
 1380SOL     OW15598   1.705   4.288  10.344  0.0887 -0.2007 -0.1071
 1380SOL    HW115599   1.619   4.328  10.326 -0.4775 -1.9383 -1.2617
 1380SOL    HW215600   1.675   4.218  10.402 -1.1118  0.7532  0.4334
 1381SOL     OW15601   0.229   0.918   3.728 -0.4092  0.8139 -0.5111
 1381SOL    HW115602   0.208   0.835   3.684  1.0987 -0.6002  1.4723
 1381SOL    HW215603   0.317   0.931   3.693  0.0401  1.4276  0.8605
 1382SOL     OW15604   0.794   2.296   3.733 -0.6574 -0.4697  0.1873
 1382SOL    HW115605   0.728   2.244   3.686  0.0684 -0.3914 -0.9276
 1382SOL    HW215606   0.868   2.267   3.680 -0.4795  0.8476 -0.2852
 1383SOL     OW15607   2.722   1.020  11.888  0.5125 -0.1274 -0.0656
 1383SOL    HW115608   2.739   0.980  11.973 -0.1747  2.5780  1.3420
 1383SOL    HW215609   2.677   1.100  11.915  1.0757  0.6129 -1.3270
 1384SOL     OW15610   3.240   0.354  10.681 -0.3720  0.4229  0.8294
 1384SOL    HW115611   3.208   0.444  10.669 -0.9942  0.4071  2.5029
 1384SOL    HW215612   3.154   0.314  10.690 -0.6554  0.6709 -0.7951
 1385SOL     OW15613   1.333   0.514   1.282  0.4080 -0.1008 -0.1568
 1385SOL    HW115614   1.242   0.521   1.254  0.4995  0.0861 -0.4125
 1385SOL    HW215615   1.376   0.503   1.197  1.2029 -0.1571  0.2529
 1386SOL     OW15616   3.870   4.025  17.618  0.4573  0.1845  0.2463
 1386SOL    HW115617   3.820   3.952  17.580 -0.1564  0.8614 -0.2468
 1386SOL    HW215618   3.908   4.066  17.540 -1.2847  0.7834 -0.2882
 1387SOL     OW15619   4.240   2.898   1.439  0.2176 -0.1322 -0.5000
 1387SOL    HW115620   4.320   2.876   1.392  0.7247 -0.8933  0.7152
 1387SOL    HW215621   4.182   2.913   1.364  0.7291 -0.5351 -0.9713
 1388SOL     OW15622   3.664   0.172   5.022  0.4042  0.0823  0.2629
 1388SOL    HW115623   3.597   0.218   5.073 -1.3543 -1.5362 -0.5521
 1388SOL    HW215624   3.701   0.118   5.092 -0.7368  0.5488  1.2373
 1389SOL     OW15625   4.273   0.001   5.017  0.0027  0.1675 -0.0426
 1389SOL    HW115626   4.207   0.051   4.969  0.0127 -1.0967 -1.3591
 1389SOL    HW215627   4.257   4.640   4.982  0.3286  0.2223 -0.3243
 1390SOL     OW15628   3.367   0.001  17.540  0.3730  0.2436  0.2199
 1390SOL    HW115629   3.448   0.051  17.548 -0.1762  1.1580  0.0449
 1390SOL    HW215630   3.402   4.639  17.549  2.7486  1.1040 -0.7759
 1391SOL     OW15631   3.640   3.304   4.673 -0.3014 -0.1841 -0.0659
 1391SOL    HW115632   3.678   3.216   4.672  1.4524  0.5616  1.7204
 1391SOL    HW215633   3.669   3.320   4.583  0.2765  0.3481  0.2127
 1392SOL     OW15634   3.327   2.888   6.955 -0.2099 -0.2410  0.0200
 1392SOL    HW115635   3.413   2.864   6.920  0.2037  2.3808 -0.7994
 1392SOL    HW215636   3.275   2.853   6.882  0.9211 -1.6155 -0.1274
 1393SOL     OW15637   3.508   2.361  11.404 -0.2376 -0.0872  0.5612
 1393SOL    HW115638   3.589   2.388  11.446 -1.3400  1.5232  1.6204
 1393SOL    HW215639   3.457   2.436  11.433  0.9157 -0.0858  2.5394
 1394SOL     OW15640   3.344   4.660  11.339  0.1922  0.0707  0.0467
 1394SOL    HW115641   3.383   4.685  11.255 -0.2986 -0.4059 -0.3241
 1394SOL    HW215642   3.323   0.010  11.393 -0.0097 -0.9691  1.4211
 1395SOL     OW15643   2.972   1.269   2.746  0.1923  0.2403  0.4289
 1395SOL    HW115644   3.007   1.335   2.806  1.6421 -0.8615  0.7703
 1395SOL    HW215645   2.966   1.320   2.665  3.4030 -1.1435 -0.6722
 1396SOL     OW15646   3.931   0.628  17.126  0.0205  0.4003 -0.0555
 1396SOL    HW115647   4.010   0.675  17.152  0.3542 -1.1491  1.7134
 1396SOL    HW215648   3.928   0.627  17.030  0.7443 -0.4970 -0.0718
 1397SOL     OW15649   4.645   2.821   6.236 -0.3358  0.2460  0.4036
 1397SOL    HW115650   4.709   2.812   6.307  0.0161 -0.6856 -0.0360
 1397SOL    HW215651   4.656   2.729   6.211 -0.5207  0.1433  0.7012
 1398SOL     OW15652   3.468   1.103   1.528 -0.1901 -1.0832 -0.1252
 1398SOL    HW115653   3.429   1.153   1.600 -0.5390 -1.7090  0.1173
 1398SOL    HW215654   3.500   1.180   1.480  2.6178 -1.6061  0.8618
 1399SOL     OW15655   0.400   4.513   5.000 -0.0947  0.0345  0.1799
 1399SOL    HW115656   0.356   4.500   4.916 -0.9433 -2.3111  0.9931
 1399SOL    HW215657   0.484   4.469   4.988  0.0923  0.6290 -0.7397
 1400SOL     OW15658   0.267   3.939   8.400  0.6032  0.2789  0.4273
 1400SOL    HW115659   0.351   3.895   8.387  0.1746 -0.2857 -0.4232
 1400SOL    HW215660   0.193   3.888   8.367  1.0403  1.0907 -1.8232
 1401SOL     OW15661   2.501   0.487   2.780  0.3159  0.4942 -0.3902
 1401SOL    HW115662   2.500   0.583   2.774  2.7588  0.5057 -0.6786
 1401SOL    HW215663   2.424   0.472   2.726 -0.1219 -0.8287  0.6093
 1402SOL     OW15664   3.435   3.698   3.968 -0.0187  0.1728 -0.0034
 1402SOL    HW115665   3.422   3.792   3.980 -3.3679 -0.4389  1.1172
 1402SOL    HW215666   3.374   3.681   3.897 -0.0690 -0.2374  0.1363
 1403SOL     OW15667   3.529   2.518   3.392 -0.2941 -0.1994  0.1438
 1403SOL    HW115668   3.485   2.462   3.456  2.1544 -3.2391 -0.8337
 1403SOL    HW215669   3.470   2.593   3.388 -1.9592 -1.5124  0.0368
 1404SOL     OW15670   0.310   4.207   3.952 -0.3326  0.2927  0.6507
 1404SOL    HW115671   0.334   4.167   4.036  1.2882  2.7803  1.4039
 1404SOL    HW215672   0.391   4.191   3.903 -1.1613 -0.2204 -0.5296
 1405SOL     OW15673   1.728   1.066  14.851  0.4646 -0.1039  0.1619
 1405SOL    HW115674   1.701   0.992  14.796  2.0018 -0.7805  0.3151
 1405SOL    HW215675   1.805   1.098  14.804  0.0854  0.7117  0.1045
 1406SOL     OW15676   0.413   1.141   0.821 -0.2478  0.2520 -0.5284
 1406SOL    HW115677   0.448   1.224   0.852 -1.6788 -0.1098  2.0556
 1406SOL    HW215678   0.321   1.150   0.844 -0.0172  1.6841 -0.2083
 1407SOL     OW15679   4.239   4.493   4.861  0.0670 -0.0341 -0.6423
 1407SOL    HW115680   4.158   4.486   4.809  0.3044  0.6972 -1.1150
 1407SOL    HW215681   4.246   4.402   4.888 -1.8808  0.0570  0.1814
 1408SOL     OW15682   4.021   4.503   0.703 -0.5019  0.3431 -0.2365
 1408SOL    HW115683   4.068   4.443   0.645 -1.1785 -0.2104 -0.2171
 1408SOL    HW215684   3.934   4.464   0.691 -0.2002 -0.3788 -0.0676
 1409SOL     OW15685   3.372   1.069   9.012  0.4212  0.2978  0.0717
 1409SOL    HW115686   3.355   1.136   9.078  0.4137 -0.1406  0.5160
 1409SOL    HW215687   3.285   1.030   9.019  0.5142  0.3441  1.4398
 1410SOL     OW15688   2.683   4.623  12.748  0.8142 -0.1419 -0.6088
 1410SOL    HW115689   2.751   4.570  12.789 -1.1437 -1.5739  0.7469
 1410SOL    HW215690   2.732   4.706  12.754 -0.1709  0.4812 -1.1449
 1411SOL     OW15691   1.525   1.024   1.259 -0.1771  0.2761  0.2797
 1411SOL    HW115692   1.575   1.071   1.325 -0.9616  1.2103  0.2069
 1411SOL    HW215693   1.490   1.098   1.210  2.6759  2.1669  1.0502
 1412SOL     OW15694   2.978   3.177   8.575  0.2662  0.0923 -0.6368
 1412SOL    HW115695   3.043   3.208   8.512  1.3529 -0.2030  0.3288
 1412SOL    HW215696   2.986   3.232   8.653  1.3324 -1.2618  0.2228
 1413SOL     OW15697   0.728   3.145  12.280  0.1861 -0.3584 -0.8599
 1413SOL    HW115698   0.668   3.198  12.228 -0.1694 -0.0616 -0.1386
 1413SOL    HW215699   0.719   3.182  12.368 -1.1132  0.9384 -1.5297
 1414SOL     OW15700   1.281   0.263   7.491 -0.3743  0.5033  0.3979
 1414SOL    HW115701   1.232   0.343   7.510 -0.9549  0.0760  0.6782
 1414SOL    HW215702   1.225   0.198   7.533 -2.1159  1.1876 -0.8608
 1415SOL     OW15703   0.620   4.524  11.552 -0.1996  0.1442  0.3006
 1415SOL    HW115704   0.527   4.503  11.552 -0.3414  0.7579 -0.9539
 1415SOL    HW215705   0.648   4.530  11.461  1.1618 -1.2825  0.6297
 1416SOL     OW15706   3.620   1.760   6.941  0.1798  0.4647  0.5628
 1416SOL    HW115707   3.713   1.736   6.943 -0.1556 -0.7215  1.7465
 1416SOL    HW215708   3.616   1.832   6.877 -1.9804 -1.6389 -1.6542
 1417SOL     OW15709   1.374   4.394   9.307  0.4428  0.3791 -0.4994
 1417SOL    HW115710   1.338   4.308   9.330 -1.2356  1.3101  0.3818
 1417SOL    HW215711   1.295   4.448   9.304  0.9904  1.1584 -0.8554
 1418SOL     OW15712   3.600   0.123   6.619 -0.0539  0.4495 -0.0914
 1418SOL    HW115713   3.594   0.154   6.709 -5.1163  1.1775 -0.6687
 1418SOL    HW215714   3.693   0.099   6.618 -0.9686 -2.9840 -0.8357
 1419SOL     OW15715   3.000   0.443   6.327  0.3972 -0.2447 -0.2678
 1419SOL    HW115716   3.066   0.425   6.261 -0.8628 -2.5104 -0.9163
 1419SOL    HW215717   2.997   0.537   6.313 -0.2014 -0.3939 -1.1461
 1420SOL     OW15718   2.627   3.849   6.080  0.6968 -0.0016 -0.3147
 1420SOL    HW115719   2.565   3.889   6.140  0.4157 -0.4351 -0.3169
 1420SOL    HW215720   2.710   3.894   6.097  1.9949 -1.8256 -1.7825
 1421SOL     OW15721   3.902   4.159  10.725  0.3803 -0.2475  0.4823
 1421SOL    HW115722   3.847   4.234  10.747 -0.9611 -1.3004  0.7274
 1421SOL    HW215723   3.860   4.132  10.642 -0.9831  0.1885  1.0307
 1422SOL     OW15724   3.802   4.454   5.642 -0.1180 -0.2286 -0.4627
 1422SOL    HW115725   3.765   4.473   5.729 -2.4016  0.3834 -1.5736
 1422SOL    HW215726   3.723   4.421   5.599 -0.8018  0.8292 -0.0340
 1423SOL     OW15727   1.122   0.043  17.089  0.3201  0.6533 -0.3093
 1423SOL    HW115728   1.154   4.685  17.056 -2.2064 -0.6293  0.5993
 1423SOL    HW215729   1.112   0.091  17.007  0.0068  0.7004 -0.2438
 1424SOL     OW15730   0.739   4.355  11.889  0.9712  0.4146 -0.0278
 1424SOL    HW115731   0.770   4.350  11.980  0.4441 -0.3881  0.1131
 1424SOL    HW215732   0.782   4.279  11.851 -1.6420 -1.5366  0.8486
 1425SOL     OW15733   4.540   2.813   4.579  0.2751  0.3040  0.3947
 1425SOL    HW115734   4.540   2.827   4.674  2.1200  0.9369  0.3001
 1425SOL    HW215735   4.506   2.897   4.550 -1.0436  0.5530  2.6988
 1426SOL     OW15736   2.305   3.462   0.645 -0.4948 -0.0009 -0.6521
 1426SOL    HW115737   2.238   3.441   0.579 -0.1301 -2.7131 -0.1708
 1426SOL    HW215738   2.375   3.495   0.589 -0.7573  1.5856 -0.0512
 1427SOL     OW15739   3.677   4.172   1.705  0.5787  0.3945 -0.3398
 1427SOL    HW115740   3.725   4.173   1.622 -1.2421 -1.0476 -1.4058
 1427SOL    HW215741   3.655   4.265   1.714 -0.9786 -0.0351  0.2449
 1428SOL     OW15742   4.359   3.980   3.464 -0.0557  0.1695  0.4074
 1428SOL    HW115743   4.338   3.967   3.371  0.2033 -0.7324  0.4775
 1428SOL    HW215744   4.431   3.917   3.469 -0.2893 -0.0106  1.4241
 1429SOL     OW15745   2.874   1.518   4.264 -0.4375 -0.2291 -0.0857
 1429SOL    HW115746   2.887   1.611   4.248 -0.1303 -0.3317 -0.4315
 1429SOL    HW215747   2.956   1.479   4.232 -0.8637 -0.9373 -0.3010
 1430SOL     OW15748   1.641   0.310   5.913  0.3398  0.0079  0.6457
 1430SOL    HW115749   1.569   0.251   5.934  0.5051 -0.4056  0.0493
 1430SOL    HW215750   1.683   0.332   5.996 -2.1193 -0.7543  2.0841
 1431SOL     OW15751   3.367   4.694  10.826 -0.0203  0.4327 -0.2735
 1431SOL    HW115752   3.389   4.717  10.736  1.2472 -0.6350 -0.2265
 1431SOL    HW215753   3.398   0.046  10.872  1.9349 -1.7426  2.1060
 1432SOL     OW15754   1.515   4.624  12.128 -0.3383  0.8557  0.1185
 1432SOL    HW115755   1.513   4.712  12.166 -3.1148 -0.7209  3.5390
 1432SOL    HW215756   1.425   4.596  12.142 -0.3915  0.1409 -1.6457
 1433SOL     OW15757   4.567   0.484   6.869 -0.2088  0.4547  0.0984
 1433SOL    HW115758   4.575   0.579   6.857  0.7493  0.2962 -0.4699
 1433SOL    HW215759   4.490   0.482   6.926  0.0334 -0.8515  0.3784
 1434SOL     OW15760   0.472   2.249   5.650  0.1152  0.8970  0.0650
 1434SOL    HW115761   0.529   2.174   5.662  0.3214  1.2409  1.2709
 1434SOL    HW215762   0.401   2.217   5.706 -0.4914 -1.1666 -1.8788
 1435SOL     OW15763   1.688   0.368   8.600 -0.0806 -0.0328 -0.1084
 1435SOL    HW115764   1.594   0.352   8.588 -0.2134  1.5454 -1.2142
 1435SOL    HW215765   1.725   0.286   8.567 -0.3254 -0.4377  0.6305
 1436SOL     OW15766   3.145   3.731   5.650 -0.0073 -0.5043 -0.4894
 1436SOL    HW115767   3.074   3.794   5.664  0.5191 -0.4265  1.9065
 1436SOL    HW215768   3.171   3.770   5.567 -0.4548  0.4260 -0.1845
 1437SOL     OW15769   1.993   2.631   2.165  0.1503 -0.0193  0.4576
 1437SOL    HW115770   1.932   2.601   2.098  1.1788 -0.0990 -0.4532
 1437SOL    HW215771   2.071   2.665   2.119 -0.2711  1.9626  1.1944
 1438SOL     OW15772   0.294   1.488  11.030  0.0661  0.7656  0.0965
 1438SOL    HW115773   0.269   1.396  11.040  1.2299  0.3244 -1.0740
 1438SOL    HW215774   0.223   1.528  10.980 -0.2682 -0.7726 -0.6676
 1439SOL     OW15775   3.507   3.927   8.327 -0.0264 -0.4900 -0.4882
 1439SOL    HW115776   3.492   3.952   8.236  1.4336 -0.9494 -0.8485
 1439SOL    HW215777   3.417   3.935   8.358 -0.0285  0.5575 -0.7680
 1440SOL     OW15778   0.452   1.482  10.040  0.1094  0.0263 -0.3071
 1440SOL    HW115779   0.370   1.501   9.995 -1.1239  0.2447  2.0065
 1440SOL    HW215780   0.461   1.562  10.091 -0.5789 -0.5548  0.7290
 1441SOL     OW15781   2.310   0.249   5.283  1.1391  0.6411  0.8430
 1441SOL    HW115782   2.221   0.284   5.292  0.9570  0.9102 -1.9929
 1441SOL    HW215783   2.351   0.280   5.363 -0.4240 -3.4862  3.2138
 1442SOL     OW15784   1.744   1.454   6.654  0.1257  0.4560  0.2079
 1442SOL    HW115785   1.792   1.376   6.681 -1.1197  0.4957  2.5630
 1442SOL    HW215786   1.787   1.464   6.569  0.6047 -2.4037  0.1092
 1443SOL     OW15787   3.979   3.196   2.269 -0.0640 -0.2318 -0.1378
 1443SOL    HW115788   3.936   3.126   2.219 -1.0325 -0.9618  1.6981
 1443SOL    HW215789   4.040   3.144   2.322 -0.7237  0.9016  1.7382
 1444SOL     OW15790   2.658   0.778   6.694 -0.0117  0.0225 -0.1916
 1444SOL    HW115791   2.673   0.828   6.775  1.4015 -1.2443  0.3277
 1444SOL    HW215792   2.713   0.831   6.637  1.4302 -1.1207  0.1693
 1445SOL     OW15793   3.249   4.097   5.754  0.2338 -0.6577  0.5165
 1445SOL    HW115794   3.278   4.025   5.699  0.0201  1.4644 -2.3585
 1445SOL    HW215795   3.207   4.159   5.694 -0.5453  0.2364  1.9908
 1446SOL     OW15796   4.552   3.645   8.882 -0.2520 -0.1884 -0.4937
 1446SOL    HW115797   4.640   3.641   8.920 -0.3913  2.2052  0.0565
 1446SOL    HW215798   4.558   3.736   8.854 -0.4526  0.0514  0.2526
 1447SOL     OW15799   2.573   2.348  15.992 -0.1156 -0.2523 -0.2761
 1447SOL    HW115800   2.580   2.328  15.898  3.3146 -1.2497  0.1837
 1447SOL    HW215801   2.567   2.443  15.988 -2.3976 -0.4788 -1.7851
 1448SOL     OW15802   2.219   2.307  10.597  0.0646  0.0221 -0.3353
 1448SOL    HW115803   2.232   2.389  10.645  0.5973  0.7207 -1.6412
 1448SOL    HW215804   2.235   2.235  10.658  0.5596 -0.6331 -1.2328
 1449SOL     OW15805   2.400   0.080   3.148 -0.7431  0.1237  0.2089
 1449SOL    HW115806   2.414   0.143   3.218 -0.2931  0.7726 -0.4704
 1449SOL    HW215807   2.406   0.129   3.066 -1.8954 -0.2485 -0.0987
 1450SOL     OW15808   1.512   2.853   7.306 -0.1295 -0.0882  0.3764
 1450SOL    HW115809   1.442   2.806   7.260  0.4683 -0.4081 -0.2036
 1450SOL    HW215810   1.468   2.884   7.385 -0.1212 -0.4430  0.5218
 1451SOL     OW15811   3.179   0.975   3.951 -0.7736  0.7900  0.1992
 1451SOL    HW115812   3.248   1.039   3.971 -2.0292  2.5197 -0.9894
 1451SOL    HW215813   3.100   1.017   3.986 -1.2822 -1.7615  2.0500
 1452SOL     OW15814   4.497   2.903  10.613 -0.5100  0.1543  0.2841
 1452SOL    HW115815   4.471   2.972  10.674  0.4724 -0.5448  1.4844
 1452SOL    HW215816   4.581   2.878  10.651 -0.8633  1.2647  1.7900
 1453SOL     OW15817   2.825   3.234   4.242  0.4530 -0.5585 -0.6573
 1453SOL    HW115818   2.739   3.272   4.257 -0.2129 -3.1116  1.8738
 1453SOL    HW215819   2.822   3.202   4.152 -3.2669  0.7834 -1.0021
 1454SOL     OW15820   3.102   0.288   8.161 -0.1572 -1.1260  0.4414
 1454SOL    HW115821   3.092   0.378   8.132 -0.0053 -1.6090 -1.0855
 1454SOL    HW215822   3.009   0.283   8.185 -0.1228 -0.6714  0.6668
 1455SOL     OW15823   2.352   0.239   4.580 -0.3120 -0.3134 -0.1945
 1455SOL    HW115824   2.360   0.157   4.531  0.1386 -1.1358  1.2621
 1455SOL    HW215825   2.322   0.212   4.667 -0.5668 -0.1683 -0.2345
 1456SOL     OW15826   2.935   4.490  16.895 -0.5022 -0.0770 -0.1675
 1456SOL    HW115827   2.881   4.569  16.889 -0.5511  0.1869  4.0322
 1456SOL    HW215828   2.946   4.461  16.804 -0.6014 -0.7318  0.0327
 1457SOL     OW15829   4.171   2.886   9.102 -0.4830 -0.1326 -1.1953
 1457SOL    HW115830   4.086   2.870   9.061 -2.0359 -0.1656  2.0246
 1457SOL    HW215831   4.145   2.869   9.193 -1.0673 -1.2829 -1.5814
 1458SOL     OW15832   1.047   1.348  11.885  0.0358 -0.1236  0.2321
 1458SOL    HW115833   1.109   1.305  11.826  0.9516 -0.0247  1.1222
 1458SOL    HW215834   0.978   1.283  11.871  1.0412 -0.2405 -4.3272
 1459SOL     OW15835   1.747   4.389  17.598  0.1126 -0.1920 -0.2998
 1459SOL    HW115836   1.714   4.408  17.510 -0.3088  1.5344  0.2256
 1459SOL    HW215837   1.804   4.313  17.586 -1.3157 -1.2220 -0.5678
 1460SOL     OW15838   4.307   1.723   4.114  0.0627  0.1154 -0.1926
 1460SOL    HW115839   4.259   1.749   4.192  1.3408  0.0200  0.6326
 1460SOL    HW215840   4.254   1.750   4.039  1.8142  0.8458 -1.1820
 1461SOL     OW15841   0.783   3.598   9.574 -0.3573  0.1321  0.1195
 1461SOL    HW115842   0.791   3.586   9.480  3.3524  0.1027  0.4629
 1461SOL    HW215843   0.691   3.572   9.587 -0.7816  1.6829  0.2460
 1462SOL     OW15844   4.024   0.011   1.190  0.1390 -0.5743 -0.3324
 1462SOL    HW115845   3.946   4.707   1.238 -0.2856  0.0886 -0.5979
 1462SOL    HW215846   4.014   4.702   1.102  0.3517  0.0976 -0.6228
 1463SOL     OW15847   3.413   2.044   5.957  0.1924 -0.5166 -0.1900
 1463SOL    HW115848   3.410   2.130   5.915  3.0885 -0.5567 -0.4650
 1463SOL    HW215849   3.397   2.075   6.046 -0.0414 -0.4477 -0.2547
 1464SOL     OW15850   3.204   4.146   5.293 -0.1407 -0.2839  0.0915
 1464SOL    HW115851   3.250   4.138   5.210 -0.5060 -0.3663 -0.1015
 1464SOL    HW215852   3.111   4.131   5.276  0.3541 -2.0474 -1.0034
 1465SOL     OW15853   4.628   1.589   8.303  0.0195  0.0537 -0.6082
 1465SOL    HW115854   4.709   1.569   8.256  0.3978  2.3510 -0.9189
 1465SOL    HW215855   4.646   1.666   8.356 -0.6559 -0.8789  0.9833
 1466SOL     OW15856   4.094   2.088   7.248 -0.0012  0.3620 -0.1950
 1466SOL    HW115857   4.157   2.040   7.194  0.1763 -0.2415  0.5539
 1466SOL    HW215858   4.020   2.027   7.249  0.6121 -0.3142  2.3355
 1467SOL     OW15859   4.517   1.289   6.988  0.1320  0.1632  0.0944
 1467SOL    HW115860   4.578   1.216   6.977  0.0922 -0.2697  2.5380
 1467SOL    HW215861   4.437   1.268   6.940 -0.2620 -0.3406  0.9729
 1468SOL     OW15862   1.378   1.251   4.233  0.4790 -0.0172 -0.1957
 1468SOL    HW115863   1.338   1.297   4.307  0.1475  1.4816 -1.2980
 1468SOL    HW215864   1.425   1.323   4.192 -0.0800 -0.9319 -2.4039
 1469SOL     OW15865   0.197   4.165   6.669 -0.6715 -1.2599 -0.5552
 1469SOL    HW115866   0.177   4.254   6.642  2.1581 -0.6504 -0.5703
 1469SOL    HW215867   0.292   4.169   6.664 -0.8001  0.8585 -0.9785
 1470SOL     OW15868   3.913   0.881   6.296 -0.4167  0.3166 -0.0300
 1470SOL    HW115869   3.995   0.927   6.309 -0.3540  0.1501  0.1518
 1470SOL    HW215870   3.905   0.838   6.381  1.4717 -0.8729 -0.4707
 1471SOL     OW15871   1.662   4.545   7.174  0.1726  0.3033 -0.2289
 1471SOL    HW115872   1.654   4.640   7.173 -0.8319  0.2165  0.0012
 1471SOL    HW215873   1.691   4.534   7.264  1.8682 -1.6506 -1.0117
 1472SOL     OW15874   0.102   0.808   4.261 -0.4972  0.0128  0.8818
 1472SOL    HW115875   0.049   0.870   4.312 -0.4621  0.5395  0.2875
 1472SOL    HW215876   0.167   0.872   4.230  0.9874 -1.5955  0.7035
 1473SOL     OW15877   2.971   1.285  12.902 -0.2650  0.0538 -0.3052
 1473SOL    HW115878   3.018   1.293  12.986  1.6579  0.4021 -1.4134
 1473SOL    HW215879   3.030   1.334  12.846  1.2821 -0.5217  0.8149
 1474SOL     OW15880   1.161   3.279  15.188  0.0305  0.2460  0.2690
 1474SOL    HW115881   1.170   3.254  15.096  0.3346  0.8151  0.1400
 1474SOL    HW215882   1.147   3.374  15.178  0.4195  0.5229  2.3791
 1475SOL     OW15883   0.752   1.527   7.889 -0.0299 -0.1824 -0.1636
 1475SOL    HW115884   0.711   1.604   7.851 -1.0152 -0.9559 -0.6717
 1475SOL    HW215885   0.783   1.563   7.972  1.9158 -2.1349 -0.0501
 1476SOL     OW15886   3.354   4.148   4.487 -0.2358  0.6374  0.5526
 1476SOL    HW115887   3.431   4.137   4.431 -0.1628  0.9196  0.6001
 1476SOL    HW215888   3.286   4.136   4.421  0.4863  0.4805 -0.1645
 1477SOL     OW15889   0.556   4.085  11.156  0.4760 -0.3172  0.3679
 1477SOL    HW115890   0.605   4.164  11.178  0.1970  0.2157 -0.8721
 1477SOL    HW215891   0.488   4.077  11.222  0.0045  1.2838  0.0754
 1478SOL     OW15892   1.071   3.539   7.908 -0.1131 -0.6075  0.1221
 1478SOL    HW115893   1.147   3.590   7.937 -0.8039 -0.0580  0.9673
 1478SOL    HW215894   1.024   3.520   7.990 -2.9705 -1.7293 -1.7925
 1479SOL     OW15895   2.696   2.503   9.135 -0.0349 -0.3222  0.0156
 1479SOL    HW115896   2.787   2.524   9.158 -1.0540  1.1288  2.6877
 1479SOL    HW215897   2.654   2.553   9.205  1.8716  1.9385 -0.4439
 1480SOL     OW15898   1.387   4.178  11.444  0.5039  0.7543 -0.2399
 1480SOL    HW115899   1.474   4.138  11.441  0.9218  1.6435  0.0545
 1480SOL    HW215900   1.402   4.235  11.369  2.5422  0.3964 -0.1067
 1481SOL     OW15901   3.329   0.987   4.287 -0.1791  0.1192 -0.3215
 1481SOL    HW115902   3.336   0.909   4.232 -1.9072  0.7497 -1.4075
 1481SOL    HW215903   3.234   0.995   4.278 -0.1124  2.9222  1.5208
 1482SOL     OW15904   3.842   3.850   8.204 -0.0552  0.3805  0.2788
 1482SOL    HW115905   3.763   3.871   8.253  0.2540  1.7304  0.2190
 1482SOL    HW215906   3.815   3.800   8.128 -0.2105 -4.5639  3.5967
 1483SOL     OW15907   0.949   0.520  17.302  0.0418  0.0406  0.3476
 1483SOL    HW115908   0.957   0.436  17.347 -0.7077 -1.3776 -2.1661
 1483SOL    HW215909   0.864   0.545  17.337  0.3938  3.2567 -1.1079
 1484SOL     OW15910   0.859   0.851  13.689 -0.1137 -0.1757  0.0342
 1484SOL    HW115911   0.931   0.847  13.627 -0.5096  0.1129 -0.4437
 1484SOL    HW215912   0.910   0.822  13.764  0.4735  0.2430 -0.2074
 1485SOL     OW15913   3.631   3.961   5.489 -0.0611  0.0182 -0.3730
 1485SOL    HW115914   3.682   4.042   5.492 -0.8224  0.4660  0.5957
 1485SOL    HW215915   3.543   3.993   5.510  0.5744 -0.3173  2.7946
 1486SOL     OW15916   1.106   3.492   0.021 -0.6604 -0.7294  0.5611
 1486SOL    HW115917   1.155   3.410   0.016 -0.6791 -0.7893  1.3394
 1486SOL    HW215918   1.023   3.471   0.062  0.8285  0.0993  4.0521
 1487SOL     OW15919   4.456   0.313   4.365  0.6353 -0.1911 -0.2023
 1487SOL    HW115920   4.468   0.232   4.413  1.6222  0.0878  0.0102
 1487SOL    HW215921   4.368   0.330   4.399 -0.4620 -0.3283 -2.9503
 1488SOL     OW15922   1.664   0.460  11.535  0.0074  0.4098 -0.2834
 1488SOL    HW115923   1.749   0.419  11.525  0.3386  0.4452  2.4018
 1488SOL    HW215924   1.627   0.445  11.448 -0.2987 -3.3213  0.4709
 1489SOL     OW15925   1.793   1.287  14.065 -0.0117  0.0763  0.0170
 1489SOL    HW115926   1.871   1.253  14.108  0.5425  0.0161 -1.0408
 1489SOL    HW215927   1.768   1.226  13.996 -1.4589  2.4661 -1.5553
 1490SOL     OW15928   4.629   0.462   4.719 -0.1308  0.1435  0.0467
 1490SOL    HW115929   4.665   0.374   4.708  1.4056  0.5777  1.6449
 1490SOL    HW215930   4.712   0.511   4.718 -0.2045  0.2685  0.0490
 1491SOL     OW15931   2.055   4.155   5.096  0.1317  0.3749 -0.3758
 1491SOL    HW115932   2.138   4.190   5.128  0.1726  0.1656 -0.2576
 1491SOL    HW215933   2.045   4.085   5.160 -1.4327  0.0904 -0.9328
 1492SOL     OW15934   4.632   0.647   2.473 -0.1279 -0.4392  0.2392
 1492SOL    HW115935   4.565   0.683   2.416  1.0754  2.6726  0.7789
 1492SOL    HW215936   4.593   0.561   2.487  0.2045 -0.2482  2.3478
 1493SOL     OW15937   2.179   2.939   8.149 -0.3613 -0.3163  0.4745
 1493SOL    HW115938   2.262   2.986   8.144 -0.6897  0.1832 -0.3026
 1493SOL    HW215939   2.208   2.857   8.190  0.2471 -0.6077 -0.5363
 1494SOL     OW15940   3.786   2.870   6.966  0.3048 -0.4306 -0.0349
 1494SOL    HW115941   3.782   2.955   6.921 -0.2082 -1.6868 -2.3636
 1494SOL    HW215942   3.863   2.841   6.917 -0.1950  0.8286 -1.5889
 1495SOL     OW15943   3.894   3.731  16.404 -0.7660  0.4727  0.3956
 1495SOL    HW115944   3.806   3.763  16.384 -0.3906  0.1245 -1.7343
 1495SOL    HW215945   3.941   3.802  16.361  1.4941  0.0396  2.1546
 1496SOL     OW15946   4.037   0.636   7.185  0.3837 -0.9157  0.4393
 1496SOL    HW115947   4.039   0.727   7.155  2.4211 -1.4501 -1.0016
 1496SOL    HW215948   4.100   0.641   7.257 -0.0435  2.5792  0.5567
 1497SOL     OW15949   2.483   4.186   5.323  0.3455  0.0057 -0.4593
 1497SOL    HW115950   2.424   4.113   5.340 -2.2493  1.4280 -3.5611
 1497SOL    HW215951   2.437   4.255   5.276  1.4764  1.5383  0.6896
 1498SOL     OW15952   4.529   2.827   7.522 -0.2963  0.2293  0.6689
 1498SOL    HW115953   4.604   2.844   7.466 -1.1859 -0.6432 -0.7620
 1498SOL    HW215954   4.567   2.822   7.610  1.9553 -0.5004 -0.3596
 1499SOL     OW15955   0.359   0.689   8.338 -0.0690  0.4370  1.0516
 1499SOL    HW115956   0.369   0.785   8.340 -1.1449  0.5760 -0.0181
 1499SOL    HW215957   0.294   0.681   8.269  0.4032  0.1631  0.6392
 1500SOL     OW15958   4.452   1.421  16.016  0.1871  0.1386  0.1777
 1500SOL    HW115959   4.474   1.372  15.936 -0.1678  0.2711 -0.0013
 1500SOL    HW215960   4.404   1.495  15.979  0.3932 -1.1694 -2.7058
 1501SOL     OW15961   3.225   2.115   7.603  0.3620  0.4547  0.0682
 1501SOL    HW115962   3.281   2.144   7.674  0.1000 -0.3544  0.6110
 1501SOL    HW215963   3.175   2.196   7.594 -1.3293 -0.4154  1.7781
 1502SOL     OW15964   2.242   1.414  12.887 -0.0462 -0.1886  0.3958
 1502SOL    HW115965   2.321   1.419  12.942 -0.5206  0.8783  0.9921
 1502SOL    HW215966   2.267   1.431  12.797 -0.2310 -0.0022  0.3789
 1503SOL     OW15967   2.752   1.752   3.229 -0.2680 -0.2293  0.1324
 1503SOL    HW115968   2.657   1.760   3.226 -0.2167 -0.0469 -0.9766
 1503SOL    HW215969   2.755   1.676   3.288 -1.6960  0.7264  1.4403
 1504SOL     OW15970   4.436   3.403   3.955  0.2608  0.1068  0.3768
 1504SOL    HW115971   4.346   3.384   3.980  0.5801 -0.3782  1.1788
 1504SOL    HW215972   4.431   3.482   3.901 -1.7674 -0.7641 -0.6746
 1505SOL     OW15973   1.150   0.639   8.236 -0.3346 -0.3083 -0.3665
 1505SOL    HW115974   1.062   0.627   8.271 -0.0242 -2.7510 -0.3980
 1505SOL    HW215975   1.144   0.723   8.191 -0.8823 -0.9006 -1.4128
 1506SOL     OW15976   3.617   0.769  14.232  0.3469 -0.6779 -0.1884
 1506SOL    HW115977   3.668   0.791  14.154 -0.4146  2.0770  0.0822
 1506SOL    HW215978   3.532   0.783  14.190 -0.1979 -0.6970  0.9082
 1507SOL     OW15979   1.307   2.085  11.068 -0.1698  0.0769 -0.6398
 1507SOL    HW115980   1.279   2.113  10.981 -0.6468 -1.1156 -0.8816
 1507SOL    HW215981   1.335   2.170  11.101  0.2171 -0.3703  0.1995
 1508SOL     OW15982   4.644   1.972   1.237 -0.4772  0.0997 -0.2448
 1508SOL    HW115983   4.693   1.904   1.190 -0.7116  0.2978 -0.7823
 1508SOL    HW215984   4.566   1.923   1.260  0.6972 -1.0984  1.1705
 1509SOL     OW15985   2.565   0.200   3.515  0.1175  0.1496 -0.2377
 1509SOL    HW115986   2.500   0.132   3.531 -1.2667  1.6962  0.7398
 1509SOL    HW215987   2.538   0.230   3.429 -0.9939 -0.0039  0.0498
 1510SOL     OW15988   4.511   0.000   1.549  0.4913 -0.1860 -0.1482
 1510SOL    HW115989   4.468   4.692   1.471 -0.8474 -0.3944  0.6766
 1510SOL    HW215990   4.494   4.652   1.607 -0.3387  0.7756  0.8606
 1511SOL     OW15991   0.137   2.133  13.934 -0.3489 -0.1244 -0.2173
 1511SOL    HW115992   0.056   2.184  13.938 -0.6357 -0.4930 -1.5117
 1511SOL    HW215993   0.096   2.052  13.964 -0.3383  0.5155  1.5331
 1512SOL     OW15994   3.631   0.701   0.336  0.1398 -0.1446 -0.0151
 1512SOL    HW115995   3.599   0.755   0.263 -1.0780 -0.9711 -0.0945
 1512SOL    HW215996   3.608   0.617   0.297 -1.3562  1.6075 -2.9822
 1513SOL     OW15997   3.377   4.609   7.519  0.2233 -0.0109  0.1246
 1513SOL    HW115998   3.450   4.589   7.461 -0.1888  1.9981 -1.1158
 1513SOL    HW215999   3.398   4.700   7.540 -1.9767  0.2392  1.2914
 1514SOL     OW16000   1.401   0.113  12.247  0.1680  0.2709  0.0132
 1514SOL    HW116001   1.364   0.062  12.318  0.2517 -0.6776 -0.6160
 1514SOL    HW216002   1.373   0.202  12.263  0.3655  0.0766  1.3901
 1515SOL     OW16003   1.738   0.304   7.058  0.0066  0.2571 -0.5034
 1515SOL    HW116004   1.812   0.273   7.109 -0.4655  0.3277  0.2196
 1515SOL    HW216005   1.662   0.285   7.113  0.6845 -1.4791 -0.1778
 1516SOL     OW16006   2.204   2.352   7.698 -0.0567 -0.1468 -0.9389
 1516SOL    HW116007   2.287   2.364   7.743 -0.5390  1.9850 -0.6240
 1516SOL    HW216008   2.224   2.348   7.605 -2.9029  0.6238 -1.5778
 1517SOL     OW16009   3.033   4.290   3.972 -0.1117  0.5099 -0.1769
 1517SOL    HW116010   2.949   4.306   3.927 -0.5725  2.2171  1.2785
 1517SOL    HW216011   3.033   4.346   4.049  0.7079  1.2804 -0.7456
 1518SOL     OW16012   4.298   3.773   3.235  0.4361  0.4196 -0.2503
 1518SOL    HW116013   4.376   3.755   3.183  0.6071  2.1991 -0.6383
 1518SOL    HW216014   4.227   3.730   3.189  0.9804  0.6368 -1.2973
 1519SOL     OW16015   1.091   4.360  14.449 -0.5190  0.1978  0.4489
 1519SOL    HW116016   1.067   4.407  14.369 -1.9630  1.5571  1.6824
 1519SOL    HW216017   1.030   4.287  14.438  2.3337 -2.0671 -0.4913
 1520SOL     OW16018   3.760   0.304  17.447 -0.3486 -0.4735 -0.3365
 1520SOL    HW116019   3.855   0.311  17.445 -0.3209 -0.8463 -0.2936
 1520SOL    HW216020   3.749   0.341  17.359  0.9337 -1.0514 -0.7314
 1521SOL     OW16021   3.582   3.510   5.921  0.4841 -0.1566  0.1406
 1521SOL    HW116022   3.518   3.440   5.926  0.0399  0.5296  4.0499
 1521SOL    HW216023   3.542   3.559   5.849  0.8665  0.0832  0.0924
 1522SOL     OW16024   0.170   3.345   0.204  0.2648 -0.0669 -0.2916
 1522SOL    HW116025   0.164   3.373   0.113  2.3511  0.3671 -0.2907
 1522SOL    HW216026   0.230   3.271   0.197 -0.8714 -0.7585 -2.7295
 1523SOL     OW16027   1.596   0.195   4.105 -0.3543 -0.1294 -0.4032
 1523SOL    HW116028   1.509   0.177   4.140  0.4879 -2.6787  0.3286
 1523SOL    HW216029   1.598   0.285   4.138 -1.0788  0.2367 -1.3686
 1524SOL     OW16030   3.932   2.036  12.604  0.1573  0.2024  0.5019
 1524SOL    HW116031   3.926   2.111  12.664 -2.3740 -0.2118  0.7469
 1524SOL    HW216032   3.897   1.965  12.658  0.8540  0.2470  1.0147
 1525SOL     OW16033   0.039   3.561   8.614  0.6036  0.6344  0.3798
 1525SOL    HW116034   4.702   3.498   8.649  1.0033 -0.1519 -0.3266
 1525SOL    HW216035   4.709   3.616   8.560  0.9214 -0.8128 -1.4092
 1526SOL     OW16036   1.180   3.825   5.061  0.4377  0.6740 -0.4059
 1526SOL    HW116037   1.269   3.808   5.091 -0.1212 -1.3356  0.1279
 1526SOL    HW216038   1.149   3.906   5.101  0.3027  1.2231 -1.6416
 1527SOL     OW16039   0.255   4.186   5.166  0.1384 -0.0918 -0.1305
 1527SOL    HW116040   0.308   4.156   5.240  0.3209 -2.1438 -1.0765
 1527SOL    HW216041   0.208   4.259   5.205 -3.4955 -1.3557 -2.1213
 1528SOL     OW16042   3.484   0.057   0.645  0.0824 -0.7998  0.1646
 1528SOL    HW116043   3.565   0.020   0.608  1.3473  2.0838  0.1006
 1528SOL    HW216044   3.511   0.148   0.631 -2.3117 -0.3691 -1.6537
 1529SOL     OW16045   4.133   0.446   0.778 -0.0165  0.2907  0.2116
 1529SOL    HW116046   4.102   0.406   0.697  1.3304 -0.3290  0.0179
 1529SOL    HW216047   4.046   0.478   0.803  0.0081  0.0109  0.6548
 1530SOL     OW16048   0.397   4.310  11.049  0.7238  0.5504 -0.3330
 1530SOL    HW116049   0.311   4.270  11.034  1.4758 -0.7912 -1.1136
 1530SOL    HW216050   0.453   4.232  11.053 -0.3290 -0.1044  2.0081
 1531SOL     OW16051   0.805   0.865   1.559  0.7940 -0.1487  0.4537
 1531SOL    HW116052   0.757   0.822   1.488 -0.6654  1.2041  0.6339
 1531SOL    HW216053   0.768   0.953   1.565 -0.3606 -0.5567 -0.7781
 1532SOL     OW16054   3.813   1.737  16.731  0.1904  0.1858 -0.2446
 1532SOL    HW116055   3.867   1.812  16.708 -1.3859  1.7898  1.2800
 1532SOL    HW216056   3.727   1.779  16.730  1.0988  2.0677  1.1636
 1533SOL     OW16057   2.656   2.165   1.930  0.3049  0.1018 -0.6204
 1533SOL    HW116058   2.713   2.162   1.853  0.9178  1.7272 -0.2462
 1533SOL    HW216059   2.705   2.116   1.995 -1.4244  2.2121  2.3301
 1534SOL     OW16060   0.731   0.720   5.493 -0.0143 -0.0981  0.0120
 1534SOL    HW116061   0.678   0.657   5.443 -3.5104  2.7143  0.1364
 1534SOL    HW216062   0.810   0.666   5.485  0.8280  0.9354  1.2829
 1535SOL     OW16063   2.460   4.053   2.985 -0.3531 -0.1073  0.2059
 1535SOL    HW116064   2.550   4.020   2.982 -0.3848 -0.3482  1.8173
 1535SOL    HW216065   2.455   4.070   3.079 -3.7314  0.7952 -0.1439
 1536SOL     OW16066   2.135   3.705   4.596 -0.3496  0.1339 -0.1193
 1536SOL    HW116067   2.100   3.639   4.656  2.0876 -0.3931  0.7172
 1536SOL    HW216068   2.227   3.709   4.624 -1.0921  0.9676  2.2271
 1537SOL     OW16069   3.502   2.969  10.825 -0.3559  0.3478  0.1973
 1537SOL    HW116070   3.452   3.046  10.797 -1.1268  0.1395  1.0161
 1537SOL    HW216071   3.534   2.923  10.747  0.0398  1.2186 -0.1535
 1538SOL     OW16072   2.896   4.249   6.924 -0.1184  0.2985 -0.5395
 1538SOL    HW116073   2.878   4.155   6.933  0.1707  0.4404  1.4378
 1538SOL    HW216074   2.990   4.247   6.940 -0.0276  0.5424 -1.0499
 1539SOL     OW16075   0.728   3.955   5.369  0.2161 -0.1404  0.1507
 1539SOL    HW116076   0.744   3.992   5.456  2.8414 -1.9947  0.4590
 1539SOL    HW216077   0.761   3.865   5.378  0.4410 -0.0739 -0.0200
 1540SOL     OW16078   0.426   1.679  12.420  0.4133 -0.2922  0.1460
 1540SOL    HW116079   0.340   1.717  12.398 -0.8248 -2.8190  0.6741
 1540SOL    HW216080   0.474   1.760  12.404 -3.5298  2.2250  0.7519
 1541SOL     OW16081   0.447   4.650   4.094  0.5595  0.3265  0.4584
 1541SOL    HW116082   0.449   4.582   4.162 -1.2096  1.4808  1.6656
 1541SOL    HW216083   0.542   4.660   4.089  0.7731 -1.0145  1.8539
 1542SOL     OW16084   0.478   3.649   9.570 -0.6826 -0.0133  0.1092
 1542SOL    HW116085   0.486   3.736   9.608 -0.6287  0.5089 -1.1040
 1542SOL    HW216086   0.383   3.656   9.556 -0.4598 -2.3542 -2.5689
 1543SOL     OW16087   0.488   0.182   7.781 -0.1727 -0.0899 -0.0788
 1543SOL    HW116088   0.440   0.100   7.773 -0.2010 -0.0167 -0.6603
 1543SOL    HW216089   0.473   0.229   7.699 -1.4452  1.2202  0.9101
 1544SOL     OW16090   1.476   4.088   5.722  0.1172  0.1253  0.6260
 1544SOL    HW116091   1.395   4.061   5.766 -1.0793  0.1119 -1.5874
 1544SOL    HW216092   1.451   4.180   5.708  2.4898  1.0713  2.6047
 1545SOL     OW16093   2.212   3.345  16.049 -0.3227  0.4397 -0.5515
 1545SOL    HW116094   2.175   3.350  15.960  0.1578 -1.9469 -0.9012
 1545SOL    HW216095   2.304   3.346  16.025 -0.4213  0.1052 -0.9543
 1546SOL     OW16096   1.302   2.993   4.202  0.4088  0.7013  0.1367
 1546SOL    HW116097   1.236   2.985   4.271 -0.0695  1.5477 -0.2229
 1546SOL    HW216098   1.344   3.075   4.229 -0.1434  0.9502  0.2498
 1547SOL     OW16099   2.075   2.761   0.391  0.1823  0.0159  0.7198
 1547SOL    HW116100   2.136   2.768   0.464  1.5098  0.0403 -0.3756
 1547SOL    HW216101   2.090   2.849   0.355 -2.1034 -0.3533 -1.1575
 1548SOL     OW16102   3.241   4.220   2.728  0.5824 -0.9106 -0.2087
 1548SOL    HW116103   3.231   4.127   2.750  0.9220 -1.2613 -1.4983
 1548SOL    HW216104   3.252   4.219   2.633 -1.8504  1.5812 -0.4998
 1549SOL     OW16105   4.245   0.287   8.970  0.3964 -0.6217 -0.4198
 1549SOL    HW116106   4.261   0.200   9.006  2.2476  0.1096  0.5052
 1549SOL    HW216107   4.154   0.313   8.984 -0.3505 -3.3105 -0.3962
 1550SOL     OW16108   3.759   1.674   3.952  0.4409 -0.1364 -0.3157
 1550SOL    HW116109   3.747   1.596   3.899  0.4278 -0.1178 -0.3401
 1550SOL    HW216110   3.806   1.740   3.902 -0.9512 -0.9302 -2.6517
 1551SOL     OW16111   3.439   3.076   5.691 -0.5918 -0.0554 -0.0306
 1551SOL    HW116112   3.472   3.009   5.751  2.3177  0.8570 -0.6110
 1551SOL    HW216113   3.345   3.069   5.710 -0.5431 -0.0656  0.2111
 1552SOL     OW16114   2.938   3.655   5.147  0.1501  0.2050 -0.2144
 1552SOL    HW116115   2.906   3.586   5.205  0.0778  1.7420  1.5451
 1552SOL    HW216116   2.927   3.613   5.061 -4.3098 -0.4415  0.6516
 1553SOL     OW16117   2.789   0.851   8.236  0.0785 -0.3320 -0.6002
 1553SOL    HW116118   2.706   0.863   8.189 -0.7476 -0.0816  0.9143
 1553SOL    HW216119   2.769   0.773   8.289  0.6089 -1.0329 -1.4237
 1554SOL     OW16120   3.355   2.088   3.150  0.4130 -0.0422  0.9465
 1554SOL    HW116121   3.287   2.151   3.126 -0.2398  0.2590  3.5604
 1554SOL    HW216122   3.311   2.012   3.189 -1.0701  0.6757  0.6728
 1555SOL     OW16123   3.471   1.192   3.563 -0.0543  0.3803  0.1600
 1555SOL    HW116124   3.407   1.124   3.579 -0.1401  0.3685 -0.2387
 1555SOL    HW216125   3.532   1.143   3.507  1.2399  0.2166  1.7111
 1556SOL     OW16126   3.713   3.177   7.515  0.1700 -0.1991 -0.5883
 1556SOL    HW116127   3.625   3.174   7.478  0.1387 -1.2652 -0.4345
 1556SOL    HW216128   3.750   3.262   7.490 -0.4727  0.2401 -0.0675
 1557SOL     OW16129   3.948   3.753   7.309 -0.4075 -0.5699 -0.1106
 1557SOL    HW116130   3.947   3.822   7.244  1.2829 -0.6856 -0.2551
 1557SOL    HW216131   3.903   3.681   7.264 -0.1042 -0.6281 -0.3216
 1558SOL     OW16132   4.039   0.186   5.194 -0.6674  0.6260 -0.2445
 1558SOL    HW116133   4.015   0.147   5.110  0.0833 -0.6943  0.1671
 1558SOL    HW216134   4.114   0.134   5.220  0.5331  2.8868  0.8450
 1559SOL     OW16135   4.716   1.884   2.705  0.1612 -0.5546  0.2317
 1559SOL    HW116136   0.009   1.790   2.704  1.3815 -0.3064  1.6242
 1559SOL    HW216137   0.022   1.901   2.617 -0.7057 -0.9919 -0.1804
 1560SOL     OW16138   4.706   1.708   6.475  0.1998 -0.1341 -0.4925
 1560SOL    HW116139   4.615   1.738   6.484 -0.0097 -0.2757 -2.1509
 1560SOL    HW216140   0.003   1.718   6.567  0.7735 -0.7953 -0.5712
 1561SOL     OW16141   3.985   1.044  12.582 -0.1050  0.5235  0.1085
 1561SOL    HW116142   3.902   0.996  12.587  0.5224 -0.4721  1.0354
 1561SOL    HW216143   4.001   1.059  12.489  3.2737  0.8472  0.7614
 1562SOL     OW16144   4.690   4.415   5.804 -0.0719 -0.1120  0.1822
 1562SOL    HW116145   4.672   4.478   5.874  0.8119  1.7221 -1.2562
 1562SOL    HW216146   0.025   4.358   5.850  0.0179  0.2236  0.4795
 1563SOL     OW16147   3.829   4.285   8.851 -0.0381 -0.2710 -0.2906
 1563SOL    HW116148   3.777   4.357   8.814 -0.0563 -0.1928 -0.1132
 1563SOL    HW216149   3.774   4.262   8.926  0.8310  2.3556  1.1607
 1564SOL     OW16150   0.862   0.381   5.999  0.6179 -0.2008 -0.0972
 1564SOL    HW116151   0.840   0.311   6.061 -0.0997 -0.2865 -0.4466
 1564SOL    HW216152   0.891   0.455   6.053  0.2561 -0.1648  0.0446
 1565SOL     OW16153   3.238   4.460   3.541  0.0068  0.2878 -0.4404
 1565SOL    HW116154   3.239   4.532   3.603 -2.0311  1.1427 -1.3930
 1565SOL    HW216155   3.332   4.449   3.530 -0.0009  2.6750 -2.8377
 1566SOL     OW16156   3.441   0.296   2.847 -0.0549 -0.5535  0.3738
 1566SOL    HW116157   3.405   0.370   2.798  0.5779 -0.8365 -0.5217
 1566SOL    HW216158   3.415   0.323   2.935 -0.1465 -0.7492  0.4048
 1567SOL     OW16159   4.407   0.351  13.400  0.2005 -0.4063 -0.7023
 1567SOL    HW116160   4.449   0.266  13.396 -0.6967 -1.0073  2.2222
 1567SOL    HW216161   4.426   0.366  13.493  0.6867 -0.5481 -0.7817
 1568SOL     OW16162   3.954   2.143   4.757  0.8353 -0.2945 -0.1232
 1568SOL    HW116163   3.888   2.183   4.700  1.3632  0.8863  0.0961
 1568SOL    HW216164   4.033   2.185   4.723 -0.0712  1.7359  0.3162
 1569SOL     OW16165   3.338   3.147   7.931 -0.0546  0.1973  0.3659
 1569SOL    HW116166   3.403   3.213   7.907 -0.3803  0.5921  0.5728
 1569SOL    HW216167   3.369   3.135   8.020  1.2289  2.1159  0.1953
 1570SOL     OW16168   3.049   0.815  12.631  0.2208  0.1994  0.0500
 1570SOL    HW116169   3.118   0.748  12.626  1.5448  1.8764 -4.7994
 1570SOL    HW216170   3.095   0.888  12.672  2.0006 -0.7539 -0.2634
 1571SOL     OW16171   1.858   0.631  10.626  0.2894  0.2181  0.2881
 1571SOL    HW116172   1.914   0.576  10.571  0.7557 -1.1365  2.1526
 1571SOL    HW216173   1.770   0.595  10.615  0.9792 -1.7193  1.2098
 1572SOL     OW16174   3.825   3.816   7.822 -0.2029 -0.0561  0.0650
 1572SOL    HW116175   3.825   3.728   7.859 -0.3818 -0.9504 -2.0566
 1572SOL    HW216176   3.770   3.868   7.880 -0.4420  0.4751 -0.6241
 1573SOL     OW16177   0.642   0.063  17.240 -0.2011 -0.4731 -0.2955
 1573SOL    HW116178   0.731   0.033  17.219  0.8257  1.5050  1.2637
 1573SOL    HW216179   0.627   0.127  17.170  0.6489 -0.8049 -0.7884
 1574SOL     OW16180   2.661   2.108   2.243 -0.7288 -0.0280  0.1043
 1574SOL    HW116181   2.657   2.014   2.263 -2.0960  0.1487  0.6239
 1574SOL    HW216182   2.753   2.119   2.219 -0.5616 -0.3198  0.6188
 1575SOL     OW16183   1.741   1.856   5.438 -0.8248  0.4462  0.4276
 1575SOL    HW116184   1.715   1.764   5.438  2.1324 -0.3776  0.9367
 1575SOL    HW216185   1.816   1.854   5.497  0.0940  0.8193 -0.7235
 1576SOL     OW16186   4.488   0.774   3.724 -0.6458  0.0713 -0.2352
 1576SOL    HW116187   4.577   0.755   3.756 -0.6086 -1.8658 -1.4949
 1576SOL    HW216188   4.454   0.827   3.796  0.8706 -0.6547  1.0367
 1577SOL     OW16189   2.919   2.489  17.591 -0.2923 -0.1616  0.5990
 1577SOL    HW116190   2.851   2.513  17.528  0.4028 -0.3518 -0.2227
 1577SOL    HW216191   2.920   2.569  17.643  1.8094 -0.2828  0.7493
 1578SOL     OW16192   1.744   4.281   4.106  0.5795 -0.4039  0.4628
 1578SOL    HW116193   1.791   4.364   4.096 -0.1836  0.0554  0.6290
 1578SOL    HW216194   1.691   4.302   4.183 -0.9761 -2.7301  0.0189
 1579SOL     OW16195   0.312   2.188  13.730 -0.1712 -0.3004 -0.0659
 1579SOL    HW116196   0.239   2.146  13.776  0.4331  0.4290  1.5502
 1579SOL    HW216197   0.293   2.281  13.727 -2.7773 -0.9234 -2.2309
 1580SOL     OW16198   1.031   4.408   1.431  0.2218  0.1257  0.3880
 1580SOL    HW116199   1.015   4.459   1.511  1.5507  0.3018  0.5484
 1580SOL    HW216200   0.960   4.344   1.434  0.0735  0.2291 -1.0245
 1581SOL     OW16201   0.664   4.627   6.533  0.6675 -0.4078 -0.0904
 1581SOL    HW116202   0.686   4.662   6.619  0.1483 -1.6592  0.5533
 1581SOL    HW216203   0.720   4.550   6.537  0.7514 -0.1638  3.2711
 1582SOL     OW16204   3.789   2.814   0.025 -0.0399 -0.0815  0.0294
 1582SOL    HW116205   3.831   2.874  17.669  2.1000 -0.7193  0.8879
 1582SOL    HW216206   3.717   2.783  17.674  1.0913  1.3499 -2.1764
 1583SOL     OW16207   3.620   2.915   5.864  0.3603  0.3689 -0.1132
 1583SOL    HW116208   3.615   2.942   5.956  0.6833 -1.2750  0.3910
 1583SOL    HW216209   3.708   2.930   5.830  0.3194  0.3300 -0.2353
 1584SOL     OW16210   0.952   2.493   7.809  0.0130 -0.3310 -0.0898
 1584SOL    HW116211   0.914   2.405   7.808 -0.4942 -0.1209  1.0143
 1584SOL    HW216212   1.014   2.496   7.736  1.3495  0.1207  1.0686
 1585SOL     OW16213   4.411   1.560   2.635 -0.2765 -0.4557 -0.4319
 1585SOL    HW116214   4.488   1.516   2.598  0.7919  0.0714  1.1681
 1585SOL    HW216215   4.408   1.643   2.587  1.8591  0.0976  0.4041
 1586SOL     OW16216   1.306   2.820  15.240 -0.0551  0.0475 -0.2012
 1586SOL    HW116217   1.352   2.896  15.204 -2.1588  1.2611 -0.3317
 1586SOL    HW216218   1.214   2.847  15.247 -0.1816 -0.6174  0.6860
 1587SOL     OW16219   0.968   0.675  14.840 -0.2146 -0.1997  0.0570
 1587SOL    HW116220   1.025   0.606  14.873 -1.3614 -0.9977  0.3803
 1587SOL    HW216221   0.896   0.631  14.886 -0.0882 -1.6387 -1.1107
 1588SOL     OW16222   0.091   4.443   8.473  0.2612 -0.4088 -0.8345
 1588SOL    HW116223   0.150   4.370   8.453  1.3873  0.4315 -0.5437
 1588SOL    HW216224   0.112   4.509   8.407  1.6545  1.4644  1.5208
 1589SOL     OW16225   0.331   3.116   1.613  0.5033  0.1405  0.4691
 1589SOL    HW116226   0.308   3.158   1.530 -2.2164 -1.4650  0.4005
 1589SOL    HW216227   0.304   3.024   1.603  2.4088 -0.2349 -1.2125
 1590SOL     OW16228   3.585   0.348   3.596  0.3993 -0.7447 -0.3252
 1590SOL    HW116229   3.507   0.293   3.604 -0.0230  0.1140  1.5006
 1590SOL    HW216230   3.645   0.302   3.655 -0.0152 -0.2980  0.4498
 1591SOL     OW16231   1.984   1.376   5.710 -0.0397 -0.4016  0.8358
 1591SOL    HW116232   2.047   1.381   5.639 -0.5269  3.0372  0.6438
 1591SOL    HW216233   1.900   1.396   5.669  0.3911  0.4691  0.3853
 1592SOL     OW16234   0.625   2.662   2.072 -0.0763 -0.0689  0.0222
 1592SOL    HW116235   0.655   2.723   2.140 -3.9932  1.1671  0.6448
 1592SOL    HW216236   0.552   2.616   2.114  0.4098 -1.4651 -0.6752
 1593SOL     OW16237   4.351   2.130   4.654 -0.0978  0.0540 -0.3267
 1593SOL    HW116238   4.297   2.051   4.658  1.0665 -0.8672 -2.8781
 1593SOL    HW216239   4.351   2.149   4.560 -0.5997 -0.3465 -0.4094
 1594SOL     OW16240   4.121   1.364   5.009  0.0591  0.1698  0.1050
 1594SOL    HW116241   4.105   1.270   5.020 -0.3491  0.2519  0.2120
 1594SOL    HW216242   4.155   1.374   5.098  0.3207 -0.0763  0.0347
 1595SOL     OW16243   2.852   4.537   3.449  0.2622 -0.4165 -0.2470
 1595SOL    HW116244   2.815   4.519   3.536  0.0506 -1.3490 -0.5326
 1595SOL    HW216245   2.778   4.551   3.390  0.1098 -0.9982 -0.1947
 1596SOL     OW16246   3.729   3.002   7.189 -0.1955  0.1125 -0.3316
 1596SOL    HW116247   3.704   2.942   7.258 -0.9673 -0.0079 -0.7154
 1596SOL    HW216248   3.759   2.942   7.121  0.0129 -0.7334  0.5113
 1597SOL     OW16249   0.868   3.872  14.669  0.2966 -0.5694  0.2382
 1597SOL    HW116250   0.809   3.850  14.597 -0.1634  0.4157  0.3188
 1597SOL    HW216251   0.873   3.967  14.661  3.2648 -0.6873  0.4685
 1598SOL     OW16252   3.282   4.464   2.997 -0.3116  0.1256 -0.6472
 1598SOL    HW116253   3.191   4.495   3.001 -0.2337  0.1535  0.8567
 1598SOL    HW216254   3.284   4.414   3.078 -0.9444 -1.3527 -1.5396
 1599SOL     OW16255   1.929   0.442   7.829  0.6812  0.1971 -0.3997
 1599SOL    HW116256   1.928   0.410   7.738  2.8373 -0.2003 -0.2919
 1599SOL    HW216257   1.841   0.479   7.838  1.2876  1.4251  0.3399
 1600SOL     OW16258   2.237   4.706  15.910  0.3169 -0.3985  0.2237
 1600SOL    HW116259   2.161   4.698  15.967  0.8534  0.7981  1.0916
 1600SOL    HW216260   2.190   4.711  15.826  1.8922 -0.0754 -0.6445
 1601SOL     OW16261   0.533   2.189   7.287  0.2535  0.2298  0.1745
 1601SOL    HW116262   0.594   2.117   7.302  1.2903  1.6443  2.7750
 1601SOL    HW216263   0.567   2.260   7.341  2.0219 -0.0938 -0.5292
 1602SOL     OW16264   0.470   1.350  14.194  0.5326  0.4398  0.3693
 1602SOL    HW116265   0.501   1.422  14.139 -2.1323  2.1138  1.0884
 1602SOL    HW216266   0.461   1.382  14.283  0.1187 -1.4827  1.0066
 1603SOL     OW16267   1.898   2.441   5.547 -0.4389  0.5784  0.5897
 1603SOL    HW116268   1.959   2.399   5.486 -0.4987  0.2985  0.7222
 1603SOL    HW216269   1.880   2.372   5.611 -0.4463  1.0536  1.0970
 1604SOL     OW16270   4.407   2.992  10.339  0.1703  0.1098  0.5325
 1604SOL    HW116271   4.357   2.921  10.379  0.5262 -0.7612 -0.5817
 1604SOL    HW216272   4.467   3.012  10.411  0.1805  1.8597  0.0617
 1605SOL     OW16273   0.203   1.643  16.923 -0.0804  0.8356 -0.7595
 1605SOL    HW116274   0.134   1.705  16.900 -0.9114  0.5240  0.8622
 1605SOL    HW216275   0.224   1.602  16.839  1.7714 -0.9406  0.5646
 1606SOL     OW16276   3.637   3.689   8.552  0.0772 -0.0638  0.7662
 1606SOL    HW116277   3.660   3.666   8.642  1.7236  1.2811  0.7002
 1606SOL    HW216278   3.658   3.782   8.546  0.4452 -0.0251  2.6481
 1607SOL     OW16279   0.560   1.663   5.385 -0.2635 -0.7070 -0.0805
 1607SOL    HW116280   0.601   1.674   5.471  2.1399  3.9816 -1.7647
 1607SOL    HW216281   0.505   1.741   5.380 -2.0299 -1.8787  1.2712
 1608SOL     OW16282   2.118   2.977  13.397  0.0784 -0.0125 -0.4588
 1608SOL    HW116283   2.129   2.931  13.314  1.8226  0.5016 -0.5068
 1608SOL    HW216284   2.127   2.904  13.459  3.3493 -0.1449 -1.1192
 1609SOL     OW16285   1.346   3.495   8.109 -0.0594  0.0864  0.0087
 1609SOL    HW116286   1.301   3.497   8.194  0.5770 -0.1980  0.3499
 1609SOL    HW216287   1.433   3.516   8.142 -0.3591  0.0525  0.8305
 1610SOL     OW16288   4.693   2.182   4.704 -0.6281 -0.0593  0.5196
 1610SOL    HW116289   4.675   2.112   4.641 -0.8446 -0.4909  1.0509
 1610SOL    HW216290   4.620   2.155   4.761  0.2395  1.2502  2.2544
 1611SOL     OW16291   1.402   3.878  11.925  0.9782  0.3818 -0.1151
 1611SOL    HW116292   1.450   3.908  12.002  2.1906 -2.3060  0.2027
 1611SOL    HW216293   1.361   3.798  11.959  1.6998  0.2048  0.3546
 1612SOL     OW16294   3.014   4.445   2.714  0.0472 -0.2921  0.0090
 1612SOL    HW116295   3.034   4.355   2.690  1.6419 -0.2549  1.2590
 1612SOL    HW216296   3.039   4.440   2.806 -0.1854  0.6015  0.1253
 1613SOL     OW16297   2.466   1.767  12.316 -0.3018 -0.1213  0.0845
 1613SOL    HW116298   2.419   1.757  12.234  2.7096  1.6239 -1.8767
 1613SOL    HW216299   2.392   1.759  12.375  1.2885 -1.9829  1.8202
 1614SOL     OW16300   3.661   0.067   9.074  0.0212  0.0720  0.0002
 1614SOL    HW116301   3.646   0.160   9.056  0.5315  0.1780  0.1244
 1614SOL    HW216302   3.575   0.027   9.090 -0.9185  1.1746 -2.2906
 1615SOL     OW16303   0.698   0.023   4.854 -0.3280  0.5422  0.0527
 1615SOL    HW116304   0.692   0.053   4.763 -1.0038  1.5268  0.4224
 1615SOL    HW216305   0.606   0.035   4.875 -0.7782 -3.2264  0.1633
 1616SOL     OW16306   0.150   0.174   8.253  0.0769  0.7146 -0.2936
 1616SOL    HW116307   0.123   0.106   8.315 -4.0808  2.2077 -0.4527
 1616SOL    HW216308   0.237   0.143   8.229 -1.3741 -1.8685 -2.2003
 1617SOL     OW16309   3.308   3.197  13.400  0.1793 -0.3383  0.0210
 1617SOL    HW116310   3.353   3.228  13.478 -1.8581 -0.6631  1.3372
 1617SOL    HW216311   3.384   3.167  13.350  1.1543 -1.0604  1.9163
 1618SOL     OW16312   2.625   0.576   9.593  0.4006  0.1704  0.1740
 1618SOL    HW116313   2.683   0.558   9.667  0.0796 -0.1422  0.3550
 1618SOL    HW216314   2.638   0.670   9.586  0.3349  0.1439 -0.2646
 1619SOL     OW16315   1.651   4.485  11.482 -0.4892 -0.0698 -0.2720
 1619SOL    HW116316   1.652   4.433  11.562 -3.7088 -1.0407 -0.8397
 1619SOL    HW216317   1.666   4.571  11.521 -2.9889  0.0721  0.4124
 1620SOL     OW16318   0.981   3.356   6.259  0.2233  0.3772  0.2013
 1620SOL    HW116319   0.989   3.345   6.354 -0.8627  2.0566  0.4837
 1620SOL    HW216320   0.965   3.266   6.232 -0.2329  0.7160 -0.6668
 1621SOL     OW16321   3.761   2.600   7.776  0.1464 -0.1180 -0.0424
 1621SOL    HW116322   3.766   2.653   7.855 -0.7507 -2.4070  1.5551
 1621SOL    HW216323   3.788   2.665   7.711  0.3137 -1.0598 -0.9241
 1622SOL     OW16324   2.501   3.545   9.978  0.2942  0.2308 -0.0611
 1622SOL    HW116325   2.566   3.614   9.993  3.1237 -1.8703 -2.5250
 1622SOL    HW216326   2.417   3.590   9.986 -0.1173 -0.4330 -0.6094
 1623SOL     OW16327   1.521   4.295   8.781  0.0019 -0.0018  0.0844
 1623SOL    HW116328   1.571   4.374   8.800  1.2979 -0.7588 -0.1760
 1623SOL    HW216329   1.524   4.259   8.870  2.2073 -1.0794 -0.4190
 1624SOL     OW16330   1.166   0.736   6.578 -0.5968  0.1248  0.0612
 1624SOL    HW116331   1.211   0.801   6.631  0.7447 -0.3211 -0.5211
 1624SOL    HW216332   1.166   0.655   6.629 -0.1107 -1.2320 -2.0737
 1625SOL     OW16333   3.438   0.190   5.704  0.0811  0.0991  0.1523
 1625SOL    HW116334   3.524   0.226   5.728  0.0000 -0.0140  0.6029
 1625SOL    HW216335   3.427   0.215   5.612 -1.2630 -2.7606 -0.4611
 1626SOL     OW16336   0.668   1.354   4.016  0.8141 -0.0255 -0.2060
 1626SOL    HW116337   0.701   1.278   3.968  0.4511 -0.1946 -0.1874
 1626SOL    HW216338   0.626   1.404   3.946  1.3868  0.5221 -0.1583
 1627SOL     OW16339   0.406   3.899   4.286 -0.3407 -0.0883 -0.2727
 1627SOL    HW116340   0.453   3.957   4.227 -0.8787  0.1095 -0.5055
 1627SOL    HW216341   0.317   3.916   4.253 -1.5903 -0.9370  2.6643
 1628SOL     OW16342   2.595   1.581   1.002 -0.1617 -0.0038  0.2131
 1628SOL    HW116343   2.675   1.617   1.039 -0.2376  0.3015  0.0847
 1628SOL    HW216344   2.546   1.562   1.082  0.0227  1.1146  0.5958
 1629SOL     OW16345   4.210   0.567   6.647 -0.2295  0.0257  0.2994
 1629SOL    HW116346   4.302   0.587   6.631 -0.1527 -0.3746  0.2434
 1629SOL    HW216347   4.196   0.587   6.740 -2.0426  0.8526 -0.1620
 1630SOL     OW16348   4.722   3.170  10.607  0.5918 -0.1350  0.1598
 1630SOL    HW116349   4.691   3.259  10.626  0.8994 -0.5259  2.5459
 1630SOL    HW216350   0.026   3.140  10.693  0.7247  1.2147  0.6003
 1631SOL     OW16351   2.458   1.012   6.478 -0.2702 -0.4923  0.1228
 1631SOL    HW116352   2.398   0.941   6.504  0.4658 -0.0630  2.9992
 1631SOL    HW216353   2.482   1.039   6.567  0.2920  0.3128 -0.2761
 1632SOL     OW16354   2.425   2.636   4.125 -0.3464  0.1732  0.1220
 1632SOL    HW116355   2.347   2.632   4.070 -1.2737  0.1673  1.4326
 1632SOL    HW216356   2.459   2.549   4.104 -1.4863 -0.1824 -0.2854
 1633SOL     OW16357   3.695   0.494   3.956 -0.0499 -0.1453 -0.4502
 1633SOL    HW116358   3.760   0.470   3.890  1.3839  0.7718  0.6478
 1633SOL    HW216359   3.645   0.414   3.974 -0.1405 -0.1043 -0.5176
 1634SOL     OW16360   3.236   0.942   2.248 -0.6808  0.2388  0.3300
 1634SOL    HW116361   3.182   1.012   2.214  1.0220  0.1478 -2.5356
 1634SOL    HW216362   3.202   0.930   2.337  1.3886  1.0796  1.2453
 1635SOL     OW16363   4.489   1.544  14.112 -0.4346  0.3507 -0.1631
 1635SOL    HW116364   4.523   1.457  14.134  0.7690  0.6942 -0.6785
 1635SOL    HW216365   4.444   1.525  14.030  0.4154 -0.1486 -0.5201
 1636SOL     OW16366   1.136   0.071   4.723  0.1539  0.3500 -0.1664
 1636SOL    HW116367   1.124   0.149   4.668 -0.8734  1.2554  1.3358
 1636SOL    HW216368   1.231   0.071   4.733  0.0709  2.9320  0.5858
 1637SOL     OW16369   0.479   3.748   3.130 -0.8186  0.0607 -0.2115
 1637SOL    HW116370   0.463   3.743   3.224 -0.7029 -0.3158 -0.2114
 1637SOL    HW216371   0.419   3.677   3.105 -0.5486  0.2559 -1.3809
 1638SOL     OW16372   1.055   1.862  10.305  0.6831 -0.2651 -0.0729
 1638SOL    HW116373   0.996   1.892  10.375  0.8738 -0.7492  0.2916
 1638SOL    HW216374   1.079   1.773  10.329 -0.3340 -0.2824  0.8521
 1639SOL     OW16375   0.113   4.603   2.487 -0.2297  0.6295  0.2749
 1639SOL    HW116376   0.114   4.519   2.441  0.4570 -0.2570  1.8925
 1639SOL    HW216377   0.053   4.579   2.558  2.0108  2.7666  2.8930
 1640SOL     OW16378   0.984   3.207   7.838 -0.1128  0.1094  0.3356
 1640SOL    HW116379   0.976   3.295   7.803  0.3829  0.6972  1.6747
 1640SOL    HW216380   0.898   3.163   7.837 -0.7180  1.2972  0.1074
 1641SOL     OW16381   1.054   4.704  12.627  0.7615  0.0406  0.2529
 1641SOL    HW116382   1.134   4.705  12.679  0.8321 -1.0258  0.1557
 1641SOL    HW216383   1.086   0.001  12.540 -0.9757 -0.0153 -0.3943
 1642SOL     OW16384   3.374   0.840   8.400  0.0634 -0.0626  0.1801
 1642SOL    HW116385   3.448   0.900   8.409 -0.1634  0.2645 -0.1413
 1642SOL    HW216386   3.376   0.798   8.486  1.5933 -0.0921  0.1285
 1643SOL     OW16387   3.749   0.170   5.987  0.1776  0.3070 -0.3610
 1643SOL    HW116388   3.836   0.143   5.958 -0.1044 -2.6350  1.5106
 1643SOL    HW216389   3.710   0.180   5.901  0.0859  0.4027 -0.3083
 1644SOL     OW16390   1.937   1.569  10.252  0.5631 -0.3732  0.3232
 1644SOL    HW116391   1.946   1.486  10.205 -1.4622 -0.2219 -0.3394
 1644SOL    HW216392   1.864   1.545  10.310  0.2067 -1.4380 -0.5582
 1645SOL     OW16393   4.488   4.075   0.197 -0.5341 -0.6708  0.3468
 1645SOL    HW116394   4.543   4.049   0.123  1.5972  1.2603  1.2356
 1645SOL    HW216395   4.447   3.990   0.211 -1.3102 -0.0113  2.0472
 1646SOL     OW16396   2.141   0.204   6.925 -0.1561 -0.4284  0.0883
 1646SOL    HW116397   2.060   0.244   6.894  0.4156  2.0854  1.8389
 1646SOL    HW216398   2.177   0.170   6.843 -0.0493  0.6214 -0.3036
 1647SOL     OW16399   1.364   1.531   5.455  0.4860 -0.1907 -0.3653
 1647SOL    HW116400   1.419   1.503   5.382  0.2975 -0.5516 -0.3704
 1647SOL    HW216401   1.387   1.474   5.529  3.5626  0.5250 -0.8010
 1648SOL     OW16402   3.183   1.501  13.453 -0.1339 -0.4011  0.2448
 1648SOL    HW116403   3.111   1.517  13.391 -0.3882 -2.5066  0.0017
 1648SOL    HW216404   3.229   1.583  13.472 -0.2313 -0.0922 -0.8517
 1649SOL     OW16405   0.120   3.607  15.529 -0.1301 -0.6523 -0.1011
 1649SOL    HW116406   0.134   3.605  15.624  0.6603  0.1333 -0.2051
 1649SOL    HW216407   0.035   3.649  15.522  0.3728  0.3455 -0.1786
 1650SOL     OW16408   4.491   4.318   3.704 -0.1455  0.6316 -0.5019
 1650SOL    HW116409   4.559   4.282   3.761 -0.5515 -0.0656 -0.4576
 1650SOL    HW216410   4.459   4.392   3.755 -0.1060  0.2607  0.0643
 1651SOL     OW16411   3.184   0.165   7.692 -0.0385 -0.1662 -0.0754
 1651SOL    HW116412   3.216   0.201   7.774 -0.7438  2.3748 -0.9153
 1651SOL    HW216413   3.090   0.184   7.686  0.5695  1.9886 -2.9259
 1652SOL     OW16414   1.555   2.849   4.915  0.4460  0.4931 -0.1972
 1652SOL    HW116415   1.541   2.825   4.824  2.6800  1.3515 -0.7781
 1652SOL    HW216416   1.481   2.808   4.959  0.5142 -2.3718 -2.8028
 1653SOL     OW16417   4.058   4.133   4.574  0.0643  0.7713 -0.5330
 1653SOL    HW116418   4.045   4.217   4.620  1.2270  0.4617  0.3695
 1653SOL    HW216419   4.141   4.098   4.606 -0.7808  0.4559  1.2934
 1654SOL     OW16420   2.787   0.478   2.129 -0.1224  0.2792 -0.6448
 1654SOL    HW116421   2.790   0.499   2.036 -0.3043  0.8012 -0.5306
 1654SOL    HW216422   2.828   0.556   2.165  0.8673 -0.7136  0.4105
 1655SOL     OW16423   3.869   0.078   4.721 -0.4619 -0.6626  0.1115
 1655SOL    HW116424   3.806   0.012   4.751 -0.1798 -1.0146 -0.0582
 1655SOL    HW216425   3.820   0.159   4.732 -3.0678 -2.0674 -0.9533
 1656SOL     OW16426   0.201   2.309   3.709 -0.3492 -0.5559 -0.2759
 1656SOL    HW116427   0.281   2.329   3.660 -0.7724 -0.1663 -0.8042
 1656SOL    HW216428   0.160   2.244   3.652 -0.6663 -1.9938  1.5947
 1657SOL     OW16429   1.080   0.459   2.088 -0.1830 -0.5578 -0.1162
 1657SOL    HW116430   0.990   0.479   2.113  0.7960  1.7940  1.6106
 1657SOL    HW216431   1.121   0.545   2.103  1.0493 -1.1867  0.1304
 1658SOL     OW16432   4.562   2.313  11.684 -0.9573 -0.0574  0.0346
 1658SOL    HW116433   4.508   2.288  11.760  0.8030 -0.1280  1.2519
 1658SOL    HW216434   4.489   2.327  11.623 -0.3222 -1.7769 -1.1276
 1659SOL     OW16435   4.532   0.509   7.155  0.0949 -0.5124  0.2647
 1659SOL    HW116436   4.493   0.449   7.220  1.6198 -0.8310  0.8945
 1659SOL    HW216437   4.617   0.469   7.138 -0.2278 -0.6029 -1.1243
 1660SOL     OW16438   4.113   2.982  11.060  0.0691  0.3139 -0.3141
 1660SOL    HW116439   4.121   2.946  11.148 -0.5891  2.0211  0.4420
 1660SOL    HW216440   4.192   2.940  11.025  1.4435 -0.1031  3.2364
 1661SOL     OW16441   0.460   3.641  10.242  0.5245 -0.0281 -0.0735
 1661SOL    HW116442   0.425   3.683  10.321 -2.5549 -2.2580 -0.2576
 1661SOL    HW216443   0.402   3.566  10.234  2.9016 -1.9530  0.7405
 1662SOL     OW16444   4.063   1.734   8.587 -0.1918 -0.5394  0.3022
 1662SOL    HW116445   4.092   1.792   8.658  0.6346 -0.1623 -0.3383
 1662SOL    HW216446   4.077   1.799   8.518  0.1811 -1.9130 -0.9111
 1663SOL     OW16447   2.929   3.988   4.984 -0.1310  0.7689 -0.3698
 1663SOL    HW116448   2.871   3.980   4.908  0.1422  0.5931 -0.5595
 1663SOL    HW216449   3.014   4.010   4.946  0.6323 -0.0457  0.8648
 1664SOL     OW16450   0.592   0.436   2.770 -0.3314 -0.0591 -0.4531
 1664SOL    HW116451   0.586   0.363   2.832 -1.5292  2.0217  1.9051
 1664SOL    HW216452   0.514   0.482   2.802  0.8480  0.4985  1.6191
 1665SOL     OW16453   3.854   0.551   0.813 -0.1607 -0.1453  0.4230
 1665SOL    HW116454   3.882   0.623   0.869 -0.4447  0.7357 -0.5703
 1665SOL    HW216455   3.795   0.597   0.753  1.8405 -0.0961 -1.5129
 1666SOL     OW16456   4.619   3.034   5.577  0.6238 -0.3328 -0.1659
 1666SOL    HW116457   4.674   2.956   5.580 -0.2186 -0.9846 -1.9535
 1666SOL    HW216458   4.599   3.031   5.483 -1.0169  1.0362  0.1370
 1667SOL     OW16459   2.402   2.112   2.058 -0.2595  0.0120 -0.0315
 1667SOL    HW116460   2.335   2.152   2.002  0.6119 -0.3187 -1.2941
 1667SOL    HW216461   2.478   2.146   2.013  0.6619  0.7797  2.0853
 1668SOL     OW16462   3.864   3.482   1.665 -0.0073  0.0626  0.0046
 1668SOL    HW116463   3.907   3.530   1.736  0.7639  1.2008 -1.2194
 1668SOL    HW216464   3.782   3.531   1.665  0.0439  0.1551 -3.0806
 1669SOL     OW16465   4.266   4.031   6.285  0.0774  0.2038  0.2718
 1669SOL    HW116466   4.342   3.973   6.288 -1.3488 -1.6839  0.2106
 1669SOL    HW216467   4.309   4.109   6.252  0.5912 -0.7402 -1.2757
 1670SOL     OW16468   0.397   0.284   4.898  0.1093 -0.2124 -0.0853
 1670SOL    HW116469   0.359   0.370   4.885  1.6369  0.6398  1.1177
 1670SOL    HW216470   0.467   0.286   4.833  0.5164 -2.0202  0.2876
 1671SOL     OW16471   1.082   4.397   4.353  0.2808 -0.4969 -0.1684
 1671SOL    HW116472   1.104   4.430   4.440 -0.9291 -1.4345  0.4913
 1671SOL    HW216473   1.167   4.383   4.310  1.1305  1.4543  0.8918
 1672SOL     OW16474   0.050   4.379  10.577  0.6348  0.1736 -0.0101
 1672SOL    HW116475   0.060   4.390  10.483 -1.6383 -0.1480 -0.2713
 1672SOL    HW216476   0.031   4.472  10.589 -2.2899 -0.3456 -0.6771
 1673SOL     OW16477   1.424   0.887   7.128  0.1767  0.8408 -0.4289
 1673SOL    HW116478   1.497   0.948   7.129 -0.6406  1.8149 -0.2323
 1673SOL    HW216479   1.450   0.825   7.059 -0.5397 -0.8769  0.8272
 1674SOL     OW16480   1.613   1.776   7.285  0.0017 -0.3155 -0.5062
 1674SOL    HW116481   1.632   1.718   7.359 -0.8242  0.1174  0.0377
 1674SOL    HW216482   1.596   1.716   7.212  1.1123 -2.1991  0.7801
 1675SOL     OW16483   4.647   3.778   0.180  0.1236  0.4738  0.3152
 1675SOL    HW116484   4.698   3.759   0.102 -1.1270  0.8088 -0.5872
 1675SOL    HW216485   4.558   3.747   0.167  0.8151 -1.2562 -0.2440
 1676SOL     OW16486   0.443   2.533   5.661  0.3353  0.2329  0.1729
 1676SOL    HW116487   0.426   2.449   5.619 -0.8212 -0.1985  1.4947
 1676SOL    HW216488   0.519   2.512   5.715  0.1675 -1.5598 -0.3074
 1677SOL     OW16489   0.852   0.354   4.424  0.3047 -0.8382 -0.0200
 1677SOL    HW116490   0.791   0.420   4.458 -1.5586 -1.5892 -1.8327
 1677SOL    HW216491   0.793   0.296   4.375  0.6606 -0.3664 -0.9980
 1678SOL     OW16492   0.915   1.224  12.217  0.1161  0.1966 -0.0101
 1678SOL    HW116493   0.958   1.176  12.146  0.0582  0.7216 -0.4004
 1678SOL    HW216494   0.838   1.248  12.165  1.7473  2.1923 -1.4988
 1679SOL     OW16495   1.031   4.268   3.579  0.1463  0.0971  0.2384
 1679SOL    HW116496   1.080   4.213   3.519 -0.2835  0.6264 -0.5978
 1679SOL    HW216497   1.100   4.320   3.620 -1.4896 -0.1136  3.2717
 1680SOL     OW16498   1.241   2.621  11.590  0.2286  0.5692  0.4895
 1680SOL    HW116499   1.187   2.693  11.557 -1.8717 -1.5872 -0.8010
 1680SOL    HW216500   1.310   2.672  11.632  0.0127  0.9002  0.4499
 1681SOL     OW16501   2.362   3.479   5.329  0.3783 -0.0482 -0.2493
 1681SOL    HW116502   2.279   3.447   5.292  0.5764 -0.2291 -0.5391
 1681SOL    HW216503   2.379   3.562   5.285  0.1465 -1.0161 -2.1891
 1682SOL     OW16504   0.187   0.161  16.304  0.3256  0.3779  0.1665
 1682SOL    HW116505   0.269   0.179  16.349  0.3089  1.3191 -0.1816
 1682SOL    HW216506   0.175   0.067  16.322  3.3897 -0.6847 -3.1369
 1683SOL     OW16507   3.479   3.040   3.497 -0.0470  0.4540 -0.5698
 1683SOL    HW116508   3.545   2.979   3.532  0.2819  0.5774 -0.9762
 1683SOL    HW216509   3.515   3.118   3.538  2.2342 -0.7475 -0.2915
 1684SOL     OW16510   4.590   3.345  10.317 -0.0201  0.6985  0.1347
 1684SOL    HW116511   4.561   3.434  10.337  0.4895  0.1978  3.2241
 1684SOL    HW216512   4.566   3.301  10.399  0.1765 -0.0922 -0.2333
 1685SOL     OW16513   2.205   2.384  13.253  0.1266 -0.0205  0.0696
 1685SOL    HW116514   2.250   2.399  13.170 -0.5275 -3.0861 -0.8185
 1685SOL    HW216515   2.129   2.439  13.237 -1.6146 -2.3706  0.2932
 1686SOL     OW16516   3.373   1.479   2.237 -0.0640 -0.0641 -0.1805
 1686SOL    HW116517   3.417   1.428   2.305 -0.7731  2.1860  1.9759
 1686SOL    HW216518   3.408   1.568   2.250  2.1775 -0.8637 -0.6722
 1687SOL     OW16519   0.898   0.063   5.822 -0.6949 -0.1225  0.4036
 1687SOL    HW116520   0.849   0.139   5.852 -1.3127 -0.3750  0.0439
 1687SOL    HW216521   0.825   0.001   5.812  1.7914 -2.6012 -2.2199
 1688SOL     OW16522   2.703   0.022  10.492 -0.8028 -0.0248 -0.1249
 1688SOL    HW116523   2.784   0.068  10.470 -0.3269 -0.3690  0.8932
 1688SOL    HW216524   2.669   0.007  10.404 -1.7751  0.9019  0.0929
 1689SOL     OW16525   4.562   3.521   4.179 -0.8807  0.5444 -0.6897
 1689SOL    HW116526   4.572   3.498   4.086 -0.8529  1.0315 -0.8069
 1689SOL    HW216527   4.504   3.597   4.171 -2.6569 -1.1806 -4.2666
 1690SOL     OW16528   4.646   1.635   0.718  0.0424 -0.0837 -0.3957
 1690SOL    HW116529   4.692   1.718   0.734 -0.8567  0.5379 -1.0308
 1690SOL    HW216530   4.556   1.657   0.695 -0.3178  0.6712  1.7427
 1691SOL     OW16531   1.129   0.654  10.918  0.4888 -0.2180 -0.4520
 1691SOL    HW116532   1.037   0.670  10.898  0.0600 -0.2808  1.4683
 1691SOL    HW216533   1.169   0.654  10.831  1.9539 -0.1394  0.2062
 1692SOL     OW16534   4.350   4.001   7.627 -0.3075  0.6564 -0.2936
 1692SOL    HW116535   4.431   3.969   7.589 -0.9465 -2.2573  0.8501
 1692SOL    HW216536   4.329   3.934   7.691 -0.2969 -0.8842 -1.8967
 1693SOL     OW16537   0.469   3.265   7.163  0.1200  0.2738  0.3538
 1693SOL    HW116538   0.417   3.304   7.093 -0.5209  0.4190  0.9121
 1693SOL    HW216539   0.460   3.324   7.237 -0.7831 -0.4066  0.7893
 1694SOL     OW16540   4.511   0.970   3.054  0.0623  0.1286  0.4661
 1694SOL    HW116541   4.565   1.024   3.113  0.3621  1.2574 -0.8564
 1694SOL    HW216542   4.489   1.041   2.994 -1.4882 -0.0085  0.8757
 1695SOL     OW16543   3.373   0.174   4.137 -0.2811 -0.1556 -0.1369
 1695SOL    HW116544   3.290   0.220   4.135 -1.1052 -1.6399  0.0057
 1695SOL    HW216545   3.430   0.246   4.166 -0.1154 -0.6045  0.6453
 1696SOL     OW16546   1.937   4.241   8.509  0.2218  0.1780  0.0720
 1696SOL    HW116547   1.937   4.184   8.432  3.4956  2.3184 -1.4820
 1696SOL    HW216548   2.015   4.292   8.490  0.8094 -0.9242 -0.4321
 1697SOL     OW16549   4.295   3.217   1.548  0.1475  0.7254 -0.0281
 1697SOL    HW116550   4.332   3.302   1.527  0.4510  0.2380 -1.4330
 1697SOL    HW216551   4.258   3.236   1.635  0.7973 -2.2472  0.9180
 1698SOL     OW16552   0.002   4.489   0.038 -0.3696 -0.5124  0.3030
 1698SOL    HW116553   4.696   4.434   0.110  0.0902 -2.9428 -1.3708
 1698SOL    HW216554   4.647   4.509  17.698  0.7231 -0.4303 -1.5633
 1699SOL     OW16555   1.140   2.598   7.653 -0.1962  0.4899  0.3417
 1699SOL    HW116556   1.235   2.600   7.642 -0.2346 -0.6701 -0.2468
 1699SOL    HW216557   1.110   2.689   7.651 -1.5727  0.0706  2.0336
 1700SOL     OW16558   0.065   3.939   7.335 -0.8077  0.2458 -0.8363
 1700SOL    HW116559   0.022   3.944   7.250  0.2566 -1.3795 -1.4709
 1700SOL    HW216560   0.149   3.979   7.311 -0.1888  0.1198  1.0756
 1701SOL     OW16561   1.656   1.048   8.539  0.1237  0.1040  0.6243
 1701SOL    HW116562   1.627   1.013   8.624 -1.3064  1.2950  0.6247
 1701SOL    HW216563   1.747   1.066   8.561 -0.0206  1.4097  0.1086
 1702SOL     OW16564   4.313   2.605  16.807  0.5700  0.3782  0.2232
 1702SOL    HW116565   4.321   2.699  16.823 -0.7950  0.7582 -1.3477
 1702SOL    HW216566   4.324   2.620  16.713  1.2706  0.2018  0.2731
 1703SOL     OW16567   3.089   1.015   7.888 -0.3542 -0.0508 -0.0896
 1703SOL    HW116568   3.056   0.936   7.930 -1.4987  0.3049 -0.3164
 1703SOL    HW216569   3.044   1.080   7.940 -0.4745  0.0314 -0.2956
 1704SOL     OW16570   1.754   0.809  14.722  0.3781  0.4114  0.1014
 1704SOL    HW116571   1.839   0.770  14.704 -0.1003 -0.1039 -0.9935
 1704SOL    HW216572   1.699   0.741  14.761 -0.4393  1.8555  1.5054
 1705SOL     OW16573   1.035   3.826  13.401 -0.2751  0.3969  0.1180
 1705SOL    HW116574   1.087   3.852  13.478 -1.3966  0.6466  0.7833
 1705SOL    HW216575   0.976   3.760  13.437 -1.1589  0.7994 -0.6104
 1706SOL     OW16576   1.297   1.886  13.950  0.3742 -0.1886 -0.2253
 1706SOL    HW116577   1.250   1.948  14.006 -0.4611 -0.3510 -0.7590
 1706SOL    HW216578   1.386   1.885  13.986  0.1658  0.8315  0.3239
 1707SOL     OW16579   0.106   1.205   1.364 -0.2056 -0.2130 -0.3553
 1707SOL    HW116580   0.198   1.180   1.374 -0.2082 -0.0413  0.0726
 1707SOL    HW216581   0.086   1.144   1.293  2.3130 -1.1709 -0.2599
 1708SOL     OW16582   3.066   2.387   4.550  0.0762 -0.2117  0.4104
 1708SOL    HW116583   3.060   2.423   4.638  2.2139  2.6690 -0.6346
 1708SOL    HW216584   3.130   2.443   4.507 -1.1283  0.2369 -0.7901
 1709SOL     OW16585   3.795   1.429  12.275  0.9359  0.5789  0.0566
 1709SOL    HW116586   3.796   1.336  12.295  0.9684  0.7486  0.8435
 1709SOL    HW216587   3.750   1.464  12.352  0.4713  2.0409 -0.8768
 1710SOL     OW16588   1.293   2.756   3.792 -0.1233 -0.2008 -0.5331
 1710SOL    HW116589   1.299   2.747   3.696  1.3578  0.3954 -0.5054
 1710SOL    HW216590   1.374   2.710   3.815 -0.2037 -0.4693 -0.7752
 1711SOL     OW16591   2.584   3.104   4.376  0.2062  0.6181  0.5781
 1711SOL    HW116592   2.642   3.099   4.451 -0.0424  1.5995  0.8386
 1711SOL    HW216593   2.498   3.106   4.417 -0.9513 -0.8147 -1.7512
 1712SOL     OW16594   4.571   3.994   1.066 -0.1107  0.7878 -0.2570
 1712SOL    HW116595   4.613   3.970   1.148 -0.2127  0.5137 -0.2847
 1712SOL    HW216596   4.597   3.928   1.001 -1.4679  0.0924 -0.0934
 1713SOL     OW16597   3.993   4.517   9.328 -0.2331 -0.1018  0.2296
 1713SOL    HW116598   3.965   4.585   9.267 -1.2013  1.8083  2.7681
 1713SOL    HW216599   3.974   4.438   9.277 -1.4381 -0.4039  1.1124
 1714SOL     OW16600   1.818   4.446   2.020 -0.3319  0.2688 -0.1778
 1714SOL    HW116601   1.877   4.442   1.944  0.3852 -2.2944  0.5433
 1714SOL    HW216602   1.741   4.482   1.974 -1.6528 -3.4877 -0.8838
 1715SOL     OW16603   4.367   3.865   3.837 -0.1377 -0.1751  0.5337
 1715SOL    HW116604   4.460   3.851   3.821  0.2243  0.3401  2.1307
 1715SOL    HW216605   4.340   3.936   3.779  0.6401  0.7034  1.2506
 1716SOL     OW16606   2.557   0.523   4.594 -0.2237  0.4269 -0.2122
 1716SOL    HW116607   2.468   0.550   4.574 -1.1064 -3.4060 -1.3980
 1716SOL    HW216608   2.602   0.594   4.548  0.6931  1.2890  2.0487
 1717SOL     OW16609   4.403   3.929   1.665  0.0605  1.0378  0.3062
 1717SOL    HW116610   4.380   4.009   1.617 -2.2970  1.0318  1.4208
 1717SOL    HW216611   4.327   3.871   1.655  1.2080 -0.4508  0.2710
 1718SOL     OW16612   3.221   0.567   6.556 -0.0796 -0.0915  0.4366
 1718SOL    HW116613   3.236   0.615   6.474 -0.5661  1.6377  1.3552
 1718SOL    HW216614   3.129   0.591   6.566 -0.2147  0.0787 -1.2019
 1719SOL     OW16615   2.157   1.727   7.123 -0.1070  0.5449 -0.7835
 1719SOL    HW116616   2.086   1.674   7.085  0.1676  0.8431 -1.7119
 1719SOL    HW216617   2.185   1.782   7.050 -0.3362 -1.3646 -2.3273
 1720SOL     OW16618   2.329   2.320   8.946 -0.4152 -0.2598 -0.2287
 1720SOL    HW116619   2.361   2.247   8.892 -1.2854 -0.6866 -0.1608
 1720SOL    HW216620   2.401   2.329   9.009  0.7582  0.3071 -1.6385
 1721SOL     OW16621   0.331   4.437   5.997 -0.2398  0.3119 -0.0341
 1721SOL    HW116622   0.369   4.360   5.954  1.6611  0.1036  1.9400
 1721SOL    HW216623   0.401   4.454   6.061  0.3340 -1.5731 -0.1416
 1722SOL     OW16624   0.315   0.394  11.882 -0.0903 -0.0544  0.0798
 1722SOL    HW116625   0.294   0.304  11.856 -0.1303 -0.4101  1.3570
 1722SOL    HW216626   0.392   0.386  11.938  1.7902  0.7663 -2.3964
 1723SOL     OW16627   4.565   4.676   7.549  0.5574  0.3380  0.2213
 1723SOL    HW116628   4.642   4.705   7.501  1.1125  0.2541  1.0543
 1723SOL    HW216629   4.597   4.674   7.639 -0.6509  1.6596  0.6878
 1724SOL     OW16630   1.437   2.985   5.171  0.0307  0.3923  0.2531
 1724SOL    HW116631   1.341   2.983   5.161  0.1681 -1.1345 -0.6901
 1724SOL    HW216632   1.453   2.913   5.232 -0.8083  1.1205  1.3360
 1725SOL     OW16633   1.039   3.264   3.577 -0.0969 -0.3303  0.0935
 1725SOL    HW116634   1.058   3.308   3.494 -1.0963 -0.4279 -0.1811
 1725SOL    HW216635   1.089   3.183   3.574 -1.5803 -1.2086 -1.1529
 1726SOL     OW16636   2.112   0.888   4.494 -0.0645 -0.1944  0.5742
 1726SOL    HW116637   2.154   0.806   4.469  1.6181  1.3443 -1.6564
 1726SOL    HW216638   2.047   0.892   4.423  0.1820 -0.0856  0.3549
 1727SOL     OW16639   2.713   1.428   6.448  0.1547  0.5114 -0.3926
 1727SOL    HW116640   2.764   1.491   6.500 -0.1144 -0.0031  0.4960
 1727SOL    HW216641   2.636   1.404   6.500 -0.1455 -0.7212 -1.4159
 1728SOL     OW16642   2.619   2.221   8.032 -1.2593  0.3117  0.8112
 1728SOL    HW116643   2.582   2.232   8.119 -0.0626  1.7847  1.1154
 1728SOL    HW216644   2.706   2.260   8.042 -1.1170 -0.3823  2.1774
 1729SOL     OW16645   4.451   0.463  15.130 -0.0470  0.5687  0.1874
 1729SOL    HW116646   4.407   0.386  15.166  1.3169 -0.3852 -0.1676
 1729SOL    HW216647   4.454   0.524  15.203 -1.4126  1.1197 -0.2305
 1730SOL     OW16648   0.198   1.319  13.736 -0.1850  0.1155 -0.1703
 1730SOL    HW116649   0.192   1.390  13.672 -2.9949  0.7402  0.7954
 1730SOL    HW216650   0.154   1.255  13.680 -1.1209  1.3615 -0.8520
 1731SOL     OW16651   2.126   2.901  16.374  0.2500  0.1293  0.3597
 1731SOL    HW116652   2.138   2.983  16.327  0.2282 -0.7230 -1.1701
 1731SOL    HW216653   2.032   2.888  16.360  0.1210  2.4509 -0.7922
 1732SOL     OW16654   1.609   1.054   7.551  0.0820  0.0308 -0.4221
 1732SOL    HW116655   1.613   1.091   7.639 -0.1120 -0.4971 -0.1885
 1732SOL    HW216656   1.699   1.021   7.555  0.7779  2.0723  0.7804
 1733SOL     OW16657   2.105   4.261   1.022 -0.6296  0.9487  0.2567
 1733SOL    HW116658   2.070   4.350   1.027 -0.4244  1.1748 -2.3938
 1733SOL    HW216659   2.089   4.238   1.114  2.3593 -0.6244  0.3731
 1734SOL     OW16660   0.426   0.331   7.534  0.1898 -0.4986 -0.7210
 1734SOL    HW116661   0.348   0.278   7.518 -1.9415  2.4473 -0.0512
 1734SOL    HW216662   0.494   0.285   7.484 -0.0466 -1.8180  0.1887
 1735SOL     OW16663   0.178   0.508   1.505 -0.0279  0.2874  0.3848
 1735SOL    HW116664   0.149   0.595   1.532  0.2394  0.4533  0.1349
 1735SOL    HW216665   0.109   0.483   1.442 -1.7301  0.0687  2.3522
 1736SOL     OW16666   2.309   0.446   0.671 -0.2505  0.1374 -0.2084
 1736SOL    HW116667   2.308   0.451   0.575  0.3466  0.5269 -0.1912
 1736SOL    HW216668   2.244   0.510   0.701 -3.1416 -3.0577  0.2789
 1737SOL     OW16669   4.647   4.543   1.077  0.4033  0.5729 -0.5225
 1737SOL    HW116670   4.706   4.468   1.070 -3.3657 -2.3053 -1.0599
 1737SOL    HW216671   4.636   4.546   1.172 -0.1581  2.0134 -0.6312
 1738SOL     OW16672   3.596   4.020   5.840 -0.2336  0.1465  0.0331
 1738SOL    HW116673   3.554   3.950   5.891  0.1306 -0.0154  0.1085
 1738SOL    HW216674   3.665   3.981   5.787  0.3455 -0.6167  1.3532
 1739SOL     OW16675   0.833   2.542   9.887  0.7083 -0.2426 -0.3304
 1739SOL    HW116676   0.918   2.499   9.894 -0.4962 -2.5310  0.0890
 1739SOL    HW216677   0.854   2.582   9.803 -1.8633  0.0496 -0.8576
 1740SOL     OW16678   2.110   1.763   4.174 -0.4076  0.2246  0.1125
 1740SOL    HW116679   2.040   1.827   4.185 -0.1851  0.9139 -2.5373
 1740SOL    HW216680   2.186   1.815   4.148 -0.1889  1.1810  2.6101
 1741SOL     OW16681   1.726   4.499  10.611 -0.1538  0.1850 -0.3325
 1741SOL    HW116682   1.805   4.466  10.569 -0.3837 -2.5648  1.3199
 1741SOL    HW216683   1.671   4.423  10.632  0.6328  0.2708  2.0378
 1742SOL     OW16684   1.509   4.283   3.691  0.1384 -0.4022 -0.2604
 1742SOL    HW116685   1.415   4.298   3.706  0.6672  1.9737  0.6435
 1742SOL    HW216686   1.530   4.375   3.674  1.4723 -0.9423 -1.5168
 1743SOL     OW16687   4.718   1.358   4.179  0.5347  0.6550 -0.5627
 1743SOL    HW116688   4.660   1.433   4.188 -1.5709 -1.1925  1.5396
 1743SOL    HW216689   0.051   1.380   4.108  1.5977  1.5332  0.5952
 1744SOL     OW16690   2.545   3.112   7.131 -0.3911 -0.2104  0.4306
 1744SOL    HW116691   2.552   3.071   7.045  0.8792 -0.9295  0.8826
 1744SOL    HW216692   2.450   3.118   7.143 -0.8994 -0.4040 -3.6139
 1745SOL     OW16693   1.685   0.812   4.813 -0.2397  0.4198  0.5421
 1745SOL    HW116694   1.618   0.838   4.876 -1.1536  2.1556 -1.1152
 1745SOL    HW216695   1.713   0.898   4.781  0.0914 -0.7494 -2.3161
 1746SOL     OW16696   1.562   0.272   1.764  0.0893  0.3603  0.6448
 1746SOL    HW116697   1.513   0.352   1.783  0.7040  0.3799  2.1404
 1746SOL    HW216698   1.526   0.199   1.814  2.6609 -0.1422  1.7973
 1747SOL     OW16699   3.777   3.563   6.650 -0.1642  0.0305 -0.2471
 1747SOL    HW116700   3.793   3.564   6.745  0.3190 -1.9436 -0.2996
 1747SOL    HW216701   3.797   3.655   6.636  0.1728  0.6731  4.3325
 1748SOL     OW16702   3.066   2.380  13.656 -0.0917  0.8567  0.2455
 1748SOL    HW116703   3.070   2.475  13.654 -0.1412  0.8243 -1.7701
 1748SOL    HW216704   3.136   2.342  13.604 -0.9676 -0.0057 -0.3114
 1749SOL     OW16705   2.523   3.534   2.949 -0.3268  0.7075 -0.4142
 1749SOL    HW116706   2.488   3.450   2.921 -2.4209  1.3513  0.2281
 1749SOL    HW216707   2.442   3.568   2.988 -0.9751  2.0673 -2.9417
 1750SOL     OW16708   3.407   0.544   5.925  0.2462 -0.0188 -0.0358
 1750SOL    HW116709   3.396   0.508   6.013 -0.4124 -0.5228 -0.3241
 1750SOL    HW216710   3.420   0.637   5.945  0.7280 -0.2444  0.7088
 1751SOL     OW16711   4.237   2.260   6.914 -0.0684  0.2413  0.3401
 1751SOL    HW116712   4.169   2.263   6.846  1.0836  0.5489 -0.7941
 1751SOL    HW216713   4.235   2.165   6.928 -0.4959  0.0553 -0.9755
 1752SOL     OW16714   4.687   3.822   5.344 -0.0456  0.3434 -0.0432
 1752SOL    HW116715   4.636   3.901   5.357 -2.2368 -0.6632 -2.6179
 1752SOL    HW216716   0.047   3.854   5.370 -1.2858  2.7190  1.1213
 1753SOL     OW16717   1.554   3.286  10.717 -0.6901  0.0252 -0.1736
 1753SOL    HW116718   1.503   3.366  10.709 -1.0453 -0.4277 -2.4539
 1753SOL    HW216719   1.600   3.286  10.633  1.5744  1.5349  1.0695
 1754SOL     OW16720   1.881   1.102   2.470 -0.4385 -0.0196 -0.6723
 1754SOL    HW116721   1.949   1.145   2.521  0.6256 -2.2452 -0.1892
 1754SOL    HW216722   1.932   1.040   2.417  0.7802 -0.0542  0.5258
 1755SOL     OW16723   4.675   0.073   5.362  0.8453  0.1213 -0.3589
 1755SOL    HW116724   4.597   0.018   5.367 -0.0076  1.2368 -1.2234
 1755SOL    HW216725   4.692   0.078   5.267  2.0386  2.6477 -0.0249
 1756SOL     OW16726   2.603   2.913   8.991 -0.2360 -1.1607 -0.2083
 1756SOL    HW116727   2.688   2.909   9.035  0.4944 -1.7356 -1.6702
 1756SOL    HW216728   2.636   2.887   8.905  1.7096  3.6292 -0.9483
 1757SOL     OW16729   1.207   2.778   6.010 -0.6675  0.2383  0.0478
 1757SOL    HW116730   1.125   2.796   6.056  0.7778  3.2154  1.4288
 1757SOL    HW216731   1.184   2.746   5.923  0.1093  0.9081 -0.4010
 1758SOL     OW16732   3.604   3.501   7.351  0.1539  0.1048 -0.8756
 1758SOL    HW116733   3.601   3.511   7.446 -2.3262  2.7017 -1.2360
 1758SOL    HW216734   3.571   3.411   7.351 -1.4769  0.7087 -2.4045
 1759SOL     OW16735   4.094   4.039  10.010 -0.2273 -0.1895 -0.1364
 1759SOL    HW116736   4.158   4.098   9.970 -1.2380  1.5339  0.7841
 1759SOL    HW216737   4.135   4.012  10.091  1.9097  2.6163 -0.2822
 1760SOL     OW16738   0.830   4.222   8.425  0.4236  0.4176  0.0327
 1760SOL    HW116739   0.915   4.265   8.412  0.4537 -0.2192 -1.8439
 1760SOL    HW216740   0.869   4.135   8.437 -1.1547 -0.1677  0.9412
 1761SOL     OW16741   2.508   1.864   1.974 -0.2486  0.2992 -0.1830
 1761SOL    HW116742   2.482   1.955   1.992 -0.9122 -0.0521  0.6321
 1761SOL    HW216743   2.428   1.814   1.992  0.5508 -0.9692 -0.1637
 1762SOL     OW16744   0.334   2.732   5.226  0.4054  0.2268 -0.1061
 1762SOL    HW116745   0.317   2.680   5.304  1.2871 -2.7785 -1.9373
 1762SOL    HW216746   0.405   2.680   5.188 -0.1200 -0.7441  0.2459
 1763SOL     OW16747   4.637   3.928   8.189 -0.0340  0.2024  0.5432
 1763SOL    HW116748   4.681   3.889   8.265 -1.0158  1.5232  1.8109
 1763SOL    HW216749   4.618   3.849   8.140 -2.1525  2.2154 -1.8675
 1764SOL     OW16750   2.550   3.217  13.200 -0.0048  0.7978  0.1131
 1764SOL    HW116751   2.464   3.226  13.240  1.1867  1.7929  2.4451
 1764SOL    HW216752   2.582   3.306  13.188  0.4571  0.3194 -2.1551
 1765SOL     OW16753   4.134   0.841   1.612 -0.1615 -0.0909  0.1759
 1765SOL    HW116754   4.206   0.835   1.674  0.2347  0.0475 -0.2706
 1765SOL    HW216755   4.062   0.867   1.670  0.7648 -0.3819  1.4668
 1766SOL     OW16756   0.279   1.083   1.797  1.0024 -0.5948  0.3525
 1766SOL    HW116757   0.343   1.150   1.822 -0.0337  0.6813 -0.4292
 1766SOL    HW216758   0.258   1.045   1.882  0.6843  0.6712  0.8525
 1767SOL     OW16759   2.963   1.063   1.002  0.1671 -0.2958 -0.2337
 1767SOL    HW116760   2.911   0.987   0.975  0.6842  0.2121 -2.7142
 1767SOL    HW216761   2.939   1.138   0.947 -1.7623 -0.7516 -0.0000
 1768SOL     OW16762   2.329   3.291   1.635  0.0784 -0.5845  0.4772
 1768SOL    HW116763   2.406   3.319   1.586  0.5615 -2.7864 -0.0165
 1768SOL    HW216764   2.369   3.248   1.711  1.1095  2.3550  1.5652
 1769SOL     OW16765   4.682   1.339  13.198 -0.5494 -0.1144 -0.2215
 1769SOL    HW116766   4.664   1.283  13.274  1.3497  0.1136  0.3814
 1769SOL    HW216767   4.717   1.269  13.144 -0.9426  0.2358 -0.9267
 1770SOL     OW16768   1.832   2.932  15.552  0.5455 -0.1006  0.0385
 1770SOL    HW116769   1.783   2.979  15.485  0.6870  0.5921  0.4232
 1770SOL    HW216770   1.769   2.954  15.620 -0.2235 -0.9062 -0.4104
 1771SOL     OW16771   2.363   3.468   0.082  0.1829 -0.4398  0.1152
 1771SOL    HW116772   2.310   3.513   0.016 -0.4071  0.5397  1.2614
 1771SOL    HW216773   2.337   3.490   0.172 -2.7931 -1.7481 -0.4612
 1772SOL     OW16774   2.677   2.575  17.480  0.5437 -0.6502 -0.1445
 1772SOL    HW116775   2.607   2.542  17.537 -0.7984  3.0499  0.3676
 1772SOL    HW216776   2.642   2.660  17.455 -0.1281 -1.0629 -0.6022
 1773SOL     OW16777   1.056   4.505   9.784 -0.0888  0.3612  0.8162
 1773SOL    HW116778   0.978   4.540   9.740 -1.6683 -1.0507  2.4860
 1773SOL    HW216779   1.037   4.529   9.875 -0.3877 -0.4999  0.9764
 1774SOL     OW16780   2.647   2.483  16.427 -0.6970 -0.0545  0.3959
 1774SOL    HW116781   2.574   2.494  16.487 -0.1400 -0.2556  1.1124
 1774SOL    HW216782   2.614   2.537  16.355  0.1494 -0.0557 -0.0001
 1775SOL     OW16783   1.972   3.556  10.334  0.1064 -0.2189  0.0757
 1775SOL    HW116784   1.905   3.550  10.402  0.3462 -0.3329  0.3038
 1775SOL    HW216785   2.050   3.549  10.389 -0.8244  0.3698  1.4971
 1776SOL     OW16786   2.570   2.105   0.393 -0.1510 -0.0156  0.1205
 1776SOL    HW116787   2.656   2.095   0.353 -1.0691 -0.6518 -1.6896
 1776SOL    HW216788   2.552   2.198   0.377  0.2459  0.1462  0.6351
 1777SOL     OW16789   0.555   2.205  16.463 -0.3700  0.2352  0.1304
 1777SOL    HW116790   0.650   2.193  16.466 -0.2221  1.5014  0.4060
 1777SOL    HW216791   0.533   2.194  16.556  2.1882  0.3827  0.7309
 1778SOL     OW16792   0.773   1.836   9.262 -0.1415  0.5660  0.0792
 1778SOL    HW116793   0.794   1.869   9.349  2.3281  1.2626 -0.7782
 1778SOL    HW216794   0.783   1.741   9.264  0.5585  0.5924 -2.4199
 1779SOL     OW16795   1.780   2.571   3.709 -0.7071  0.3689  0.6300
 1779SOL    HW116796   1.759   2.529   3.792  1.0183  1.4693  1.6200
 1779SOL    HW216797   1.812   2.659   3.730 -2.8607  1.3753 -0.2917
 1780SOL     OW16798   1.509   4.198  17.665 -0.4223 -0.0989 -0.6134
 1780SOL    HW116799   1.509   4.112  17.623 -1.2534 -1.1158  1.5174
 1780SOL    HW216800   1.604   4.197  17.679 -0.5382 -0.1498  0.1672
 1781SOL     OW16801   4.698   1.324  10.550  0.5645 -0.6444  0.0238
 1781SOL    HW116802   0.019   1.241  10.552 -1.9183 -2.0431  0.7505
 1781SOL    HW216803   4.723   1.363  10.467 -1.8527 -2.2160 -1.4290
 1782SOL     OW16804   4.012   3.720   8.671  0.0971 -0.2283  0.0446
 1782SOL    HW116805   4.034   3.710   8.578 -2.7064 -2.1783 -0.4264
 1782SOL    HW216806   3.925   3.679   8.671 -0.4974  1.0605  4.7343
 1783SOL     OW16807   0.283   1.857  13.048 -1.0345  0.1237 -0.6615
 1783SOL    HW116808   0.246   1.892  13.128  1.2171  2.1826 -0.5205
 1783SOL    HW216809   0.279   1.761  13.050  1.5003 -0.0268 -1.8560
 1784SOL     OW16810   1.984   0.754   8.479 -0.0409  0.9797  0.7456
 1784SOL    HW116811   1.966   0.848   8.487 -0.2394  1.0246 -0.2364
 1784SOL    HW216812   1.913   0.725   8.536 -0.6655 -0.9201 -1.0450
 1785SOL     OW16813   2.928   2.104   1.788  0.3130  0.1267 -0.1991
 1785SOL    HW116814   2.969   2.189   1.802  0.0146 -0.2622  3.0929
 1785SOL    HW216815   2.990   2.072   1.723  1.5676  0.4105  0.8467
 1786SOL     OW16816   4.168   2.385  12.770  0.3987 -0.4206  0.1892
 1786SOL    HW116817   4.116   2.325  12.823 -0.5069  1.1804  1.1167
 1786SOL    HW216818   4.119   2.466  12.762 -0.1272 -0.7953 -0.3191
 1787SOL     OW16819   2.568   2.183   3.603  0.2875 -0.1921  0.0628
 1787SOL    HW116820   2.608   2.213   3.521  1.1539  0.7745  0.8335
 1787SOL    HW216821   2.557   2.264   3.653 -0.6124 -0.0826 -0.3158
 1788SOL     OW16822   3.464   2.428   7.102 -0.2225 -0.4596  0.0493
 1788SOL    HW116823   3.514   2.461   7.177  0.4990 -0.0721 -0.6057
 1788SOL    HW216824   3.502   2.345   7.075  2.8346  1.0052 -0.1255
 1789SOL     OW16825   1.065   1.679   1.916  0.0425 -0.0042 -0.0256
 1789SOL    HW116826   1.151   1.720   1.926 -0.4555  1.2207 -0.7808
 1789SOL    HW216827   1.017   1.751   1.957 -0.5163 -0.4592  0.1309
 1790SOL     OW16828   2.208   2.423   4.632 -0.9603 -0.0386  0.1274
 1790SOL    HW116829   2.119   2.453   4.654 -0.2653  1.4925  0.8793
 1790SOL    HW216830   2.193   2.329   4.624  0.3708 -0.2994  0.7229
 1791SOL     OW16831   2.369   4.521   3.252 -0.7445 -0.1671 -0.1742
 1791SOL    HW116832   2.391   4.611   3.228  0.9602 -0.5798 -0.2172
 1791SOL    HW216833   2.300   4.540   3.315  0.9621 -1.4607  2.0956
 1792SOL     OW16834   0.805   1.555  13.910  0.3072  0.6304 -0.0731
 1792SOL    HW116835   0.864   1.506  13.854  1.0132  1.2561  0.1092
 1792SOL    HW216836   0.855   1.635  13.928  1.8249  0.0605 -1.8083
 1793SOL     OW16837   4.147   4.035   8.007  0.5017 -0.2552  0.0385
 1793SOL    HW116838   4.236   4.026   7.972  0.0650  0.0886 -1.1481
 1793SOL    HW216839   4.147   3.961   8.068  1.2746  0.2037  0.5885
 1794SOL     OW16840   3.771   4.291  16.703  0.2182 -0.3449 -0.5687
 1794SOL    HW116841   3.746   4.347  16.629  1.1976 -0.9270 -1.3555
 1794SOL    HW216842   3.816   4.344  16.768  0.5392  0.4315 -1.4221
 1795SOL     OW16843   1.294   0.422   2.328  0.4070 -0.2178  0.4951
 1795SOL    HW116844   1.304   0.467   2.245 -1.5305  0.9627  0.8933
 1795SOL    HW216845   1.378   0.434   2.372 -0.1845  1.2690  1.2132
 1796SOL     OW16846   4.667   2.456   3.622 -0.2022 -0.4676 -0.1114
 1796SOL    HW116847   4.681   2.550   3.611  0.6177 -0.9298 -3.0302
 1796SOL    HW216848   0.014   2.427   3.677 -0.1758  0.6115  0.4416
 1797SOL     OW16849   1.369   0.898  13.532 -0.4848 -0.1240 -0.1121
 1797SOL    HW116850   1.394   0.988  13.511 -0.5989  0.0999  0.7148
 1797SOL    HW216851   1.454   0.854  13.521 -0.1846  0.3724  0.2663
 1798SOL     OW16852   0.559   0.000   6.043  0.1339 -0.0776  0.4448
 1798SOL    HW116853   0.559   4.633   6.066 -2.5686 -0.3673 -0.6613
 1798SOL    HW216854   0.475   0.033   6.076  0.0618  0.3461 -0.1462
 1799SOL     OW16855   0.961   2.675   9.330  0.1599 -0.0656  0.0953
 1799SOL    HW116856   0.881   2.624   9.345  0.5041 -0.2937  1.2292
 1799SOL    HW216857   1.015   2.610   9.286 -0.9551 -1.7975  1.2806
 1800SOL     OW16858   0.694   0.179   1.395 -0.5893 -0.0338 -0.5165
 1800SOL    HW116859   0.770   0.236   1.405 -0.1084 -0.6814 -0.5202
 1800SOL    HW216860   0.624   0.236   1.427  1.1370  1.4373  0.5666
 1801SOL     OW16861   3.003   3.014   6.811 -0.2302  1.0116  0.1622
 1801SOL    HW116862   2.957   3.067   6.746  0.0497  0.6601 -0.3165
 1801SOL    HW216863   2.965   3.049   6.892 -3.1296  3.3676 -2.2441
 1802SOL     OW16864   1.688   1.975   5.702 -0.5150  0.3265 -0.0431
 1802SOL    HW116865   1.596   1.949   5.698 -0.5125  0.2426  0.4008
 1802SOL    HW216866   1.707   1.976   5.608 -1.0637  2.1164 -0.1346
 1803SOL     OW16867   0.415   3.906  14.833  0.2122 -0.1242  0.3474
 1803SOL    HW116868   0.470   3.829  14.819  0.8414  0.4646 -0.3603
 1803SOL    HW216869   0.358   3.904  14.756  1.3167 -2.6700 -0.4168
 1804SOL     OW16870   2.531   0.476   7.218 -0.1021  0.2197 -0.0252
 1804SOL    HW116871   2.447   0.434   7.201 -1.4372  3.2547 -0.8761
 1804SOL    HW216872   2.574   0.467   7.133  0.4462 -0.6432  0.3437
 1805SOL     OW16873   1.189   0.869   2.522 -0.3167  0.6554 -0.6804
 1805SOL    HW116874   1.163   0.961   2.526 -0.1485  0.8136 -2.8010
 1805SOL    HW216875   1.164   0.840   2.610 -0.1603  1.9544 -0.2047
 1806SOL     OW16876   4.385   2.949   4.322 -0.0887 -0.1067  0.3934
 1806SOL    HW116877   4.352   2.954   4.412  0.0192  1.1505  0.3609
 1806SOL    HW216878   4.383   3.044   4.310 -0.0133 -0.3762 -1.6758
 1807SOL     OW16879   0.674   3.801  10.229 -0.4692 -0.6063 -0.3391
 1807SOL    HW116880   0.610   3.730  10.240  0.9396 -1.6031  1.4713
 1807SOL    HW216881   0.697   3.787  10.137  0.2753  0.3570 -0.3015
 1808SOL     OW16882   0.688   1.918   6.114 -0.3424 -0.3912  0.1418
 1808SOL    HW116883   0.765   1.974   6.125 -0.2400 -0.7578  1.3015
 1808SOL    HW216884   0.611   1.972   6.127 -0.0772  0.3124 -1.2211
 1809SOL     OW16885   0.770   1.414  16.885  0.7719 -0.4717  0.3376
 1809SOL    HW116886   0.701   1.375  16.832 -0.1475  0.2829  0.9931
 1809SOL    HW216887   0.743   1.502  16.858  1.8885 -0.1077  0.3937
 1810SOL     OW16888   1.877   4.595  12.933  0.8815  0.3513 -0.3150
 1810SOL    HW116889   1.885   4.689  12.922  0.3775 -0.0073 -3.8501
 1810SOL    HW216890   1.905   4.558  12.849  1.0265 -3.8189  1.5396
 1811SOL     OW16891   2.220   3.772   0.961  0.3725 -0.0400  0.1729
 1811SOL    HW116892   2.211   3.772   1.057 -1.7601  0.4074 -0.0239
 1811SOL    HW216893   2.299   3.825   0.951  1.2379 -1.3067  0.3330
 1812SOL     OW16894   0.656   0.007   0.296  0.0881  0.1227  0.8107
 1812SOL    HW116895   0.691   4.644   0.292 -1.6215 -0.5592  0.9640
 1812SOL    HW216896   0.732   0.056   0.263 -0.6654  1.1044  0.5245
 1813SOL     OW16897   3.658   0.972   7.904  0.5120  0.0293 -0.1082
 1813SOL    HW116898   3.651   0.957   7.999 -0.4526 -3.3281 -0.7232
 1813SOL    HW216899   3.602   0.898   7.882  1.2393 -0.8896  1.1059
 1814SOL     OW16900   3.048   4.173  11.986  0.1579  0.1061 -0.2186
 1814SOL    HW116901   3.002   4.122  12.052 -0.6384  0.1896 -0.7098
 1814SOL    HW216902   2.992   4.164  11.909 -1.8852 -0.5181  1.3652
 1815SOL     OW16903   2.147   0.240   8.458  0.0237  0.0485  0.3200
 1815SOL    HW116904   2.140   0.273   8.548 -2.4849  0.1159  0.0897
 1815SOL    HW216905   2.201   0.308   8.416 -1.0681  1.0701  0.5673
 1816SOL     OW16906   3.110   0.585   5.848 -0.0819 -0.3532 -0.1242
 1816SOL    HW116907   3.139   0.553   5.763 -1.4346 -0.3916 -0.5609
 1816SOL    HW216908   3.186   0.638   5.873 -0.2086 -0.3967  0.3686
 1817SOL     OW16909   1.757   0.539  15.711 -0.1348 -0.2456  0.2433
 1817SOL    HW116910   1.736   0.446  15.699  0.0998 -0.3895  0.9598
 1817SOL    HW216911   1.686   0.573  15.766 -0.4171  0.7673 -0.7705
 1818SOL     OW16912   2.679   4.365   2.018  0.3470  0.2120  0.1136
 1818SOL    HW116913   2.750   4.404   1.968 -0.0328  1.2114  0.3673
 1818SOL    HW216914   2.690   4.397   2.107  3.0690 -1.1734  0.2867
 1819SOL     OW16915   3.541   2.497   8.558  0.0188  0.5199 -0.1770
 1819SOL    HW116916   3.576   2.413   8.527  1.8683  0.5795  1.7497
 1819SOL    HW216917   3.476   2.462   8.619  3.3680  0.9474  3.5692
 1820SOL     OW16918   2.044   2.471   0.019  0.3284 -0.0468 -0.1545
 1820SOL    HW116919   2.021   2.546   0.072 -2.9051 -0.8627 -0.3968
 1820SOL    HW216920   2.027   2.510  17.639  1.0306  3.5324  1.3338
 1821SOL     OW16921   1.736   2.116  13.589 -0.5399 -0.2275  0.1254
 1821SOL    HW116922   1.732   2.066  13.671  0.4766 -0.7029 -0.1122
 1821SOL    HW216923   1.643   2.138  13.586 -0.1384  1.4060 -0.3002
 1822SOL     OW16924   1.223   2.799   0.228  0.3317  0.2846 -0.7228
 1822SOL    HW116925   1.288   2.745   0.184 -0.4116 -1.3902  0.2249
 1822SOL    HW216926   1.236   2.776   0.321 -0.2311 -0.9030 -0.9292
 1823SOL     OW16927   1.837   1.756   4.347  0.4221  0.4236 -0.1314
 1823SOL    HW116928   1.806   1.827   4.291 -0.6488 -0.5421 -0.7723
 1823SOL    HW216929   1.870   1.801   4.425 -0.2034  0.4496  0.1251
 1824SOL     OW16930   0.752   0.904  17.490 -0.4500 -0.0479  0.1781
 1824SOL    HW116931   0.783   0.964  17.422  0.7361 -3.1184 -2.0012
 1824SOL    HW216932   0.658   0.918  17.481 -0.4978 -0.3271  0.2427
 1825SOL     OW16933   4.112   4.707   8.968  0.5090 -0.2172 -0.1441
 1825SOL    HW116934   4.068   4.623   8.954  0.1478 -0.0147 -0.2329
 1825SOL    HW216935   4.112   0.005   8.875 -1.3051  0.8592  0.1270
 1826SOL     OW16936   4.581   0.572   4.050 -0.0601 -0.1275  0.6017
 1826SOL    HW116937   4.597   0.638   4.117  2.0722  1.5162 -1.5481
 1826SOL    HW216938   4.654   0.582   3.989  1.3582 -0.3141  2.2667
 1827SOL     OW16939   4.462   0.558   7.534 -0.0218  0.0557  0.5051
 1827SOL    HW116940   4.423   0.637   7.572  0.2311  0.6889 -0.5614
 1827SOL    HW216941   4.412   0.531   7.457  1.5948  0.3739 -0.6652
 1828SOL     OW16942   0.943   0.371   8.064 -0.0880  0.3199  0.2256
 1828SOL    HW116943   0.881   0.435   8.099 -1.7618 -0.2702 -1.6908
 1828SOL    HW216944   0.990   0.336   8.139  1.2841 -0.0256 -0.7932
 1829SOL     OW16945   2.950   1.191  12.537  0.1676  0.0233  0.2181
 1829SOL    HW116946   2.904   1.141  12.604  1.3400  0.4676  1.3520
 1829SOL    HW216947   2.966   1.118  12.477 -1.6168 -2.5113  2.8526
 1830SOL     OW16948   3.642   1.176   6.973 -0.2217 -0.2053  0.2328
 1830SOL    HW116949   3.596   1.128   7.042  0.2690  0.5144  1.0746
 1830SOL    HW216950   3.650   1.102   6.913 -1.7038  0.1255 -0.3697
 1831SOL     OW16951   3.207   3.364   3.152 -0.1491  0.2129 -0.0083
 1831SOL    HW116952   3.118   3.358   3.116 -1.0036 -1.7045  2.4187
 1831SOL    HW216953   3.218   3.269   3.150  0.7397  0.2793  2.6970
 1832SOL     OW16954   0.740   3.462   3.324  0.3650  0.4701 -0.5230
 1832SOL    HW116955   0.663   3.416   3.292  0.4772 -0.7031  0.8651
 1832SOL    HW216956   0.701   3.547   3.346 -2.4028 -1.8391  3.4926
 1833SOL     OW16957   4.485   2.275   9.011 -0.3115  0.1066 -0.5285
 1833SOL    HW116958   4.475   2.328   9.091  2.3348  1.2179 -0.9106
 1833SOL    HW216959   4.537   2.336   8.958  3.6026 -1.4105  1.5469
 1834SOL     OW16960   4.643   2.739   8.577  0.1810  0.1822  0.1831
 1834SOL    HW116961   4.702   2.714   8.648 -0.4242 -0.8060  0.3358
 1834SOL    HW216962   4.601   2.819   8.609 -1.3069 -1.3242  1.9738
 1835SOL     OW16963   1.223   3.882   2.214 -0.6329 -0.3811 -0.3846
 1835SOL    HW116964   1.276   3.956   2.243 -1.1369 -1.1050  2.4254
 1835SOL    HW216965   1.169   3.937   2.158  1.1127  1.3566 -0.3585
 1836SOL     OW16966   1.623   1.408   3.020 -0.0277  0.0169 -0.6221
 1836SOL    HW116967   1.596   1.378   3.106 -0.6712  0.3390 -0.7179
 1836SOL    HW216968   1.647   1.500   3.034 -1.5648  0.3078  0.0760
 1837SOL     OW16969   0.015   0.762   3.908 -0.2449 -0.0458  0.1215
 1837SOL    HW116970   0.109   0.745   3.914 -0.4509 -2.4734 -3.6635
 1837SOL    HW216971   0.003   0.829   3.975 -1.4044 -0.6884  0.5578
 1838SOL     OW16972   1.123   4.336   8.399  1.1675 -0.1636 -0.2106
 1838SOL    HW116973   1.195   4.274   8.402 -0.1916 -1.4784  4.3858
 1838SOL    HW216974   1.182   4.395   8.352  0.2945  0.9180  0.0448
 1839SOL     OW16975   1.249   4.478  14.820  0.4591 -0.1032  0.0708
 1839SOL    HW116976   1.318   4.494  14.885 -0.8048  2.1836  0.8527
 1839SOL    HW216977   1.298   4.463  14.739 -1.0050  2.0443 -1.1962
 1840SOL     OW16978   0.671   2.767   5.111  0.3496 -0.3523  0.2221
 1840SOL    HW116979   0.753   2.725   5.139 -0.7332 -0.9978  2.3578
 1840SOL    HW216980   0.701   2.838   5.053 -0.3073  0.0781  0.4166
 1841SOL     OW16981   0.634   2.774   7.282  0.1427 -0.4545  0.0264
 1841SOL    HW116982   0.578   2.698   7.264 -0.8107  0.2230  0.0976
 1841SOL    HW216983   0.569   2.842   7.303  0.1644 -0.4521  0.0869
 1842SOL     OW16984   0.782   3.836   9.721  0.0509  0.3786 -0.3359
 1842SOL    HW116985   0.802   3.762   9.664  0.3230 -1.1002  1.6857
 1842SOL    HW216986   0.866   3.881   9.724  0.7083 -0.8293 -0.5699
 1843SOL     OW16987   0.854   1.162   6.140 -0.2165  0.2077 -0.1242
 1843SOL    HW116988   0.824   1.115   6.218  2.0452 -0.4876  0.3280
 1843SOL    HW216989   0.919   1.097   6.113  1.2807  1.0263  1.4580
 1844SOL     OW16990   4.084   0.245   3.662 -0.2457  0.2105 -0.1880
 1844SOL    HW116991   4.123   0.218   3.579 -0.1093 -0.5199  0.1124
 1844SOL    HW216992   4.161   0.242   3.719 -0.2579  0.5148 -0.1550
 1845SOL     OW16993   3.021   1.549   9.627 -0.4565 -0.3949 -0.7871
 1845SOL    HW116994   3.111   1.580   9.614 -1.2625  2.5815  0.8794
 1845SOL    HW216995   3.039   1.460   9.596  0.7161  0.0992 -1.5398
 1846SOL     OW16996   0.800   0.416   1.408  0.1044  0.3485  0.0633
 1846SOL    HW116997   0.847   0.435   1.489 -0.0979  0.0322  0.2578
 1846SOL    HW216998   0.755   0.499   1.395 -0.0088  0.1807 -0.6043
 1847SOL     OW16999   1.598   2.956   5.558  0.0620 -0.3661  0.3696
 1847SOL    HW117000   1.543   2.887   5.594  0.8456 -2.0066 -1.5882
 1847SOL    HW217001   1.615   3.016   5.631  3.0576 -3.0032  1.8268
 1848SOL     OW17002   1.493   1.405   5.224  0.0691 -0.4732  0.7597
 1848SOL    HW117003   1.403   1.380   5.202  0.4303 -1.6500  0.6122
 1848SOL    HW217004   1.520   1.448   5.143 -0.9165 -1.2163  0.0305
 1849SOL     OW17005   1.982   3.875   7.169 -0.0787 -0.3227  0.0669
 1849SOL    HW117006   2.019   3.946   7.115  1.2675  0.5144  2.0865
 1849SOL    HW217007   1.903   3.917   7.203  0.3451 -0.0993  0.7729
 1850SOL     OW17008   4.413   3.138  10.819  0.0706  0.4639 -0.2635
 1850SOL    HW117009   4.333   3.186  10.795 -1.8588 -2.2381  0.7490
 1850SOL    HW217010   4.427   3.162  10.911 -3.2559 -0.7831  0.5614
 1851SOL     OW17011   3.329   3.146   6.412  0.3270 -0.3154  0.2587
 1851SOL    HW117012   3.234   3.161   6.417  0.4441  0.6312 -0.3457
 1851SOL    HW217013   3.341   3.188   6.497  1.8874  1.8667 -1.0631
 1852SOL     OW17014   0.502   0.635  14.730  0.2339 -0.3752  0.6709
 1852SOL    HW117015   0.450   0.712  14.754 -0.8391 -1.5418  2.0304
 1852SOL    HW217016   0.550   0.671  14.654 -0.9858  0.2093  0.1794
 1853SOL     OW17017   0.853   1.753   8.545 -0.8428  0.0829  0.2287
 1853SOL    HW117018   0.908   1.748   8.467 -1.0447  1.7543 -0.0153
 1853SOL    HW217019   0.867   1.662   8.568  1.0657  0.3840  0.2527
 1854SOL     OW17020   1.715   0.767   8.836 -0.2396  0.7226  0.2181
 1854SOL    HW117021   1.807   0.762   8.859 -0.5391 -0.2713  1.1950
 1854SOL    HW217022   1.701   0.722   8.752  1.3384 -1.4440  1.1309
 1855SOL     OW17023   1.092   2.871  15.728 -0.0575  0.6587 -0.0529
 1855SOL    HW117024   1.113   2.868  15.822  0.8463  1.7143 -0.2230
 1855SOL    HW217025   1.036   2.949  15.728 -1.8623 -0.6247  1.8804
 1856SOL     OW17026   2.254   3.120   3.068 -0.5180 -0.1100  0.3723
 1856SOL    HW117027   2.171   3.161   3.093 -0.4500  0.3482 -0.1429
 1856SOL    HW217028   2.310   3.122   3.146  1.2881  0.6586 -0.9487
 1857SOL     OW17029   1.652   3.934  13.547 -0.5656 -0.5209  0.0811
 1857SOL    HW117030   1.638   4.027  13.529 -0.0799 -0.4087  0.2840
 1857SOL    HW217031   1.562   3.910  13.526 -1.0225  0.6084  0.7766
 1858SOL     OW17032   2.683   3.581   7.826 -0.4941  0.5372  0.0435
 1858SOL    HW117033   2.759   3.603   7.773 -0.5051  2.0524  0.6334
 1858SOL    HW217034   2.639   3.512   7.776  0.7923  2.4284 -3.6564
 1859SOL     OW17035   0.387   3.952   0.984 -0.1373  0.1004 -0.3259
 1859SOL    HW117036   0.399   3.947   0.889  2.3550  0.6169 -0.0324
 1859SOL    HW217037   0.329   3.876   0.992  2.5587 -2.2621 -3.0234
 1860SOL     OW17038   1.621   2.671  13.076 -0.3328  0.6512  0.2507
 1860SOL    HW117039   1.626   2.742  13.140  2.6428  1.8888 -1.3379
 1860SOL    HW217040   1.544   2.703  13.030  1.3890 -0.1335 -3.2014
 1861SOL     OW17041   0.193   2.111   2.596 -0.1440  0.3278  0.4139
 1861SOL    HW117042   0.200   2.201   2.628  0.3349 -0.1906  1.7521
 1861SOL    HW217043   0.097   2.106   2.588  0.0638 -0.6400 -1.5680
 1862SOL     OW17044   0.445   0.905  17.397  0.3283  0.0916 -0.5655
 1862SOL    HW117045   0.368   0.878  17.446  1.7600 -1.0791  1.0610
 1862SOL    HW217046   0.461   0.839  17.330 -1.9153  0.2273 -1.2227
 1863SOL     OW17047   2.073   4.404  17.586 -0.8232  1.1829 -0.1307
 1863SOL    HW117048   2.019   4.457  17.645 -0.6054  0.2089  0.9641
 1863SOL    HW217049   2.018   4.326  17.584 -0.4063  0.8476  1.3881
 1864SOL     OW17050   0.785   2.712   7.662 -0.1576  0.9031 -0.3598
 1864SOL    HW117051   0.836   2.661   7.725  0.5133 -0.6411 -2.1457
 1864SOL    HW217052   0.845   2.787   7.664  0.9332 -0.0115  1.6487
 1865SOL     OW17053   0.779   3.045   6.610  0.7710  0.2773  0.5087
 1865SOL    HW117054   0.786   2.951   6.629 -0.3676 -0.2971 -1.9507
 1865SOL    HW217055   0.692   3.044   6.652 -0.5677 -1.1059 -2.2902
 1866SOL     OW17056   2.475   2.146  10.235 -0.3846 -0.1584  0.0154
 1866SOL    HW117057   2.386   2.132  10.267 -0.1961  2.3719  1.6252
 1866SOL    HW217058   2.518   2.200  10.301  2.1346  0.1418 -1.8854
 1867SOL     OW17059   4.555   3.309   6.276  0.3608  0.1656 -0.2167
 1867SOL    HW117060   4.598   3.283   6.195  2.7021 -0.8368  1.3411
 1867SOL    HW217061   4.611   3.384   6.298  0.7792  0.3108 -1.8262
 1868SOL     OW17062   2.124   1.792  11.185  0.3565 -0.2343 -0.4634
 1868SOL    HW117063   2.032   1.767  11.174 -0.7110  2.6543  1.8359
 1868SOL    HW217064   2.109   1.859  11.252  1.0874  0.8337 -1.3661
 1869SOL     OW17065   4.532   0.733   5.469 -0.3584 -0.2550  0.1458
 1869SOL    HW117066   4.450   0.692   5.442 -1.1132  1.7423 -0.5436
 1869SOL    HW217067   4.543   0.790   5.393 -0.0901 -0.4696  0.0211
 1870SOL     OW17068   3.376   1.805   4.576 -0.1377 -0.0412  0.2809
 1870SOL    HW117069   3.359   1.715   4.548 -0.8313  0.0336  0.4471
 1870SOL    HW217070   3.323   1.850   4.510 -0.6080 -2.5007 -1.0154
 1871SOL     OW17071   2.821   0.239  15.251 -1.0734 -0.1733 -0.1171
 1871SOL    HW117072   2.791   0.329  15.262 -0.0064 -0.0104  1.4182
 1871SOL    HW217073   2.806   0.217  15.343  0.8415  1.1803  0.5236
 1872SOL     OW17074   3.912   0.984   3.409  0.2736 -0.2227 -0.7687
 1872SOL    HW117075   3.958   0.995   3.326  0.0032 -3.1366 -1.2830
 1872SOL    HW217076   3.932   0.894   3.433 -1.2215  0.1157  1.7500
 1873SOL     OW17077   2.649   3.560   6.049 -0.6935  0.1994 -0.1547
 1873SOL    HW117078   2.680   3.631   6.105  0.2153 -0.2751 -0.0627
 1873SOL    HW217079   2.659   3.590   5.958  1.6616 -1.1364 -0.3197
 1874SOL     OW17080   3.734   3.834  12.940  0.0432 -0.2032  0.4370
 1874SOL    HW117081   3.784   3.893  12.883  0.7145 -1.3397 -0.1571
 1874SOL    HW217082   3.709   3.894  13.010  1.3780  1.1541 -0.2648
 1875SOL     OW17083   1.655   3.661   8.739 -0.0586  0.0413 -0.1671
 1875SOL    HW117084   1.663   3.614   8.822 -0.0730  1.6429  0.7489
 1875SOL    HW217085   1.641   3.752   8.764 -0.7560 -0.5443  1.6292
 1876SOL     OW17086   2.107   1.878   9.597  0.3139 -0.3623 -0.6618
 1876SOL    HW117087   2.156   1.832   9.529  0.1311  1.4590 -2.0430
 1876SOL    HW217088   2.021   1.848   9.570  0.5080 -2.1969  0.7269
 1877SOL     OW17089   0.220   3.514  15.780  0.1190  0.1976  0.3496
 1877SOL    HW117090   0.286   3.492  15.846  0.4210  0.6383  0.1901
 1877SOL    HW217091   0.204   3.428  15.740  2.2690 -0.6779  1.4182
 1878SOL     OW17092   1.173   2.762  15.964  0.0896  0.0791 -0.4533
 1878SOL    HW117093   1.114   2.700  15.922 -1.8177  1.0367  0.8237
 1878SOL    HW217094   1.184   2.723  16.051 -0.0507 -1.1235 -0.9840
 1879SOL     OW17095   0.967   2.913   7.704 -0.1513  0.1880  0.2463
 1879SOL    HW117096   0.952   2.979   7.636 -0.7297 -0.7203 -0.4926
 1879SOL    HW217097   1.060   2.929   7.722  0.0307  0.3256 -0.8275
 1880SOL     OW17098   1.031   0.621  15.302  1.1018 -0.6446 -1.0196
 1880SOL    HW117099   1.042   0.683  15.230  2.4036 -1.0309 -1.1526
 1880SOL    HW217100   0.961   0.665  15.351  1.9314  0.0289 -0.4443
 1881SOL     OW17101   0.193   4.588  14.743 -0.0350 -0.0420  0.1435
 1881SOL    HW117102   0.215   4.541  14.824 -3.0130  0.8410  1.4358
 1881SOL    HW217103   0.223   4.521  14.680 -1.5089 -1.3417  0.8122
 1882SOL     OW17104   1.957   4.436   3.839  0.6198  0.3291  0.0555
 1882SOL    HW117105   1.916   4.455   3.923 -2.1714 -0.5668 -1.1021
 1882SOL    HW217106   1.956   4.523   3.799 -1.9990  0.1174 -0.3139
 1883SOL     OW17107   2.301   1.424   2.865  0.3461 -0.0133  0.0996
 1883SOL    HW117108   2.284   1.350   2.924  0.4362  0.8662  1.2346
 1883SOL    HW217109   2.347   1.371   2.800 -0.9338 -0.9931 -0.0090
 1884SOL     OW17110   4.623   1.639   5.651  0.0583  0.5275  0.0395
 1884SOL    HW117111   4.564   1.701   5.695  0.3288  0.5557  0.3668
 1884SOL    HW217112   4.646   1.591   5.730  1.7653 -2.4613 -2.2912
 1885SOL     OW17113   3.668   3.714   9.054  0.5381  0.1268 -0.2708
 1885SOL    HW117114   3.727   3.755   9.117 -1.5562  1.5973  0.7435
 1885SOL    HW217115   3.584   3.739   9.094 -0.0932  1.0940 -2.2104
 1886SOL     OW17116   2.113   2.294  17.467 -0.5212  0.0057 -0.5678
 1886SOL    HW117117   2.140   2.203  17.473 -1.1506 -0.3303 -3.2314
 1886SOL    HW217118   2.192   2.342  17.492 -0.2614  0.1162 -1.6307
 1887SOL     OW17119   4.309   2.942   8.079  0.2625 -0.3410 -0.5311
 1887SOL    HW117120   4.395   2.947   8.122  0.6818 -2.8013 -1.0746
 1887SOL    HW217121   4.254   2.932   8.157 -1.7015 -0.6749 -1.9717
 1888SOL     OW17122   1.480   4.504   5.227 -0.0519 -0.0220 -0.5727
 1888SOL    HW117123   1.504   4.528   5.138 -3.5856 -0.4795 -1.6384
 1888SOL    HW217124   1.506   4.412   5.227 -0.1050 -0.0352 -1.2862
 1889SOL     OW17125   1.090   3.150   5.705  0.7865  0.1155  0.4638
 1889SOL    HW117126   1.057   3.077   5.757  1.6625  0.1931  1.1210
 1889SOL    HW217127   1.054   3.212   5.769  1.8189  0.0686  1.0809
 1890SOL     OW17128   2.474   3.853   1.104  0.0224 -0.8802  0.0521
 1890SOL    HW117129   2.409   3.924   1.107  0.2776 -0.5767 -1.8424
 1890SOL    HW217130   2.552   3.888   1.062 -0.0157  1.0795  1.6288
 1891SOL     OW17131   1.044   1.053   8.667 -0.6031  0.3855  0.3062
 1891SOL    HW117132   1.012   0.964   8.676  0.4211 -0.3033 -3.0392
 1891SOL    HW217133   1.140   1.046   8.674 -0.4764  1.1870 -0.6104
 1892SOL     OW17134   4.128   4.114   8.835  0.0259 -0.3938 -0.4015
 1892SOL    HW117135   4.168   4.187   8.882  0.6681 -0.7210 -0.4393
 1892SOL    HW217136   4.070   4.158   8.773 -0.1542 -0.2203 -0.1109
 1893SOL     OW17137   3.773   4.060   7.418  0.4283  0.4023  0.0385
 1893SOL    HW117138   3.760   3.976   7.462  3.8273 -0.3398 -0.3413
 1893SOL    HW217139   3.868   4.072   7.412  0.0350  3.7362  0.6656
 1894SOL     OW17140   0.481   1.548  11.697 -0.2594 -0.0172  0.1247
 1894SOL    HW117141   0.423   1.551  11.621 -0.5720 -2.0357  0.3019
 1894SOL    HW217142   0.449   1.622  11.750  3.5251  2.4585 -1.0756
 1895SOL     OW17143   4.179   3.122   1.919  0.5112 -0.4961 -0.0666
 1895SOL    HW117144   4.168   3.067   1.841  0.3329  1.5433 -1.5065
 1895SOL    HW217145   4.087   3.149   1.925  1.2880  2.1963 -0.0988
 1896SOL     OW17146   1.946   1.665   4.708  0.0308 -0.3148  0.2031
 1896SOL    HW117147   1.911   1.745   4.667 -1.4674 -2.3513 -2.4786
 1896SOL    HW217148   2.020   1.697   4.760  1.0431 -1.5180 -0.4902
 1897SOL     OW17149   0.650   0.841   7.686 -0.3451 -0.2321  0.0081
 1897SOL    HW117150   0.695   0.761   7.660 -0.4820 -0.9073  1.8475
 1897SOL    HW217151   0.609   0.817   7.769  3.1443  0.0738  1.8313
 1898SOL     OW17152   1.130   3.427   5.446  0.5340  0.0864 -0.2726
 1898SOL    HW117153   1.167   3.482   5.377  1.3266 -1.6009 -1.1962
 1898SOL    HW217154   1.204   3.434   5.507 -0.0023  2.2798  0.1313
 1899SOL     OW17155   3.987   3.714  17.568  0.0498  0.7733 -0.2930
 1899SOL    HW117156   3.899   3.722  17.530 -0.8812  0.9085  1.8617
 1899SOL    HW217157   3.974   3.661  17.647 -0.5136  0.6652 -0.4576
 1900SOL     OW17158   1.251   2.351   2.840  0.0114 -0.3980 -0.0031
 1900SOL    HW117159   1.285   2.385   2.922 -1.1327  0.1439  0.2549
 1900SOL    HW217160   1.299   2.403   2.776  0.0750 -0.1783  0.2266
 1901SOL     OW17161   1.521   0.741   3.430 -0.7939 -0.6948  0.1686
 1901SOL    HW117162   1.442   0.688   3.444  0.1585 -1.7474  1.5667
 1901SOL    HW217163   1.530   0.731   3.335  3.2537 -1.4429  0.6119
 1902SOL     OW17164   0.590   0.635   2.059 -0.0431  0.0140  0.6803
 1902SOL    HW117165   0.517   0.576   2.038 -0.3095 -0.2345  2.2731
 1902SOL    HW217166   0.555   0.695   2.125  0.7723  1.7623 -0.4960
 1903SOL     OW17167   0.600   2.478  16.616 -0.0122 -0.2138  0.2358
 1903SOL    HW117168   0.579   2.426  16.694 -0.1939  1.0948  1.0729
 1903SOL    HW217169   0.569   2.567  16.636 -2.2838 -1.3822  1.9870
 1904SOL     OW17170   1.236   4.662   0.855  0.5897 -0.0991  0.4944
 1904SOL    HW117171   1.249   4.679   0.762 -1.3161  1.6570  0.5657
 1904SOL    HW217172   1.324   4.646   0.891  1.6217  0.0640 -1.9859
 1905SOL     OW17173   0.823   1.694   6.209 -0.3872 -0.2185 -0.1814
 1905SOL    HW117174   0.888   1.667   6.144  0.5921 -0.0436  0.7324
 1905SOL    HW217175   0.760   1.748   6.162 -2.2159 -1.7444  0.4913
 1906SOL     OW17176   2.395   4.346   1.978 -0.0544 -0.1111 -0.0140
 1906SOL    HW117177   2.376   4.355   1.885  0.8352 -2.3256 -0.4006
 1906SOL    HW217178   2.490   4.357   1.983  0.2256 -1.9706 -1.3070
 1907SOL     OW17179   0.216   3.686   0.583  0.0105  0.1316  0.0305
 1907SOL    HW117180   0.210   3.605   0.634  0.6450 -0.7560 -1.3305
 1907SOL    HW217181   0.220   3.660   0.491 -2.0939  0.2681 -0.0947
 1908SOL     OW17182   0.975   2.389   8.257 -0.2577 -0.0998 -0.2374
 1908SOL    HW117183   1.005   2.463   8.309 -0.3343  0.7592 -1.4272
 1908SOL    HW217184   0.929   2.345   8.328 -2.5048 -1.6628 -2.6773
 1909SOL     OW17185   2.115   4.609  13.468 -0.0746 -0.2906 -0.2780
 1909SOL    HW117186   2.173   4.685  13.460 -1.9703  1.0820 -1.2832
 1909SOL    HW217187   2.165   4.530  13.453 -0.1343 -0.6146  1.2791
 1910SOL     OW17188   0.187   0.411   7.787  0.4314 -0.0688  0.2864
 1910SOL    HW117189   0.149   0.496   7.813 -3.2534 -1.7722  0.5092
 1910SOL    HW217190   0.272   0.439   7.753 -0.2566  1.4187 -0.2315
 1911SOL     OW17191   4.562   0.857   0.022 -0.4295 -0.1101  0.2986
 1911SOL    HW117192   4.531   0.798  17.659  2.1701 -0.6144 -0.4043
 1911SOL    HW217193   4.640   0.808   0.048 -1.6408 -0.6796  2.9408
 1912SOL     OW17194   3.025   3.752  14.972 -0.5530  0.4285 -0.1726
 1912SOL    HW117195   3.085   3.818  15.006  0.2266  0.4365 -1.5811
 1912SOL    HW217196   2.943   3.777  15.015 -0.0821  2.3355 -0.4173
 1913SOL     OW17197   1.505   0.811   8.222  0.2695 -0.3648  0.4407
 1913SOL    HW117198   1.480   0.898   8.251 -0.5589 -0.2461 -0.6234
 1913SOL    HW217199   1.596   0.801   8.250  1.1443  0.3634 -2.0552
 1914SOL     OW17200   0.867   4.724  13.983  0.2037 -0.4919 -0.1246
 1914SOL    HW117201   0.953   4.693  13.953  1.5257  2.0514  0.9842
 1914SOL    HW217202   0.856   0.071  13.922 -0.4578 -0.8725 -0.4625
 1915SOL     OW17203   0.609   3.476   0.078  0.1576  0.4785  0.6602
 1915SOL    HW117204   0.698   3.483   0.112  0.9445 -1.7300 -0.9674
 1915SOL    HW217205   0.576   3.423   0.151 -1.4847  0.3983 -0.1567
 1916SOL     OW17206   2.162   0.504   3.194 -0.0157  0.3212 -0.3972
 1916SOL    HW117207   2.081   0.525   3.240 -0.5491  1.3999 -1.8043
 1916SOL    HW217208   2.218   0.559   3.249  0.6291 -0.3710 -0.3727
 1917SOL     OW17209   0.567   0.266  14.108  0.1688 -0.8303  1.1624
 1917SOL    HW117210   0.480   0.300  14.088 -0.1874 -1.8119  1.0510
 1917SOL    HW217211   0.617   0.316  14.043 -1.6516 -0.4006  0.1162
 1918SOL     OW17212   2.239   3.841   2.399  0.0097  0.3513  0.2625
 1918SOL    HW117213   2.238   3.909   2.331 -1.4663  1.5441  1.4604
 1918SOL    HW217214   2.271   3.766   2.349 -1.1652  1.3570 -2.0536
 1919SOL     OW17215   1.645   1.156  13.053  0.0555  0.0828  1.0824
 1919SOL    HW117216   1.715   1.110  13.099  2.1816  2.0667 -0.1629
 1919SOL    HW217217   1.597   1.181  13.132 -1.2854  1.1309 -0.0550
 1920SOL     OW17218   1.652   2.683  15.432 -0.3209  0.1600 -0.6976
 1920SOL    HW117219   1.625   2.647  15.517 -0.4086 -1.1474 -1.2681
 1920SOL    HW217220   1.576   2.742  15.434 -0.0139  0.5439 -0.2881
 1921SOL     OW17221   2.276   3.140   7.634  0.5289  0.4181  0.5892
 1921SOL    HW117222   2.283   3.128   7.539  2.2542 -3.1467  1.1468
 1921SOL    HW217223   2.206   3.205   7.630  0.8328  0.8699  2.5736
 1922SOL     OW17224   2.422   1.682   4.467  0.3142  0.0342  0.2184
 1922SOL    HW117225   2.495   1.649   4.414 -0.0045 -0.5948  0.1629
 1922SOL    HW217226   2.419   1.776   4.450  3.0815  0.5071  2.2853
 1923SOL     OW17227   1.097   1.467  14.424 -0.7310  0.0258  0.0078
 1923SOL    HW117228   1.028   1.472  14.357 -0.5158 -1.4289 -0.3301
 1923SOL    HW217229   1.096   1.371  14.434  1.2571  0.2668  2.4957
 1924SOL     OW17230   0.554   1.355   4.944 -0.6250  0.1937 -0.4129
 1924SOL    HW117231   0.618   1.286   4.925  1.4689  1.6730  1.2418
 1924SOL    HW217232   0.555   1.358   5.040  0.0102 -0.6707 -0.3840
 1925SOL     OW17233   3.027   1.479   8.774 -0.3503  0.6738  0.1169
 1925SOL    HW117234   2.960   1.413   8.759 -0.6807  0.9018  0.5789
 1925SOL    HW217235   3.093   1.415   8.799  1.0510  1.6042 -1.2089
 1926SOL     OW17236   4.138   2.559  11.173  0.2290  0.2831 -0.0459
 1926SOL    HW117237   4.057   2.606  11.153  0.1826  0.1832 -0.0941
 1926SOL    HW217238   4.114   2.515  11.255 -1.2226  1.1623  0.0051
 1927SOL     OW17239   0.869   4.669   3.509  0.4623 -0.5057 -0.2442
 1927SOL    HW117240   0.943   4.692   3.453  0.2156 -1.1025 -0.8188
 1927SOL    HW217241   0.881   4.574   3.511  0.6470 -0.3814  4.0488
 1928SOL     OW17242   1.689   2.527   8.509  0.3793  0.2685  0.1266
 1928SOL    HW117243   1.684   2.621   8.495 -2.6674  0.0358 -0.4762
 1928SOL    HW217244   1.641   2.495   8.432  0.9177  1.9252 -0.8910
 1929SOL     OW17245   4.427   4.429  13.809 -0.0701  0.7903  0.7968
 1929SOL    HW117246   4.405   4.472  13.726 -0.4690 -1.2710 -0.1693
 1929SOL    HW217247   4.368   4.474  13.869 -1.3625  1.9634 -1.3218
 1930SOL     OW17248   0.254   0.721   5.371 -0.0653 -0.3906 -0.1249
 1930SOL    HW117249   0.281   0.777   5.443  0.4321  0.2525 -0.8121
 1930SOL    HW217250   0.276   0.640   5.417  0.3224 -1.1104 -1.5547
 1931SOL     OW17251   4.011   4.229   3.302  0.1477  0.3910 -0.0747
 1931SOL    HW117252   3.965   4.164   3.355  1.1703 -0.0410  0.2777
 1931SOL    HW217253   4.075   4.270   3.359  1.5866  0.2995 -1.6019
 1932SOL     OW17254   2.501   0.862   3.446 -0.2187 -0.3773 -0.2584
 1932SOL    HW117255   2.517   0.917   3.522 -3.2627  0.5751 -0.2906
 1932SOL    HW217256   2.593   0.838   3.433  0.0364 -0.3219  1.4139
 1933SOL     OW17257   0.884   0.790   4.405 -0.1059  1.0004  0.1062
 1933SOL    HW117258   0.820   0.830   4.347 -0.0931 -1.3670 -1.5400
 1933SOL    HW217259   0.828   0.718   4.436  0.0451  0.3054 -1.2404
 1934SOL     OW17260   1.567   1.820   2.804 -0.5920 -0.1185 -0.1396
 1934SOL    HW117261   1.620   1.885   2.757 -1.3754 -0.4484 -1.4807
 1934SOL    HW217262   1.517   1.780   2.733  0.6473  1.0027 -1.6581
 1935SOL     OW17263   0.796   4.542   8.212  0.0797  0.3976  0.1228
 1935SOL    HW117264   0.875   4.488   8.213  0.6520  1.2284  0.1581
 1935SOL    HW217265   0.741   4.475   8.252 -0.0903 -0.1564 -1.0326
 1936SOL     OW17266   4.100   3.206   7.165 -0.1100 -0.0385  0.0562
 1936SOL    HW117267   4.083   3.212   7.071  0.4727 -2.4297 -0.2238
 1936SOL    HW217268   4.095   3.110   7.165 -0.9595 -0.0042  1.6628
 1937SOL     OW17269   3.571   1.851  15.661 -0.0221  0.5033 -0.3652
 1937SOL    HW117270   3.584   1.779  15.722 -0.0097  1.0164  0.2417
 1937SOL    HW217271   3.622   1.923  15.698  1.0961 -0.2883 -0.3677
 1938SOL     OW17272   2.567   2.758   6.689  0.2147  0.9770  0.2174
 1938SOL    HW117273   2.555   2.736   6.597 -0.9321  2.2570  0.0563
 1938SOL    HW217274   2.574   2.854   6.681  0.1847  1.0303  0.8077
 1939SOL     OW17275   2.854   1.766   8.236  0.0346 -0.2907  0.1028
 1939SOL    HW117276   2.819   1.724   8.157 -1.2470  0.6416  0.1832
 1939SOL    HW217277   2.936   1.791   8.192 -0.2381  0.8669  0.2761
 1940SOL     OW17278   1.300   2.827   0.492  0.2068 -0.3029  0.2787
 1940SOL    HW117279   1.387   2.798   0.467  0.0712 -0.6730  0.2412
 1940SOL    HW217280   1.307   2.920   0.470 -0.5390 -0.0602  1.0622
 1941SOL     OW17281   1.722   1.486   4.999 -0.3218 -0.0613  0.4852
 1941SOL    HW117282   1.715   1.391   5.010 -0.7580  0.2185  2.6361
 1941SOL    HW217283   1.789   1.511   5.063 -1.4164  1.6439  0.9475
 1942SOL     OW17284   1.967   0.687  17.358 -0.1540 -0.0394  0.2611
 1942SOL    HW117285   1.999   0.599  17.378  0.5540  0.2186  0.2498
 1942SOL    HW217286   1.899   0.684  17.426  0.4708  0.8181  0.9218
 1943SOL     OW17287   0.072   4.037   9.416 -0.3885 -0.2981 -0.4363
 1943SOL    HW117288   4.704   4.046   9.429 -0.4324 -0.1434 -0.8657
 1943SOL    HW217289   0.099   4.117   9.462 -1.1928  0.5600 -1.4454
 1944SOL     OW17290   4.278   3.534  12.681 -0.2523 -0.3893  0.1512
 1944SOL    HW117291   4.272   3.626  12.708 -1.6435 -0.1506 -0.9698
 1944SOL    HW217292   4.371   3.537  12.657 -0.0006  0.2468  1.2247
 1945SOL     OW17293   0.665   2.763   3.188  0.2305 -0.3831 -0.3400
 1945SOL    HW117294   0.628   2.700   3.250  0.8966  0.3518  0.8166
 1945SOL    HW217295   0.613   2.736   3.113 -1.4546 -2.7176  1.6776
 1946SOL     OW17296   0.760   1.162  16.241  0.4558 -0.6564 -0.1116
 1946SOL    HW117297   0.700   1.236  16.253 -0.6211 -1.4250 -0.7549
 1946SOL    HW217298   0.819   1.176  16.315 -0.9330 -0.5101  0.9700
 1947SOL     OW17299   4.241   0.730   4.619  0.7101  0.2242  0.0146
 1947SOL    HW117300   4.206   0.808   4.663 -2.7679 -0.9301 -0.7408
 1947SOL    HW217301   4.329   0.751   4.588  0.5156 -0.1980 -0.8155
 1948SOL     OW17302   1.789   1.966  13.032 -0.3336  0.5487 -0.3792
 1948SOL    HW117303   1.787   2.055  13.066 -1.9027  0.0355  0.8896
 1948SOL    HW217304   1.872   1.965  12.983  0.7091  0.7379  1.3721
 1949SOL     OW17305   3.895   4.472  16.859 -0.4358  0.0072  0.1290
 1949SOL    HW117306   3.953   4.542  16.890 -0.5192  1.1907 -2.4582
 1949SOL    HW217307   3.815   4.521  16.838 -1.8589 -0.9534  3.2859
 1950SOL     OW17308   1.596   2.420  15.874  0.2387 -0.0813 -0.2283
 1950SOL    HW117309   1.592   2.488  15.941 -0.1517 -0.1293 -0.2034
 1950SOL    HW217310   1.587   2.347  15.935 -1.4008 -0.6274 -1.1074
 1951SOL     OW17311   2.517   2.846   5.056  0.5989  0.2283 -0.3065
 1951SOL    HW117312   2.486   2.765   5.098  3.2355  0.0761  1.3785
 1951SOL    HW217313   2.566   2.819   4.979  0.9448  1.6357 -0.5670
 1952SOL     OW17314   3.176   0.626   4.359  0.0062 -0.1485  0.0823
 1952SOL    HW117315   3.202   0.664   4.275  1.8153 -0.6531  0.4192
 1952SOL    HW217316   3.119   0.554   4.334  0.2028 -1.6322  3.8240
 1953SOL     OW17317   1.210   3.340  10.957  0.0018 -0.5740  0.3459
 1953SOL    HW117318   1.188   3.404  10.889  1.7297  1.6697  1.9210
 1953SOL    HW217319   1.158   3.373  11.030  0.1208  2.1152 -0.7991
 1954SOL     OW17320   0.632   0.254  14.991  0.1256 -0.0257  0.1982
 1954SOL    HW117321   0.578   0.276  14.916  2.3197 -1.6328 -1.8688
 1954SOL    HW217322   0.643   0.160  14.975 -1.3177 -0.7033  3.1710
 1955SOL     OW17323   3.981   0.274   5.765 -0.0926 -0.3332  0.2287
 1955SOL    HW117324   4.026   0.313   5.840  0.0628 -0.4750  0.2088
 1955SOL    HW217325   3.993   0.185   5.796 -2.3053 -0.2112  1.3871
 1956SOL     OW17326   0.824   2.941   7.133  0.2466 -0.2689 -0.0259
 1956SOL    HW117327   0.749   2.915   7.186 -0.4834  1.3455 -0.2818
 1956SOL    HW217328   0.794   2.890   7.058  1.2998 -0.3084 -0.4262
 1957SOL     OW17329   0.578   2.537   4.287  0.2386  0.0847 -0.4859
 1957SOL    HW117330   0.496   2.499   4.256  0.6523 -2.6982  1.7964
 1957SOL    HW217331   0.626   2.460   4.320  0.3997  1.1680  1.8016
 1958SOL     OW17332   3.074   3.122   7.614  0.3974  0.0070  0.2309
 1958SOL    HW117333   3.073   3.076   7.530 -1.0297  0.9223 -0.2413
 1958SOL    HW217334   2.988   3.164   7.618  0.3915  0.0650 -0.5412
 1959SOL     OW17335   2.497   3.949   2.629  0.4119  0.2196  0.1770
 1959SOL    HW117336   2.437   3.940   2.555 -0.8009  0.0873  1.1996
 1959SOL    HW217337   2.475   3.881   2.692 -0.1694  1.2235  1.0482
 1960SOL     OW17338   2.026   2.781   4.680 -0.0767  0.0200 -0.0927
 1960SOL    HW117339   2.114   2.789   4.717  0.9211  0.3613 -2.5613
 1960SOL    HW217340   2.012   2.688   4.700  1.7317 -0.5474 -1.5122
 1961SOL     OW17341   0.127   2.525   8.446  0.1758  0.1042  0.8312
 1961SOL    HW117342   0.089   2.590   8.386 -2.0926 -0.2517  1.8734
 1961SOL    HW217343   0.053   2.472   8.477 -1.4443 -0.5555 -4.1460
 1962SOL     OW17344   1.105   0.685  13.347 -0.1756 -0.3448 -0.0874
 1962SOL    HW117345   1.081   0.754  13.285 -0.0416  1.8375  2.3256
 1962SOL    HW217346   1.157   0.737  13.408 -0.3869  0.3233 -0.4678
 1963SOL     OW17347   2.950   4.087   5.982  0.0355 -0.4025  0.0204
 1963SOL    HW117348   3.043   4.068   5.995  0.1390  0.8543  1.0220
 1963SOL    HW217349   2.928   4.029   5.908  0.4886 -0.4018 -0.1130
 1964SOL     OW17350   1.275   3.120   0.405  0.6301 -0.4507  0.0500
 1964SOL    HW117351   1.240   3.208   0.420  1.8887  0.2714 -1.2701
 1964SOL    HW217352   1.370   3.131   0.409  0.4751  1.1682 -0.8128
 1965SOL     OW17353   3.627   4.524   1.073  0.1188  0.6333 -0.9701
 1965SOL    HW117354   3.582   4.608   1.081  1.0533  1.0088  0.3520
 1965SOL    HW217355   3.554   4.476   1.033 -1.7006  1.6902  1.0822
 1966SOL     OW17356   4.655   1.562  15.430 -0.2461 -0.0034  0.1785
 1966SOL    HW117357   4.561   1.546  15.439 -0.2310 -0.6891 -0.9019
 1966SOL    HW217358   4.668   1.615  15.509 -0.8274 -2.4153  1.8958
 1967SOL     OW17359   1.075   0.303  17.543  0.2768  0.2884 -0.0974
 1967SOL    HW117360   1.086   0.283  17.450  0.6007  0.1314 -0.0267
 1967SOL    HW217361   0.981   0.321  17.542 -0.1646 -2.0170  0.5471
 1968SOL     OW17362   0.253   3.988   1.698  0.4683 -0.1298 -0.1202
 1968SOL    HW117363   0.293   4.023   1.619  2.2296 -1.5333  0.1439
 1968SOL    HW217364   0.249   3.896   1.672  1.8707 -0.0598 -0.5978
 1969SOL     OW17365   0.203   3.227   5.551 -0.3499 -0.1552  0.4312
 1969SOL    HW117366   0.291   3.239   5.586 -0.5949  0.3661  0.8639
 1969SOL    HW217367   0.208   3.135   5.527 -1.7171 -0.3240  0.7981
 1970SOL     OW17368   4.176   0.399   0.008  0.1376  0.2233  0.4007
 1970SOL    HW117369   4.099   0.421   0.061  0.2735  2.2459 -0.2150
 1970SOL    HW217370   4.231   0.474   0.030  1.9011 -1.8118  2.8057
 1971SOL     OW17371   2.787   3.074  16.075 -0.0291  0.2797  0.1687
 1971SOL    HW117372   2.788   3.110  16.163 -0.8722  0.4875  0.0907
 1971SOL    HW217373   2.704   3.110  16.044 -2.4831 -3.7992  2.0706
 1972SOL     OW17374   1.465   4.433  10.223 -0.3916  0.0446  0.3186
 1972SOL    HW117375   1.464   4.432  10.127  0.2704  2.2208  0.2839
 1972SOL    HW217376   1.390   4.376  10.240  0.4406 -1.2113 -0.2474
 1973SOL     OW17377   1.076   4.665   9.384 -0.2683  0.4533 -0.3088
 1973SOL    HW117378   1.096   4.582   9.425 -0.0556  0.8204  0.3178
 1973SOL    HW217379   1.144   4.664   9.316 -1.5047 -1.0108 -1.5149
 1974SOL     OW17380   3.210   0.115   4.735  0.0761 -0.9663 -0.7693
 1974SOL    HW117381   3.238   0.141   4.823 -2.0531 -0.3574 -0.2818
 1974SOL    HW217382   3.117   0.136   4.733  0.3762  0.3533 -0.6585
 1975SOL     OW17383   1.523   2.717   6.671 -0.5175  0.0553 -0.2976
 1975SOL    HW117384   1.552   2.626   6.670 -1.2729 -0.1750 -1.0199
 1975SOL    HW217385   1.482   2.721   6.585 -0.8836 -4.5775 -0.3512
 1976SOL     OW17386   4.201   4.061   5.697  0.0780  0.6025  0.1377
 1976SOL    HW117387   4.235   4.150   5.696 -0.8796  0.9404 -3.9016
 1976SOL    HW217388   4.211   4.043   5.790  1.3201 -2.1124 -0.4976
 1977SOL     OW17389   4.207   3.600   2.490 -0.3695  0.4753  0.4303
 1977SOL    HW117390   4.259   3.548   2.553 -0.1905  1.5002  1.1336
 1977SOL    HW217391   4.127   3.603   2.542  0.5677 -1.4924  2.0179
 1978SOL     OW17392   1.561   2.268   6.958 -0.1255 -0.5383 -0.2940
 1978SOL    HW117393   1.480   2.305   6.993 -0.5180 -3.3344  1.8285
 1978SOL    HW217394   1.576   2.207   7.031  1.7503 -0.4333 -0.5966
 1979SOL     OW17395   3.109   4.384  12.150 -0.6762  0.1976 -0.4002
 1979SOL    HW117396   3.076   4.312  12.095 -1.2593 -0.8832  1.3485
 1979SOL    HW217397   3.092   4.346  12.236 -1.1093  0.0127 -0.5674
 1980SOL     OW17398   0.855   0.566  12.315 -0.1472 -0.0076  0.3015
 1980SOL    HW117399   0.784   0.534  12.371  1.0402  0.5136  2.1222
 1980SOL    HW217400   0.928   0.546  12.374  1.2909  1.7446 -0.8896
 1981SOL     OW17401   1.670   2.858   4.231  0.1931  0.1211 -0.0721
 1981SOL    HW117402   1.738   2.791   4.228  1.2501  1.1722  1.0682
 1981SOL    HW217403   1.723   2.937   4.220  1.3657 -0.8877 -1.6019
 1982SOL     OW17404   3.592   2.606   2.960 -0.2986  0.2978  0.4125
 1982SOL    HW117405   3.667   2.568   3.004  0.0635  0.9636  0.3621
 1982SOL    HW217406   3.547   2.659   3.027 -0.4510  1.2492 -0.4316
 1983SOL     OW17407   1.485   2.544  16.395  0.5912 -0.3697 -0.2894
 1983SOL    HW117408   1.541   2.578  16.465 -1.0879 -0.4422  1.0903
 1983SOL    HW217409   1.511   2.452  16.389  0.6810 -0.3568 -0.0982
 1984SOL     OW17410   3.770   0.361   0.041 -0.2562 -0.4311  0.0936
 1984SOL    HW117411   3.801   0.276   0.073 -0.7799 -1.9145 -3.3212
 1984SOL    HW217412   3.686   0.340   0.001 -2.1686  2.2710  2.6905
 1985SOL     OW17413   4.334   3.421   6.226  0.5561 -0.1932 -0.2126
 1985SOL    HW117414   4.299   3.345   6.180 -1.2398 -0.2220  1.1850
 1985SOL    HW217415   4.417   3.387   6.259 -0.3703 -0.2315  2.1093
 1986SOL     OW17416   0.847   1.370   1.695  0.0047  0.0316 -0.3879
 1986SOL    HW117417   0.843   1.465   1.688 -1.0076  0.0332  0.2477
 1986SOL    HW217418   0.764   1.342   1.656  0.8309 -3.2987  0.2471
 1987SOL     OW17419   3.885   2.864   4.877 -0.0292  0.7490 -0.3075
 1987SOL    HW117420   3.973   2.893   4.901  0.0927 -0.0562  0.2025
 1987SOL    HW217421   3.826   2.879   4.950  1.2538  1.3889  0.6118
 1988SOL     OW17422   1.716   3.753   1.463 -0.0030  0.2248 -0.6683
 1988SOL    HW117423   1.756   3.667   1.451 -0.6969 -0.2328  0.3813
 1988SOL    HW217424   1.627   3.730   1.488  0.1491 -0.1043 -0.4235
 1989SOL     OW17425   1.194   0.029   6.849 -0.9389  0.3096  0.1454
 1989SOL    HW117426   1.136   0.030   6.925 -0.0493 -0.1656  0.8279
 1989SOL    HW217427   1.141   0.005   6.773  0.5411 -1.4003 -0.3641
 1990SOL     OW17428   1.408   0.294   3.418  0.6722  0.2181 -0.5641
 1990SOL    HW117429   1.385   0.262   3.505 -0.3782 -3.6209 -2.2907
 1990SOL    HW217430   1.476   0.232   3.392  0.5586  0.1754 -0.7586
 1991SOL     OW17431   3.913   0.525   6.318  0.0410  0.3993  0.3051
 1991SOL    HW117432   3.922   0.505   6.411 -0.8030  0.8873  0.4934
 1991SOL    HW217433   3.856   0.454   6.289  2.4105 -1.0135 -0.8275
 1992SOL     OW17434   4.694   1.420   5.821 -0.1401  0.0866  0.0043
 1992SOL    HW117435   4.665   1.354   5.759  0.0985  0.5544 -0.6103
 1992SOL    HW217436   4.667   1.390   5.907 -1.0706 -1.7472 -0.9396
 1993SOL     OW17437   1.434   0.972   4.487 -0.6262 -0.5548 -0.1188
 1993SOL    HW117438   1.461   1.035   4.553  1.5433  0.4894 -1.9999
 1993SOL    HW217439   1.372   0.919   4.537  0.3418 -2.0589 -0.5300
 1994SOL     OW17440   2.080   0.181   2.997  0.1221 -0.0204 -0.0312
 1994SOL    HW117441   2.067   0.086   2.984 -1.2731  0.0812  0.6284
 1994SOL    HW217442   2.038   0.193   3.082 -0.0537  0.9690 -0.2681
 1995SOL     OW17443   2.347   0.017   0.750 -0.2790  0.2073 -0.6651
 1995SOL    HW117444   2.337   4.658   0.793  0.9322  0.5655  0.3209
 1995SOL    HW217445   2.435   0.047   0.772  0.2658 -1.5340 -0.4795
 1996SOL     OW17446   0.751   2.655   9.603 -0.1391  0.0364  0.5646
 1996SOL    HW117447   0.741   2.567   9.566 -1.4340  1.5700 -2.7579
 1996SOL    HW217448   0.670   2.648   9.654 -1.2135 -0.2389 -1.1732
 1997SOL     OW17449   1.847   4.125  14.590 -0.1140 -0.2144  0.0375
 1997SOL    HW117450   1.912   4.141  14.522 -2.0796 -0.1435 -1.8224
 1997SOL    HW217451   1.805   4.058  14.537 -2.0417 -0.7592  2.2464
 1998SOL     OW17452   2.646   2.379   3.403  0.5307 -0.2467 -0.2307
 1998SOL    HW117453   2.616   2.375   3.312 -1.0333 -1.2830  0.3283
 1998SOL    HW217454   2.625   2.472   3.412  0.3253 -0.3481  0.3388
 1999SOL     OW17455   2.033   1.346   7.627 -0.1416  0.2806  0.1145
 1999SOL    HW117456   1.981   1.416   7.665 -0.8673  0.7130 -1.6888
 1999SOL    HW217457   1.992   1.274   7.676 -0.5711 -0.6239 -1.5877
 2000SOL     OW17458   1.676   0.453  12.316  0.0498 -0.3113 -0.4688
 2000SOL    HW117459   1.704   0.508  12.244  1.7425  0.6211  0.8907
 2000SOL    HW217460   1.680   0.365  12.279  1.6911 -0.6673  0.5269
 2001SOL     OW17461   0.827   2.329  16.518 -0.3096  0.7266 -0.2481
 2001SOL    HW117462   0.758   2.393  16.529  0.2771  1.1996  0.6908
 2001SOL    HW217463   0.903   2.367  16.564  0.2649 -1.2966  0.4637
 2002SOL     OW17464   2.666   0.280  10.354 -0.0365 -1.1566  0.7022
 2002SOL    HW117465   2.647   0.201  10.303  0.0451 -1.1233  0.6200
 2002SOL    HW217466   2.758   0.268  10.379  0.3338 -0.2035 -0.2045
 2003SOL     OW17467   3.884   2.249   5.230  0.1899  0.7195  0.0160
 2003SOL    HW117468   3.926   2.166   5.253  0.5739  0.9088  0.0067
 2003SOL    HW217469   3.846   2.230   5.145 -0.1315  0.6223  0.1794
 2004SOL     OW17470   0.919   2.614  13.797  0.0318 -0.0565  0.3304
 2004SOL    HW117471   0.951   2.560  13.725  1.1312  1.2764 -0.1854
 2004SOL    HW217472   0.860   2.557  13.845  0.1267 -0.8573 -0.5132
 2005SOL     OW17473   2.350   3.511  17.441 -0.7860 -0.2075 -0.1915
 2005SOL    HW117474   2.291   3.545  17.374  1.8244 -0.0521 -2.3928
 2005SOL    HW217475   2.288   3.453  17.486 -0.1536 -1.2907 -0.7173
 2006SOL     OW17476   3.075   3.036  13.141 -0.4746  0.3101 -0.6564
 2006SOL    HW117477   3.042   3.093  13.210  3.3329  1.1172  0.5040
 2006SOL    HW217478   3.146   2.985  13.181 -0.2769  1.8614  0.9536
 2007SOL     OW17479   1.120   0.334   1.006 -0.3465 -0.3161  0.1789
 2007SOL    HW117480   1.175   0.271   1.053  1.0165 -0.6815 -1.9206
 2007SOL    HW217481   1.066   0.370   1.076  1.0742  0.1288  1.0573
 2008SOL     OW17482   3.084   1.715   8.054  0.2088  0.4616  0.4690
 2008SOL    HW117483   3.132   1.660   8.116 -0.1151  1.1869  1.3601
 2008SOL    HW217484   3.142   1.788   8.033 -0.0086  0.6744  0.6281
 2009SOL     OW17485   2.247   1.957   6.930 -0.3667  0.2589  0.3125
 2009SOL    HW117486   2.172   2.008   6.960 -0.7669  0.0138 -0.2632
 2009SOL    HW217487   2.218   1.943   6.840  2.8839  0.2589 -0.7462
 2010SOL     OW17488   2.828   0.870  16.406  0.2824 -0.2626  0.4055
 2010SOL    HW117489   2.811   0.780  16.432 -0.8084 -0.2842 -0.3811
 2010SOL    HW217490   2.778   0.912  16.476  0.8677  2.2061 -0.6388
 2011SOL     OW17491   0.861   4.589   7.938  0.5974  0.5228  0.0562
 2011SOL    HW117492   0.863   4.587   8.034 -0.9331  0.1411  0.0817
 2011SOL    HW217493   0.768   4.585   7.916  0.8477 -1.7124 -0.5327
 2012SOL     OW17494   3.639   1.564  11.901  0.1543  0.3455  0.0584
 2012SOL    HW117495   3.589   1.536  11.978  0.6202 -1.3170 -0.2645
 2012SOL    HW217496   3.637   1.480  11.856  1.5021 -0.4641  1.4967
 2013SOL     OW17497   1.912   1.445   1.233 -0.5057  0.2932  0.1022
 2013SOL    HW117498   1.843   1.410   1.177  1.4410  0.7588 -2.5484
 2013SOL    HW217499   1.908   1.382   1.305 -2.0350  0.6565  0.3217
 2014SOL     OW17500   2.588   3.279   5.286  0.0525  0.2405  0.3523
 2014SOL    HW117501   2.627   3.317   5.207  2.0157 -1.2994  0.5874
 2014SOL    HW217502   2.533   3.352   5.314  0.4270 -0.3855  2.6555
 2015SOL     OW17503   0.785   2.367  13.424 -0.9530 -0.1974 -0.4528
 2015SOL    HW117504   0.693   2.383  13.406  0.0344  1.5855 -3.9900
 2015SOL    HW217505   0.782   2.271  13.419  0.7336 -0.2058 -1.1995
 2016SOL     OW17506   0.772   4.435   0.074  0.1304  0.7566  0.1161
 2016SOL    HW117507   0.763   4.416   0.167  0.0178  0.3647  0.0282
 2016SOL    HW217508   0.841   4.374   0.049 -1.3091 -0.3640 -1.1618
 2017SOL     OW17509   1.680   4.159   3.873  0.4269 -0.0343  0.0449
 2017SOL    HW117510   1.717   4.205   3.949 -1.6251 -1.5344  1.9832
 2017SOL    HW217511   1.611   4.215   3.836  0.5016 -2.2602 -3.4479
 2018SOL     OW17512   0.331   2.229   6.017 -0.3181  0.4012  0.1412
 2018SOL    HW117513   0.333   2.324   6.006  0.4736  0.4224  0.4927
 2018SOL    HW217514   0.299   2.202   5.931  2.6227 -0.0061 -0.8343
 2019SOL     OW17515   1.558   3.710   8.319 -0.0062  0.0412  0.4996
 2019SOL    HW117516   1.503   3.713   8.397 -0.7813  2.2970 -0.1516
 2019SOL    HW217517   1.647   3.724   8.352  0.2911  2.7213 -1.4917
 2020SOL     OW17518   3.326   1.984  13.572  0.1564 -0.0681 -0.4188
 2020SOL    HW117519   3.243   1.991  13.620 -0.9803  1.2924 -2.6289
 2020SOL    HW217520   3.352   2.076  13.579 -0.6704  0.1977 -0.8791
 2021SOL     OW17521   3.944   0.665   0.467 -0.0552  0.4185 -0.2703
 2021SOL    HW117522   3.884   0.600   0.503  3.8175 -2.1305  1.6190
 2021SOL    HW217523   3.893   0.712   0.401 -3.1582 -1.8376  0.5440
 2022SOL     OW17524   3.186   0.917   1.182 -0.1499  0.0508  0.1643
 2022SOL    HW117525   3.146   0.964   1.255  2.3186 -0.3642  1.7987
 2022SOL    HW217526   3.251   0.860   1.223 -1.1326 -2.8737 -2.3093
 2023SOL     OW17527   2.200   2.645  15.913 -0.1142 -0.5967 -0.4371
 2023SOL    HW117528   2.290   2.623  15.890  0.4639 -0.2819  1.5255
 2023SOL    HW217529   2.219   2.708  15.983 -1.3350  0.9899 -1.5194
 2024SOL     OW17530   3.436   2.712   7.454  0.1233  0.2304 -0.1990
 2024SOL    HW117531   3.346   2.715   7.422  0.5316  1.2252 -1.2153
 2024SOL    HW217532   3.417   2.691   7.546 -0.7067 -0.6621 -0.5789
 2025SOL     OW17533   1.767   1.017   4.048 -0.1651  0.1625  0.4508
 2025SOL    HW117534   1.794   1.058   4.130 -0.8332 -0.3598  0.9244
 2025SOL    HW217535   1.816   1.071   3.985  0.1094 -1.4255 -0.6796
 2026SOL     OW17536   1.689   1.363  11.452 -0.2090 -0.1857 -0.6459
 2026SOL    HW117537   1.748   1.297  11.490 -1.0456 -1.1068 -0.9524
 2026SOL    HW217538   1.695   1.334  11.361  0.9992  0.0970 -0.6538
 2027SOL     OW17539   0.277   1.228   7.625  0.0325  0.2189 -0.1077
 2027SOL    HW117540   0.352   1.193   7.674  1.7699 -0.2930 -3.1708
 2027SOL    HW217541   0.325   1.258   7.548  2.8826  1.1593  2.0063
 2028SOL     OW17542   1.704   4.491   8.816 -0.2829  0.0394 -0.0194
 2028SOL    HW117543   1.686   4.576   8.857 -0.2011  0.0290  0.0393
 2028SOL    HW217544   1.721   4.513   8.724  0.2692 -0.1964  0.0237
 2029SOL     OW17545   1.589   0.707   3.705 -0.2754 -0.6768 -0.0021
 2029SOL    HW117546   1.498   0.736   3.716 -0.3234 -0.4661 -0.8871
 2029SOL    HW217547   1.600   0.743   3.616 -1.3923 -4.7130 -1.7894
 2030SOL     OW17548   0.835   1.744   1.398 -0.3065 -0.7813 -0.2309
 2030SOL    HW117549   0.911   1.788   1.361 -1.4289 -0.8885 -2.6256
 2030SOL    HW217550   0.871   1.671   1.449 -0.5101 -0.9964 -0.3939
 2031SOL     OW17551   4.576   3.111   5.855  0.3262 -0.0018  0.4597
 2031SOL    HW117552   4.587   3.068   5.770 -1.8524  0.9285 -0.3122
 2031SOL    HW217553   4.634   3.059   5.910  0.6682  0.4285  0.5054
 2032SOL     OW17554   0.936   3.717   7.311  0.3364 -0.2542 -0.0575
 2032SOL    HW117555   0.910   3.695   7.401 -0.9135  0.8673 -0.1547
 2032SOL    HW217556   0.854   3.698   7.267  0.9149 -0.8235 -0.8923
 2033SOL     OW17557   0.457   4.353  15.371 -0.1803  0.4900 -0.1483
 2033SOL    HW117558   0.449   4.376  15.463  0.8689 -2.0304  0.5744
 2033SOL    HW217559   0.362   4.353  15.358 -0.1703  0.8932 -0.2054
 2034SOL     OW17560   2.059   2.041   4.180  0.5566 -0.1201  0.0536
 2034SOL    HW117561   2.152   2.023   4.173  0.5598  0.6048 -1.7034
 2034SOL    HW217562   2.073   2.132   4.209 -0.2744  0.2056 -0.5502
 2035SOL     OW17563   1.178   1.620   7.247  0.7963  0.6246  0.7113
 2035SOL    HW117564   1.232   1.575   7.182  0.6756  1.5665 -0.0375
 2035SOL    HW217565   1.229   1.700   7.257 -2.3063  2.8042 -0.9154
 2036SOL     OW17566   0.793   2.190  15.817  0.3876 -0.7549  0.1151
 2036SOL    HW117567   0.707   2.146  15.817  0.6370 -1.2465 -0.7412
 2036SOL    HW217568   0.807   2.206  15.724  1.9033  1.7957  0.7866
 2037SOL     OW17569   3.853   0.155  15.270 -0.6390 -0.1643  0.6093
 2037SOL    HW117570   3.843   0.157  15.365  0.2426  0.3087  0.6927
 2037SOL    HW217571   3.809   0.235  15.244 -2.6009 -1.5835 -0.4965
 2038SOL     OW17572   4.687   0.722   4.978 -0.3472 -0.3230  0.1746
 2038SOL    HW117573   4.723   0.806   4.948 -1.9372  1.4795  3.2881
 2038SOL    HW217574   0.018   0.664   4.928 -0.1681  0.6376 -0.7393
 2039SOL     OW17575   2.264   2.625  16.628  0.1201 -0.3462  0.3720
 2039SOL    HW117576   2.289   2.574  16.551 -0.8622 -3.0372  1.8386
 2039SOL    HW217577   2.175   2.656  16.609  0.0736 -0.7444 -0.0617
 2040SOL     OW17578   4.385   3.206  12.170  0.3392 -0.8669  0.0330
 2040SOL    HW117579   4.470   3.250  12.174 -0.9597  1.6809  0.0062
 2040SOL    HW217580   4.361   3.201  12.078 -0.6140  0.7732  0.1663
 2041SOL     OW17581   0.210   0.923   0.753 -0.2621 -0.1385  0.1078
 2041SOL    HW117582   0.232   0.846   0.805  0.1692  1.1243  1.8174
 2041SOL    HW217583   0.202   0.988   0.824  1.0143 -1.1490  1.1776
 2042SOL     OW17584   3.702   2.940  16.369 -0.3524 -0.2374  0.4628
 2042SOL    HW117585   3.639   2.955  16.298  0.2558  1.5865  0.3254
 2042SOL    HW217586   3.650   2.959  16.447  1.1923 -0.5879  1.5704
 2043SOL     OW17587   0.023   1.284  17.141 -0.2275  0.4072 -0.0886
 2043SOL    HW117588   4.684   1.325  17.085 -0.6265 -0.0395  0.0499
 2043SOL    HW217589   0.084   1.278  17.068 -1.7320 -0.0922 -1.2945
 2044SOL     OW17590   1.918   2.134  13.387  0.4417  0.1634  0.2907
 2044SOL    HW117591   1.879   2.163  13.304 -1.8151  1.2888  1.7403
 2044SOL    HW217592   1.843   2.115  13.444  1.0019  2.0843  1.6751
 2045SOL     OW17593   0.774   0.027   6.767  0.1769 -0.1875  0.1367
 2045SOL    HW117594   0.865   0.014   6.742  0.9363  1.0358  2.3493
 2045SOL    HW217595   0.796   0.052   6.857 -1.0522 -2.9957  1.2193
 2046SOL     OW17596   3.420   4.223  16.163  0.4160  0.1812  0.4801
 2046SOL    HW117597   3.489   4.158  16.178  0.1872  0.1171  1.2296
 2046SOL    HW217598   3.404   4.196  16.072  2.1315 -1.4168  0.6505
 2047SOL     OW17599   1.763   0.253  12.137  0.3313 -0.3015 -0.2555
 2047SOL    HW117600   1.848   0.217  12.110  1.6942  0.6556  2.6424
 2047SOL    HW217601   1.722   0.275  12.054 -1.6424 -0.5042  0.6727
 2048SOL     OW17602   4.538   3.384   5.899  0.1029 -0.7547 -0.1240
 2048SOL    HW117603   4.444   3.369   5.904  0.1259 -1.1793 -0.8891
 2048SOL    HW217604   4.560   3.296   5.867  0.9639 -0.8435  0.6991
 2049SOL     OW17605   0.350   0.985   8.255 -0.4407  0.1200 -0.0823
 2049SOL    HW117606   0.302   1.000   8.336 -1.5032 -0.8658 -0.5349
 2049SOL    HW217607   0.303   1.043   8.195  1.8567  0.7493 -1.2710
 2050SOL     OW17608   0.668   4.168  15.303 -0.2321 -0.0658  0.6589
 2050SOL    HW117609   0.590   4.223  15.306 -1.0190 -1.1256 -0.9598
 2050SOL    HW217610   0.733   4.224  15.347  1.1604 -0.4292 -0.9660
 2051SOL     OW17611   0.714   1.501  10.538  0.6669 -0.2794  0.5792
 2051SOL    HW117612   0.655   1.495  10.613 -0.5925 -0.3843 -0.4322
 2051SOL    HW217613   0.701   1.591  10.508  1.0050  0.7814  3.6230
 2052SOL     OW17614   4.548   2.672   6.625 -0.3184 -0.1236 -0.0771
 2052SOL    HW117615   4.509   2.653   6.540  0.5908 -0.1420 -0.4911
 2052SOL    HW217616   4.613   2.603   6.635 -0.9899 -1.1339 -2.7081
 2053SOL     OW17617   4.702   3.143   3.023 -0.1115 -0.1864 -0.5042
 2053SOL    HW117618   0.050   3.137   2.963  0.4794  2.8142 -0.0799
 2053SOL    HW217619   4.657   3.065   2.992  0.1888 -0.3890 -0.4371
 2054SOL     OW17620   1.363   3.284   9.585 -0.1623 -0.0539  0.5333
 2054SOL    HW117621   1.411   3.210   9.621  0.9856  0.0590 -0.7858
 2054SOL    HW217622   1.416   3.352   9.627  1.5464 -1.1608  0.1530
 2055SOL     OW17623   2.847   3.616  13.657  0.4124  0.1604 -0.6754
 2055SOL    HW117624   2.913   3.601  13.725 -0.6208 -0.3612  0.2261
 2055SOL    HW217625   2.877   3.554  13.591  0.3326 -1.1895  0.5607
 2056SOL     OW17626   1.807   3.875   5.608 -0.1244 -0.2771 -0.3912
 2056SOL    HW117627   1.878   3.852   5.668  0.7967  0.1025 -1.3362
 2056SOL    HW217628   1.781   3.956   5.651  4.2525  0.7955  0.2416
 2057SOL     OW17629   0.897   3.928   4.895  0.0845  0.2686  0.7024
 2057SOL    HW117630   0.839   3.998   4.925 -0.2841 -0.3750  1.4771
 2057SOL    HW217631   0.976   3.983   4.896 -0.1307  0.5848  0.5369
 2058SOL     OW17632   3.937   1.964  14.352 -0.0505 -0.1718  0.6918
 2058SOL    HW117633   3.878   1.928  14.285  0.0035 -0.5659  0.8535
 2058SOL    HW217634   3.890   2.045  14.371 -0.0450  0.3499 -1.5353
 2059SOL     OW17635   3.006   4.107  17.571  0.0208  0.1534 -0.4720
 2059SOL    HW117636   2.928   4.142  17.528  0.5274 -0.3049 -1.7259
 2059SOL    HW217637   3.035   4.183  17.623 -2.2174 -0.5566  1.8449
 2060SOL     OW17638   3.696   1.624   7.253 -0.0532  0.1353  0.5969
 2060SOL    HW117639   3.773   1.670   7.220 -0.5244  2.1063  2.2483
 2060SOL    HW217640   3.648   1.701   7.283 -0.4101  0.4803 -0.8449
 2061SOL     OW17641   1.860   4.067   7.592  0.0769 -0.3288  0.1100
 2061SOL    HW117642   1.883   4.066   7.685 -1.0046 -1.7970  0.3672
 2061SOL    HW217643   1.884   3.975   7.577  0.8110 -0.2191  0.5943
 2062SOL     OW17644   4.175   1.673   9.046 -0.5609  0.2203 -0.3390
 2062SOL    HW117645   4.201   1.583   9.028 -0.1324  0.2010  0.3925
 2062SOL    HW217646   4.243   1.719   8.997 -1.4558 -0.7647 -2.4855
 2063SOL     OW17647   3.468   1.034  14.761 -0.5339 -0.3904 -0.3789
 2063SOL    HW117648   3.458   1.114  14.814  0.1335  0.3651 -1.3834
 2063SOL    HW217649   3.517   1.067  14.686 -2.6475 -1.8740 -2.4148
 2064SOL     OW17650   4.370   4.454   2.835  0.1082 -0.1474  0.0530
 2064SOL    HW117651   4.294   4.409   2.873  1.2516  0.2599  2.7820
 2064SOL    HW217652   4.365   4.416   2.747 -1.6189  0.7449 -0.2372
 2065SOL     OW17653   0.391   1.939   3.686 -0.0927  0.1766  0.4051
 2065SOL    HW117654   0.460   1.873   3.673 -1.1988 -0.5777 -1.6980
 2065SOL    HW217655   0.369   1.921   3.777 -0.5910 -3.1851 -0.3879
 2066SOL     OW17656   4.522   2.657  10.893  0.6010 -0.0939  0.0645
 2066SOL    HW117657   4.603   2.650  10.944  0.0996  0.3747  0.9301
 2066SOL    HW217658   4.542   2.636  10.802 -0.6890 -1.7952  0.1764
 2067SOL     OW17659   1.993   4.252  12.990  0.3155 -0.0792  0.5619
 2067SOL    HW117660   2.031   4.310  13.056  0.6173  0.8826 -0.4565
 2067SOL    HW217661   2.075   4.236  12.942  0.0523 -0.7937  0.3462
 2068SOL     OW17662   0.011   2.884  10.726  0.2969 -0.1303 -0.3770
 2068SOL    HW117663   0.029   2.971  10.762 -0.5419  0.3638 -1.1713
 2068SOL    HW217664   0.090   2.836  10.753 -0.2084 -1.1483 -0.7095
 2069SOL     OW17665   2.763   3.136  10.932  0.4059  0.3274  0.1322
 2069SOL    HW117666   2.758   3.042  10.917 -1.3614  0.6257 -1.1387
 2069SOL    HW217667   2.825   3.158  11.001  0.2571  1.7794 -0.1784
 2070SOL     OW17668   1.502   3.083   5.785  0.2732  0.1507 -0.1488
 2070SOL    HW117669   1.490   3.177   5.796 -0.4737  0.4989 -4.3095
 2070SOL    HW217670   1.497   3.056   5.877  2.7955 -3.5686 -1.1114
 2071SOL     OW17671   1.494   3.532   1.232 -0.2717  0.5363  0.8212
 2071SOL    HW117672   1.583   3.567   1.225 -0.2115  0.2188 -0.0698
 2071SOL    HW217673   1.508   3.437   1.235 -1.2125  0.4680  2.6292
 2072SOL     OW17674   2.301   1.752   9.469 -0.0670  0.1534 -1.0549
 2072SOL    HW117675   2.332   1.661   9.470  0.1756  0.2782  1.6558
 2072SOL    HW217676   2.383   1.793   9.445 -0.1533  1.8836  1.7022
 2073SOL     OW17677   1.617   3.369   6.893 -0.1288 -0.5720 -0.0452
 2073SOL    HW117678   1.658   3.445   6.935  1.8464 -1.4899 -0.2776
 2073SOL    HW217679   1.567   3.404   6.819 -0.9681 -1.4074  0.1289
 2074SOL     OW17680   1.351   3.072   8.154  0.3983 -0.2473 -0.0846
 2074SOL    HW117681   1.432   3.105   8.115  0.4072 -1.7291 -1.3471
 2074SOL    HW217682   1.284   3.078   8.087  1.5516 -1.2873 -1.3218
 2075SOL     OW17683   0.195   4.071   1.230 -0.5011 -0.2228  0.0847
 2075SOL    HW117684   0.281   4.105   1.253 -1.8975  4.3630 -1.3105
 2075SOL    HW217685   0.185   4.112   1.144  2.0935 -0.8114 -0.4935
 2076SOL     OW17686   1.110   3.366  17.192 -0.2194 -0.3857 -0.1010
 2076SOL    HW117687   1.185   3.419  17.164 -1.5749  0.9186 -1.3044
 2076SOL    HW217688   1.064   3.370  17.108 -2.1176  0.1254  0.9696
 2077SOL     OW17689   0.509   4.496   6.202 -0.3930 -0.3828 -0.7614
 2077SOL    HW117690   0.590   4.461   6.238 -1.0640 -0.5352  0.5963
 2077SOL    HW217691   0.467   4.520   6.284  0.4594  0.1217 -0.4835
 2078SOL     OW17692   1.562   0.985   8.791 -0.1716  0.7549  0.8990
 2078SOL    HW117693   1.487   0.960   8.844 -0.5865 -0.4087 -0.2245
 2078SOL    HW217694   1.619   0.910   8.809 -1.4569 -0.0414  1.6752
 2079SOL     OW17695   0.705   3.652   4.270  0.1324  0.2223 -0.2186
 2079SOL    HW117696   0.718   3.572   4.321 -2.3683  0.1677  0.3727
 2079SOL    HW217697   0.662   3.705   4.337 -1.1995 -1.4350  0.2485
 2080SOL     OW17698   0.840   1.471   7.627 -0.6031 -0.4444 -0.1021
 2080SOL    HW117699   0.871   1.546   7.577  0.5464 -2.1912 -2.0175
 2080SOL    HW217700   0.838   1.505   7.716 -0.0039 -1.4168  0.2757
 2081SOL     OW17701   2.408   2.760   9.054 -0.3697  0.1064 -0.6241
 2081SOL    HW117702   2.371   2.815   9.123  0.2190 -1.0156  0.5913
 2081SOL    HW217703   2.472   2.818   9.012 -1.6805  0.0870 -2.5872
 2082SOL     OW17704   0.123   0.575   1.149  0.1939  0.1078  0.0908
 2082SOL    HW117705   0.044   0.580   1.095 -0.4784  1.1978  1.1591
 2082SOL    HW217706   0.098   0.500   1.203  0.8433  0.3214  0.6955
 2083SOL     OW17707   2.861   3.121  12.729  0.0318  0.0874 -0.3045
 2083SOL    HW117708   2.930   3.170  12.683  0.4632 -0.2764 -0.0327
 2083SOL    HW217709   2.875   3.148  12.819  1.9684  0.0841 -0.6154
 2084SOL     OW17710   4.661   4.290   2.820 -0.0314  0.3387  0.8512
 2084SOL    HW117711   4.659   4.382   2.796 -0.0984  0.4776  1.3868
 2084SOL    HW217712   4.631   4.255   2.737 -0.4129  0.5327  0.9078
 2085SOL     OW17713   0.452   4.305   7.681  0.1867 -0.4617 -0.4164
 2085SOL    HW117714   0.488   4.392   7.666  1.9281 -1.4892 -2.1532
 2085SOL    HW217715   0.383   4.319   7.745 -0.5081  0.2791 -1.3373
 2086SOL     OW17716   1.191   1.555   6.135  0.5001 -0.2176  0.0829
 2086SOL    HW117717   1.182   1.506   6.217  2.0190 -0.9582 -0.1982
 2086SOL    HW217718   1.214   1.643   6.165 -0.2583 -0.0141  0.0838
 2087SOL     OW17719   4.377   0.524   3.691  0.1169  0.1568 -0.9184
 2087SOL    HW117720   4.428   0.604   3.705 -0.3532  0.9384 -3.6038
 2087SOL    HW217721   4.293   0.552   3.728  0.5822 -1.7295  1.5333
 2088SOL     OW17722   2.677   2.665   2.892  0.0346  0.1795 -0.0468
 2088SOL    HW117723   2.729   2.722   2.948 -0.0147  1.6488 -1.4865
 2088SOL    HW217724   2.717   2.579   2.908  0.8337  0.3985 -0.8331
 2089SOL     OW17725   2.519   1.445   6.239 -0.4029 -0.6488  0.5221
 2089SOL    HW117726   2.551   1.409   6.156 -1.0008 -0.4203  0.1957
 2089SOL    HW217727   2.594   1.444   6.298 -1.2533  1.2799  1.6407
 2090SOL     OW17728   4.005   1.153  17.071  0.5516  0.2859 -0.2655
 2090SOL    HW117729   3.944   1.220  17.042  1.7072  0.2484 -2.7887
 2090SOL    HW217730   4.059   1.141  16.993  1.6336 -0.6251  0.6240
 2091SOL     OW17731   2.048   3.217   2.573  0.2827  0.1804 -0.6648
 2091SOL    HW117732   2.103   3.292   2.594  0.4374 -0.5700  1.6910
 2091SOL    HW217733   2.084   3.154   2.636 -0.5147 -1.5871 -1.9727
 2092SOL     OW17734   1.393   2.674   5.042  0.0804 -0.4775 -0.0648
 2092SOL    HW117735   1.446   2.596   5.022  0.7158  0.6860 -2.9219
 2092SOL    HW217736   1.446   2.709   5.115  0.4236 -0.6178 -0.2444
 2093SOL     OW17737   3.482   1.660   7.690 -0.0345 -0.0225  0.0076
 2093SOL    HW117738   3.509   1.722   7.622  1.0126 -0.7639 -0.2419
 2093SOL    HW217739   3.394   1.629   7.665 -1.1861  0.7641  3.0968
 2094SOL     OW17740   4.413   2.872  12.445 -0.4962 -0.8991  0.0936
 2094SOL    HW117741   4.461   2.901  12.523  0.7086  2.0050 -1.7362
 2094SOL    HW217742   4.350   2.815  12.491  1.6150 -1.9129  1.7210
 2095SOL     OW17743   2.584   2.848  11.899  0.2405  0.3795 -0.0965
 2095SOL    HW117744   2.615   2.814  11.815 -0.0954  1.5235 -0.6873
 2095SOL    HW217745   2.632   2.797  11.964  1.1699  2.7297  1.0560
 2096SOL     OW17746   1.652   4.267   8.176 -0.1508  0.0718 -0.0640
 2096SOL    HW117747   1.615   4.286   8.262 -0.6374  1.3820 -0.5572
 2096SOL    HW217748   1.610   4.344   8.138 -2.1678 -0.4068  1.2136
 2097SOL     OW17749   2.879   3.070   6.266 -0.5657  0.1793 -0.0929
 2097SOL    HW117750   2.799   3.122   6.253 -1.7275 -1.0567  2.1420
 2097SOL    HW217751   2.846   2.983   6.245 -0.1830  0.3858 -1.5992
 2098SOL     OW17752   3.988   2.695   5.425 -0.0299 -0.2127  0.0366
 2098SOL    HW117753   3.924   2.632   5.456  1.0281 -1.2043  0.1983
 2098SOL    HW217754   3.981   2.743   5.508 -0.9376  1.7310 -1.1541
 2099SOL     OW17755   3.558   0.517   1.528 -0.2815 -0.1952  0.2703
 2099SOL    HW117756   3.519   0.596   1.564 -0.4149  0.0140 -0.3312
 2099SOL    HW217757   3.615   0.552   1.460  3.7192 -2.2912  2.5512
 2100SOL     OW17758   2.229   3.147   9.916  0.2428  0.0899 -1.0882
 2100SOL    HW117759   2.325   3.138   9.922  0.4280  1.9842 -1.2981
 2100SOL    HW217760   2.216   3.226   9.968 -2.7260 -2.4658  2.0539
 2101SOL     OW17761   2.547   1.384   4.039 -0.3966  0.2403 -0.3006
 2101SOL    HW117762   2.456   1.355   4.049 -0.4311  0.2812 -0.4936
 2101SOL    HW217763   2.541   1.401   3.945  0.2874  1.6537 -0.0874
 2102SOL     OW17764   1.671   1.004   6.553 -0.5885 -0.4895 -0.4212
 2102SOL    HW117765   1.715   1.053   6.484 -0.4760 -0.0845 -0.0611
 2102SOL    HW217766   1.577   1.017   6.547 -0.3398  1.2253 -0.5889
 2103SOL     OW17767   4.116   0.355   6.515 -0.2039 -0.9493 -0.0293
 2103SOL    HW117768   4.139   0.437   6.558  0.0318  0.8399 -3.5770
 2103SOL    HW217769   4.020   0.357   6.514 -0.1570  2.2042  0.4920
 2104SOL     OW17770   0.029   2.113   1.472 -0.4475  0.3069  0.1021
 2104SOL    HW117771   4.683   2.175   1.460 -0.8334  0.1434  1.5255
 2104SOL    HW217772   0.030   2.069   1.387  1.2643  1.6284 -0.5532
 2105SOL     OW17773   2.066   1.193  14.092  0.3895 -0.2099 -0.8484
 2105SOL    HW117774   2.042   1.131  14.162  1.1439  1.7555  1.1504
 2105SOL    HW217775   2.142   1.153  14.049 -0.4566 -0.8746 -1.7291
 2106SOL     OW17776   0.256   4.522   4.735  0.7428 -0.1133 -0.2322
 2106SOL    HW117777   0.190   4.479   4.791  1.5445 -0.6052  0.3291
 2106SOL    HW217778   0.241   4.469   4.656 -0.4952 -1.2931  0.7978
 2107SOL     OW17779   2.462   1.739   6.292  0.6154 -0.7147  0.5193
 2107SOL    HW117780   2.465   1.679   6.367 -1.1292 -2.4068 -0.7645
 2107SOL    HW217781   2.382   1.697   6.261 -0.0095  1.1333 -0.3082
 2108SOL     OW17782   2.987   0.648  11.277  0.1358 -0.9426 -0.0089
 2108SOL    HW117783   2.960   0.738  11.258  1.7177 -0.0191  2.1069
 2108SOL    HW217784   2.962   0.612  11.192  2.1470  0.7626 -1.3118
 2109SOL     OW17785   4.084   1.047   6.750 -0.6256 -0.4650  0.1963
 2109SOL    HW117786   4.011   0.990   6.775  0.4254 -1.7829  0.3082
 2109SOL    HW217787   4.044   1.120   6.704  1.6562  0.1619 -0.7735
 2110SOL     OW17788   2.212   3.846   3.374  0.1682  0.0887 -0.4933
 2110SOL    HW117789   2.306   3.830   3.369 -0.0889 -1.8341  0.8476
 2110SOL    HW217790   2.212   3.923   3.431  1.2526  0.3261 -0.8179
 2111SOL     OW17791   0.810   3.405   4.934 -0.7529 -0.0686  0.2922
 2111SOL    HW117792   0.880   3.430   4.994  0.1207 -1.4962 -0.1341
 2111SOL    HW217793   0.818   3.460   4.856  1.9812 -1.5687 -0.4703
 2112SOL     OW17794   2.991   2.429   4.133  0.2976 -0.4024  0.4132
 2112SOL    HW117795   2.899   2.434   4.106  0.0603 -0.2508  1.2453
 2112SOL    HW217796   3.025   2.432   4.043  0.1783  0.9766  0.4154
 2113SOL     OW17797   0.022   2.600   5.179 -0.5089  0.1646 -0.3486
 2113SOL    HW117798   0.073   2.680   5.192 -1.2477  0.0641  3.2696
 2113SOL    HW217799   4.683   2.606   5.249  1.0441 -0.5139  1.1533
 2114SOL     OW17800   2.911   0.168  10.417 -0.6063 -0.3742 -0.3204
 2114SOL    HW117801   2.962   0.191  10.494 -1.3371 -0.2620  0.1279
 2114SOL    HW217802   2.977   0.173  10.348 -0.2391 -0.3738  0.0343
 2115SOL     OW17803   3.052   2.705   5.080 -0.5634  0.2060 -0.6611
 2115SOL    HW117804   2.985   2.640   5.103 -3.3697  3.1338 -0.5374
 2115SOL    HW217805   2.997   2.780   5.103 -0.9782 -0.6664  1.1563
 2116SOL     OW17806   0.523   0.444   4.229  0.0931 -0.0122  0.3863
 2116SOL    HW117807   0.572   0.511   4.277 -0.7414  1.6747 -1.1094
 2116SOL    HW217808   0.435   0.481   4.236  0.2345  0.5944 -1.0627
 2117SOL     OW17809   2.523   4.622   5.582  0.1747 -0.5006  0.6450
 2117SOL    HW117810   2.438   4.620   5.627 -0.5242 -1.7752 -0.7434
 2117SOL    HW217811   2.546   4.529   5.579 -2.8503 -1.2521  0.9932
 2118SOL     OW17812   2.222   1.207   3.005  0.3410 -0.4398 -0.1405
 2118SOL    HW117813   2.258   1.125   2.970  1.5459 -0.0536  0.2061
 2118SOL    HW217814   2.134   1.184   3.036 -0.2002 -1.6062 -2.5456
 2119SOL     OW17815   1.593   0.264  11.894 -0.8254  0.1279  0.3155
 2119SOL    HW117816   1.587   0.169  11.880  1.0142 -0.3048  2.6187
 2119SOL    HW217817   1.687   0.276  11.881 -0.9407  0.8841  0.1724
 2120SOL     OW17818   1.383   3.281   5.370 -0.3613  0.2932 -0.2483
 2120SOL    HW117819   1.400   3.357   5.426 -1.5451  0.4207 -0.0670
 2120SOL    HW217820   1.392   3.207   5.430  1.5511  0.4372 -0.3713
 2121SOL     OW17821   2.582   1.591   4.243  0.4083  0.1484  0.2343
 2121SOL    HW117822   2.667   1.556   4.270 -0.6232 -2.0089  0.6728
 2121SOL    HW217823   2.568   1.546   4.160  1.0201 -0.0111  0.2181
 2122SOL     OW17824   2.316   3.615   7.179 -0.8389  0.3079  0.0134
 2122SOL    HW117825   2.358   3.532   7.202  0.8590  1.0728 -0.3448
 2122SOL    HW217826   2.348   3.625   7.089 -0.8055  1.1512  0.1235
 2123SOL     OW17827   4.701   1.125   1.935  0.1976 -0.0513  0.5630
 2123SOL    HW117828   4.618   1.154   1.974  0.1562 -0.1328  0.5344
 2123SOL    HW217829   0.001   1.206   1.891 -1.0440  1.0575  1.8342
 2124SOL     OW17830   1.705   4.319   7.763  0.0612  0.3929  0.5586
 2124SOL    HW117831   1.799   4.333   7.772  0.1616 -0.0430  0.1742
 2124SOL    HW217832   1.686   4.412   7.759 -0.5601  0.1877 -1.2528
 2125SOL     OW17833   1.567   4.340   8.420 -0.7717  0.0999 -0.4899
 2125SOL    HW117834   1.501   4.334   8.489 -0.4719  0.8151 -0.1370
 2125SOL    HW217835   1.630   4.399   8.462  1.0670 -1.8359 -0.5456
 2126SOL     OW17836   0.724   2.895   3.436  0.1052  0.1178 -0.3115
 2126SOL    HW117837   0.643   2.945   3.427 -0.8035 -0.9895  1.9532
 2126SOL    HW217838   0.726   2.850   3.351  1.0453  2.7436 -1.7233
 2127SOL     OW17839   3.763   3.589   1.305  0.7162 -0.2979 -0.2830
 2127SOL    HW117840   3.801   3.521   1.360  1.2797 -0.6527 -1.1111
 2127SOL    HW217841   3.747   3.667   1.358 -1.0796 -1.4085  0.8147
 2128SOL     OW17842   1.528   0.693   9.087 -0.4790  0.5232 -0.0270
 2128SOL    HW117843   1.462   0.626   9.071  1.2983 -0.4689 -3.2486
 2128SOL    HW217844   1.559   0.692   8.997  2.2551 -1.6107  0.9121
 2129SOL     OW17845   2.301   3.538   3.499 -0.0111  0.0866 -0.7053
 2129SOL    HW117846   2.257   3.503   3.422 -1.5260  1.1799 -0.3241
 2129SOL    HW217847   2.346   3.610   3.454  1.8630 -0.6333  0.0086
 2130SOL     OW17848   4.233   2.640  14.824  0.2476 -0.0616 -0.2239
 2130SOL    HW117849   4.172   2.594  14.881  1.9721 -1.4706  0.4551
 2130SOL    HW217850   4.300   2.573  14.816 -1.9065 -2.1899 -0.2062
 2131SOL     OW17851   1.149   0.487   7.544 -0.2428 -0.0331 -0.0489
 2131SOL    HW117852   1.065   0.467   7.587  1.5497 -2.1203  2.4765
 2131SOL    HW217853   1.135   0.551   7.474 -1.0639  0.9973  1.0447
 2132SOL     OW17854   2.192   0.919   2.362  0.0714 -0.3800 -0.0463
 2132SOL    HW117855   2.191   0.829   2.393 -1.5404  0.6394  2.8348
 2132SOL    HW217856   2.133   0.914   2.286  0.5526 -2.4606 -0.2721
 2133SOL     OW17857   1.491   3.364   8.896 -0.4339  0.5581 -0.5128
 2133SOL    HW117858   1.457   3.385   8.809 -1.0945 -3.8438 -1.3315
 2133SOL    HW217859   1.408   3.362   8.942 -1.1352 -2.0943 -1.8315
 2134SOL     OW17860   4.703   4.017   6.106 -0.5378 -0.4292  0.1725
 2134SOL    HW117861   0.000   4.083   6.041 -0.8446 -1.5557 -1.0929
 2134SOL    HW217862   4.628   4.068   6.138  0.3801 -0.8617  3.0268
 2135SOL     OW17863   1.745   1.946   4.138  0.2391 -0.6911 -0.1408
 2135SOL    HW117864   1.738   1.928   4.044  1.5335  2.3875 -0.8210
 2135SOL    HW217865   1.816   2.007   4.156  0.6566 -0.2571 -3.2860
 2136SOL     OW17866   0.282   0.544   4.917  0.2245  0.5946  0.2724
 2136SOL    HW117867   0.229   0.493   4.978  1.0806  1.0337  1.3651
 2136SOL    HW217868   0.317   0.609   4.977 -1.1744  1.9058 -0.3283
 2137SOL     OW17869   4.656   2.247  12.875 -0.0330  0.5250  0.3819
 2137SOL    HW117870   4.576   2.299  12.876  0.7911  1.8320 -2.4694
 2137SOL    HW217871   4.676   2.236  12.782 -0.5847 -0.3067  0.3592
 2138SOL     OW17872   4.352   0.361   4.711  0.3761 -0.2138  0.3408
 2138SOL    HW117873   4.339   0.382   4.803  1.0517  3.7072 -0.4766
 2138SOL    HW217874   4.447   0.358   4.707  0.3739  0.3897 -0.0890
 2139SOL     OW17875   0.932   3.034   1.598 -0.2986 -0.7221  0.5518
 2139SOL    HW117876   0.956   3.037   1.506 -1.9667  0.6335  0.1557
 2139SOL    HW217877   1.019   3.029   1.637 -0.2401  0.6118  0.6186
 2140SOL     OW17878   0.398   1.439   2.355 -0.3073 -0.3868 -0.2469
 2140SOL    HW117879   0.360   1.438   2.268 -0.4989  0.2951 -0.1747
 2140SOL    HW217880   0.388   1.349   2.386  4.0191 -1.3526 -1.6036
 2141SOL     OW17881   1.604   3.411   0.404  0.1487  0.0374 -0.0102
 2141SOL    HW117882   1.647   3.468   0.468 -0.2182 -2.0110  2.0516
 2141SOL    HW217883   1.561   3.477   0.349  0.0789  1.8711  2.2077
 2142SOL     OW17884   4.121   4.318   5.209  0.3260 -0.1377  0.0295
 2142SOL    HW117885   4.054   4.276   5.156  0.1736 -0.3718  0.4059
 2142SOL    HW217886   4.137   4.240   5.263 -0.6213  0.9795  1.9085
 2143SOL     OW17887   3.920   2.135   9.834 -0.2141 -0.3167 -0.1670
 2143SOL    HW117888   3.830   2.153   9.806 -0.8423 -2.7305  0.3439
 2143SOL    HW217889   3.947   2.061   9.779  1.3889 -0.3695  0.7069
 2144SOL     OW17890   4.059   0.186   1.538 -0.2598  0.0598 -0.4469
 2144SOL    HW117891   4.063   0.091   1.532 -1.8787  0.0403 -1.1706
 2144SOL    HW217892   4.062   0.209   1.445 -0.0327 -0.6674 -0.6171
 2145SOL     OW17893   0.453   1.521   7.232 -0.4228 -0.3092 -0.4340
 2145SOL    HW117894   0.489   1.593   7.181 -0.8808 -0.6893 -1.2897
 2145SOL    HW217895   0.501   1.525   7.315 -2.6960 -0.0559  0.8556
 2146SOL     OW17896   3.817   3.568   7.178 -0.2345 -0.1543  0.0246
 2146SOL    HW117897   3.840   3.477   7.199  1.3945  0.3513  0.4072
 2146SOL    HW217898   3.739   3.565   7.234 -0.8779 -0.9349 -0.8996
 2147SOL     OW17899   0.930   2.642   4.304 -0.8314 -0.0165  0.5587
 2147SOL    HW117900   1.012   2.624   4.258 -0.6656  0.0800  0.8129
 2147SOL    HW217901   0.917   2.735   4.288 -1.4241 -0.4242 -1.2418
 2148SOL     OW17902   1.046   3.857  15.091 -0.1284  0.0897 -0.2310
 2148SOL    HW117903   1.048   3.800  15.014  1.2334 -1.2976  0.8357
 2148SOL    HW217904   0.957   3.893  15.086 -0.1477  0.1655  0.6620
 2149SOL     OW17905   2.137   0.672   2.161  0.5745  0.1165  0.1674
 2149SOL    HW117906   2.115   0.587   2.199 -0.1998 -0.3852 -1.4369
 2149SOL    HW217907   2.050   0.700   2.135  0.5976 -0.5615 -0.6268
 2150SOL     OW17908   3.800   2.395   4.207  0.3613  0.6912  0.5588
 2150SOL    HW117909   3.815   2.420   4.116 -2.3918  0.0604 -0.0687
 2150SOL    HW217910   3.891   2.400   4.237  0.4523 -1.8074  0.6826
 2151SOL     OW17911   1.106   2.430   4.024  0.4169 -0.0877  0.2204
 2151SOL    HW117912   1.129   2.501   4.083  0.6323  0.4542 -0.5081
 2151SOL    HW217913   1.035   2.466   3.971  0.2931  0.7510  0.9786
 2152SOL     OW17914   1.388   2.331   3.710  0.5120 -0.1291  0.3387
 2152SOL    HW117915   1.454   2.290   3.766  1.0166 -1.5974 -1.3201
 2152SOL    HW217916   1.443   2.377   3.647  0.4649 -0.4245  0.0856
 2153SOL     OW17917   1.948   0.542  14.437  0.1256 -0.1315 -0.7526
 2153SOL    HW117918   1.880   0.609  14.444  2.1951  1.9939 -0.8626
 2153SOL    HW217919   1.907   0.470  14.389 -0.9567  0.8238 -1.2604
 2154SOL     OW17920   3.375   2.720   7.725  0.2942  0.0304  0.1908
 2154SOL    HW117921   3.334   2.805   7.743  0.5139 -0.1831  1.7243
 2154SOL    HW217922   3.460   2.754   7.753 -0.0513  0.0790  1.1830
 2155SOL     OW17923   1.002   2.941   6.154 -0.3325  0.1300 -0.2967
 2155SOL    HW117924   1.068   3.008   6.170  0.2303 -1.1946  2.8875
 2155SOL    HW217925   0.935   2.985   6.207  1.1684  0.7619  1.0874
 2156SOL     OW17926   2.126   2.900  15.521 -0.8134  0.1035  0.4361
 2156SOL    HW117927   2.180   2.823  15.504  1.0655  1.5060  0.0464
 2156SOL    HW217928   2.036   2.881  15.493 -0.2385 -2.1658  0.1446
 2157SOL     OW17929   1.637   2.250   0.082 -0.0571 -0.3533 -0.5923
 2157SOL    HW117930   1.645   2.301   0.163 -1.2054  0.1216 -0.7789
 2157SOL    HW217931   1.597   2.314   0.023 -3.2053  0.6411  2.6272
 2158SOL     OW17932   2.709   2.831   7.325 -0.0647  0.6637  0.1202
 2158SOL    HW117933   2.687   2.741   7.349  3.4308  0.0168  0.7751
 2158SOL    HW217934   2.782   2.855   7.381  0.1886  0.8622 -0.2932
 2159SOL     OW17935   4.638   0.666   1.316 -0.5562  0.4415  0.4315
 2159SOL    HW117936   4.563   0.652   1.257 -0.8512 -2.7638  1.5270
 2159SOL    HW217937   4.655   0.577   1.347  0.6129  0.8311  0.8863
 2160SOL     OW17938   3.531   2.650  11.794 -0.6645 -0.6907  0.0380
 2160SOL    HW117939   3.526   2.616  11.884  1.0306  1.0896  0.7889
 2160SOL    HW217940   3.466   2.720  11.793  1.5142  1.2454 -3.9020
 2161SOL     OW17941   1.065   3.237   0.188 -0.1820 -0.2169 -0.2968
 2161SOL    HW117942   1.136   3.259   0.248  0.5112 -1.5126 -0.6398
 2161SOL    HW217943   1.104   3.167   0.137 -0.6981 -1.2064  0.6685
 2162SOL     OW17944   1.259   0.354   2.696 -0.2215 -0.3025 -0.6361
 2162SOL    HW117945   1.332   0.312   2.651 -0.4309 -1.2383 -0.1015
 2162SOL    HW217946   1.234   0.284   2.757  0.7530  1.0777  1.3455
 2163SOL     OW17947   1.834   0.031   7.538  0.3530  0.4853  0.3057
 2163SOL    HW117948   1.774   4.692   7.502 -0.3246  0.6841  1.0713
 2163SOL    HW217949   1.913   0.013   7.486  1.6543  3.2689  1.3283
 2164SOL     OW17950   4.074   0.287  10.771  0.3874  0.6384  0.5074
 2164SOL    HW117951   4.029   0.308  10.689 -0.0723  1.4645  0.9646
 2164SOL    HW217952   4.136   0.360  10.768  1.5267 -0.3156  1.0816
 2165SOL     OW17953   3.537   1.883  10.338  0.4070 -0.1344  0.0648
 2165SOL    HW117954   3.500   1.795  10.347 -0.9070  0.5041  0.8285
 2165SOL    HW217955   3.514   1.916  10.425 -0.0063  0.6179 -0.3294
 2166SOL     OW17956   1.515   0.517   9.587  0.3001 -0.2432  0.0842
 2166SOL    HW117957   1.483   0.594   9.634 -0.2582 -0.3276 -0.1590
 2166SOL    HW217958   1.562   0.493   9.666  0.8807 -0.0339 -0.1977
 2167SOL     OW17959   3.938   3.884   2.851 -0.2775  0.0871 -0.0717
 2167SOL    HW117960   3.956   3.885   2.945  1.1555 -0.0190 -0.3430
 2167SOL    HW217961   3.897   3.970   2.838 -0.1176  0.3531  1.1609
 2168SOL     OW17962   0.621   3.197  12.562 -0.1780  0.4303  0.2960
 2168SOL    HW117963   0.556   3.242  12.616 -1.1168 -1.0634  0.4300
 2168SOL    HW217964   0.592   3.106  12.573  1.9481 -0.4588 -1.3343
 2169SOL     OW17965   4.681   4.381   6.943 -0.1857 -0.0103  0.9370
 2169SOL    HW117966   4.626   4.400   6.867  2.0892  1.9829 -0.2216
 2169SOL    HW217967   0.036   4.421   6.912  0.5120 -0.9341  1.5709
 2170SOL     OW17968   2.660   1.919   3.715 -0.1694 -0.0261 -0.0444
 2170SOL    HW117969   2.613   1.998   3.690 -0.4550  0.1318  1.0243
 2170SOL    HW217970   2.739   1.954   3.755  0.0324  1.3134 -1.6124
 2171SOL     OW17971   0.007   3.422  10.737  0.0161 -0.0042 -0.2664
 2171SOL    HW117972   4.679   3.464  10.804  0.5082 -0.9427  0.7050
 2171SOL    HW217973   0.093   3.426  10.780 -1.3802 -1.4034  2.6268
 2172SOL     OW17974   2.899   3.049  15.834 -0.4909 -0.2586  0.1788
 2172SOL    HW117975   2.897   3.144  15.823  2.7156 -0.3568 -1.5260
 2172SOL    HW217976   2.853   3.041  15.917  0.4614 -2.3375  0.5166
 2173SOL     OW17977   4.381   3.324   5.465 -0.3185  0.3324 -0.2557
 2173SOL    HW117978   4.347   3.235   5.462 -0.3701  0.3687 -0.8747
 2173SOL    HW217979   4.442   3.313   5.537 -0.3195  2.3776  0.0423
 2174SOL     OW17980   1.063   4.336   7.364 -0.1060  0.0916  0.0455
 2174SOL    HW117981   1.082   4.422   7.403 -0.0836  1.4533 -3.0077
 2174SOL    HW217982   1.036   4.285   7.440 -1.8648 -1.1469 -1.4191
 2175SOL     OW17983   3.994   4.061   8.329  0.3446 -0.6239  0.3622
 2175SOL    HW117984   3.998   3.983   8.274 -0.2952 -1.4966  1.5494
 2175SOL    HW217985   3.917   4.106   8.295  0.1195  0.5755  2.4773
 2176SOL     OW17986   2.385   4.208   7.786 -0.0394 -0.1806  0.0714
 2176SOL    HW117987   2.314   4.200   7.723  1.9764 -2.9689 -1.8154
 2176SOL    HW217988   2.362   4.133   7.841 -0.4142 -0.0360  0.1092
 2177SOL     OW17989   4.311   4.478   6.341  0.4168 -0.4283 -0.2856
 2177SOL    HW117990   4.268   4.515   6.418  0.6379 -0.5521 -0.1015
 2177SOL    HW217991   4.229   4.463   6.295  0.7646 -1.9638 -0.3879
 2178SOL     OW17992   3.157   0.502   5.372 -0.2803 -0.3752 -0.2815
 2178SOL    HW117993   3.146   0.486   5.465 -0.4096 -2.3600 -0.6438
 2178SOL    HW217994   3.239   0.551   5.376 -0.7206  0.2482  0.9609
 2179SOL     OW17995   1.822   2.351   0.534  0.0707 -0.0385 -0.1429
 2179SOL    HW117996   1.760   2.417   0.565 -0.6055 -1.0526  0.6470
 2179SOL    HW217997   1.759   2.281   0.515  0.7526 -0.2942 -1.4512
 2180SOL     OW17998   4.616   0.809   2.219 -0.8907 -0.3770 -0.5414
 2180SOL    HW117999   4.543   0.762   2.179 -0.1051 -2.1902  0.1380
 2180SOL    HW218000   4.686   0.755   2.182 -0.1975  0.2374 -0.1298
 2181SOL     OW18001   1.672   4.196   9.634  0.0301 -0.6461 -0.0671
 2181SOL    HW118002   1.643   4.126   9.577  0.2443 -0.3462 -0.5421
 2181SOL    HW218003   1.748   4.224   9.583 -0.4782  2.2980  0.7532
 2182SOL     OW18004   3.763   4.591   4.896  0.3475  0.4187  0.2483
 2182SOL    HW118005   3.770   4.502   4.859 -0.2096  0.9205 -1.0768
 2182SOL    HW218006   3.777   4.566   4.987 -1.7080  1.1642  0.7604
 2183SOL     OW18007   0.247   1.977   6.822 -0.2668 -0.0075 -0.4586
 2183SOL    HW118008   0.273   2.063   6.853 -2.3337 -0.5279  2.6237
 2183SOL    HW218009   0.202   1.934   6.894 -0.7645  1.2665 -0.0243
 2184SOL     OW18010   3.265   3.175  13.747 -1.1082 -0.1389 -0.0326
 2184SOL    HW118011   3.337   3.208  13.694  0.0087  0.4482  1.8453
 2184SOL    HW218012   3.199   3.243  13.734 -1.2328 -0.0760  0.8984
 2185SOL     OW18013   0.324   4.384   3.406 -0.2823 -0.7338 -0.0220
 2185SOL    HW118014   0.313   4.380   3.311  3.0991 -1.2914 -0.3964
 2185SOL    HW218015   0.240   4.345   3.429  0.2280 -2.1999 -0.6350
 2186SOL     OW18016   1.129   0.146  13.897  0.3676  0.4507  0.0759
 2186SOL    HW118017   1.173   0.187  13.822  1.6337 -3.6500 -1.4042
 2186SOL    HW218018   1.128   0.055  13.869  0.5260  1.2780 -2.6868
 2187SOL     OW18019   2.732   1.208   4.179  0.1999 -0.2803  0.4527
 2187SOL    HW118020   2.710   1.241   4.266 -1.3029  2.6866 -1.0518
 2187SOL    HW218021   2.678   1.269   4.128  0.9533 -0.0667 -0.0902
 2188SOL     OW18022   4.237   1.517   6.926  0.3294  0.0615  0.8966
 2188SOL    HW118023   4.254   1.472   6.843  0.0363 -0.3135  1.0359
 2188SOL    HW218024   4.212   1.434   6.966 -1.7738  0.9736  1.4618
 2189SOL     OW18025   3.275   2.551  15.134 -0.2279  0.3772  0.5418
 2189SOL    HW118026   3.325   2.486  15.086 -1.6311 -1.1526  1.1625
 2189SOL    HW218027   3.201   2.573  15.078  0.9591  1.7068 -0.5009
 2190SOL     OW18028   3.975   1.853   4.811 -0.5373 -0.4138 -0.4491
 2190SOL    HW118029   3.895   1.818   4.774  0.0431 -1.5060 -0.6531
 2190SOL    HW218030   3.950   1.946   4.810 -0.9341 -0.4768  3.1872
 2191SOL     OW18031   3.111   3.874   8.124 -0.6927  0.5640  0.2726
 2191SOL    HW118032   3.136   3.866   8.032  2.5634  3.0043  0.9450
 2191SOL    HW218033   3.026   3.830   8.122 -1.5728  2.2996  0.2592
 2192SOL     OW18034   1.922   4.313   3.071 -0.0988  0.6523 -0.2193
 2192SOL    HW118035   1.930   4.408   3.063  0.0621  0.6178 -0.4539
 2192SOL    HW218036   1.854   4.293   3.007 -1.1994  1.1388  0.8101
 2193SOL     OW18037   3.917   2.312  11.437 -0.1858  0.3488  0.5565
 2193SOL    HW118038   3.831   2.283  11.406 -1.6605  2.7992  2.3711
 2193SOL    HW218039   3.911   2.281  11.527  0.6800 -0.6074  0.2889
 2194SOL     OW18040   0.851   2.505   5.400  0.3067 -0.2868  0.3306
 2194SOL    HW118041   0.868   2.572   5.466  0.7483 -0.8289  0.7636
 2194SOL    HW218042   0.847   2.571   5.331 -1.4347 -0.0723  0.6378
 2195SOL     OW18043   4.153   2.540   3.900 -0.3188  0.3762  0.5227
 2195SOL    HW118044   4.229   2.516   3.952 -1.9633 -0.2762  2.6388
 2195SOL    HW218045   4.174   2.497   3.817  0.1663  1.2110  0.2134
 2196SOL     OW18046   0.446   1.516   8.126 -0.0494  0.4853  0.3332
 2196SOL    HW118047   0.482   1.452   8.065 -1.6515 -0.1431  0.0475
 2196SOL    HW218048   0.399   1.451   8.178 -2.1860  0.6189 -1.4074
 2197SOL     OW18049   1.089   2.515  16.451  0.2126  0.2194  0.1376
 2197SOL    HW118050   1.007   2.564  16.461 -0.9647 -1.8098  0.3566
 2197SOL    HW218051   1.064   2.450  16.385  2.4658  2.0103 -2.4805
 2198SOL     OW18052   2.727   3.410   9.597 -0.4644 -0.0818 -0.1326
 2198SOL    HW118053   2.814   3.387   9.629 -0.3240  0.7094  0.0558
 2198SOL    HW218054   2.718   3.499   9.631 -1.8043  0.1432 -1.0951
 2199SOL     OW18055   1.588   4.356   2.422 -0.2214  0.0768  0.2287
 2199SOL    HW118056   1.619   4.440   2.456 -1.2047  0.8169 -0.6809
 2199SOL    HW218057   1.662   4.296   2.414  0.2583  0.2705  3.4617
 2200SOL     OW18058   1.747   4.567   2.490 -0.0753 -0.1967 -0.1396
 2200SOL    HW118059   1.816   4.633   2.485  0.2106 -0.4144  1.0154
 2200SOL    HW218060   1.705   4.596   2.571  0.2435 -0.8459  0.2570
 2201SOL     OW18061   2.948   0.109   4.415 -0.0434  0.4209  0.3048
 2201SOL    HW118062   2.875   0.148   4.367 -0.6932 -2.2088 -0.8350
 2201SOL    HW218063   2.956   0.164   4.493  0.0029  0.3692  0.3359
 2202SOL     OW18064   3.319   1.346   6.504 -0.0240  0.0395 -0.2365
 2202SOL    HW118065   3.380   1.317   6.571  0.1826  2.4114  0.6246
 2202SOL    HW218066   3.372   1.418   6.469  0.5174 -0.6506 -0.8438
 2203SOL     OW18067   1.412   1.248   8.957  0.0259 -0.0395  0.6036
 2203SOL    HW118068   1.453   1.323   8.914  0.1091  0.0433  0.8266
 2203SOL    HW218069   1.361   1.284   9.029 -1.0326 -0.0280 -0.1509
 2204SOL     OW18070   1.649   0.813  15.002 -0.1600  0.4011 -0.9444
 2204SOL    HW118071   1.590   0.774  15.066 -0.4870  0.5974 -1.1232
 2204SOL    HW218072   1.632   0.756  14.926  0.6581  0.3694 -1.1094
 2205SOL     OW18073   2.497   2.088   1.679 -0.1574 -0.2292  0.0577
 2205SOL    HW118074   2.529   2.177   1.668 -1.4105 -0.1108 -2.7916
 2205SOL    HW218075   2.403   2.104   1.667 -0.3171 -0.1202  1.4354
 2206SOL     OW18076   3.169   2.280   6.854 -0.7612  0.6446  0.0918
 2206SOL    HW118077   3.137   2.369   6.842 -1.2408  0.6486  1.3403
 2206SOL    HW218078   3.222   2.281   6.775  0.7415 -1.7689  1.0618
 2207SOL     OW18079   3.419   4.495   8.674  0.1253  0.4709 -0.5768
 2207SOL    HW118080   3.353   4.506   8.606  0.9896 -1.0310 -1.6499
 2207SOL    HW218081   3.437   4.585   8.701  2.2294 -0.4508  1.1391
 2208SOL     OW18082   1.697   3.064   5.025 -0.0362  0.0483 -0.1011
 2208SOL    HW118083   1.652   3.008   4.962  0.1223 -0.9011  0.6348
 2208SOL    HW218084   1.632   3.062   5.096  1.2057 -1.8088  0.9752
 2209SOL     OW18085   1.158   4.637   0.574  0.0214 -0.0389 -0.0258
 2209SOL    HW118086   1.071   4.616   0.607  0.6630 -0.6532  1.2588
 2209SOL    HW218087   1.179   4.560   0.521 -1.8132 -0.4227 -0.1880
 2210SOL     OW18088   0.313   2.628   1.906 -0.3543  0.5468 -0.3822
 2210SOL    HW118089   0.290   2.573   1.830  1.3420  0.7906 -1.0766
 2210SOL    HW218090   0.405   2.648   1.889 -0.8379  1.4008 -2.0339
 2211SOL     OW18091   1.347   1.665   3.206 -0.7381 -0.1069 -0.3131
 2211SOL    HW118092   1.437   1.638   3.188 -0.8914  0.5423 -2.0207
 2211SOL    HW218093   1.337   1.729   3.135  1.8087  0.8173  0.1706
 2212SOL     OW18094   2.895   3.077   3.991 -0.2652  0.9077 -0.0486
 2212SOL    HW118095   2.832   3.069   3.919  0.5584  0.2048 -0.6770
 2212SOL    HW218096   2.868   2.994   4.030 -2.1923  0.5545 -2.1206
 2213SOL     OW18097   2.195   1.577   0.870 -0.0063  0.4317 -0.7510
 2213SOL    HW118098   2.114   1.623   0.846 -0.1628  0.6947  0.2888
 2213SOL    HW218099   2.167   1.546   0.955  0.3656  3.4087  0.4765
 2214SOL     OW18100   2.913   0.289   9.453  0.7048 -0.3341  0.1282
 2214SOL    HW118101   2.889   0.356   9.389 -0.0735  0.0132  0.7877
 2214SOL    HW218102   2.991   0.250   9.413 -0.6354 -2.0398 -0.7745
 2215SOL     OW18103   2.778   0.812   2.965  0.1286 -0.1288  0.1317
 2215SOL    HW118104   2.852   0.866   2.996  0.1097 -0.1197  0.1621
 2215SOL    HW218105   2.758   0.878   2.899 -0.0321 -2.1449 -1.8112
 2216SOL     OW18106   4.492   4.212   8.110 -0.5024  0.4881 -0.3299
 2216SOL    HW118107   4.411   4.248   8.073 -0.1368  0.4709 -1.1358
 2216SOL    HW218108   4.483   4.121   8.081 -0.1282  0.6466 -0.9449
 2217SOL     OW18109   2.268   2.902   2.898 -0.3185  0.2448  0.5500
 2217SOL    HW118110   2.262   2.981   2.951 -0.1132  1.0540 -0.6308
 2217SOL    HW218111   2.242   2.836   2.962  1.4889 -1.7122 -0.7486
 2218SOL     OW18112   4.532   1.196   3.941 -0.0367  0.1191 -0.1988
 2218SOL    HW118113   4.484   1.222   3.862 -2.8937 -0.7340  1.2275
 2218SOL    HW218114   4.582   1.277   3.951  0.1431 -0.0443  0.2175
 2219SOL     OW18115   1.242   3.666   9.436 -0.2588 -0.0938 -0.2935
 2219SOL    HW118116   1.305   3.605   9.396 -0.1119  0.2773 -0.6270
 2219SOL    HW218117   1.295   3.697   9.509 -0.2630  0.2349 -0.4300
 2220SOL     OW18118   2.097   0.823   5.506 -0.2764 -0.3993  0.5816
 2220SOL    HW118119   2.032   0.888   5.533 -0.0473  0.0605  0.0286
 2220SOL    HW218120   2.157   0.821   5.580 -2.1474 -1.9470  2.0626
 2221SOL     OW18121   0.506   2.892  15.437  0.4756  0.2141  0.4436
 2221SOL    HW118122   0.586   2.883  15.385 -0.3847  0.8977 -1.0078
 2221SOL    HW218123   0.483   2.803  15.464  2.7585 -0.0797  1.4596
 2222SOL     OW18124   3.547   1.583  16.815  0.0050 -0.9421  0.0409
 2222SOL    HW118125   3.628   1.556  16.773 -0.2742  0.2975 -1.3121
 2222SOL    HW218126   3.568   1.676  16.816 -2.5781 -0.3448 -0.5196
 2223SOL     OW18127   0.984   0.373   2.412 -0.1175 -0.4693  0.1386
 2223SOL    HW118128   0.954   0.284   2.394  3.5938 -1.9627  1.2127
 2223SOL    HW218129   1.073   0.366   2.378 -0.8657 -0.6822 -1.7772
 2224SOL     OW18130   1.528   3.213  12.370 -0.5597 -0.1540  0.2578
 2224SOL    HW118131   1.571   3.293  12.339  2.0786 -0.9731  1.7736
 2224SOL    HW218132   1.456   3.260  12.411 -2.9881 -1.5815 -2.2989
 2225SOL     OW18133   3.160   3.646  12.789 -0.0246 -0.4114 -0.0614
 2225SOL    HW118134   3.094   3.621  12.724 -0.0584 -0.7250  0.0942
 2225SOL    HW218135   3.202   3.722  12.749  0.5905  0.4491  2.2049
 2226SOL     OW18136   1.441   3.746   2.103  0.1773  0.4004  0.1221
 2226SOL    HW118137   1.360   3.792   2.123 -0.3656  0.2935 -1.8083
 2226SOL    HW218138   1.482   3.813   2.048 -0.7890 -0.7953 -2.0740
 2227SOL     OW18139   3.752   1.872   6.249 -0.0031  0.2267  0.3148
 2227SOL    HW118140   3.729   1.899   6.160 -0.1763  1.7794  0.8353
 2227SOL    HW218141   3.797   1.788   6.238  0.6233  0.4978  0.8150
 2228SOL     OW18142   0.290   4.515   1.895 -0.2308  0.2417  0.0567
 2228SOL    HW118143   0.247   4.593   1.858  0.6771 -0.0078 -1.5309
 2228SOL    HW218144   0.271   4.458   1.820 -0.9045 -1.0263  1.1905
 2229SOL     OW18145   0.177   4.653   5.514 -0.1557 -0.3302 -0.2420
 2229SOL    HW118146   0.159   4.568   5.556  3.5669 -0.6985  0.5608
 2229SOL    HW218147   0.098   4.703   5.537 -1.8333 -4.1589  2.5009
 2230SOL     OW18148   2.207   1.148  12.968  0.1879  0.0395  0.5435
 2230SOL    HW118149   2.300   1.130  12.958  0.6388  3.2837 -1.4572
 2230SOL    HW218150   2.195   1.228  12.916 -1.1342 -0.8164 -0.4572
 2231SOL     OW18151   2.988   4.409   4.783 -0.8634 -0.2354 -0.1771
 2231SOL    HW118152   3.041   4.422   4.704 -1.5942 -0.0723 -0.6384
 2231SOL    HW218153   3.058   4.399   4.848 -1.0999  0.2906  0.1578
 2232SOL     OW18154   0.674   2.159   1.446 -0.4013 -0.2919  0.3413
 2232SOL    HW118155   0.655   2.065   1.441  1.3765 -0.5543 -1.6077
 2232SOL    HW218156   0.592   2.208   1.456 -0.3842 -0.0798 -0.5731
 2233SOL     OW18157   2.237   1.927   7.305 -0.0359 -0.1333 -0.0697
 2233SOL    HW118158   2.226   1.856   7.241  0.5757 -0.8283  0.5926
 2233SOL    HW218159   2.237   2.005   7.249  2.0074  0.4198  0.7102
 2234SOL     OW18160   0.952   1.837   6.466 -0.0565 -0.5334  0.0063
 2234SOL    HW118161   0.931   1.835   6.373  1.2845 -0.4423 -0.3031
 2234SOL    HW218162   0.945   1.744   6.489 -0.2820 -0.1826  1.3686
 2235SOL     OW18163   1.986   3.423  14.175  0.2344 -0.5009 -0.3180
 2235SOL    HW118164   2.003   3.342  14.126 -0.5663  0.2218 -1.7739
 2235SOL    HW218165   2.014   3.491  14.114  1.1463 -0.4588  0.1456
 2236SOL     OW18166   1.958   4.512  14.839  0.3226  0.1275 -0.2541
 2236SOL    HW118167   1.906   4.448  14.790 -1.1054  1.4797 -0.4998
 2236SOL    HW218168   1.931   4.589  14.789 -1.9363  0.6034  1.7100
 2237SOL     OW18169   3.501   2.181   0.073  0.0490 -0.3546 -0.8561
 2237SOL    HW118170   3.511   2.222   0.159  0.1932 -0.6324 -0.7401
 2237SOL    HW218171   3.407   2.169   0.068  0.3122 -2.1018 -1.6414
 2238SOL     OW18172   2.810   3.193   7.542 -0.2672 -0.3110 -0.1497
 2238SOL    HW118173   2.823   3.156   7.454  1.5259 -0.1124  0.0303
 2238SOL    HW218174   2.779   3.113   7.583  0.6915 -1.0094 -0.8026
 2239SOL     OW18175   1.742   3.245   9.487  0.4649 -0.0038 -0.0439
 2239SOL    HW118176   1.817   3.250   9.548  1.6440  1.6416 -1.6138
 2239SOL    HW218177   1.764   3.170   9.433 -0.7984  0.3476 -1.0288
 2240SOL     OW18178   3.857   0.057  13.618  0.2301  0.6839  0.3449
 2240SOL    HW118179   3.805   0.051  13.698 -0.5513  1.8179 -0.0663
 2240SOL    HW218180   3.885   4.692  13.613 -1.9822  0.1823 -2.8396
 2241SOL     OW18181   1.039   0.306   6.855  0.1407  0.6223 -0.7136
 2241SOL    HW118182   1.085   0.241   6.801 -0.7662 -1.2901  0.8036
 2241SOL    HW218183   1.088   0.291   6.935  2.4250 -1.4233 -2.4745
 2242SOL     OW18184   4.544   4.642   2.988 -0.3106 -0.4247 -0.6487
 2242SOL    HW118185   4.487   4.718   2.999 -0.5504 -0.8198  0.9073
 2242SOL    HW218186   4.484   4.586   2.940 -1.6990  1.3402 -0.9545
 2243SOL     OW18187   0.996   4.707   2.897  0.2969  0.6840  0.1060
 2243SOL    HW118188   0.905   4.713   2.869  0.6738  4.5092 -0.1847
 2243SOL    HW218189   1.022   4.639   2.835 -3.0664 -1.9824  1.5973
 2244SOL     OW18190   3.313   4.473  11.881 -0.3552  0.2410 -0.0530
 2244SOL    HW118191   3.264   4.546  11.920 -1.2096  0.0490 -0.7950
 2244SOL    HW218192   3.264   4.473  11.799 -1.9768  0.2751  0.9086
 2245SOL     OW18193   1.343   2.564   4.414 -0.3951 -0.4068  0.0082
 2245SOL    HW118194   1.333   2.640   4.471  0.6822 -1.1588  1.2221
 2245SOL    HW218195   1.314   2.493   4.472 -1.9257  0.3658  0.1675
 2246SOL     OW18196   1.928   4.717   6.492  0.5538  0.7260  0.5273
 2246SOL    HW118197   1.925   4.640   6.549 -1.4232 -1.0546 -1.9404
 2246SOL    HW218198   1.835   0.015   6.499  0.4686  0.2672  0.9655
 2247SOL     OW18199   3.744   0.818   4.494  0.0984 -0.6908 -0.0037
 2247SOL    HW118200   3.814   0.828   4.559 -1.9652 -0.2833  2.1734
 2247SOL    HW218201   3.676   0.771   4.544  0.5637 -0.4969  0.8191
 2248SOL     OW18202   3.706   0.996   6.721  0.5841  0.1372 -0.0324
 2248SOL    HW118203   3.729   0.907   6.746 -0.0870 -0.8457 -2.8984
 2248SOL    HW218204   3.729   1.000   6.628  0.5770  0.4539 -0.0231
 2249SOL     OW18205   0.911   3.485   2.001  0.1798 -0.3651 -0.1096
 2249SOL    HW118206   0.824   3.445   1.999  0.0845 -0.2361  1.1944
 2249SOL    HW218207   0.974   3.413   2.000  1.7829  1.0568 -0.0888
 2250SOL     OW18208   3.097   3.833  10.612 -0.5337 -0.1385 -0.7881
 2250SOL    HW118209   3.077   3.927  10.608  1.5638  0.3738  0.6989
 2250SOL    HW218210   3.192   3.832  10.625 -0.5805 -0.7019 -0.5026
 2251SOL     OW18211   3.902   2.169   0.579  0.2624 -0.1304  0.1217
 2251SOL    HW118212   3.827   2.176   0.638 -0.1196 -1.1511 -0.2537
 2251SOL    HW218213   3.960   2.233   0.620 -0.4367  0.8651 -0.4467
 2252SOL     OW18214   1.225   3.311   2.898 -0.3596 -0.2193  0.2596
 2252SOL    HW118215   1.266   3.396   2.914 -0.5672  0.5312 -3.1833
 2252SOL    HW218216   1.194   3.318   2.808  1.2202 -1.7042 -0.4135
 2253SOL     OW18217   0.898   4.389   5.789  0.4196  0.4301  0.1762
 2253SOL    HW118218   0.846   4.463   5.756 -0.6308  0.3328  1.5996
 2253SOL    HW218219   0.952   4.423   5.861 -0.1556  0.3039  0.6715
 2254SOL     OW18220   4.431   1.238   3.220  0.3685  0.4031  0.0570
 2254SOL    HW118221   4.366   1.300   3.186  0.1471  0.4136  0.4997
 2254SOL    HW218222   4.420   1.263   3.312  0.6685 -2.8179  0.9670
 2255SOL     OW18223   3.657   0.944   4.110  0.3976  0.5960 -0.2419
 2255SOL    HW118224   3.648   0.978   4.199  1.5955 -0.1861  0.1761
 2255SOL    HW218225   3.664   0.853   4.138 -0.7013 -0.0236 -2.0037
 2256SOL     OW18226   4.320   1.494   1.958  0.0696 -0.0348  0.5410
 2256SOL    HW118227   4.257   1.557   1.991 -1.5724 -1.5058  0.1916
 2256SOL    HW218228   4.292   1.476   1.868 -0.1871  0.4448  0.5263
 2257SOL     OW18229   0.514   0.292  10.225 -0.3689 -0.1845  0.8459
 2257SOL    HW118230   0.603   0.321  10.243 -0.4431  0.4998  0.1313
 2257SOL    HW218231   0.501   0.324  10.136 -0.9288 -0.5244  0.8023
 2258SOL     OW18232   2.905   1.684   6.442  0.1740 -0.5864  0.5842
 2258SOL    HW118233   2.959   1.742   6.495  0.5146 -2.3045  2.1254
 2258SOL    HW218234   2.867   1.733   6.369 -0.2967 -2.2358 -0.3016
 2259SOL     OW18235   2.435   1.438   4.963 -0.6388  0.3963 -0.1609
 2259SOL    HW118236   2.365   1.409   5.021 -1.5781 -0.1689 -1.5750
 2259SOL    HW218237   2.386   1.467   4.885 -0.2203  0.0488 -0.5500
 2260SOL     OW18238   1.830   1.121  11.544 -0.1795  0.7622  0.0584
 2260SOL    HW118239   1.775   1.075  11.481 -0.0635  0.6709  0.0237
 2260SOL    HW218240   1.864   1.046  11.594 -1.9037  0.0828  0.2353
 2261SOL     OW18241   3.421   3.961   2.068  0.4142  0.1477  0.2655
 2261SOL    HW118242   3.430   3.931   1.977  2.7401 -0.1161  0.5684
 2261SOL    HW218243   3.394   4.052   2.068 -3.4091 -1.0092 -0.9951
 2262SOL     OW18244   3.300   3.545  10.723 -0.1496 -0.3780  0.3089
 2262SOL    HW118245   3.320   3.638  10.725  1.6752 -0.7449 -1.3152
 2262SOL    HW218246   3.392   3.521  10.737  0.4403  1.8027  0.1393
 2263SOL     OW18247   1.283   0.251  12.536 -0.4529  0.6253 -0.0547
 2263SOL    HW118248   1.215   0.220  12.476 -0.8218  0.1373  0.6130
 2263SOL    HW218249   1.330   0.169  12.552 -2.3790 -0.5643 -0.5034
 2264SOL     OW18250   3.695   4.451  15.252  0.2758  0.0374 -0.0456
 2264SOL    HW118251   3.672   4.542  15.232  0.3784  0.0322 -0.1916
 2264SOL    HW218252   3.610   4.411  15.266  0.0485 -0.7781 -3.8578
 2265SOL     OW18253   0.213   0.066   4.152 -0.5882  0.6048 -0.4914
 2265SOL    HW118254   0.240   0.092   4.240 -2.2141  0.3154  0.0832
 2265SOL    HW218255   0.285   0.006   4.135 -0.0442  1.0917  0.0899
 2266SOL     OW18256   2.173   0.574   6.411 -0.2293 -0.3262 -0.3725
 2266SOL    HW118257   2.218   0.639   6.357 -0.0168  0.7935  1.1657
 2266SOL    HW218258   2.090   0.604   6.445  0.5594  0.0494  1.1868
 2267SOL     OW18259   1.998   2.101   3.291  0.1084 -0.4818 -0.0509
 2267SOL    HW118260   2.023   2.124   3.380 -0.1555  1.2491 -0.4338
 2267SOL    HW218261   2.013   2.006   3.296 -1.2752 -0.7963 -1.9378
 2268SOL     OW18262   4.566   4.367  14.058 -0.1936 -0.1553  0.0296
 2268SOL    HW118263   4.579   4.399  13.969 -1.3290  0.0065 -0.0809
 2268SOL    HW218264   4.618   4.419  14.120 -0.7070 -0.1690  0.4769
 2269SOL     OW18265   1.380   4.259   2.814  0.2718  0.0668  0.1869
 2269SOL    HW118266   1.439   4.335   2.812  2.1919 -1.4338 -0.2542
 2269SOL    HW218267   1.425   4.191   2.764  0.8227 -0.2105  1.0495
 2270SOL     OW18268   3.920   1.841   8.101 -0.3674  0.1369  0.1496
 2270SOL    HW118269   4.012   1.836   8.128 -0.7803  1.6455  1.8937
 2270SOL    HW218270   3.925   1.820   8.008  2.3564  1.0695  0.0990
 2271SOL     OW18271   0.375   1.794   6.540 -0.0313 -0.1084 -0.2743
 2271SOL    HW118272   0.402   1.796   6.632 -1.8029 -1.1495  0.2547
 2271SOL    HW218273   0.360   1.700   6.531  0.7458 -0.2098 -0.5613
 2272SOL     OW18274   1.725   0.658   8.584 -0.1968  0.7881 -0.0212
 2272SOL    HW118275   1.723   0.563   8.597 -0.3067  0.3831 -3.0871
 2272SOL    HW218276   1.652   0.661   8.523 -0.9018  0.1169  0.7741
 2273SOL     OW18277   3.928   4.693  11.390  0.3944 -0.1577  0.0580
 2273SOL    HW118278   3.869   0.025  11.341  0.6448 -0.0815 -0.1513
 2273SOL    HW218279   3.898   4.714  11.478  0.8950  3.2493 -0.5842
 2274SOL     OW18280   3.948   0.485   4.607 -0.5653 -0.0397  0.0426
 2274SOL    HW118281   3.980   0.500   4.696 -0.9163 -0.8193  0.2986
 2274SOL    HW218282   3.869   0.436   4.626 -0.4610 -0.0762  0.3674
 2275SOL     OW18283   4.703   0.461   0.917  0.1639 -0.4174  0.6777
 2275SOL    HW118284   4.700   0.374   0.956 -2.3301 -1.5118 -2.0092
 2275SOL    HW218285   0.044   0.444   0.852  0.4358  0.4565  0.7296
 2276SOL     OW18286   0.091   3.835   0.767 -0.2022  0.0118  0.5330
 2276SOL    HW118287   0.113   3.760   0.712  0.5480  0.4494  0.2256
 2276SOL    HW218288   0.114   3.907   0.707 -0.1292 -0.9073 -0.5284
 2277SOL     OW18289   0.107   2.216  16.358 -0.2515 -0.3794 -0.3211
 2277SOL    HW118290   0.107   2.311  16.342 -0.8556 -0.9774 -3.8250
 2277SOL    HW218291   0.135   2.210  16.449  0.4860  0.0748 -0.5098
 2278SOL     OW18292   0.525   1.326   5.475 -0.5553 -0.3785 -0.1834
 2278SOL    HW118293   0.576   1.264   5.526  1.1152 -0.6402 -2.1810
 2278SOL    HW218294   0.568   1.335   5.390  0.0984  0.7329  0.2627
 2279SOL     OW18295   1.300   3.153   7.405 -0.3148 -0.3429 -0.0129
 2279SOL    HW118296   1.231   3.188   7.347 -1.8768  0.2232  2.1924
 2279SOL    HW218297   1.284   3.059   7.413  0.3450 -0.3266  1.4072
 2280SOL     OW18298   2.293   2.391   2.272 -0.1847 -0.2261 -0.4425
 2280SOL    HW118299   2.201   2.381   2.298 -0.2402  2.1436  0.2988
 2280SOL    HW218300   2.307   2.484   2.292 -0.7832  0.5644 -3.6566
 2281SOL     OW18301   4.286   1.285   6.048 -0.3480 -0.2325  0.4060
 2281SOL    HW118302   4.339   1.308   5.972 -0.0441 -3.8759 -0.4821
 2281SOL    HW218303   4.226   1.221   6.009  1.0090 -0.3139 -1.5177
 2282SOL     OW18304   2.401   3.974   4.301  0.0255  0.4461 -0.1026
 2282SOL    HW118305   2.417   3.938   4.214  2.4509  1.1981  0.0215
 2282SOL    HW218306   2.314   4.012   4.294 -0.5636 -0.6060  1.4308
 2283SOL     OW18307   1.601   4.604   6.921 -0.5537 -0.0923 -0.8598
 2283SOL    HW118308   1.596   4.584   7.014 -3.7106  1.4097 -0.7072
 2283SOL    HW218309   1.527   4.569   6.872  0.1018 -1.8511 -0.5912
 2284SOL     OW18310   2.550   2.729   2.397 -0.2589 -0.3689 -0.0633
 2284SOL    HW118311   2.518   2.676   2.324  0.9217 -0.5160 -0.4706
 2284SOL    HW218312   2.596   2.795   2.346  0.8626  0.6331  2.2571
 2285SOL     OW18313   4.161   2.028  15.146  0.1311 -0.2043 -0.7757
 2285SOL    HW118314   4.230   1.993  15.201 -0.4267  0.4859  0.3639
 2285SOL    HW218315   4.098   2.003  15.214 -0.7317  0.7715 -1.2052
 2286SOL     OW18316   3.658   2.708   3.635  0.0103  0.4643 -0.7930
 2286SOL    HW118317   3.651   2.612   3.631  0.9203  0.4250 -1.6255
 2286SOL    HW218318   3.579   2.732   3.682  1.3816 -0.9394  2.2833
 2287SOL     OW18319   2.942   2.360   3.842 -0.1137 -0.2295  0.2505
 2287SOL    HW118320   3.006   2.323   3.782 -2.7322 -0.5367 -2.3450
 2287SOL    HW218321   2.895   2.402   3.770  1.4713 -0.6731 -1.0256
 2288SOL     OW18322   1.285   0.376  15.948 -0.1033 -0.0555 -0.1732
 2288SOL    HW118323   1.269   0.283  15.930 -1.9227  0.1142  0.6891
 2288SOL    HW218324   1.257   0.413  15.864 -1.8408 -0.2003  0.3603
 2289SOL     OW18325   2.690   2.985   6.928 -0.0377 -0.4766  0.8074
 2289SOL    HW118326   2.732   3.039   6.996  1.5027 -0.4826 -0.1537
 2289SOL    HW218327   2.727   3.015   6.845 -2.0225 -0.9050 -0.2288
 2290SOL     OW18328   3.738   1.806   6.685  0.5529  0.0612 -0.0300
 2290SOL    HW118329   3.746   1.849   6.600 -1.5735 -0.8805 -0.6950
 2290SOL    HW218330   3.819   1.755   6.688  0.5084  0.0592  1.3620
 2291SOL     OW18331   3.781   1.131   5.462  0.1262  0.3729 -0.0618
 2291SOL    HW118332   3.798   1.212   5.414 -2.2696  2.0496  1.9400
 2291SOL    HW218333   3.699   1.140   5.511 -1.3737 -0.7411 -2.3724
 2292SOL     OW18334   2.181   2.745   3.083  0.2140 -0.2430 -0.4035
 2292SOL    HW118335   2.180   2.680   3.154  0.9293  0.6782  0.4522
 2292SOL    HW218336   2.097   2.781   3.109 -1.5463 -3.9027 -0.9023
 2293SOL     OW18337   2.415   0.479   6.754  0.5735  0.1158  0.0981
 2293SOL    HW118338   2.355   0.490   6.827  0.7280  0.5754  0.1563
 2293SOL    HW218339   2.449   0.391   6.769  0.6881 -0.3677 -2.8694
 2294SOL     OW18340   4.353   1.993   6.343  0.1814  0.1540  0.5427
 2294SOL    HW118341   4.283   2.021   6.401 -0.9514 -0.7327 -0.4029
 2294SOL    HW218342   4.356   2.064   6.278  1.5638  2.2222  2.8753
 2295SOL     OW18343   0.353   1.710  10.298 -1.0454 -0.2490 -0.1234
 2295SOL    HW118344   0.265   1.712  10.259 -0.8943 -1.8457 -0.5496
 2295SOL    HW218345   0.353   1.783  10.360 -3.1812 -1.4182  1.2511
 2296SOL     OW18346   0.537   4.168   7.206 -0.0475 -0.1173 -0.1186
 2296SOL    HW118347   0.591   4.182   7.284 -1.7099 -1.5087  1.2893
 2296SOL    HW218348   0.482   4.246   7.201 -0.9290 -0.6692  0.9526
 2297SOL     OW18349   3.805   4.723  13.286 -0.2068 -0.1352 -0.9085
 2297SOL    HW118350   3.737   0.037  13.231 -0.6054  1.3887  0.6934
 2297SOL    HW218351   3.752   0.014  13.364 -0.6712  0.6012 -1.3794
 2298SOL     OW18352   0.693   2.331   4.446  0.0611 -0.1791  0.4258
 2298SOL    HW118353   0.684   2.258   4.507 -1.4826 -0.6496 -0.3460
 2298SOL    HW218354   0.746   2.386   4.504 -1.0824 -0.5868  1.8692
 2299SOL     OW18355   0.959   4.490   4.839 -0.6842  0.2192 -0.3688
 2299SOL    HW118356   1.041   4.521   4.878 -0.1550 -0.2605 -1.0979
 2299SOL    HW218357   0.956   4.400   4.871 -0.7015  0.7995  1.2460
 2300SOL     OW18358   0.136   2.512   3.949 -0.3199 -0.1367  0.0909
 2300SOL    HW118359   0.091   2.596   3.941  0.7940  0.4065 -0.3748
 2300SOL    HW218360   0.227   2.521   3.921 -0.9859 -0.6599 -2.2501
 2301SOL     OW18361   3.458   1.517   7.167 -0.4977 -0.5057 -0.0246
 2301SOL    HW118362   3.548   1.536   7.193 -0.6346  0.1708 -0.0503
 2301SOL    HW218363   3.435   1.609   7.156 -0.3288 -0.2012  2.0714
 2302SOL     OW18364   4.261   1.611   5.256 -0.3535  0.3412  0.7968
 2302SOL    HW118365   4.298   1.682   5.310 -2.5435  0.6851  1.8588
 2302SOL    HW218366   4.240   1.543   5.320 -1.8253  1.2370  1.2577
 2303SOL     OW18367   2.167   1.482   1.145 -0.3244  0.4039 -0.6214
 2303SOL    HW118368   2.084   1.466   1.190 -0.3221  0.0940 -0.7303
 2303SOL    HW218369   2.190   1.571   1.172 -1.3364  0.8595 -1.2473
 2304SOL     OW18370   0.806   2.123  17.523 -0.4086 -0.6607  0.1715
 2304SOL    HW118371   0.844   2.097  17.607  0.3007 -2.0434 -0.5862
 2304SOL    HW218372   0.883   2.151  17.473  0.7924 -1.2349  1.6814
 2305SOL     OW18373   0.953   4.167   4.283 -0.1863 -0.3541  0.2876
 2305SOL    HW118374   0.989   4.252   4.308  0.4011  0.0217 -1.8656
 2305SOL    HW218375   0.917   4.184   4.196 -1.7205 -1.7407  0.6371
 2306SOL     OW18376   1.162   0.192   5.062 -0.3163  0.0750 -0.4384
 2306SOL    HW118377   1.083   0.177   5.010  0.3895  0.1063 -1.5183
 2306SOL    HW218378   1.149   0.123   5.128  4.5448 -0.3121  0.0643
 2307SOL     OW18379   2.951   2.162   4.460  0.4720 -0.5679  0.8487
 2307SOL    HW118380   2.973   2.101   4.530  1.0473 -0.9153  0.3701
 2307SOL    HW218381   2.988   2.244   4.494 -4.4571  2.0891 -0.2450
 2308SOL     OW18382   3.000   0.940   3.295  0.0593 -0.3935  0.6904
 2308SOL    HW118383   3.000   1.029   3.332 -1.3001 -0.6819  1.3983
 2308SOL    HW218384   3.016   0.958   3.202 -0.2582  1.5582  1.0086
 2309SOL     OW18385   1.247   0.188   9.062  0.0798  0.2003  0.1033
 2309SOL    HW118386   1.184   0.259   9.047 -0.1573 -0.2157 -0.8415
 2309SOL    HW218387   1.201   0.117   9.017  0.8493 -2.1565  3.0462
 2310SOL     OW18388   2.996   3.224   1.704 -0.0045  0.0767  0.1682
 2310SOL    HW118389   2.936   3.291   1.670 -0.1259 -0.9494 -1.6438
 2310SOL    HW218390   3.013   3.262   1.789  2.6902  0.1672 -0.4316
 2311SOL     OW18391   2.340   2.569   4.447  0.3453  0.0456  0.4779
 2311SOL    HW118392   2.289   2.563   4.366 -0.5342 -2.2088  1.1981
 2311SOL    HW218393   2.288   2.507   4.497 -0.8008  0.4327 -0.2342
 2312SOL     OW18394   2.758   0.506   1.846 -0.0214 -0.1576 -0.1620
 2312SOL    HW118395   2.727   0.420   1.815  0.1604  0.4344 -1.9945
 2312SOL    HW218396   2.679   0.558   1.858  0.6923  1.0041 -0.5066
 2313SOL     OW18397   2.342   2.795  17.533 -0.4056  0.2290 -0.9577
 2313SOL    HW118398   2.379   2.737  17.599 -2.3920  0.1641  0.0799
 2313SOL    HW218399   2.379   2.881  17.549  0.0897  0.1596 -1.6986
 2314SOL     OW18400   2.472   2.359   2.726 -0.8069  0.8463 -0.6818
 2314SOL    HW118401   2.493   2.286   2.785 -0.8957 -0.6119 -2.4443
 2314SOL    HW218402   2.549   2.414   2.742 -1.0319  0.3333  2.0662
 2315SOL     OW18403   2.072   3.836   5.232 -0.1668  0.0568 -0.2248
 2315SOL    HW118404   2.049   3.799   5.147 -1.7550  0.6959 -0.0587
 2315SOL    HW218405   2.004   3.800   5.289 -0.2853 -1.3913 -1.2851
 2316SOL     OW18406   0.760   3.126   3.024 -0.4696  0.3524  0.1135
 2316SOL    HW118407   0.667   3.142   3.040 -0.9624 -1.8641 -0.4373
 2316SOL    HW218408   0.778   3.217   3.002  1.7486  0.3784  1.9507
 2317SOL     OW18409   2.671   1.668   7.602  0.2138  0.1435 -0.3576
 2317SOL    HW118410   2.719   1.630   7.676  1.7689  0.8666 -0.9852
 2317SOL    HW218411   2.616   1.598   7.567 -0.0519  0.9812 -1.6208
 2318SOL     OW18412   2.002   3.420   6.652 -0.0367 -0.0236  0.1291
 2318SOL    HW118413   2.010   3.479   6.578 -0.6076 -0.5020 -0.3111
 2318SOL    HW218414   2.080   3.367   6.634  2.1861  3.5850 -0.8779
 2319SOL     OW18415   1.484   2.138   8.536 -0.6225 -0.1469  0.4584
 2319SOL    HW118416   1.499   2.054   8.493 -0.5877 -0.2224  0.6184
 2319SOL    HW218417   1.554   2.192   8.500 -1.2935 -0.4358 -1.2534
 2320SOL     OW18418   2.893   3.399   4.451 -0.2004 -0.2226  0.3535
 2320SOL    HW118419   2.987   3.380   4.457 -0.0593  0.4599  0.2918
 2320SOL    HW218420   2.865   3.328   4.393 -1.3020 -1.1326  1.9956
 2321SOL     OW18421   4.228   0.261   7.975  0.1609 -0.1364  0.5319
 2321SOL    HW118422   4.140   0.226   7.962  0.0535  0.2984  0.1068
 2321SOL    HW218423   4.253   0.225   8.060 -0.7816 -2.5287 -0.2196
 2322SOL     OW18424   1.334   3.019   3.799  0.7698 -0.2806 -0.4964
 2322SOL    HW118425   1.321   2.929   3.831  0.3985  0.0647  0.3435
 2322SOL    HW218426   1.286   3.015   3.716 -0.4748 -0.6797  0.2311
 2323SOL     OW18427   4.030   1.707  10.990  0.3981 -0.0190  0.3093
 2323SOL    HW118428   3.996   1.625  10.953  0.8688  0.5157 -1.3302
 2323SOL    HW218429   4.103   1.677  11.043  0.6700  0.2659  0.0954
 2324SOL     OW18430   0.871   2.675   7.410 -0.7768  0.6815  0.4058
 2324SOL    HW118431   0.788   2.704   7.371 -0.0886  0.1692 -1.4403
 2324SOL    HW218432   0.842   2.655   7.499  0.7733 -2.0746  0.2733
 2325SOL     OW18433   0.375   2.350   6.533 -0.4591 -0.1705  0.9226
 2325SOL    HW118434   0.417   2.379   6.615  0.7971  2.2825 -0.6034
 2325SOL    HW218435   0.302   2.295   6.562  0.2235 -2.0545 -0.9776
 2326SOL     OW18436   3.711   1.698   8.205  1.2770 -0.0363 -0.7501
 2326SOL    HW118437   3.744   1.624   8.155 -1.4211 -2.1924  0.6423
 2326SOL    HW218438   3.782   1.761   8.189  2.7769 -1.6416 -0.4207
 2327SOL     OW18439   1.258   0.106  17.594  0.0316 -0.0454  0.6917
 2327SOL    HW118440   1.280   0.135  17.683 -0.2571 -0.0016  0.7489
 2327SOL    HW218441   1.185   0.166  17.580 -0.6105 -0.6634  1.3865
 2328SOL     OW18442   4.300   0.930   0.447 -0.1609 -0.0417  0.4733
 2328SOL    HW118443   4.353   0.962   0.374 -2.2431  2.2317 -0.0354
 2328SOL    HW218444   4.349   0.851   0.469  1.1333 -0.2461 -3.0858
 2329SOL     OW18445   3.417   2.081   3.469  0.1659 -0.0639  0.0383
 2329SOL    HW118446   3.439   2.045   3.383 -0.6627  0.2475 -0.3045
 2329SOL    HW218447   3.376   2.002   3.504  2.0456 -0.2092  1.9394
 2330SOL     OW18448   1.224   1.405   6.924 -0.8214  0.3605 -0.0029
 2330SOL    HW118449   1.261   1.434   7.007  2.0958  0.0573 -1.2213
 2330SOL    HW218450   1.165   1.335   6.954 -0.0460 -1.4621 -2.7933
 2331SOL     OW18451   1.342   1.868   7.326  0.0124  0.1004 -0.6803
 2331SOL    HW118452   1.365   1.925   7.399 -0.8738  0.0672 -0.3714
 2331SOL    HW218453   1.426   1.828   7.305 -0.7395 -1.9224  0.2739
 2332SOL     OW18454   2.091   3.141  16.228  0.3998  0.4492 -0.7036
 2332SOL    HW118455   2.145   3.205  16.183  0.4799  0.1867 -0.9822
 2332SOL    HW218456   2.088   3.085  16.151 -0.8918 -0.0657 -0.2732
 2333SOL     OW18457   4.448   3.856  10.157 -0.2844  0.0116 -0.0885
 2333SOL    HW118458   4.473   3.861  10.249 -1.2209 -0.0586  0.1693
 2333SOL    HW218459   4.508   3.922  10.123  0.8290  0.3969  2.6352
 2334SOL     OW18460   0.464   1.969   1.417  0.2700 -0.5394 -0.1204
 2334SOL    HW118461   0.384   1.918   1.433 -0.7593  0.5460 -1.8089
 2334SOL    HW218462   0.519   1.902   1.376 -0.3740 -0.9167 -0.3754
 2335SOL     OW18463   3.401   4.627   6.582 -0.5567  0.0629  0.0797
 2335SOL    HW118464   3.393   4.654   6.491 -0.8706  1.2124  0.4437
 2335SOL    HW218465   3.465   4.693   6.608  0.3968 -0.4226 -1.0660
 2336SOL     OW18466   3.448   2.325   6.390  0.1700 -0.6845  0.6154
 2336SOL    HW118467   3.379   2.330   6.324 -1.8948 -0.0541  2.8248
 2336SOL    HW218468   3.520   2.382   6.361 -1.0604 -0.3771 -1.8519
 2337SOL     OW18469   1.090   0.402   0.596  0.3969 -0.0185 -0.4866
 2337SOL    HW118470   1.033   0.364   0.663 -0.0082 -0.0482 -0.8509
 2337SOL    HW218471   1.021   0.448   0.549 -1.3411 -0.4928  1.5952
 2338SOL     OW18472   0.212   1.030   8.500 -0.1843  0.1199  0.1872
 2338SOL    HW118473   0.273   1.018   8.573  0.2164 -2.7277 -0.6453
 2338SOL    HW218474   0.130   0.994   8.534 -0.9795  0.2857 -1.5723
 2339SOL     OW18475   1.936   2.997   7.376  0.1554 -0.1026 -0.0601
 2339SOL    HW118476   1.967   3.084   7.353 -0.5096  0.4969  1.3478
 2339SOL    HW218477   1.872   2.985   7.305 -0.3075 -1.8448  0.6439
 2340SOL     OW18478   0.807   2.631  13.074  0.1856 -0.0815  0.3199
 2340SOL    HW118479   0.809   2.577  12.996  0.3768  1.4965 -0.7681
 2340SOL    HW218480   0.899   2.655  13.078  0.2658 -0.2584 -0.5146
 2341SOL     OW18481   4.189   2.890   6.258  0.1645  0.0721  0.3062
 2341SOL    HW118482   4.252   2.842   6.203 -0.2953  1.5031 -1.4900
 2341SOL    HW218483   4.186   2.823   6.326  1.1701 -2.1259 -1.7925
 2342SOL     OW18484   3.852   4.704   3.271  0.2809  0.1041  0.1481
 2342SOL    HW118485   3.828   0.038   3.201 -2.5415 -1.4462 -0.2064
 2342SOL    HW218486   3.850   4.620   3.224 -2.1629 -0.3716  1.0983
 2343SOL     OW18487   0.435   0.782  10.533 -0.6302  0.7862 -0.1205
 2343SOL    HW118488   0.344   0.809  10.527 -0.7672  0.5387  0.7590
 2343SOL    HW218489   0.432   0.698  10.579 -0.0070  1.3718  0.9904
 2344SOL     OW18490   3.398   3.412   9.445  0.5610 -0.1118 -0.0166
 2344SOL    HW118491   3.341   3.336   9.460 -0.7200  1.2205  1.9770
 2344SOL    HW218492   3.425   3.391   9.355  0.0964  0.8476 -0.3715
 2345SOL     OW18493   1.266   3.389   4.418 -0.0852  0.1601  0.0207
 2345SOL    HW118494   1.315   3.313   4.388 -0.0701 -1.1568  3.4270
 2345SOL    HW218495   1.301   3.458   4.362 -0.1454  0.1642 -0.0132
 2346SOL     OW18496   2.718   0.902   6.421  0.2958  0.6793 -0.1168
 2346SOL    HW118497   2.782   0.937   6.360 -0.6286  0.5871 -1.1288
 2346SOL    HW218498   2.637   0.944   6.393 -0.2004  1.0294  1.8204
 2347SOL     OW18499   2.761   0.267   4.278  0.3277  0.5812 -0.1219
 2347SOL    HW118500   2.734   0.266   4.186  2.1025  0.0371 -0.6382
 2347SOL    HW218501   2.674   0.270   4.317  1.1439 -0.3585  1.7595
 2348SOL     OW18502   2.629   0.146   1.021 -0.8624  0.5021  0.4434
 2348SOL    HW118503   2.692   0.213   0.996 -0.1994 -0.3629 -0.2012
 2348SOL    HW218504   2.682   0.080   1.066 -1.0045 -0.9667 -1.5436
 2349SOL     OW18505   0.154   1.107  10.570 -0.2138  0.6134  0.4345
 2349SOL    HW118506   0.226   1.127  10.511  0.2246 -0.7912  0.5024
 2349SOL    HW218507   0.095   1.071  10.504  1.4027  0.7869 -1.0958
 2350SOL     OW18508   4.139   4.533   1.335 -0.2578 -0.1017  0.3569
 2350SOL    HW118509   4.085   4.517   1.413 -0.5273 -0.0956  0.1680
 2350SOL    HW218510   4.101   4.612   1.298  2.1024  0.6762 -0.3967
 2351SOL     OW18511   4.406   0.511   0.670  0.6575 -0.2841  0.0261
 2351SOL    HW118512   4.331   0.494   0.727  0.2277 -3.0964 -1.4404
 2351SOL    HW218513   4.457   0.576   0.720 -1.1863  0.2637  1.1978
 2352SOL     OW18514   1.000   0.360  15.319 -1.1210  0.0594  0.1999
 2352SOL    HW118515   1.020   0.452  15.305  0.7892 -0.3830  0.0829
 2352SOL    HW218516   0.916   0.354  15.273  0.2219  1.3520 -2.4336
 2353SOL     OW18517   4.489   4.137  14.635  0.0890  0.9018 -0.3814
 2353SOL    HW118518   4.496   4.086  14.555 -1.3312 -1.5852  1.0862
 2353SOL    HW218519   4.404   4.180  14.625 -0.5864  0.0719  1.7709
 2354SOL     OW18520   1.490   0.708   3.012 -0.4821  0.0179  0.2251
 2354SOL    HW118521   1.505   0.638   2.949  2.2400  2.8425 -2.2697
 2354SOL    HW218522   1.539   0.669   3.084 -1.9405  1.2366  1.8941
 2355SOL     OW18523   0.656   0.959   6.272  0.6608  0.8009 -0.0136
 2355SOL    HW118524   0.623   0.904   6.342  1.5983  3.9825  2.9172
 2355SOL    HW218525   0.695   0.893   6.215  0.7686  1.8380 -1.1435
 2356SOL     OW18526   1.174   0.461  13.192  0.0553  0.1483  0.0275
 2356SOL    HW118527   1.091   0.466  13.145 -1.0046  0.6740  1.9240
 2356SOL    HW218528   1.160   0.538  13.247  1.5151 -1.1350  2.2212
 2357SOL     OW18529   2.807   4.646   7.988 -0.1115  0.1784  0.1840
 2357SOL    HW118530   2.798   4.676   8.079  0.7376 -1.1572  0.7053
 2357SOL    HW218531   2.769   4.558   7.990 -0.2701  0.2984  2.2085
 2358SOL     OW18532   4.041   2.041   5.762  0.4152  0.0351  0.2094
 2358SOL    HW118533   4.005   1.975   5.821 -2.9301  1.9775  0.4132
 2358SOL    HW218534   4.064   2.106   5.829  2.1753  0.4376 -0.7782
 2359SOL     OW18535   2.946   3.173   0.404  0.4794  0.3007  0.0635
 2359SOL    HW118536   2.949   3.207   0.315 -2.4563 -0.3038 -0.2792
 2359SOL    HW218537   2.974   3.256   0.443 -0.5046  1.0819 -0.8951
 2360SOL     OW18538   1.908   2.939  10.891  0.0597 -0.3603  0.2543
 2360SOL    HW118539   1.956   2.990  10.826 -0.4411 -1.9235 -1.3371
 2360SOL    HW218540   1.935   2.848  10.879 -0.1715  0.0456 -3.3636
 2361SOL     OW18541   0.148   3.462   0.797  0.6351  0.2988  0.1348
 2361SOL    HW118542   0.068   3.425   0.834  0.0953  0.7726 -0.5443
 2361SOL    HW218543   0.176   3.384   0.749  1.5185  0.2470  0.7436
 2362SOL     OW18544   0.051   3.778   3.231 -0.5148 -0.5864 -0.1713
 2362SOL    HW118545   0.079   3.698   3.276  2.5718  0.9351  0.6186
 2362SOL    HW218546   0.091   3.766   3.145  1.0888 -1.8573  0.7547
 2363SOL     OW18547   4.032   2.336  12.381  0.2110 -1.0538  0.4221
 2363SOL    HW118548   4.106   2.284  12.410  0.2894 -1.0170  0.2894
 2363SOL    HW218549   4.066   2.425  12.377  0.1405 -0.9590  1.8409
 2364SOL     OW18550   0.391   0.296   8.494 -0.0398  0.5208 -0.9900
 2364SOL    HW118551   0.324   0.352   8.534  0.8718  0.3191  0.8453
 2364SOL    HW218552   0.428   0.349   8.423  1.4591  0.5119 -0.2282
 2365SOL     OW18553   4.333   0.074  16.247  0.2961  0.2277  0.3838
 2365SOL    HW118554   4.251   0.056  16.201  1.4064  0.1191 -1.5436
 2365SOL    HW218555   4.378   0.134  16.189  0.2541 -1.1009 -1.0094
 2366SOL     OW18556   2.603   1.063  13.830  0.8656 -0.2272  0.1490
 2366SOL    HW118557   2.674   1.122  13.806 -0.7714  1.7130  0.0654
 2366SOL    HW218558   2.626   0.995  13.767 -2.3736  0.1027 -1.4200
 2367SOL     OW18559   2.096   4.154  15.276  0.3028  0.4898 -0.5317
 2367SOL    HW118560   2.076   4.178  15.185 -1.6223 -1.6647 -0.6656
 2367SOL    HW218561   2.167   4.095  15.254 -0.6989 -0.1117 -2.1578
 2368SOL     OW18562   0.076   2.390  11.521  0.3969 -0.2559 -0.5205
 2368SOL    HW118563   0.023   2.385  11.600 -0.9794  3.6753 -1.1965
 2368SOL    HW218564   0.147   2.337  11.557 -0.1632 -0.2870  0.5399
 2369SOL     OW18565   1.236   3.969   3.673  0.2562 -0.3977 -0.0823
 2369SOL    HW118566   1.176   4.039   3.700  2.3322  1.5305 -0.4370
 2369SOL    HW218567   1.180   3.895   3.696 -2.6275  0.8481 -2.9409
 2370SOL     OW18568   4.309   4.637   6.593  0.1900 -0.2177 -0.0279
 2370SOL    HW118569   4.308   0.005   6.582  0.2135 -0.1957  0.1520
 2370SOL    HW218570   4.227   4.625   6.641  0.6973  0.2430  0.9628
 2371SOL     OW18571   1.532   0.486   6.132  0.0163 -0.2832  0.0503
 2371SOL    HW118572   1.524   0.496   6.226 -0.4132  0.1590 -0.0345
 2371SOL    HW218573   1.620   0.515   6.110 -0.4465  0.1713 -1.2352
 2372SOL     OW18574   0.076   1.670   7.274 -0.2684  0.0238  0.1123
 2372SOL    HW118575   0.022   1.733   7.322  1.7247 -0.0957  2.5197
 2372SOL    HW218576   0.014   1.642   7.207 -0.8918 -0.3620  0.8491
 2373SOL     OW18577   2.245   2.286   3.353  0.1727  0.7237 -0.2088
 2373SOL    HW118578   2.272   2.222   3.419  2.8949  2.0266 -0.1003
 2373SOL    HW218579   2.298   2.359   3.385 -1.3300  1.3203  0.9077
 2374SOL     OW18580   2.805   0.447   7.708  0.0865  0.3777  0.4910
 2374SOL    HW118581   2.713   0.469   7.721  0.0286  1.3216 -1.4583
 2374SOL    HW218582   2.864   0.507   7.754  0.1060 -0.2703  1.3031
 2375SOL     OW18583   2.685   3.894   6.807 -0.4804 -0.3415  0.2378
 2375SOL    HW118584   2.729   3.936   6.733 -0.1786 -1.6089 -0.3182
 2375SOL    HW218585   2.747   3.908   6.879 -0.0539  2.0966 -0.6377
 2376SOL     OW18586   1.575   2.498  17.632 -0.2311 -0.7392 -0.5462
 2376SOL    HW118587   1.543   2.558  17.700 -0.6013 -0.5161 -0.9148
 2376SOL    HW218588   1.537   2.535  17.553 -0.9567  0.3269  0.3015
 2377SOL     OW18589   3.771   3.348  11.358  0.3504  0.1440  0.1240
 2377SOL    HW118590   3.680   3.368  11.334 -0.2180 -0.5292  1.7846
 2377SOL    HW218591   3.826   3.410  11.310  0.5451 -0.5043 -0.4855
 2378SOL     OW18592   3.398   2.233   2.290 -0.3511 -0.4482  0.2891
 2378SOL    HW118593   3.336   2.306   2.278 -2.1494 -2.1318 -0.5229
 2378SOL    HW218594   3.337   2.162   2.309 -0.0863 -0.2505  1.8706
 2379SOL     OW18595   1.587   2.307   7.253  0.1727 -0.1744 -0.2883
 2379SOL    HW118596   1.602   2.311   7.347 -1.5913 -1.1731  0.0405
 2379SOL    HW218597   1.624   2.221   7.231 -0.7371 -0.0624 -2.3042
 2380SOL     OW18598   2.701   0.378   0.375  0.7825  0.2461  0.1773
 2380SOL    HW118599   2.619   0.356   0.420  0.6226  0.7602  0.1432
 2380SOL    HW218600   2.708   0.308   0.311  1.1577  1.2504 -0.8875
 2381SOL     OW18601   1.996   3.346   1.302 -0.3164  0.3811  0.0353
 2381SOL    HW118602   2.084   3.315   1.322 -0.3208 -2.8929 -5.0661
 2381SOL    HW218603   2.002   3.368   1.210 -0.4613  1.7498  0.3518
 2382SOL     OW18604   3.351   3.458  12.095 -0.1153  0.3058  0.1052
 2382SOL    HW118605   3.299   3.519  12.042 -0.1995  1.1122  1.1258
 2382SOL    HW218606   3.388   3.514  12.163 -0.6921 -0.4012  1.0052
 2383SOL     OW18607   1.667   0.254   3.818 -0.5126  0.1123  0.0773
 2383SOL    HW118608   1.657   0.235   3.911 -1.9044 -0.5865 -0.2059
 2383SOL    HW218609   1.721   0.332   3.806 -0.7785  0.0208 -1.8072
 2384SOL     OW18610   1.759   2.225   4.598 -0.5222  0.0892  0.0711
 2384SOL    HW118611   1.732   2.297   4.541  1.4916 -0.7124 -1.8746
 2384SOL    HW218612   1.679   2.173   4.590 -0.4589 -0.0989  0.6452
 2385SOL     OW18613   4.532   2.350   1.436  0.1748 -0.4791 -0.4270
 2385SOL    HW118614   4.449   2.309   1.459  0.6358 -0.6724  0.8942
 2385SOL    HW218615   4.515   2.365   1.343  1.0194 -1.1816 -0.6944
 2386SOL     OW18616   4.137   0.638   3.201 -0.1433  0.0068 -0.0925
 2386SOL    HW118617   4.099   0.623   3.288  0.9070 -1.9738  0.0076
 2386SOL    HW218618   4.185   0.720   3.208 -1.9133  1.3291 -3.3461
 2387SOL     OW18619   3.022   0.515   8.830 -0.0293 -0.2960 -0.3862
 2387SOL    HW118620   3.037   0.522   8.924  2.3214 -0.6985 -0.7277
 2387SOL    HW218621   2.985   0.427   8.831  1.5158 -0.9674 -1.1601
 2388SOL     OW18622   0.467   3.013  16.187 -0.2254 -0.1529  1.0712
 2388SOL    HW118623   0.419   2.990  16.267  0.7932  2.2501  2.3609
 2388SOL    HW218624   0.507   2.927  16.179  0.3075  0.1872  0.1452
 2389SOL     OW18625   2.813   1.204   0.386 -0.2801  0.3142 -0.0784
 2389SOL    HW118626   2.814   1.253   0.468  2.4168 -2.0939  1.3440
 2389SOL    HW218627   2.765   1.261   0.325  1.2478  0.0594 -1.5264
 2390SOL     OW18628   2.972   0.699   7.563  0.3137 -0.3726 -0.3672
 2390SOL    HW118629   2.907   0.661   7.504  0.3689 -1.3494  0.2007
 2390SOL    HW218630   2.917   0.768   7.599 -0.9905 -0.0177 -3.0783
 2391SOL     OW18631   4.636   4.174   7.824 -0.2999 -0.2543  0.2999
 2391SOL    HW118632   4.701   4.175   7.755 -0.0488  1.0999  0.5409
 2391SOL    HW218633   4.589   4.255   7.805 -0.0868 -0.6728 -1.9290
 2392SOL     OW18634   2.594   1.131  12.201 -0.4520 -0.1370 -0.8037
 2392SOL    HW118635   2.605   1.050  12.151 -2.9719  1.2451 -3.5884
 2392SOL    HW218636   2.586   1.097  12.290 -1.6960  0.4452 -0.7042
 2393SOL     OW18637   2.117   2.295   0.191  0.2965  0.0936 -0.6355
 2393SOL    HW118638   2.212   2.285   0.180  0.1304  0.0618 -1.9582
 2393SOL    HW218639   2.103   2.365   0.128 -0.5289  1.0909  0.6605
 2394SOL     OW18640   1.716   0.916   5.855 -0.0198  0.1309 -0.1487
 2394SOL    HW118641   1.763   0.998   5.872  0.6816 -0.3940  0.4102
 2394SOL    HW218642   1.709   0.889   5.946  0.3123  0.6332  0.0257
 2395SOL     OW18643   2.969   1.669   3.081 -0.4540  0.1251 -0.5011
 2395SOL    HW118644   3.030   1.656   3.154 -1.2436  1.4541  0.3987
 2395SOL    HW218645   2.894   1.704   3.128  1.6436  1.6758  1.7036
 2396SOL     OW18646   2.664   2.561   8.509  0.4646  0.5160 -0.6617
 2396SOL    HW118647   2.649   2.568   8.415 -1.9887 -0.7242 -0.3641
 2396SOL    HW218648   2.590   2.512   8.543  1.7828 -0.7301  0.4297
 2397SOL     OW18649   2.676   3.775  12.336 -0.2129  0.6130 -0.2437
 2397SOL    HW118650   2.638   3.862  12.351 -0.3903  0.5623 -0.4008
 2397SOL    HW218651   2.769   3.797  12.331  0.2066 -0.8391  1.5650
 2398SOL     OW18652   3.322   0.343   9.449  0.3624  0.6703  0.6312
 2398SOL    HW118653   3.360   0.281   9.511 -0.5721 -0.6508 -0.1073
 2398SOL    HW218654   3.235   0.310   9.427  0.7078 -0.6395  1.2057
 2399SOL     OW18655   0.050   1.450   8.109  0.1265  0.8473 -0.1161
 2399SOL    HW118656   4.701   1.483   8.060  1.2557  0.7528 -1.8878
 2399SOL    HW218657   0.113   1.409   8.050 -0.8542 -0.8121 -0.0104
 2400SOL     OW18658   3.069   4.549   9.113  0.3907 -0.1003  0.3704
 2400SOL    HW118659   3.111   4.574   9.196  0.6512  1.9218 -0.3709
 2400SOL    HW218660   3.141   4.572   9.054  2.0205  0.8099  2.7150
 2401SOL     OW18661   0.825   4.421  17.189  0.6180 -0.2913 -0.0233
 2401SOL    HW118662   0.903   4.373  17.163  0.8297  1.1015 -1.9489
 2401SOL    HW218663   0.754   4.356  17.184 -0.8339  1.4545 -2.1719
 2402SOL     OW18664   0.831   4.464   9.425 -0.0009  0.0813 -0.0659
 2402SOL    HW118665   0.806   4.371   9.431 -1.0115  0.3387 -0.3354
 2402SOL    HW218666   0.881   4.461   9.344 -0.4944 -1.9750 -0.2978
 2403SOL     OW18667   2.653   1.764   9.970  0.3018  0.7311 -0.2964
 2403SOL    HW118668   2.671   1.856   9.948 -0.5820  0.5328 -1.8022
 2403SOL    HW218669   2.714   1.720   9.911 -1.1549 -0.3239 -1.0006
 2404SOL     OW18670   1.145   2.412   7.463  0.0226 -0.3453 -0.5034
 2404SOL    HW118671   1.223   2.427   7.409  0.5698  0.9952  0.6623
 2404SOL    HW218672   1.149   2.485   7.524  1.3904 -0.3485 -0.5787
 2405SOL     OW18673   4.070   4.614   6.717  0.1502  0.9425 -0.2973
 2405SOL    HW118674   4.046   4.610   6.810 -1.4728  0.5181 -0.7335
 2405SOL    HW218675   4.036   4.533   6.680  0.7448  0.9163 -0.7739
 2406SOL     OW18676   2.377   2.278   7.373  0.9565 -0.5742 -0.2396
 2406SOL    HW118677   2.408   2.235   7.452 -0.9070  0.2151  0.9239
 2406SOL    HW218678   2.453   2.265   7.316  0.8306  3.0753 -1.2467
 2407SOL     OW18679   2.738   2.955   7.606  0.1756  0.4528  0.0859
 2407SOL    HW118680   2.774   2.867   7.605 -0.3554  0.2173  3.7009
 2407SOL    HW218681   2.652   2.946   7.567  0.5200 -0.9243 -0.3412
 2408SOL     OW18682   1.862   3.410  16.821  0.0345  0.0419  0.1356
 2408SOL    HW118683   1.827   3.485  16.773 -1.2509 -3.0944 -3.8263
 2408SOL    HW218684   1.815   3.406  16.904 -1.2627 -0.5446 -0.6163
 2409SOL     OW18685   4.647   0.948   4.430  0.8072  0.3857  0.3102
 2409SOL    HW118686   4.598   1.024   4.398  0.7751  0.9716  1.7543
 2409SOL    HW218687   4.615   0.952   4.520  1.8222  0.0987  0.6853
 2410SOL     OW18688   0.310   0.663  14.424  0.4482 -0.0234  0.2016
 2410SOL    HW118689   0.301   0.757  14.410  0.6954  0.0879  0.7960
 2410SOL    HW218690   0.384   0.640  14.367 -0.7836 -0.3386 -1.2691
 2411SOL     OW18691   1.516   3.776  16.830 -0.1278 -0.4069  0.6126
 2411SOL    HW118692   1.466   3.726  16.895 -2.7898  0.0434 -1.0561
 2411SOL    HW218693   1.447   3.803  16.769 -1.7749 -0.1659  2.5480
 2412SOL     OW18694   2.267   2.540   6.580 -0.0907  0.0911  0.6604
 2412SOL    HW118695   2.220   2.621   6.598  0.4610  0.6256 -0.3365
 2412SOL    HW218696   2.332   2.533   6.651 -1.2658  0.0985  1.7391
 2413SOL     OW18697   1.618   2.616   3.316 -0.0155 -0.0811  0.1245
 2413SOL    HW118698   1.587   2.604   3.226  0.0979 -1.4593  0.2634
 2413SOL    HW218699   1.713   2.609   3.301 -0.0439 -0.4459  0.1172
 2414SOL     OW18700   2.134   3.136   4.051  0.4672 -0.2104  0.0838
 2414SOL    HW118701   2.080   3.212   4.073  0.7288  0.6235 -2.1523
 2414SOL    HW218702   2.156   3.092   4.133 -1.0487 -0.2200  0.4850
 2415SOL     OW18703   2.904   1.074   2.474 -0.3378  0.6292  0.1042
 2415SOL    HW118704   2.816   1.100   2.501 -0.8895 -0.9470 -0.1666
 2415SOL    HW218705   2.882   1.037   2.388 -0.6274 -1.5565  1.1420
 2416SOL     OW18706   3.796   2.674   7.301 -0.1270  0.2386 -0.4997
 2416SOL    HW118707   3.757   2.758   7.325  0.2468  0.2614  0.0324
 2416SOL    HW218708   3.886   2.692   7.327 -0.6990  3.0060 -0.4443
 2417SOL     OW18709   2.572   1.814   9.423  0.1984 -0.4359 -0.0900
 2417SOL    HW118710   2.646   1.755   9.406  2.0189  1.4043  1.5685
 2417SOL    HW218711   2.613   1.887   9.470 -1.1685  0.5217 -0.3923
 2418SOL     OW18712   1.355   4.632   4.486 -0.3472 -0.2981 -0.0871
 2418SOL    HW118713   1.275   4.677   4.458 -1.2227 -2.4808 -1.0930
 2418SOL    HW218714   1.310   4.555   4.522 -2.0041  0.6791 -0.0938
 2419SOL     OW18715   2.543   0.544   2.446 -0.4131 -0.6210 -0.2227
 2419SOL    HW118716   2.584   0.524   2.362  0.1671 -1.4993  0.2708
 2419SOL    HW218717   2.472   0.480   2.441 -0.6907 -0.2233 -1.3975
 2420SOL     OW18718   2.761   2.319  16.738  0.1185  0.3284 -0.6411
 2420SOL    HW118719   2.810   2.401  16.728 -1.3055  1.3318  0.5965
 2420SOL    HW218720   2.687   2.341  16.682 -0.9044 -1.0815  0.1735
 2421SOL     OW18721   1.231   1.205  11.727  0.3460  0.0868  0.1872
 2421SOL    HW118722   1.156   1.150  11.704 -0.2763  1.5841 -1.2995
 2421SOL    HW218723   1.265   1.232  11.642  0.3406 -1.7555 -0.4050
 2422SOL     OW18724   0.913   2.721   5.577  0.0176 -0.2030  0.1016
 2422SOL    HW118725   0.963   2.770   5.512 -0.2554  0.6498  0.5371
 2422SOL    HW218726   0.830   2.768   5.575 -0.6005 -1.3310 -1.3456
 2423SOL     OW18727   3.050   2.688   4.196  0.0197 -0.0687 -0.4624
 2423SOL    HW118728   3.022   2.704   4.286 -3.0003 -0.4376 -1.3372
 2423SOL    HW218729   3.003   2.606   4.183  2.0829 -1.1856 -0.7454
 2424SOL     OW18730   4.595   0.935   1.766 -0.1082 -0.1090 -0.0368
 2424SOL    HW118731   4.657   0.999   1.801 -0.4353 -0.0517  0.4361
 2424SOL    HW218732   4.611   0.866   1.831 -0.7213  1.8880  2.2260
 2425SOL     OW18733   3.253   1.098   3.206  0.1874  0.0525 -0.1959
 2425SOL    HW118734   3.319   1.101   3.136  0.9825 -0.6341  0.5278
 2425SOL    HW218735   3.204   1.178   3.189 -0.9881 -0.8285 -1.0047
 2426SOL     OW18736   3.110   1.288   3.126  0.2017  0.0369 -0.4766
 2426SOL    HW118737   3.022   1.310   3.158  0.8763  2.6281 -0.4174
 2426SOL    HW218738   3.128   1.343   3.050 -0.1717 -0.5339 -0.9791
 2427SOL     OW18739   0.309   0.148   5.554  0.3741 -0.0630 -0.1189
 2427SOL    HW118740   0.250   0.074   5.543  0.1380 -0.0002  0.7646
 2427SOL    HW218741   0.283   0.172   5.643  0.5449  0.3992 -0.1899
 2428SOL     OW18742   4.194   0.286   9.788  0.2736  0.2595  0.3964
 2428SOL    HW118743   4.205   0.344   9.863  3.2994  0.0986  0.0856
 2428SOL    HW218744   4.277   0.317   9.752  0.4401  1.2748  1.6804
 2429SOL     OW18745   3.160   0.871   4.829 -0.0582 -0.1804  0.0938
 2429SOL    HW118746   3.083   0.929   4.827  1.2850  1.5252 -2.8013
 2429SOL    HW218747   3.161   0.846   4.736  2.2045 -0.3554  0.1825
 2430SOL     OW18748   0.573   2.698   8.302  0.1987  0.3329  0.3154
 2430SOL    HW118749   0.526   2.621   8.332  1.4830 -0.5229  0.1320
 2430SOL    HW218750   0.506   2.764   8.317  1.6687  2.1200 -0.9337
 2431SOL     OW18751   1.924   0.194  13.368 -0.0877 -0.3862 -0.1735
 2431SOL    HW118752   1.875   0.112  13.358  1.8633 -1.4613 -0.9487
 2431SOL    HW218753   1.945   0.195  13.461 -0.2505  0.3837 -0.1442
 2432SOL     OW18754   3.962   3.970  16.310 -0.3361 -0.0309  0.5913
 2432SOL    HW118755   3.922   4.049  16.347  1.0114  0.3886  1.1546
 2432SOL    HW218756   4.034   4.005  16.258 -1.7497  0.7840 -0.7929
 2433SOL     OW18757   3.343   2.973  15.229 -0.4495  0.0905  0.2989
 2433SOL    HW118758   3.340   2.951  15.322  0.9445 -3.1995 -0.4176
 2433SOL    HW218759   3.380   2.891  15.198  0.4045  0.1825  1.0792
 2434SOL     OW18760   3.497   4.209   6.218  0.6003  0.7902 -0.2305
 2434SOL    HW118761   3.411   4.203   6.177  1.1012  0.2971 -1.2297
 2434SOL    HW218762   3.553   4.195   6.142  1.0580  3.4640 -0.3847
 2435SOL     OW18763   4.130   0.788   9.374  0.2010  0.5372  0.1736
 2435SOL    HW118764   4.181   0.755   9.300 -1.1332  0.5875 -0.7710
 2435SOL    HW218765   4.050   0.738   9.362  0.3577  0.3733 -0.1675
 2436SOL     OW18766   1.041   0.010  14.937  0.0051 -0.3189  0.0282
 2436SOL    HW118767   1.091   4.724  15.017 -2.0449  2.3222  1.7244
 2436SOL    HW218768   1.098   0.067  14.885 -0.0778  0.4176  0.7383
 2437SOL     OW18769   3.901   1.322   7.078 -0.3558  0.3057 -0.2393
 2437SOL    HW118770   3.835   1.364   7.134  1.0808  0.6987  1.1591
 2437SOL    HW218771   3.849   1.258   7.029 -0.7262  0.2868  0.1748
 2438SOL     OW18772   2.572   0.310   6.332  0.4323 -0.0874 -0.1247
 2438SOL    HW118773   2.644   0.296   6.394  2.1417  0.8049 -1.9306
 2438SOL    HW218774   2.539   0.388   6.376  2.2000  0.3957  0.3337
 2439SOL     OW18775   3.209   2.766   3.546  0.0126 -0.0216  0.5202
 2439SOL    HW118776   3.205   2.807   3.633  1.9953  0.9500  0.1529
 2439SOL    HW218777   3.203   2.672   3.567  2.4996 -0.3475 -0.2194
 2440SOL     OW18778   4.688   2.628   6.879 -0.2417  0.4277 -0.4704
 2440SOL    HW118779   4.652   2.708   6.917  0.9026  1.7815 -2.2301
 2440SOL    HW218780   4.606   2.584   6.853  0.0511 -1.2724  1.5517
 2441SOL     OW18781   2.270   1.658   3.313  0.2426  0.4767 -0.3350
 2441SOL    HW118782   2.344   1.701   3.271  0.4808 -0.0443 -0.4478
 2441SOL    HW218783   2.233   1.607   3.240  1.2988 -0.9305  0.1055
 2442SOL     OW18784   3.161   4.324   6.067  0.5768  0.6239 -0.1931
 2442SOL    HW118785   3.238   4.293   6.019 -0.8926 -1.8711 -0.9919
 2442SOL    HW218786   3.103   4.354   5.997  1.8703  2.6492 -0.3872
 2443SOL     OW18787   0.227   1.808   0.199 -0.1493  0.4219  0.1989
 2443SOL    HW118788   0.231   1.887   0.145  1.1754  0.9039  1.0082
 2443SOL    HW218789   0.260   1.741   0.140 -0.1957 -0.8345  1.5940
 2444SOL     OW18790   1.372   2.345   8.087  0.4615 -0.5793  0.1586
 2444SOL    HW118791   1.319   2.267   8.104 -0.7349  0.2086  0.0430
 2444SOL    HW218792   1.305   2.409   8.060  0.0523 -0.8761  0.4752
 2445SOL     OW18793   1.712   1.501   4.355 -0.0827 -0.2624  0.2887
 2445SOL    HW118794   1.733   1.594   4.355  0.6704 -0.4525 -2.0031
 2445SOL    HW218795   1.804   1.476   4.363  1.0346  3.1505 -1.9748
 2446SOL     OW18796   0.972   3.198   8.629 -0.0721  0.0046 -0.4483
 2446SOL    HW118797   0.903   3.156   8.681 -1.3867  0.4950 -1.7971
 2446SOL    HW218798   1.016   3.118   8.601  0.5305 -0.1018  0.8237
 2447SOL     OW18799   3.176   1.981   3.719 -0.2272 -0.1988  0.3463
 2447SOL    HW118800   3.103   1.943   3.767  2.8578 -2.8769  2.9012
 2447SOL    HW218801   3.253   1.948   3.766 -1.5571 -1.5354  1.5495
 2448SOL     OW18802   2.228   2.742  14.787  0.2365 -0.2859  0.0383
 2448SOL    HW118803   2.285   2.784  14.851  1.6117 -0.6799 -0.9151
 2448SOL    HW218804   2.191   2.670  14.838 -2.2493  0.7356 -0.3522
 2449SOL     OW18805   4.685   3.313   5.578  0.0779  0.0580 -0.1717
 2449SOL    HW118806   0.046   3.283   5.552 -0.6672 -1.7029 -0.6900
 2449SOL    HW218807   4.648   3.236   5.621  0.2873  0.0175 -0.0630
 2450SOL     OW18808   0.509   0.149   6.818  0.5665  0.2848 -0.1730
 2450SOL    HW118809   0.491   0.195   6.736  0.9034 -0.5409 -0.7244
 2450SOL    HW218810   0.573   0.086   6.784 -0.3000 -0.6680 -0.0415
 2451SOL     OW18811   1.222   0.504   6.268 -0.1598  0.5342 -0.2890
 2451SOL    HW118812   1.239   0.588   6.225  0.4611  1.6176  2.0741
 2451SOL    HW218813   1.132   0.525   6.293  0.3638  1.3528  0.8925
 2452SOL     OW18814   3.411   4.348   6.476  0.3092  0.5668  0.1859
 2452SOL    HW118815   3.490   4.355   6.423 -0.0773  1.8070 -0.2235
 2452SOL    HW218816   3.402   4.436   6.511 -1.1509 -0.0956  1.4878
 2453SOL     OW18817   1.286   0.833  10.419 -0.9477 -0.5727 -0.1207
 2453SOL    HW118818   1.242   0.825  10.334 -1.0406 -0.3953 -0.0888
 2453SOL    HW218819   1.380   0.823  10.403 -0.7932 -1.3393  1.2399
 2454SOL     OW18820   0.316   2.772   3.225 -0.6994 -0.1418 -0.1204
 2454SOL    HW118821   0.299   2.718   3.301 -1.3554 -0.6443 -0.6283
 2454SOL    HW218822   0.231   2.763   3.182  0.0758  3.6447 -2.5724
 2455SOL     OW18823   3.003   3.477   5.580  0.1581  0.2785  0.2289
 2455SOL    HW118824   3.076   3.530   5.611 -1.2298  0.5135  3.0985
 2455SOL    HW218825   2.945   3.478   5.656  0.3137 -0.7813  0.3686
 2456SOL     OW18826   3.287   3.548  10.436 -0.5031  0.0585  0.3516
 2456SOL    HW118827   3.315   3.519  10.523 -3.1042 -0.9696  0.8528
 2456SOL    HW218828   3.351   3.514  10.374 -0.9772 -0.2684  0.0383
 2457SOL     OW18829   3.471   0.888   1.816  0.5990 -0.6555 -0.3794
 2457SOL    HW118830   3.420   0.965   1.842  0.2302 -1.8183  2.2508
 2457SOL    HW218831   3.496   0.862   1.904  2.5825 -0.4967 -0.8863
 2458SOL     OW18832   3.517   1.110   2.766  0.3380 -0.8658  0.0524
 2458SOL    HW118833   3.459   1.094   2.691 -1.6448  1.1968  1.1463
 2458SOL    HW218834   3.597   1.069   2.732 -0.0891 -2.3861  0.8635
 2459SOL     OW18835   3.858   0.921  17.681  0.1187  0.1906 -0.2812
 2459SOL    HW118836   3.817   0.987  17.624  0.7678  1.0435  0.2521
 2459SOL    HW218837   3.873   0.853  17.615 -0.0699 -0.4155  0.3013
 2460SOL     OW18838   3.375   0.604   6.977 -0.1872  0.3568  0.2608
 2460SOL    HW118839   3.364   0.678   7.037  1.6977  0.6986  0.2172
 2460SOL    HW218840   3.466   0.614   6.947 -0.2279  1.0592  0.3818
 2461SOL     OW18841   1.509   1.099   0.797 -0.5899 -0.3711  0.1698
 2461SOL    HW118842   1.582   1.080   0.856  0.0308  0.2361 -0.4062
 2461SOL    HW218843   1.546   1.178   0.757  1.0517 -0.8948  0.6504
 2462SOL     OW18844   2.602   1.859   1.705  0.1591  0.5173  0.3702
 2462SOL    HW118845   2.573   1.939   1.662  1.1710 -0.8824 -2.9210
 2462SOL    HW218846   2.580   1.874   1.797 -3.9432 -0.6904 -0.4240
 2463SOL     OW18847   3.971   3.949   7.112 -0.7662 -0.3706  0.4497
 2463SOL    HW118848   3.946   4.041   7.123 -0.6825 -0.6503  3.0164
 2463SOL    HW218849   3.897   3.915   7.063 -1.0795 -1.1655  1.4673
 2464SOL     OW18850   0.484   0.080  11.779 -0.3638 -0.1477 -0.5016
 2464SOL    HW118851   0.511   0.162  11.822  0.1989 -0.6986  0.2009
 2464SOL    HW218852   0.395   0.078  11.812 -0.6790  1.5584 -1.2281
 2465SOL     OW18853   2.140   0.732   9.480  0.3084  0.1412  0.7950
 2465SOL    HW118854   2.137   0.723   9.385 -0.8562  0.6569  0.7742
 2465SOL    HW218855   2.052   0.697   9.494  0.3400 -0.8975 -1.6658
 2466SOL     OW18856   0.495   0.112   2.125  0.0439  0.0070  0.3499
 2466SOL    HW118857   0.541   0.166   2.190 -0.4117  0.7490  0.0665
 2466SOL    HW218858   0.533   0.024   2.123  0.3712  0.2409 -3.8279
 2467SOL     OW18859   2.951   4.245   8.298 -0.4126  0.2836 -0.4064
 2467SOL    HW118860   2.952   4.338   8.320  0.6049  0.3958 -0.9108
 2467SOL    HW218861   3.014   4.243   8.227 -0.8395  1.0641 -0.8057
 2468SOL     OW18862   1.584   3.771   6.230 -0.3034 -0.4116  0.7064
 2468SOL    HW118863   1.602   3.781   6.323 -0.9422  0.5134  0.7308
 2468SOL    HW218864   1.670   3.738   6.204  0.9261  1.7955  2.0464
 2469SOL     OW18865   3.590   4.217  12.845  0.3465  0.2311 -0.2894
 2469SOL    HW118866   3.608   4.146  12.783  0.6654  0.3803 -0.3691
 2469SOL    HW218867   3.494   4.223  12.841  0.4161  1.7879  0.6708
 2470SOL     OW18868   3.569   2.801   1.598 -0.2436  0.5961 -0.3957
 2470SOL    HW118869   3.604   2.889   1.585  0.0736  0.9058  2.5917
 2470SOL    HW218870   3.640   2.766   1.652 -1.0294 -1.0905 -0.4300
 2471SOL     OW18871   2.475   1.484  12.175  0.2287  0.0148 -0.1840
 2471SOL    HW118872   2.559   1.509  12.214 -0.8230 -0.3371  2.3005
 2471SOL    HW218873   2.437   1.428  12.242  1.0372  1.9359  1.8893
 2472SOL     OW18874   3.808   3.145   2.805 -0.7272  0.4446  0.5082
 2472SOL    HW118875   3.878   3.163   2.743  0.3500 -0.2811  1.5223
 2472SOL    HW218876   3.753   3.223   2.797  0.3845  1.2578  0.8213
 2473SOL     OW18877   4.717   2.223   5.838  0.2763 -0.3545 -0.4522
 2473SOL    HW118878   4.665   2.151   5.875 -2.1616  1.0684 -1.1218
 2473SOL    HW218879   4.654   2.293   5.855 -0.8708 -1.2966 -0.7772
 2474SOL     OW18880   2.336   1.210  13.946 -0.3801 -0.3706  0.1869
 2474SOL    HW118881   2.411   1.157  13.973  1.0358  0.8760 -1.3447
 2474SOL    HW218882   2.374   1.298  13.940 -1.1407 -0.2065 -2.3000
 2475SOL     OW18883   4.122   3.669  15.028 -0.4384 -0.4697  0.3915
 2475SOL    HW118884   4.170   3.749  15.003  2.7021 -2.0833  1.2940
 2475SOL    HW218885   4.182   3.604  14.991 -0.0673 -0.3588  0.7975
 2476SOL     OW18886   0.971   4.570   3.850  0.4878  0.3542 -0.0389
 2476SOL    HW118887   0.933   4.642   3.902  0.9717 -1.7595  3.2384
 2476SOL    HW218888   0.886   4.528   3.834  0.8972 -0.3427 -0.3655
 2477SOL     OW18889   2.793   3.109  13.367 -0.3567  0.4257 -0.3430
 2477SOL    HW118890   2.737   3.185  13.352  0.7802  1.3026 -0.1553
 2477SOL    HW218891   2.728   3.040  13.362  1.2748 -1.4693  4.5092
 2478SOL     OW18892   1.484   1.232   7.364 -0.0811 -0.4413  0.1695
 2478SOL    HW118893   1.521   1.178   7.434  0.1150 -1.2366 -0.5569
 2478SOL    HW218894   1.412   1.267   7.417  0.1726  0.0122  0.2217
 2479SOL     OW18895   1.065   1.021  17.323  0.1818  0.8475 -0.2388
 2479SOL    HW118896   1.029   1.065  17.246 -0.8108  2.6333  1.2409
 2479SOL    HW218897   1.081   0.937  17.279 -1.6940  1.7707 -2.6714
 2480SOL     OW18898   3.580   4.404   1.826 -0.5623 -0.1131  0.5806
 2480SOL    HW118899   3.654   4.465   1.821 -0.1288 -0.6145  0.8732
 2480SOL    HW218900   3.506   4.464   1.832  0.1356  0.7669  0.4705
 2481SOL     OW18901   1.701   2.733  14.003 -0.3821  0.4487  0.2809
 2481SOL    HW118902   1.781   2.681  14.009 -0.7011 -0.2887 -1.8610
 2481SOL    HW218903   1.678   2.722  14.095 -0.2218  0.3786  0.3132
 2482SOL     OW18904   3.391   0.749  11.527  0.1106 -0.6565 -0.7010
 2482SOL    HW118905   3.382   0.793  11.443 -0.2173 -2.2569 -1.5076
 2482SOL    HW218906   3.480   0.713  11.529  0.3246 -0.0319  1.3787
 2483SOL     OW18907   0.621   0.222  17.019  0.1125  0.1911 -0.6974
 2483SOL    HW118908   0.639   0.191  16.931 -0.9465 -1.3830 -0.3610
 2483SOL    HW218909   0.612   0.317  17.009 -2.3813  0.1134  0.8232
 2484SOL     OW18910   3.117   1.034   2.788  0.1941 -0.3124 -0.7991
 2484SOL    HW118911   3.070   1.113   2.765  1.0177  0.5095  0.3405
 2484SOL    HW218912   3.129   1.000   2.699  1.9961  1.5785 -1.2825
 2485SOL     OW18913   0.413   1.911   5.412 -0.3279 -0.5059  0.4127
 2485SOL    HW118914   0.474   1.984   5.418 -1.6679  0.6251  0.1744
 2485SOL    HW218915   0.339   1.932   5.468 -1.2962 -0.2522 -0.9531
 2486SOL     OW18916   4.585   4.186   9.908  0.5300  0.1905  0.7828
 2486SOL    HW118917   4.654   4.191   9.842  2.4822  0.2181  2.8197
 2486SOL    HW218918   4.629   4.150   9.986  0.8032  0.6571  0.8436
 2487SOL     OW18919   4.179   0.792  12.186 -0.0006  0.8790 -0.1163
 2487SOL    HW118920   4.130   0.863  12.145  1.1745  1.9618  0.3293
 2487SOL    HW218921   4.193   0.836  12.271 -1.9727  1.4557 -0.1025
 2488SOL     OW18922   2.960   2.934   8.667  0.4015  0.6549  0.5709
 2488SOL    HW118923   2.953   3.025   8.638 -0.1019  0.4863  0.1511
 2488SOL    HW218924   3.045   2.908   8.631  0.9433  0.8884  1.6694
 2489SOL     OW18925   0.378   3.950   5.785 -0.8234  0.6071 -0.3058
 2489SOL    HW118926   0.375   3.871   5.731 -0.2254  0.0235  0.5113
 2489SOL    HW218927   0.370   3.902   5.868 -0.0923 -1.4515 -1.4145
 2490SOL     OW18928   1.115   1.827  15.245  0.1737  0.6564 -0.1704
 2490SOL    HW118929   1.178   1.777  15.193 -0.9688 -2.0427  0.9979
 2490SOL    HW218930   1.047   1.849  15.182  0.4223  2.4496  0.2025
 2491SOL     OW18931   0.389   4.271   6.898 -0.0143 -0.3071  0.0110
 2491SOL    HW118932   0.451   4.262   6.825 -0.2031 -0.3916 -0.1392
 2491SOL    HW218933   0.434   4.351   6.925 -0.6693 -0.0100  0.2217
 2492SOL     OW18934   3.785   0.464   5.234 -0.5250  0.3518 -0.1200
 2492SOL    HW118935   3.758   0.525   5.302 -0.9009  0.6694 -0.5575
 2492SOL    HW218936   3.795   0.378   5.276 -0.5174  0.1038 -0.6202
 2493SOL     OW18937   4.469   3.158  13.222 -0.1246  0.5737 -0.0629
 2493SOL    HW118938   4.550   3.169  13.271  1.2039  3.6232 -2.9245
 2493SOL    HW218939   4.410   3.113  13.282  0.7993  0.5926  0.8590
 2494SOL     OW18940   3.663   2.795   4.602 -0.7032 -0.4732 -0.4458
 2494SOL    HW118941   3.617   2.751   4.530 -1.2818  1.9554 -1.5574
 2494SOL    HW218942   3.745   2.754   4.573 -0.3263 -2.0505  2.8343
 2495SOL     OW18943   1.413   2.100   5.570  0.4721 -0.5088  0.5043
 2495SOL    HW118944   1.335   2.069   5.617 -0.2938 -1.3029 -1.3022
 2495SOL    HW218945   1.409   2.047   5.490  0.8553 -3.2727  2.2961
 2496SOL     OW18946   0.144   3.325   6.827  0.0079 -0.6992  0.0263
 2496SOL    HW118947   0.080   3.377   6.778  0.2454 -3.6733 -3.4095
 2496SOL    HW218948   0.095   3.328   6.909 -0.3990 -1.5301 -0.1805
 2497SOL     OW18949   1.435   0.100   5.855 -0.4904 -0.4487  0.7204
 2497SOL    HW118950   1.392   0.118   5.771  2.1873  0.8846 -0.3635
 2497SOL    HW218951   1.352   0.089   5.902 -2.5671  0.0203 -2.8275
 2498SOL     OW18952   3.970   0.347   6.917 -0.7805 -0.3527 -0.6871
 2498SOL    HW118953   3.877   0.332   6.934 -1.8624  3.3686 -3.5680
 2498SOL    HW218954   4.010   0.280   6.973 -1.0611 -1.1371 -1.4211
 2499SOL     OW18955   1.617   0.262   0.814 -0.0713 -0.2304  0.5212
 2499SOL    HW118956   1.634   0.209   0.892  1.5982  0.7331  0.8109
 2499SOL    HW218957   1.534   0.303   0.840 -0.0665 -0.3467  0.7179
 2500SOL     OW18958   2.437   0.907  16.690 -0.3807 -0.6916  0.3074
 2500SOL    HW118959   2.477   0.965  16.755 -0.2015 -1.0881  0.5524
 2500SOL    HW218960   2.506   0.851  16.655  0.9913  1.4531 -0.4293
 2501SOL     OW18961   4.105   3.411  13.615 -0.0649  0.0306 -0.3387
 2501SOL    HW118962   4.027   3.462  13.636 -0.9071 -0.7013 -1.7246
 2501SOL    HW218963   4.059   3.342  13.568 -1.9635  1.1034 -0.0740
 2502SOL     OW18964   2.565   0.421  11.548  0.4282  0.3112 -0.4579
 2502SOL    HW118965   2.635   0.484  11.529 -0.3099  1.1198 -0.5262
 2502SOL    HW218966   2.489   0.460  11.505 -0.6254 -0.6799  0.5206
 2503SOL     OW18967   2.645   2.216   5.255  0.0871  0.3895 -0.5369
 2503SOL    HW118968   2.656   2.290   5.196 -0.2868  1.6677  0.9839
 2503SOL    HW218969   2.604   2.257   5.332 -0.3569 -0.6351 -0.2205
 2504SOL     OW18970   1.240   0.926   2.017 -0.2255  0.2704 -0.2570
 2504SOL    HW118971   1.300   0.966   2.080 -0.3774  2.9767 -1.8460
 2504SOL    HW218972   1.191   1.004   1.994 -1.4547  0.0153  1.4730
 2505SOL     OW18973   4.143   2.152   2.421  0.4092  0.0280 -0.2362
 2505SOL    HW118974   4.078   2.117   2.360 -0.4112  0.6890  0.2492
 2505SOL    HW218975   4.160   2.084   2.486 -2.6938 -0.1168  0.4513
 2506SOL     OW18976   4.264   4.191  11.358  0.3392 -0.3746 -0.4406
 2506SOL    HW118977   4.277   4.279  11.322 -0.7507 -0.5885 -1.3657
 2506SOL    HW218978   4.297   4.137  11.286 -0.4529 -0.7422 -0.5271
 2507SOL     OW18979   2.667   1.855  11.883 -0.5618  0.2129  0.6423
 2507SOL    HW118980   2.669   1.937  11.833 -0.8298  0.3840  0.9138
 2507SOL    HW218981   2.589   1.878  11.934 -1.4587 -1.3421 -0.0141
 2508SOL     OW18982   0.121   2.923   4.331 -0.2935 -0.1872  0.4886
 2508SOL    HW118983   0.201   2.906   4.381  1.6159  2.3729 -1.7300
 2508SOL    HW218984   0.151   2.904   4.242  1.6356  2.6138  0.5567
 2509SOL     OW18985   4.510   1.022   7.513 -0.1493  0.1561 -0.1414
 2509SOL    HW118986   4.424   1.045   7.478  1.2169  4.1332 -0.8833
 2509SOL    HW218987   4.513   0.927   7.504 -0.4018  0.0130  1.2411
 2510SOL     OW18988   3.086   2.829   6.315  0.4074  0.1068  0.0198
 2510SOL    HW118989   2.991   2.823   6.306  0.4068 -0.7193  0.5815
 2510SOL    HW218990   3.107   2.746   6.357  1.0927  0.7566  0.9779
 2511SOL     OW18991   3.526   4.637   8.080 -0.1182 -0.2744 -0.4319
 2511SOL    HW118992   3.614   4.674   8.090  0.3420 -1.1729 -1.1982
 2511SOL    HW218993   3.503   4.599   8.165 -2.6732  3.4288  0.5277
 2512SOL     OW18994   1.239   0.658  10.663  0.1000 -1.0118  0.3065
 2512SOL    HW118995   1.251   0.708  10.582 -1.1268 -0.5785  0.3858
 2512SOL    HW218996   1.297   0.586  10.638 -0.1117 -0.7794 -0.8749
 2513SOL     OW18997   4.206   0.792   7.971 -0.4165  0.1418  0.6288
 2513SOL    HW118998   4.287   0.759   7.931 -1.4837 -2.3540  0.5107
 2513SOL    HW218999   4.159   0.714   8.002 -0.5162 -0.6510 -1.5439
 2514SOL     OW19000   0.540   4.306   3.550  0.2617  0.1407  0.3524
 2514SOL    HW119001   0.577   4.290   3.464 -3.0514  0.3270 -1.1108
 2514SOL    HW219002   0.454   4.343   3.530  0.5208  1.1024  1.0151
 2515SOL     OW19003   2.135   0.586   0.082  0.1190 -0.4480  0.2360
 2515SOL    HW119004   2.088   0.604   0.163  0.1864 -1.1127  0.4232
 2515SOL    HW219005   2.124   0.673   0.045 -1.6404 -0.4828  0.6756
 2516SOL     OW19006   3.254   4.671   3.707 -0.8064 -0.1879 -0.4687
 2516SOL    HW119007   3.278   4.629   3.789 -0.0183  1.4323  0.1293
 2516SOL    HW219008   3.169   4.707   3.733 -1.2286 -0.3701 -1.5653
 2517SOL     OW19009   1.779   3.350   8.169  0.4423  0.1069  0.5095
 2517SOL    HW119010   1.843   3.395   8.114  0.0368  0.1779  0.0997
 2517SOL    HW219011   1.844   3.307   8.224  1.1297  0.5344  0.0207
 2518SOL     OW19012   0.730   0.591  17.444  0.3512  0.6870 -0.3800
 2518SOL    HW119013   0.653   0.551  17.485  1.3353 -0.2551  0.5344
 2518SOL    HW219014   0.744   0.677  17.484 -1.1501  1.3659 -1.2838
 2519SOL     OW19015   4.311   4.696   7.810 -0.0556  0.4055  0.1535
 2519SOL    HW119016   4.311   4.722   7.718  0.6473 -0.0147  0.0321
 2519SOL    HW219017   4.404   4.699   7.831 -0.1428 -0.1110  0.6211
 2520SOL     OW19018   0.659   3.285   7.503 -0.3942 -0.5073  0.6643
 2520SOL    HW119019   0.589   3.221   7.508 -1.6606  1.1016  4.0514
 2520SOL    HW219020   0.690   3.289   7.594 -1.2890 -0.9305  0.9811
 2521SOL     OW19021   3.863   1.353  11.328  0.7686  0.2760  0.3228
 2521SOL    HW119022   3.825   1.436  11.299 -1.0207 -0.1880  1.2823
 2521SOL    HW219023   3.945   1.390  11.359  1.2421 -0.4227 -0.1064
 2522SOL     OW19024   2.339   2.838   4.294  0.2860  0.4454  0.0487
 2522SOL    HW119025   2.382   2.822   4.378  0.4679  0.8409  0.0277
 2522SOL    HW219026   2.383   2.773   4.239 -0.9934 -0.1414 -0.2834
 2523SOL     OW19027   4.548   1.666   2.249  0.0370 -0.1973 -0.2668
 2523SOL    HW119028   4.562   1.679   2.343  0.8591  3.2134 -0.8926
 2523SOL    HW219029   4.505   1.751   2.239  0.9018  0.1767 -0.8059
 2524SOL     OW19030   4.280   1.677   3.124  0.2663  0.5741  0.1634
 2524SOL    HW119031   4.274   1.609   3.191 -0.7080 -0.3036 -0.8052
 2524SOL    HW219032   4.318   1.633   3.047  0.4849  0.7728  0.1601
 2525SOL     OW19033   3.337   2.559  11.480 -0.4703 -0.1991 -0.4028
 2525SOL    HW119034   3.250   2.585  11.506 -0.6964 -1.4485  0.1209
 2525SOL    HW219035   3.385   2.641  11.479 -0.6647 -0.0610  1.5121
 2526SOL     OW19036   4.683   2.601   7.967 -0.1973 -0.6666 -0.1746
 2526SOL    HW119037   4.664   2.570   8.055 -0.2847 -2.2371 -0.7428
 2526SOL    HW219038   4.605   2.568   7.921  0.3311  0.1457 -1.6634
 2527SOL     OW19039   1.342   4.185   7.443  0.4752  0.2286 -0.4582
 2527SOL    HW119040   1.347   4.097   7.481 -1.8812 -0.2414 -1.2063
 2527SOL    HW219041   1.311   4.165   7.355 -1.2097  1.6078 -0.1781
 2528SOL     OW19042   2.586   0.921   3.957  0.0741 -0.2445  0.0928
 2528SOL    HW119043   2.535   0.850   3.997  0.5931 -0.8172 -0.2713
 2528SOL    HW219044   2.676   0.911   3.988 -0.3749  0.9845  1.8324
 2529SOL     OW19045   0.046   2.436   3.194  0.4008 -0.3110 -0.2050
 2529SOL    HW119046   0.060   2.531   3.199  1.7558 -0.4514 -1.6332
 2529SOL    HW219047   4.680   2.436   3.167 -0.0084  0.9583  1.1662
 2530SOL     OW19048   0.063   4.703   7.385 -0.5347  0.6065  0.3505
 2530SOL    HW119049   0.071   4.610   7.365  0.2272  0.5861  0.7746
 2530SOL    HW219050   0.059   0.008   7.294 -1.4302  0.9438  0.5105
 2531SOL     OW19051   0.542   4.648   5.192 -0.0414  0.6137 -0.5555
 2531SOL    HW119052   0.544   0.015   5.174  1.5418  0.1992 -2.4680
 2531SOL    HW219053   0.458   4.622   5.154 -1.2026  1.7251  1.2230
 2532SOL     OW19054   4.213   2.735   7.596  0.8462  0.3598 -0.0065
 2532SOL    HW119055   4.266   2.718   7.674 -0.4280  3.0009  1.4148
 2532SOL    HW219056   4.218   2.830   7.590 -0.4451  0.4194 -0.0973
 2533SOL     OW19057   1.628   4.367   9.138 -0.4203  0.5370 -0.1059
 2533SOL    HW119058   1.559   4.367   9.204 -1.4552  0.9604 -1.1765
 2533SOL    HW219059   1.619   4.453   9.095  0.0332  1.0837  0.9033
 2534SOL     OW19060   1.092   0.350  11.935  0.6966  0.2132  0.7612
 2534SOL    HW119061   1.126   0.397  12.011  0.7981  1.5358 -0.1002
 2534SOL    HW219062   1.146   0.271  11.938  0.6602  0.1644  0.1456
 2535SOL     OW19063   3.868   1.725   2.547  1.0693 -0.0027 -0.2081
 2535SOL    HW119064   3.959   1.749   2.529  0.3153  0.7254 -2.9851
 2535SOL    HW219065   3.842   1.682   2.465  1.0363 -1.3667  0.5163
 2536SOL     OW19066   1.252   2.091   3.873 -0.6168  0.2308  0.5928
 2536SOL    HW119067   1.287   2.091   3.962  1.8114 -0.1406 -0.3759
 2536SOL    HW219068   1.310   2.146   3.820  0.0745  0.3287  1.4564
 2537SOL     OW19069   2.210   1.382   2.540 -0.0958  0.5209 -0.5953
 2537SOL    HW119070   2.168   1.309   2.586  0.5912  0.3575 -0.2258
 2537SOL    HW219071   2.134   1.437   2.554 -1.5905 -1.7367  0.2839
 2538SOL     OW19072   1.290   3.271  16.279 -0.2154  0.2314 -0.9247
 2538SOL    HW119073   1.303   3.213  16.204  0.0540  0.1640 -0.8249
 2538SOL    HW219074   1.200   3.303  16.271  0.1130  1.9686  2.2236
 2539SOL     OW19075   2.937   0.754   2.690 -0.2652 -0.1786 -0.7746
 2539SOL    HW119076   2.883   0.676   2.704 -0.4466 -0.2165 -1.6465
 2539SOL    HW219077   2.879   0.825   2.716 -0.5344 -0.7365  0.1511
 2540SOL     OW19078   1.558   0.723  12.166 -0.5587  0.0708 -0.2294
 2540SOL    HW119079   1.527   0.812  12.145 -1.6485  0.1274  1.6318
 2540SOL    HW219080   1.562   0.680  12.081 -0.4358 -3.6909  1.6809
 2541SOL     OW19081   4.551   4.707   4.921  0.3029  0.0558 -0.6236
 2541SOL    HW119082   4.457   4.721   4.906  0.0375 -0.4713  0.4597
 2541SOL    HW219083   4.574   4.650   4.848 -2.6421 -0.3924 -1.2331
 2542SOL     OW19084   0.818   4.576   7.173  0.3116 -0.1087 -0.0236
 2542SOL    HW119085   0.851   4.657   7.134  3.3243 -0.6900  1.3185
 2542SOL    HW219086   0.806   4.600   7.265 -1.9439 -2.3749  0.2787
 2543SOL     OW19087   3.380   0.453   4.510  0.4614  0.3492 -0.6228
 2543SOL    HW119088   3.307   0.496   4.466  0.2221 -1.5217 -2.0597
 2543SOL    HW219089   3.414   0.531   4.555 -0.1262 -0.9170  2.0077
 2544SOL     OW19090   2.815   0.242   3.715  0.2222  0.3475 -0.2622
 2544SOL    HW119091   2.872   0.288   3.653  0.3606  1.5332  0.7598
 2544SOL    HW219092   2.737   0.219   3.665 -0.9440  2.6469  0.5153
 2545SOL     OW19093   0.233   1.337  16.987  0.1351 -0.1273  0.5092
 2545SOL    HW119094   0.248   1.392  16.911  1.2434 -2.1162 -0.7071
 2545SOL    HW219095   0.277   1.385  17.057 -1.2862 -0.2073  1.4578
 2546SOL     OW19096   2.194   3.758   8.731  0.2518  0.0095 -0.1835
 2546SOL    HW119097   2.215   3.716   8.815  2.0266 -0.4549 -0.8561
 2546SOL    HW219098   2.247   3.837   8.736 -0.3316  0.3315  1.1486
 2547SOL     OW19099   0.161   1.213  10.805 -0.5844 -0.6129  0.0542
 2547SOL    HW119100   0.149   1.171  10.720 -0.9557 -1.7680  0.6716
 2547SOL    HW219101   0.072   1.247  10.813 -0.6202 -0.7069  0.0551
 2548SOL     OW19102   3.346   4.461   1.259  0.4036  0.1518  0.2933
 2548SOL    HW119103   3.329   4.543   1.212 -1.3717  0.0860  0.8232
 2548SOL    HW219104   3.325   4.401   1.188  0.6667 -1.4301  1.5488
 2549SOL     OW19105   3.561   1.529   6.144 -0.3753 -0.0466  0.1638
 2549SOL    HW119106   3.528   1.463   6.206 -0.1167 -0.8367 -0.5322
 2549SOL    HW219107   3.538   1.619   6.167  0.0065 -0.1796  1.0725
 2550SOL     OW19108   3.579   4.122   9.319  0.6157  0.2835  0.0549
 2550SOL    HW119109   3.485   4.136   9.322  0.7821  1.7142 -0.9300
 2550SOL    HW219110   3.598   4.044   9.370  1.7650  0.5488  0.0395
 2551SOL     OW19111   3.610   1.425   7.542  0.4435 -0.3274  0.4011
 2551SOL    HW119112   3.521   1.392   7.554 -0.3088  0.9217 -1.6937
 2551SOL    HW219113   3.587   1.508   7.501 -1.1705 -0.1429  1.7088
 2552SOL     OW19114   2.079   3.728  13.509  0.4260 -0.2966  0.0460
 2552SOL    HW119115   2.050   3.813  13.543  0.9724 -0.2231  0.3372
 2552SOL    HW219116   2.173   3.736  13.523  0.6399 -0.2822 -1.3907
 2553SOL     OW19117   1.307   3.604   0.679 -0.0344 -0.6996  0.1498
 2553SOL    HW119118   1.373   3.599   0.748 -1.4338 -0.7184  1.4967
 2553SOL    HW219119   1.234   3.644   0.726 -0.5317  0.7290 -1.8521
 2554SOL     OW19120   3.082   3.149   2.096  0.4334 -0.2032  0.5882
 2554SOL    HW119121   3.084   3.087   2.169  3.9474 -0.1221  0.5560
 2554SOL    HW219122   3.092   3.085   2.026 -2.1536 -0.5253  0.4839
 2555SOL     OW19123   4.194   2.706   8.619 -0.1726 -0.0083  0.0353
 2555SOL    HW119124   4.175   2.799   8.631  0.5672  0.2154 -0.5283
 2555SOL    HW219125   4.246   2.715   8.539  1.3298 -0.8516  0.9099
 2556SOL     OW19126   0.404   3.394   7.418  0.0075 -0.1999 -0.5323
 2556SOL    HW119127   0.495   3.389   7.446 -0.5904 -0.2775  1.4036
 2556SOL    HW219128   0.393   3.488   7.432  0.0605 -0.2898  0.1201
 2557SOL     OW19129   2.410   4.562   5.148  0.7608 -0.7229 -0.1506
 2557SOL    HW119130   2.394   4.646   5.105  0.5230 -1.0093 -0.6265
 2557SOL    HW219131   2.486   4.572   5.204  1.3677 -0.7365 -0.9776
 2558SOL     OW19132   4.037   3.779   5.842  0.3155  0.0091 -0.2056
 2558SOL    HW119133   4.106   3.845   5.839 -0.0181  0.3883  0.2720
 2558SOL    HW219134   4.054   3.724   5.766  1.4620  0.1963 -0.0821
 2559SOL     OW19135   1.609   1.158   2.389  0.0659 -0.4054  0.2579
 2559SOL    HW119136   1.552   1.201   2.453 -0.5430 -1.5501  0.4885
 2559SOL    HW219137   1.699   1.154   2.422 -0.0826 -1.2482  0.5560
 2560SOL     OW19138   0.894   4.371   3.326 -0.0830  0.2776  0.4963
 2560SOL    HW119139   0.973   4.424   3.317 -0.9994  1.5026 -0.2497
 2560SOL    HW219140   0.907   4.314   3.402  0.2689 -0.9732 -0.4967
 2561SOL     OW19141   1.082   1.568  11.151 -0.6278 -0.1604  0.2123
 2561SOL    HW119142   1.091   1.662  11.135 -0.6356 -0.0481  0.8796
 2561SOL    HW219143   0.988   1.565  11.167 -1.2147 -2.7723 -3.7234
 2562SOL     OW19144   3.943   0.626   8.967  0.2743 -0.3828  0.2518
 2562SOL    HW119145   3.969   0.586   8.884 -1.3668  0.5190 -0.6764
 2562SOL    HW219146   3.883   0.695   8.938  0.7056 -0.6546 -1.2890
 2563SOL     OW19147   1.140   0.690   4.844  0.0410  0.2078 -0.0761
 2563SOL    HW119148   1.148   0.779   4.877 -2.0164  0.3798 -0.0671
 2563SOL    HW219149   1.184   0.638   4.911  0.8058  1.3099  0.2784
 2564SOL     OW19150   4.577   3.595   2.192  0.1655  0.3663 -0.1817
 2564SOL    HW119151   4.617   3.589   2.105 -0.5778 -1.4608 -0.3987
 2564SOL    HW219152   4.493   3.630   2.164  0.1780  0.4191 -0.1545
 2565SOL     OW19153   0.043   4.700   0.909 -0.1272  0.2715 -0.0321
 2565SOL    HW119154   0.032   4.639   0.837  2.0791 -2.2908  1.7844
 2565SOL    HW219155   0.004   4.644   0.976 -4.8533  3.1315 -0.3707
 2566SOL     OW19156   3.405   0.957   6.853 -0.6542 -0.0396 -0.6000
 2566SOL    HW119157   3.457   0.953   6.773 -1.5246  0.2859 -1.1795
 2566SOL    HW219158   3.328   0.904   6.832  0.0550 -1.3010 -0.0291
 2567SOL     OW19159   2.043   0.281   3.646 -0.1102 -0.3205  0.1887
 2567SOL    HW119160   2.100   0.214   3.682 -1.1284 -1.5371 -0.4630
 2567SOL    HW219161   2.113   0.344   3.627  0.2265 -1.5094 -2.6197
 2568SOL     OW19162   4.073   1.492   2.567 -0.4999  0.0230 -0.5918
 2568SOL    HW119163   4.137   1.560   2.546  1.5713 -1.0474  2.3170
 2568SOL    HW219164   4.046   1.479   2.476 -0.3238  1.1964 -0.8153
 2569SOL     OW19165   3.080   4.723   3.345 -0.3048 -0.6752 -0.0078
 2569SOL    HW119166   3.002   4.705   3.398 -1.0163  1.2554 -0.4170
 2569SOL    HW219167   3.055   0.076   3.299 -2.4731  0.2515  2.7917
 2570SOL     OW19168   1.019   0.492   1.234  0.4269  0.2420 -0.7497
 2570SOL    HW119169   0.966   0.455   1.304  1.7059 -0.1150  0.0194
 2570SOL    HW219170   0.968   0.568   1.207 -2.3138 -0.6414  1.9741
 2571SOL     OW19171   2.254   0.999  15.467  0.0719  0.0486 -0.3602
 2571SOL    HW119172   2.170   0.982  15.510  0.4415 -0.7179  0.0476
 2571SOL    HW219173   2.240   1.075  15.410  0.1007 -0.1549 -0.6356
 2572SOL     OW19174   3.210   2.848   6.701  0.4471  0.6467 -0.3514
 2572SOL    HW119175   3.285   2.904   6.683 -0.5332  1.5575 -1.5674
 2572SOL    HW219176   3.134   2.904   6.718 -0.1522 -0.4006  0.4865
 2573SOL     OW19177   3.664   1.193  11.213  0.0008  0.5781 -0.1770
 2573SOL    HW119178   3.725   1.250  11.260  0.6273 -0.1069 -0.1667
 2573SOL    HW219179   3.649   1.240  11.130  1.6419  1.1988 -0.1230
 2574SOL     OW19180   3.320   1.125  17.672  0.3675 -1.0286 -0.2964
 2574SOL    HW119181   3.284   1.036  17.679  0.4056 -0.8807  1.6917
 2574SOL    HW219182   3.269   1.159  17.598  1.0408 -0.4326 -0.4800
 2575SOL     OW19183   4.579   1.667   3.463  0.1604  0.4502  0.5686
 2575SOL    HW119184   4.551   1.642   3.551  1.1095  0.4176  0.8559
 2575SOL    HW219185   4.525   1.744   3.442  0.0966  0.4557  0.7489
 2576SOL     OW19186   2.732   3.265   0.128 -0.2703 -0.6663 -0.4173
 2576SOL    HW119187   2.690   3.296   0.047 -0.8903  1.4931  0.7246
 2576SOL    HW219188   2.820   3.298   0.107 -0.3619 -1.3201 -1.8487
 2577SOL     OW19189   4.305   4.189   9.914  0.1639  0.3356  0.4433
 2577SOL    HW119190   4.319   4.231   9.829 -1.8978 -1.0151 -0.5745
 2577SOL    HW219191   4.395   4.156   9.920  0.1873  0.4647  0.8102
 2578SOL     OW19192   0.432   2.221  11.411  0.3988 -0.2020 -0.8525
 2578SOL    HW119193   0.392   2.179  11.487 -3.1321 -0.0488 -2.6322
 2578SOL    HW219194   0.387   2.193  11.332  1.4182 -0.0224 -1.4988
 2579SOL     OW19195   0.563   1.570   3.286 -0.1175  0.6629  0.2845
 2579SOL    HW119196   0.503   1.537   3.219 -1.2433 -0.0016  1.6082
 2579SOL    HW219197   0.638   1.599   3.235 -0.1286 -0.7106 -0.5189
 2580SOL     OW19198   4.452   1.005   0.235  0.0648  0.2387 -0.1613
 2580SOL    HW119199   4.470   0.956   0.155 -1.7890 -0.6380 -0.0385
 2580SOL    HW219200   4.372   1.043   0.200  0.8069  0.4838 -1.5906
 2581SOL     OW19201   2.202   4.488   7.524  0.1635 -0.3744  0.3729
 2581SOL    HW119202   2.215   4.432   7.448  2.0110  1.0105 -0.3361
 2581SOL    HW219203   2.130   4.448   7.572 -0.3498 -1.2990 -1.1652
 2582SOL     OW19204   3.117   1.417  12.715  0.4090 -0.6971  0.1784
 2582SOL    HW119205   3.206   1.385  12.703  0.7660 -0.3220  1.9300
 2582SOL    HW219206   3.114   1.498  12.664  1.8923 -1.8151 -1.6802
 2583SOL     OW19207   0.291   0.865   5.593 -0.0377 -0.2345 -0.2406
 2583SOL    HW119208   0.310   0.955   5.567  2.5289 -0.9307 -0.7457
 2583SOL    HW219209   0.332   0.852   5.678  0.6958 -3.3303 -1.0804
 2584SOL     OW19210   4.380   3.774   4.095  0.2735 -0.4102 -0.1889
 2584SOL    HW119211   4.290   3.758   4.124  0.1550 -0.3910 -0.5388
 2584SOL    HW219212   4.357   3.807   4.008 -2.4046  0.4182  0.8408
 2585SOL     OW19213   0.700   0.346  10.900 -0.2569  0.2375  0.5108
 2585SOL    HW119214   0.627   0.285  10.912 -1.9472  2.1379 -0.1443
 2585SOL    HW219215   0.688   0.379  10.811 -0.8067 -0.6617  0.2452
 2586SOL     OW19216   1.223   2.898   7.781  0.4093  0.2550  0.0417
 2586SOL    HW119217   1.306   2.874   7.822  0.3690 -0.4911 -0.3075
 2586SOL    HW219218   1.241   2.989   7.758 -1.8497 -0.4289 -4.4575
 2587SOL     OW19219   3.962   0.261   0.277 -0.5655 -0.8579  0.4420
 2587SOL    HW119220   3.969   0.172   0.242 -0.7631 -0.3651 -0.8308
 2587SOL    HW219221   4.054   0.287   0.285 -0.1809 -1.5931 -1.4470
 2588SOL     OW19222   2.175   4.556  11.287 -0.2522  0.4062  0.4158
 2588SOL    HW119223   2.193   4.487  11.223 -0.8365 -0.3631  1.0844
 2588SOL    HW219224   2.263   4.594  11.291  0.0777 -0.4304  0.9948
 2589SOL     OW19225   1.705   3.602   6.996 -0.8232 -0.3534  0.6500
 2589SOL    HW119226   1.707   3.649   7.079  1.1401  0.1573  0.3166
 2589SOL    HW219227   1.711   3.677   6.937  1.9033 -1.6152 -0.6947
 2590SOL     OW19228   4.707   1.971  14.373 -0.4062  0.2242  0.9705
 2590SOL    HW119229   4.682   1.880  14.354 -0.7193  0.3602  0.7152
 2590SOL    HW219230   4.623   2.013  14.352 -0.6604 -0.0774  1.3812
 2591SOL     OW19231   0.145   0.976   3.204  0.4534 -0.7780  0.2352
 2591SOL    HW119232   0.212   1.038   3.176  0.8796 -1.1984  0.3190
 2591SOL    HW219233   0.071   1.021   3.164  1.2103  0.5985  0.3996
 2592SOL     OW19234   3.414   4.637   0.876 -0.8335  0.7655 -0.1332
 2592SOL    HW119235   3.475   4.570   0.843 -0.2717  1.1217  0.1708
 2592SOL    HW219236   3.451   4.716   0.836 -1.4840 -0.2312 -2.6676
 2593SOL     OW19237   4.625   3.020   3.688  0.0824  0.2103 -0.0791
 2593SOL    HW119238   4.568   2.946   3.709  0.0392  0.5561  1.0319
 2593SOL    HW219239   4.555   3.078   3.658 -2.4348 -3.3054 -1.0045
 2594SOL     OW19240   0.277   0.292   5.344 -0.4274  0.2415 -0.0660
 2594SOL    HW119241   0.275   0.358   5.412 -0.8672  0.0874  0.0702
 2594SOL    HW219242   0.279   0.212   5.397 -0.2837  1.2473  1.4370
 2595SOL     OW19243   2.949   2.209   8.986 -0.8861 -0.0391 -0.1761
 2595SOL    HW119244   2.992   2.265   9.051 -1.0224  0.5692 -0.6166
 2595SOL    HW219245   2.992   2.124   8.996  0.0794  0.2545 -1.9535
 2596SOL     OW19246   0.661   3.915   2.016  0.0693 -0.0470  0.0069
 2596SOL    HW119247   0.668   3.958   2.101  0.9538 -1.7229  0.7753
 2596SOL    HW219248   0.729   3.965   1.970 -0.2276  0.6228  0.2924
 2597SOL     OW19249   3.638   2.611   1.092 -0.4270 -0.1341 -0.1554
 2597SOL    HW119250   3.555   2.583   1.130  0.0727  0.5976  1.4466
 2597SOL    HW219251   3.619   2.701   1.065  0.8336 -0.1826 -1.2067
 2598SOL     OW19252   1.282   3.574   1.670 -0.0952  0.9269  0.0059
 2598SOL    HW119253   1.219   3.644   1.687 -1.0051  0.5661 -1.8504
 2598SOL    HW219254   1.241   3.497   1.710  0.0754  0.7851 -0.0925
 2599SOL     OW19255   2.977   0.283  13.045  0.2990 -0.0804  0.2983
 2599SOL    HW119256   2.882   0.273  13.040  0.2065  1.4361 -1.0703
 2599SOL    HW219257   3.000   0.280  12.952 -0.9126 -0.3299  0.0069
 2600SOL     OW19258   2.991   3.553   2.661 -0.0143  0.1933 -0.7039
 2600SOL    HW119259   3.066   3.610   2.681  0.1683 -1.1493  2.4332
 2600SOL    HW219260   3.016   3.477   2.714 -0.1835 -0.0393 -0.9636
 2601SOL     OW19261   1.921   3.968   9.688 -0.0053  0.7403 -0.2903
 2601SOL    HW119262   1.919   4.022   9.608  2.4188 -0.1367 -0.9507
 2601SOL    HW219263   2.014   3.959   9.709 -0.4030  0.7246  1.4529
 2602SOL     OW19264   4.302   0.652   6.320 -0.2720  0.2028  0.2873
 2602SOL    HW119265   4.363   0.596   6.367  0.1994  0.2622 -0.2597
 2602SOL    HW219266   4.319   0.734   6.367  0.3164  0.5237 -0.4863
 2603SOL     OW19267   0.181   1.065   9.213 -0.1530  0.5678 -0.1750
 2603SOL    HW119268   0.191   1.111   9.130 -0.4528  1.2383  0.1536
 2603SOL    HW219269   0.257   1.008   9.208  0.7226  1.7631 -0.5503
 2604SOL     OW19270   1.899   0.773   2.431  0.1692  0.2282 -0.1381
 2604SOL    HW119271   1.988   0.758   2.463 -0.5059 -1.5804  0.8713
 2604SOL    HW219272   1.920   0.807   2.344  0.3350 -1.0959 -0.6176
 2605SOL     OW19273   0.582   3.193   1.738 -0.0886 -0.2858 -0.0490
 2605SOL    HW119274   0.574   3.281   1.701 -4.5959 -1.3527 -1.6313
 2605SOL    HW219275   0.494   3.166   1.713 -0.2616 -1.0029  1.3273
 2606SOL     OW19276   3.387   2.054   7.390 -0.2199  0.1542  0.3619
 2606SOL    HW119277   3.459   2.112   7.365 -0.4052 -0.3421 -1.3404
 2606SOL    HW219278   3.340   2.097   7.461  0.6668  1.2218  0.2944
 2607SOL     OW19279   0.233   0.330  16.557 -0.5314 -0.3877 -0.3863
 2607SOL    HW119280   0.298   0.349  16.489  0.2396 -0.5997  0.2899
 2607SOL    HW219281   0.293   0.286  16.617 -0.6649 -0.3954 -0.2587
 2608SOL     OW19282   1.687   3.031  15.304  0.1722 -0.7630 -0.6171
 2608SOL    HW119283   1.737   3.082  15.240  1.7414 -2.0080 -0.3549
 2608SOL    HW219284   1.625   2.980  15.251  0.1930 -1.3949 -0.0295
 2609SOL     OW19285   0.994   1.483   3.839 -0.3011 -0.4371  0.0350
 2609SOL    HW119286   0.920   1.538   3.863 -0.3498 -0.1075 -0.8616
 2609SOL    HW219287   1.025   1.548   3.776  0.1615 -0.4416  0.2573
 2610SOL     OW19288   3.870   1.211   0.477 -0.5860 -0.2272 -0.8276
 2610SOL    HW119289   3.886   1.118   0.495  0.1721 -0.2876 -1.7971
 2610SOL    HW219290   3.824   1.237   0.556 -0.6534 -0.0151 -0.9369
 2611SOL     OW19291   3.387   1.264   2.041 -0.4827  0.1833 -0.4331
 2611SOL    HW119292   3.467   1.228   2.081 -0.8264  1.0133  0.9961
 2611SOL    HW219293   3.372   1.340   2.097  1.5944 -1.0626  1.8739
 2612SOL     OW19294   2.153   3.891   8.080  0.0919  0.4172  0.2905
 2612SOL    HW119295   2.218   3.885   8.149 -1.4807  0.6792  1.8072
 2612SOL    HW219296   2.073   3.881   8.133  0.8411  0.1912  1.3877
 2613SOL     OW19297   1.161   3.364   9.899 -0.5377 -0.3593 -0.1065
 2613SOL    HW119298   1.185   3.272   9.885  1.7873  0.2889 -0.3443
 2613SOL    HW219299   1.125   3.377   9.811 -0.6904 -0.3186 -0.0381
 2614SOL     OW19300   1.352   2.704  14.238 -0.5043 -0.4404  0.4165
 2614SOL    HW119301   1.448   2.697  14.236 -0.2640  2.9287 -0.5010
 2614SOL    HW219302   1.333   2.700  14.331  1.6059  1.8211  0.9644
 2615SOL     OW19303   2.454   1.630   1.257  0.3625  0.0533  0.1676
 2615SOL    HW119304   2.479   1.648   1.348 -1.2160  2.2435  0.1822
 2615SOL    HW219305   2.375   1.683   1.249 -1.2591 -1.9343  3.0012
 2616SOL     OW19306   4.522   1.659   6.919 -0.2456 -0.1799 -0.1446
 2616SOL    HW119307   4.430   1.657   6.945 -0.2774  3.0060 -0.0813
 2616SOL    HW219308   4.516   1.592   6.851 -0.4299  0.9485 -1.2408
 2617SOL     OW19309   1.196   0.714   3.903 -0.2758 -0.0125 -0.6201
 2617SOL    HW119310   1.226   0.792   3.857  1.2107 -0.2374 -0.0280
 2617SOL    HW219311   1.279   0.685   3.940 -0.2789  1.1143  0.2599
 2618SOL     OW19312   0.221   0.510  13.108  0.3832  0.3735 -0.4597
 2618SOL    HW119313   0.129   0.486  13.124  0.5438  0.8631  1.2250
 2618SOL    HW219314   0.208   0.593  13.154 -1.7997 -1.1486  1.7381
 2619SOL     OW19315   2.107   3.425  11.986 -0.2512 -0.2890 -0.1232
 2619SOL    HW119316   2.039   3.371  11.945  1.1178 -0.7801 -1.7465
 2619SOL    HW219317   2.099   3.408  12.080  0.4428 -2.2156 -0.4312
 2620SOL     OW19318   1.349   0.689   1.489  0.7561  0.1962 -0.4514
 2620SOL    HW119319   1.256   0.690   1.508  0.5228  1.9194 -1.7609
 2620SOL    HW219320   1.357   0.628   1.415 -1.1656 -0.2205 -0.2950
 2621SOL     OW19321   2.283   4.127   6.834 -0.0844  0.7523  0.0948
 2621SOL    HW119322   2.257   4.103   6.923  0.5244  0.1088  0.0966
 2621SOL    HW219323   2.336   4.203   6.858  0.6034  0.6386 -1.0969
 2622SOL     OW19324   0.395   0.909   9.187  0.2276  0.3253  0.4428
 2622SOL    HW119325   0.470   0.884   9.134  0.7101  0.5345  1.0332
 2622SOL    HW219326   0.365   0.824   9.220  0.4299 -0.3714 -1.1482
 2623SOL     OW19327   3.668   2.195   0.738  1.2553 -0.2613  0.3055
 2623SOL    HW119328   3.617   2.220   0.661  0.4343  0.2392  1.0133
 2623SOL    HW219329   3.655   2.256   0.811  0.3521  0.5472 -0.5238
 2624SOL     OW19330   3.612   3.293   6.930  0.2184  0.3328 -0.3895
 2624SOL    HW119331   3.525   3.257   6.912  0.7003 -1.8411  1.5502
 2624SOL    HW219332   3.669   3.222   6.898 -0.9603 -0.9265  0.2873
 2625SOL     OW19333   0.618   2.845   6.237 -0.0923 -0.6245  0.4999
 2625SOL    HW119334   0.614   2.885   6.150  2.1156 -0.1013  0.6463
 2625SOL    HW219335   0.654   2.759   6.218  1.1592  0.4230 -1.9058
 2626SOL     OW19336   2.720   2.338  11.293  0.1927 -0.2454  0.4820
 2626SOL    HW119337   2.730   2.373  11.204 -2.3106 -1.3953 -0.2635
 2626SOL    HW219338   2.814   2.335  11.308  0.3638  0.6692 -0.4139
 2627SOL     OW19339   4.262   4.198   0.898  0.1466  0.3236  0.4835
 2627SOL    HW119340   4.206   4.225   0.970 -1.6688  0.4689 -0.9901
 2627SOL    HW219341   4.340   4.251   0.909  1.3759 -0.9642 -1.8761
 2628SOL     OW19342   3.720   0.746   3.444  0.5687  0.2587 -0.0841
 2628SOL    HW119343   3.710   0.746   3.539  0.9897  1.3790 -0.0472
 2628SOL    HW219344   3.767   0.664   3.429  0.4391  0.5421 -2.0527
 2629SOL     OW19345   0.533   0.176   5.133  0.3344 -0.3001  0.3380
 2629SOL    HW119346   0.480   0.240   5.180  1.4663  0.7779  0.1498
 2629SOL    HW219347   0.504   0.194   5.043  0.1689 -0.6035  0.3307
 2630SOL     OW19348   4.115   2.260   6.670 -0.0752 -0.6820  0.0455
 2630SOL    HW119349   4.089   2.352   6.662  0.2327 -0.5879  0.1281
 2630SOL    HW219350   4.076   2.226   6.589  0.0731 -0.0937 -0.2714
 2631SOL     OW19351   1.525   0.355   0.371 -0.5277 -0.0527  0.5968
 2631SOL    HW119352   1.438   0.394   0.364 -1.0126 -0.9204  1.8644
 2631SOL    HW219353   1.578   0.428   0.338  0.7090 -1.2357 -0.0327
 2632SOL     OW19354   3.858   0.676   5.644 -0.4818 -0.1385  0.4666
 2632SOL    HW119355   3.918   0.634   5.584  1.4065  2.4462  0.5296
 2632SOL    HW219356   3.789   0.687   5.579 -0.4037 -0.8692  0.2674
 2633SOL     OW19357   0.558   1.790   2.982 -0.6366  0.1073  0.3635
 2633SOL    HW119358   0.633   1.740   3.014 -1.4797 -0.8189  0.8802
 2633SOL    HW219359   0.584   1.791   2.890 -0.7818 -0.4826  0.3181
 2634SOL     OW19360   4.658   4.528   5.128  0.2794 -0.3972  0.4259
 2634SOL    HW119361   4.637   4.611   5.087  0.4150 -0.3369  0.4792
 2634SOL    HW219362   4.573   4.484   5.121  0.6725 -0.9708 -0.9357
 2635SOL     OW19363   4.077   4.065   7.695  0.1209 -0.2816 -0.3085
 2635SOL    HW119364   4.165   4.075   7.657  1.0204  0.6249  2.0037
 2635SOL    HW219365   4.052   3.980   7.659  0.6965 -1.1243  1.2891
 2636SOL     OW19366   2.854   4.248   6.461 -0.0051  0.2420 -0.0251
 2636SOL    HW119367   2.771   4.201   6.449  0.8532 -0.8298 -1.8504
 2636SOL    HW219368   2.882   4.251   6.370 -0.4908  2.0490 -0.1127
 2637SOL     OW19369   3.603   3.593   5.299 -0.1449 -0.6874 -0.2961
 2637SOL    HW119370   3.692   3.568   5.325  0.3167  1.4918  0.1722
 2637SOL    HW219371   3.561   3.507   5.304  0.0991 -0.7495  0.6506
 2638SOL     OW19372   1.465   0.370   1.048 -0.5410  0.2060 -0.1808
 2638SOL    HW119373   1.531   0.363   1.117  1.5852 -1.6120 -2.4454
 2638SOL    HW219374   1.412   0.292   1.065 -1.4633  0.9454  0.3337
 2639SOL     OW19375   1.442   4.641   6.585 -0.2418  0.2677  0.3356
 2639SOL    HW119376   1.431   4.554   6.546  3.1904  0.5983 -1.3791
 2639SOL    HW219377   1.436   4.623   6.678 -1.3973  1.5142  0.5059
 2640SOL     OW19378   0.775   1.304  13.486 -0.2688 -0.4883  0.3221
 2640SOL    HW119379   0.746   1.217  13.514  2.2502 -2.2665 -2.4875
 2640SOL    HW219380   0.704   1.337  13.432  2.6756  1.0543 -2.6055
 2641SOL     OW19381   1.890   0.615   7.101 -0.4156  0.4348  0.1862
 2641SOL    HW119382   1.817   0.632   7.042  0.9147  2.2204 -0.9271
 2641SOL    HW219383   1.842   0.616   7.184 -0.8642  0.5376 -0.0718
 2642SOL     OW19384   2.146   3.152   9.057 -0.2135 -0.1239  0.3806
 2642SOL    HW119385   2.108   3.176   8.973 -2.9596 -0.5146  1.5237
 2642SOL    HW219386   2.224   3.104   9.026  1.0198  0.9934  1.7469
 2643SOL     OW19387   2.105   3.583   7.901  0.1878  0.8772  0.1838
 2643SOL    HW119388   2.141   3.621   7.981 -1.1394  1.4930  0.4994
 2643SOL    HW219389   2.016   3.619   7.898  0.0249  0.6982  2.8051
 2644SOL     OW19390   3.894   3.923   0.499  0.1759  0.1582  0.1353
 2644SOL    HW119391   3.918   3.942   0.408 -1.7630  2.0122 -0.0093
 2644SOL    HW219392   3.976   3.896   0.541  0.6984 -0.8863 -1.5612
 2645SOL     OW19393   0.882   4.303   2.219 -0.0736 -0.0320 -0.4711
 2645SOL    HW119394   0.973   4.275   2.230 -0.3457 -0.6683  0.1433
 2645SOL    HW219395   0.894   4.395   2.195 -1.5187  0.5725  1.1347
 2646SOL     OW19396   3.065   3.462   8.634 -0.0932  0.0408 -0.2363
 2646SOL    HW119397   3.032   3.520   8.566 -2.6345  0.7761  1.6067
 2646SOL    HW219398   3.115   3.532   8.676 -0.7152 -0.0462  0.6760
 2647SOL     OW19399   0.237   0.381   3.065 -0.2482  0.0968 -0.3621
 2647SOL    HW119400   0.217   0.468   3.031  2.4099  1.2367  1.0304
 2647SOL    HW219401   0.318   0.395   3.114  0.0540  0.9857 -1.1125
 2648SOL     OW19402   3.318   0.682  10.842  0.1752 -0.3914 -0.1841
 2648SOL    HW119403   3.250   0.647  10.785 -0.5776  0.6706  0.0629
 2648SOL    HW219404   3.335   0.611  10.903  3.1360 -0.2322 -0.8018
 2649SOL     OW19405   2.033   3.009   0.646  0.1484 -0.6497  0.0761
 2649SOL    HW119406   2.117   3.012   0.691 -1.2615 -2.5280  2.8100
 2649SOL    HW219407   2.017   2.916   0.658  0.1448 -0.6006  0.4648
 2650SOL     OW19408   1.817   3.057   6.132 -0.0329 -0.4828  0.2078
 2650SOL    HW119409   1.731   3.016   6.128  0.1988 -1.0701  1.4371
 2650SOL    HW219410   1.870   3.001   6.188  0.5102  0.3062  0.4873
 2651SOL     OW19411   3.238   3.153   2.770  0.0549 -0.2297  0.2251
 2651SOL    HW119412   3.327   3.160   2.805  0.0070 -0.6406  0.4319
 2651SOL    HW219413   3.255   3.155   2.676 -0.2549  0.8428  0.1936
 2652SOL     OW19414   3.365   0.747   1.309 -0.1511  0.3674 -0.6433
 2652SOL    HW119415   3.429   0.754   1.380 -1.2493 -2.3259  0.6151
 2652SOL    HW219416   3.418   0.697   1.247  1.1773 -0.0637  0.8257
 2653SOL     OW19417   4.696   1.087   3.650  0.1280 -0.0674 -0.0546
 2653SOL    HW119418   0.013   1.039   3.721 -2.4782 -0.6764  1.1220
 2653SOL    HW219419   0.038   1.080   3.584  0.2240 -1.4130  0.1870
 2654SOL     OW19420   1.302   3.788   5.975  0.1940 -0.2157  0.1591
 2654SOL    HW119421   1.239   3.751   6.037  1.8935 -4.0790 -0.4034
 2654SOL    HW219422   1.253   3.763   5.897  1.3382 -0.4235 -0.4977
 2655SOL     OW19423   3.042   0.629   2.926 -0.6235 -0.1507  0.4177
 2655SOL    HW119424   3.006   0.702   2.876 -0.5844  1.1764  2.3049
 2655SOL    HW219425   2.962   0.586   2.953 -0.4304 -1.2839 -0.8282
 2656SOL     OW19426   3.643   2.881  11.960 -0.1580 -0.3272  0.3077
 2656SOL    HW119427   3.652   2.798  11.914  1.6153 -0.1188  0.2909
 2656SOL    HW219428   3.692   2.942  11.904 -0.6475 -1.2960 -1.1976
 2657SOL     OW19429   4.089   2.312   2.060 -0.3549 -0.3382 -0.3112
 2657SOL    HW119430   4.172   2.307   2.107 -0.2980 -0.8076 -0.4523
 2657SOL    HW219431   4.033   2.264   2.121 -2.1999  2.0133 -0.1866
 2658SOL     OW19432   3.357   0.776  11.234  0.2083 -0.0671 -0.0710
 2658SOL    HW119433   3.338   0.687  11.265  1.4740  0.0141  0.9055
 2658SOL    HW219434   3.366   0.771  11.139  1.5829 -2.8156  0.2112
 2659SOL     OW19435   0.196   2.080  11.469  0.3076 -0.2342 -0.0655
 2659SOL    HW119436   0.193   2.120  11.556  1.7529 -1.3259  0.4926
 2659SOL    HW219437   0.177   1.986  11.478 -0.8614 -0.0075 -0.1680
 2660SOL     OW19438   0.132   0.179   1.305  0.2777 -0.1135 -0.3478
 2660SOL    HW119439   0.131   0.122   1.381  1.9794 -0.1475 -0.3478
 2660SOL    HW219440   0.227   0.192   1.305  0.1003  1.3009 -2.0455
 2661SOL     OW19441   2.657   1.587  10.167  0.2495  0.6416 -0.2499
 2661SOL    HW119442   2.576   1.612  10.213 -0.0098  1.0091 -0.9145
 2661SOL    HW219443   2.664   1.665  10.112 -2.6198  0.5167 -0.7840
 2662SOL     OW19444   1.603   4.130   3.334 -0.2548  0.1090  0.2207
 2662SOL    HW119445   1.533   4.187   3.302 -1.4407 -0.0570  2.5424
 2662SOL    HW219446   1.614   4.067   3.263  1.4530  2.3712 -1.5348
 2663SOL     OW19447   2.350   0.303   4.931 -0.5011 -0.8389  0.0764
 2663SOL    HW119448   2.320   0.366   4.996  2.4523 -1.6523  2.1914
 2663SOL    HW219449   2.268   0.266   4.898 -0.6786  0.0192 -0.4542
 2664SOL     OW19450   2.929   3.403   1.472 -0.4971  0.1524  0.0341
 2664SOL    HW119451   2.942   3.321   1.423  0.1315  0.3082 -0.0618
 2664SOL    HW219452   2.836   3.417   1.457 -0.3660 -0.0586 -1.0016
 2665SOL     OW19453   4.021   3.415   6.781  0.1536  0.2727 -0.7458
 2665SOL    HW119454   4.087   3.479   6.756 -0.4357  1.6015  1.1035
 2665SOL    HW219455   3.951   3.463   6.825  1.4416  1.4280  0.0108
 2666SOL     OW19456   4.718   0.362  11.628 -0.6942 -0.4208 -0.0462
 2666SOL    HW119457   0.076   0.350  11.584 -0.3533  3.0733 -0.4131
 2666SOL    HW219458   4.725   0.306  11.705  1.1716 -0.7135 -0.4185
 2667SOL     OW19459   3.341   0.014   6.342 -0.0973  0.0348  0.3022
 2667SOL    HW119460   3.341   4.697   6.257 -0.3236  2.4220 -0.8942
 2667SOL    HW219461   3.254   0.053   6.344 -0.9280 -1.6541 -2.2042
 2668SOL     OW19462   2.339   0.031   7.277  0.0696 -0.2835  0.4062
 2668SOL    HW119463   2.302   0.067   7.357 -3.8882  1.0842 -2.0744
 2668SOL    HW219464   2.363   0.111   7.230 -0.4407 -0.5694 -0.3360
 2669SOL     OW19465   2.330   2.879   2.450 -0.0492 -0.5921  0.2085
 2669SOL    HW119466   2.328   2.901   2.357  0.2984 -0.7262  0.1664
 2669SOL    HW219467   2.414   2.832   2.445  0.9830  0.9484  3.4444
 2670SOL     OW19468   2.669   1.830  15.072 -0.1219 -0.5058  0.4527
 2670SOL    HW119469   2.604   1.872  15.128  0.1116  2.6390 -1.6814
 2670SOL    HW219470   2.709   1.767  15.133  3.0380  1.0182 -0.0126
 2671SOL     OW19471   1.101   3.287   2.060 -0.1214 -0.8628 -0.0880
 2671SOL    HW119472   1.193   3.273   2.082 -0.5042 -0.5573  1.7119
 2671SOL    HW219473   1.073   3.195   2.058  1.4599 -1.3331 -0.8814
 2672SOL     OW19474   0.272   2.248   5.238  0.3292 -0.3414 -0.3026
 2672SOL    HW119475   0.210   2.245   5.166 -2.3481 -0.9634  2.0189
 2672SOL    HW219476   0.336   2.304   5.194 -0.1711 -0.6763 -1.4479
 2673SOL     OW19477   4.527   0.839   4.202  0.0793  0.3646  0.5356
 2673SOL    HW119478   4.485   0.762   4.240 -0.4043  0.1338 -0.4594
 2673SOL    HW219479   4.552   0.883   4.283 -1.9255  2.5914 -0.0200
 2674SOL     OW19480   2.907   2.836  16.847  0.8654 -0.0308 -0.4310
 2674SOL    HW119481   2.820   2.878  16.851  0.4778 -0.7169 -1.5751
 2674SOL    HW219482   2.965   2.912  16.839  0.0805  0.6702  0.5658
 2675SOL     OW19483   3.046   2.924   4.524  0.2981  0.0367 -0.2959
 2675SOL    HW119484   3.034   2.972   4.442  0.1780 -0.4253 -0.5465
 2675SOL    HW219485   3.139   2.902   4.511  0.2122 -0.8025  0.5123
 2676SOL     OW19486   0.039   1.052   4.059 -0.2879 -0.5921  0.5745
 2676SOL    HW119487   0.122   1.068   4.014 -1.2642  1.9973 -0.3401
 2676SOL    HW219488   4.701   1.114   4.023  1.1071  0.9266  0.6764
 2677SOL     OW19489   1.479   2.397   5.574  0.2403 -0.1769  0.3244
 2677SOL    HW119490   1.481   2.432   5.485  0.2169  2.7761  1.4835
 2677SOL    HW219491   1.460   2.305   5.556 -1.4328  0.3746 -0.6702
 2678SOL     OW19492   1.967   1.517   7.034 -0.0343 -0.4446 -0.7885
 2678SOL    HW119493   1.886   1.467   7.028 -1.4376  1.6611  0.6255
 2678SOL    HW219494   1.982   1.502   7.127 -1.7783  0.3877 -0.3655
 2679SOL     OW19495   0.568   0.824  12.828  0.3740 -0.2188 -0.2202
 2679SOL    HW119496   0.535   0.883  12.761  0.1279 -0.9700 -0.7620
 2679SOL    HW219497   0.489   0.793  12.874 -1.0125  1.0725 -1.7379
 2680SOL     OW19498   3.780   0.022   9.479  0.1255 -0.3560  0.2100
 2680SOL    HW119499   3.798   4.658   9.506 -0.2411 -0.4101  0.2750
 2680SOL    HW219500   3.773   0.065   9.565 -0.8806 -2.1510  1.0232
 2681SOL     OW19501   4.460   3.892   1.915 -0.5227 -0.0484  0.3177
 2681SOL    HW119502   4.432   3.915   1.826 -2.5504  1.5942  1.3826
 2681SOL    HW219503   4.555   3.899   1.909 -0.3286 -0.8175  2.7254
 2682SOL     OW19504   2.089   4.095   3.444  0.4322  0.5268  0.3417
 2682SOL    HW119505   2.085   4.174   3.497  1.1817  0.2247  0.8535
 2682SOL    HW219506   2.011   4.094   3.389 -0.2915 -2.2623  1.3997
 2683SOL     OW19507   1.184   0.298   1.637 -0.0259  0.7939  0.3874
 2683SOL    HW119508   1.207   0.238   1.707  0.3383  0.1414 -0.2867
 2683SOL    HW219509   1.227   0.260   1.560 -0.1285 -1.2165  1.3337
 2684SOL     OW19510   0.538   0.364   9.573 -0.1284 -0.2327 -0.3086
 2684SOL    HW119511   0.555   0.287   9.627 -1.7025  0.1605  0.7610
 2684SOL    HW219512   0.522   0.322   9.489 -1.0184  0.6149 -0.5648
 2685SOL     OW19513   3.304   0.772   4.125 -0.5384  0.1878  0.0696
 2685SOL    HW119514   3.359   0.712   4.075 -1.7341 -2.6060  2.1154
 2685SOL    HW219515   3.239   0.798   4.060  0.3360 -1.7542 -1.5709
 2686SOL     OW19516   1.599   3.222   2.420 -0.1137 -0.5307  0.2088
 2686SOL    HW119517   1.694   3.217   2.417 -0.1468 -2.3523  2.1982
 2686SOL    HW219518   1.579   3.132   2.394 -3.5166  0.6872 -1.4111
 2687SOL     OW19519   2.485   3.221   6.795  0.0024 -0.1116  0.6812
 2687SOL    HW119520   2.464   3.284   6.865  1.3019 -0.2818  1.2061
 2687SOL    HW219521   2.558   3.266   6.754 -1.4401  1.6148 -0.0198
 2688SOL     OW19522   2.904   4.228  12.679 -0.3392  0.5925 -0.1187
 2688SOL    HW119523   2.866   4.142  12.693 -0.1188  0.6073  0.6022
 2688SOL    HW219524   2.996   4.206  12.694 -0.2708  0.7521 -0.3002
 2689SOL     OW19525   2.946   4.518   8.324 -0.0348  0.5884  0.6338
 2689SOL    HW119526   3.021   4.561   8.363 -0.9065  0.8603  2.0049
 2689SOL    HW219527   2.878   4.549   8.384 -1.4368 -1.1790 -0.0450
 2690SOL     OW19528   2.974   4.591   6.409  0.3181  0.5013  0.0622
 2690SOL    HW119529   3.023   4.515   6.378  1.3357  0.3740  2.0009
 2690SOL    HW219530   2.953   4.556   6.496 -2.7736  1.0871 -0.4607
 2691SOL     OW19531   3.456   0.176  15.150  0.2299 -0.0343 -0.1803
 2691SOL    HW119532   3.426   0.265  15.167  0.3919 -0.3188  1.5548
 2691SOL    HW219533   3.441   0.176  15.055  0.0076 -0.8248 -0.1477
 2692SOL     OW19534   2.394   1.581  10.281  0.0157  0.2599 -0.0933
 2692SOL    HW119535   2.394   1.492  10.316 -0.1703 -0.0120 -0.7724
 2692SOL    HW219536   2.302   1.598  10.265 -0.0264  1.0496  1.0120
 2693SOL     OW19537   3.782   3.907   1.783  0.0114 -0.1239  0.3734
 2693SOL    HW119538   3.759   3.998   1.802 -0.2058 -0.6766  2.7334
 2693SOL    HW219539   3.876   3.922   1.772  0.2098 -0.9285  1.0236
 2694SOL     OW19540   4.291   3.717   8.502 -0.4093  0.1927 -0.1890
 2694SOL    HW119541   4.205   3.696   8.466  0.9613 -3.1973 -1.4624
 2694SOL    HW219542   4.274   3.810   8.516 -0.7823 -0.0137  0.7775
 2695SOL     OW19543   3.841   0.678  13.607 -0.2908  0.4842 -0.4019
 2695SOL    HW119544   3.874   0.606  13.553 -1.0039 -0.8860  0.9972
 2695SOL    HW219545   3.778   0.721  13.549 -1.1363 -0.9452 -0.5377
 2696SOL     OW19546   2.249   0.769  17.494  0.0921  0.4401 -0.6042
 2696SOL    HW119547   2.200   0.694  17.528 -0.1075  2.0256  2.5525
 2696SOL    HW219548   2.256   0.826  17.571  1.0395  1.0529 -1.1397
 2697SOL     OW19549   0.564   0.466  13.900 -0.2725 -0.6544  0.1749
 2697SOL    HW119550   0.478   0.424  13.908 -0.2760 -0.7970 -0.5610
 2697SOL    HW219551   0.548   0.504  13.813 -1.8696 -0.3361  0.6043
 2698SOL     OW19552   0.301   4.085   6.223  0.3616 -0.0516  0.0314
 2698SOL    HW119553   0.359   4.121   6.290 -0.7685  0.2309  0.8724
 2698SOL    HW219554   0.266   4.012   6.275  0.9700 -0.8040 -0.6229
 2699SOL     OW19555   3.140   2.150   1.999 -0.2202  0.0127 -0.5487
 2699SOL    HW119556   3.203   2.099   1.948  0.2554 -0.2950  0.3529
 2699SOL    HW219557   3.154   2.112   2.085 -2.7213 -1.0128 -0.5991
 2700SOL     OW19558   4.262   0.377   1.038  0.4459 -0.2015  0.1260
 2700SOL    HW119559   4.334   0.331   0.996  0.0867 -0.7084  0.0626
 2700SOL    HW219560   4.215   0.413   0.963  0.8813 -0.2946 -0.1909
 2701SOL     OW19561   1.589   0.071   0.026 -0.1540 -0.2699 -0.0094
 2701SOL    HW119562   1.513   0.071   0.084 -0.4313  0.0579 -0.3712
 2701SOL    HW219563   1.640   0.003   0.071 -2.3143 -1.6732  0.3436
 2702SOL     OW19564   3.362   1.097   2.963 -0.8773  0.9423  0.0845
 2702SOL    HW119565   3.285   1.073   2.911 -0.8323  0.2420  0.3413
 2702SOL    HW219566   3.429   1.117   2.897  0.4968 -0.6472  1.0231
 2703SOL     OW19567   4.040   4.150  17.388  0.7779 -0.1209 -0.2551
 2703SOL    HW119568   4.063   4.235  17.426  2.7029 -0.2515 -1.1531
 2703SOL    HW219569   4.094   4.136  17.310  0.6878 -2.1463  0.0473
 2704SOL     OW19570   3.605   1.429   6.486 -0.4456  0.1691  0.2055
 2704SOL    HW119571   3.596   1.521   6.463 -1.7115  0.3559  1.4342
 2704SOL    HW219572   3.587   1.384   6.403  0.5312  2.2384 -1.1331
 2705SOL     OW19573   0.271   2.688   5.533 -0.4725  0.0360 -0.3486
 2705SOL    HW119574   0.346   2.653   5.581  0.4331 -0.4423 -2.0739
 2705SOL    HW219575   0.240   2.603   5.502  0.4970  0.3975 -2.3318
 2706SOL     OW19576   1.689   4.238   2.876  0.0336  0.0881  0.4072
 2706SOL    HW119577   1.762   4.249   2.816 -0.6275 -1.0902 -0.6075
 2706SOL    HW219578   1.654   4.327   2.865 -0.5159  0.1868  2.8291
 2707SOL     OW19579   0.626   4.109   8.160  0.3218  0.4803  0.1031
 2707SOL    HW119580   0.533   4.125   8.147  0.4695  0.7984 -0.5304
 2707SOL    HW219581   0.661   4.192   8.192  1.6774 -0.1722  0.3169
 2708SOL     OW19582   0.801   4.601  15.383  0.2948 -0.6228  0.1482
 2708SOL    HW119583   0.814   4.541  15.309  0.7621 -1.6827  1.0986
 2708SOL    HW219584   0.873   4.587  15.443  1.3424 -0.4231 -1.0626
 2709SOL     OW19585   2.970   2.631   0.753 -0.1308 -0.3339  0.0902
 2709SOL    HW119586   3.042   2.682   0.791  0.2493 -0.8821  0.1112
 2709SOL    HW219587   2.984   2.644   0.659  0.0172 -1.4279 -0.0417
 2710SOL     OW19588   2.628   3.368  13.464  0.0057 -0.6853 -0.7333
 2710SOL    HW119589   2.662   3.380  13.375  0.2128  0.2666 -0.5266
 2710SOL    HW219590   2.706   3.403  13.506 -0.4323 -0.0925 -0.4134
 2711SOL     OW19591   3.860   0.728   2.084  0.1357  0.4712  0.0282
 2711SOL    HW119592   3.907   0.812   2.082 -0.1124  0.5949 -0.5888
 2711SOL    HW219593   3.838   0.710   1.993  0.1968  0.9045 -0.0748
 2712SOL     OW19594   0.416   3.657   7.371 -1.1298  0.5421  0.2020
 2712SOL    HW119595   0.449   3.726   7.429  0.4943  0.7469 -0.9498
 2712SOL    HW219596   0.385   3.685   7.285 -0.2756  0.6478 -0.0679
 2713SOL     OW19597   0.502   3.405   4.661 -0.2053 -0.2448 -0.2500
 2713SOL    HW119598   0.482   3.449   4.744  2.5136  0.9857 -0.2291
 2713SOL    HW219599   0.590   3.438   4.644 -0.6131  1.8659  1.6425
 2714SOL     OW19600   3.197   3.384  10.962  1.1312 -0.0632 -0.2213
 2714SOL    HW119601   3.256   3.308  10.963  2.3287  0.8936  2.7483
 2714SOL    HW219602   3.224   3.419  10.877  1.0330  0.6312  0.0289
 2715SOL     OW19603   3.089   2.317   1.651 -0.6439 -0.5395  0.5345
 2715SOL    HW119604   3.154   2.246   1.649  1.0573  1.0040  0.6409
 2715SOL    HW219605   3.065   2.322   1.559 -0.9431 -0.7730  0.6009
 2716SOL     OW19606   1.825   4.318  11.317 -0.0565  0.3999  0.1000
 2716SOL    HW119607   1.847   4.367  11.238 -1.8506 -0.2183 -0.7977
 2716SOL    HW219608   1.783   4.394  11.357 -0.3464 -0.4394  1.3933
 2717SOL     OW19609   0.423   0.551   0.658 -0.1198  0.4613  0.0707
 2717SOL    HW119610   0.510   0.529   0.693  0.0281 -0.9842 -1.1703
 2717SOL    HW219611   0.445   0.626   0.604 -0.5485  0.8118  0.3846
 2718SOL     OW19612   3.450   3.566   5.058 -0.7262  0.0863  0.1240
 2718SOL    HW119613   3.505   3.522   4.993 -1.0095 -0.6255  0.3681
 2718SOL    HW219614   3.505   3.563   5.136  2.2763  2.8539 -1.8706
 2719SOL     OW19615   1.709   4.554   0.109 -0.2274 -0.0308  0.1117
 2719SOL    HW119616   1.774   4.505   0.159  0.6562 -0.6628 -1.6746
 2719SOL    HW219617   1.701   4.502   0.029  3.7757 -1.1923  0.4845
 2720SOL     OW19618   2.918   1.181   8.911 -0.7482 -0.0607 -0.2689
 2720SOL    HW119619   2.859   1.255   8.920 -1.1914 -0.3670 -0.7081
 2720SOL    HW219620   2.985   1.211   8.973  1.8780 -0.7875 -2.7599
 2721SOL     OW19621   3.386   1.343  13.547 -0.0167 -0.4687 -0.6071
 2721SOL    HW119622   3.402   1.430  13.584  2.5826 -1.3123  0.3258
 2721SOL    HW219623   3.317   1.360  13.484 -1.2970  0.5806  1.0674
 2722SOL     OW19624   4.433   0.270   5.221  0.2491  0.3573 -0.0422
 2722SOL    HW119625   4.416   0.362   5.204 -1.6640 -0.2293 -1.3069
 2722SOL    HW219626   4.523   0.251   5.197  0.0705  0.4190 -0.7713
 2723SOL     OW19627   2.175   1.951   2.607  0.5388  0.1680 -0.1525
 2723SOL    HW119628   2.265   1.978   2.625  1.1100 -0.8507 -1.4806
 2723SOL    HW219629   2.153   1.903   2.687  0.1951 -1.0743 -1.0009
 2724SOL     OW19630   2.188   0.867  10.201 -0.0645  0.0139  0.2837
 2724SOL    HW119631   2.182   0.893  10.108 -0.3787 -0.9574  0.0312
 2724SOL    HW219632   2.135   0.788  10.213  1.0451 -1.0009 -1.4687
 2725SOL     OW19633   0.914   3.667   0.758 -0.4557  0.4314  0.7143
 2725SOL    HW119634   0.938   3.717   0.680  0.5153  0.7190  1.2059
 2725SOL    HW219635   0.884   3.582   0.725 -1.4710  1.1328 -0.1812
 2726SOL     OW19636   1.220   2.006   3.444  0.4552  0.1024  0.6901
 2726SOL    HW119637   1.260   2.088   3.416 -1.4864  0.5565 -0.7821
 2726SOL    HW219638   1.244   1.952   3.368 -1.7469 -1.5188  1.1471
 2727SOL     OW19639   4.580   2.726  13.294  0.6175 -0.2076  0.2138
 2727SOL    HW119640   4.526   2.753  13.368 -0.0489  1.3495 -0.8444
 2727SOL    HW219641   4.643   2.676  13.345  0.5185  0.7374  1.2567
 2728SOL     OW19642   1.043   3.352   4.603 -0.3118  0.3014  0.1767
 2728SOL    HW119643   1.120   3.358   4.546 -0.1549 -1.1270  0.2276
 2728SOL    HW219644   1.042   3.432   4.656  2.1796 -0.5681  1.5941
 2729SOL     OW19645   0.072   3.771   3.636 -0.2806 -0.1229  0.2489
 2729SOL    HW119646   0.067   3.857   3.678  0.3119  0.2247 -0.4027
 2729SOL    HW219647   0.166   3.754   3.642 -0.3880 -0.3995  1.2109
 2730SOL     OW19648   1.591   3.201  11.000  0.1223  0.5943 -0.1426
 2730SOL    HW119649   1.574   3.255  10.923  4.2698  0.3867 -1.1919
 2730SOL    HW219650   1.506   3.156  10.999 -0.6593  2.0623  1.3932
 2731SOL     OW19651   2.528   1.939   7.336  0.6427 -0.5038  0.3102
 2731SOL    HW119652   2.514   1.986   7.255  2.4139 -1.2664 -0.4436
 2731SOL    HW219653   2.436   1.918   7.352  0.6219 -0.4035  0.3171
 2732SOL     OW19654   0.835   0.402   4.948  0.6110  0.5313  0.1752
 2732SOL    HW119655   0.884   0.320   4.946 -0.0190  0.1576  0.0896
 2732SOL    HW219656   0.873   0.437   4.867 -1.4100 -0.5755 -1.2616
 2733SOL     OW19657   0.839   0.486  17.038  0.6933  0.2814  0.7045
 2733SOL    HW119658   0.884   0.567  17.012  2.7963 -1.2607 -0.4964
 2733SOL    HW219659   0.841   0.493  17.133 -1.9969  0.4120  0.7491
 2734SOL     OW19660   0.450   4.709  15.649  0.4897  0.0584  0.4859
 2734SOL    HW119661   0.429   0.021  15.563  1.1627 -0.0772  0.2596
 2734SOL    HW219662   0.413   4.621  15.643 -0.0212  0.1243  2.6959
 2735SOL     OW19663   3.768   1.283   8.440  0.2266 -0.0240  0.0414
 2735SOL    HW119664   3.735   1.247   8.358  0.0790  0.8101 -0.2696
 2735SOL    HW219665   3.820   1.208   8.470  1.7398  1.0904  0.2074
 2736SOL     OW19666   0.962   1.136   4.192  0.3761 -0.3268  0.2692
 2736SOL    HW119667   0.912   1.158   4.271  0.1068 -0.8767  0.2528
 2736SOL    HW219668   1.030   1.076   4.223  2.7165  0.8853 -2.5915
 2737SOL     OW19669   1.230   2.932   4.921 -0.7769 -0.1124 -0.3670
 2737SOL    HW119670   1.203   2.840   4.926  0.7988 -0.6090 -0.8614
 2737SOL    HW219671   1.285   2.937   4.999  0.4522 -0.3246 -1.2157
 2738SOL     OW19672   0.192   1.257   2.883  0.0420  0.4247 -0.0830
 2738SOL    HW119673   0.220   1.170   2.855 -2.4254 -0.4018 -0.0131
 2738SOL    HW219674   0.235   1.260   2.969 -1.6776  0.4730  0.7746
 2739SOL     OW19675   3.799   2.078   8.760  0.0397 -0.1965 -0.2661
 2739SOL    HW119676   3.829   2.056   8.848 -1.7687  0.9735  0.6255
 2739SOL    HW219677   3.738   2.147   8.787 -1.7258 -0.6121 -3.1233
 2740SOL     OW19678   3.188   2.644   7.378 -0.4891  0.1758  0.0142
 2740SOL    HW119679   3.094   2.648   7.397 -0.5293 -0.7615  0.0119
 2740SOL    HW219680   3.184   2.686   7.292  0.5928  1.1035  0.4107
 2741SOL     OW19681   0.817   1.930   2.362 -0.4475  0.3958  0.0090
 2741SOL    HW119682   0.727   1.944   2.334 -0.1982  1.8726 -0.0811
 2741SOL    HW219683   0.836   1.836   2.364  1.9784  0.8803 -0.0789
 2742SOL     OW19684   0.631   3.665  15.015  0.3302  0.2881  0.3194
 2742SOL    HW119685   0.608   3.679  14.923 -0.6641 -1.0765  0.3563
 2742SOL    HW219686   0.547   3.669  15.061  0.1904  1.8698 -0.0627
 2743SOL     OW19687   4.326   4.009  11.176  0.5011 -0.0540  0.5440
 2743SOL    HW119688   4.388   4.036  11.108 -2.0620  1.8182 -1.0861
 2743SOL    HW219689   4.289   3.929  11.139  0.5001  0.2546 -0.1199
 2744SOL     OW19690   3.760   1.103   1.407 -0.2863 -0.1807 -0.3863
 2744SOL    HW119691   3.746   1.079   1.498  1.1636 -0.4051 -0.2151
 2744SOL    HW219692   3.688   1.164   1.393 -2.7344 -2.7378  1.0797
 2745SOL     OW19693   2.154   4.713   3.251 -1.2363 -0.1019  0.2963
 2745SOL    HW119694   2.238   0.014   3.214 -0.6679 -3.5143 -0.8925
 2745SOL    HW219695   2.123   0.065   3.297 -2.1485 -0.6292  0.5703
 2746SOL     OW19696   4.543   1.074   6.605  0.4686 -0.1005  0.3183
 2746SOL    HW119697   4.580   1.074   6.693  1.0330 -0.8647  0.0893
 2746SOL    HW219698   4.591   1.149   6.569 -0.3336 -0.8257 -2.2543
 2747SOL     OW19699   3.323   2.661   4.651 -0.4806 -0.3077 -0.1416
 2747SOL    HW119700   3.319   2.605   4.573  0.1626 -0.2564 -0.2073
 2747SOL    HW219701   3.281   2.602   4.713 -1.5902 -1.0693 -1.6120
 2748SOL     OW19702   1.676   1.085   7.147  0.3451 -0.0002  0.2182
 2748SOL    HW119703   1.625   1.113   7.223  1.3894  0.7411  0.6427
 2748SOL    HW219704   1.724   1.008   7.177  1.2716  0.9880  1.2592
 2749SOL     OW19705   0.933   2.624  14.161 -1.0037  0.5781 -0.1178
 2749SOL    HW119706   0.909   2.588  14.075  1.3236 -0.0302 -0.4972
 2749SOL    HW219707   0.888   2.558  14.214 -2.2296  2.6014  1.3292
 2750SOL     OW19708   0.311   4.663   0.961  0.9260 -0.2112  0.0911
 2750SOL    HW119709   0.222   4.672   0.926  0.2525 -0.2141  1.8191
 2750SOL    HW219710   0.347   4.616   0.885 -0.6010  0.5223 -1.0778
 2751SOL     OW19711   3.789   0.256   7.131 -0.3310 -0.4040 -0.2067
 2751SOL    HW119712   3.818   0.186   7.190  2.7486  0.0112 -1.1919
 2751SOL    HW219713   3.726   0.213   7.074 -1.0766  1.2019 -0.5914
 2752SOL     OW19714   1.562   0.390   7.443  0.0053  0.3124  0.4172
 2752SOL    HW119715   1.519   0.421   7.523 -0.1655 -2.3496  1.3395
 2752SOL    HW219716   1.594   0.305   7.471 -0.4218 -0.5568 -1.7308
 2753SOL     OW19717   4.361   0.025   6.235  0.3531 -0.1955  0.1618
 2753SOL    HW119718   4.354   4.682   6.302 -2.0374 -1.0518 -0.9782
 2753SOL    HW219719   4.424   0.087   6.272 -0.1202 -0.8326  2.0861
 2754SOL     OW19720   2.913   2.378   3.311 -0.7927  0.3827  0.6456
 2754SOL    HW119721   2.834   2.354   3.359 -0.6968  1.9979  1.5875
 2754SOL    HW219722   2.924   2.470   3.334  0.1389  0.5351 -0.3884
 2755SOL     OW19723   2.645   3.518   0.262  0.0079 -0.0017 -0.2793
 2755SOL    HW119724   2.653   3.580   0.190  0.7690 -1.0098 -1.0561
 2755SOL    HW219725   2.677   3.437   0.223  0.1338 -0.6819  1.2549
 2756SOL     OW19726   3.771   3.508   6.919  0.0795  0.3288  0.3671
 2756SOL    HW119727   3.798   3.538   7.005 -0.1479  0.1730  0.4935
 2756SOL    HW219728   3.706   3.439   6.936 -1.3241  1.9917  1.7841
 2757SOL     OW19729   2.024   1.544   6.686  0.2130  0.0612 -0.5478
 2757SOL    HW119730   2.037   1.465   6.739  0.8382 -0.9545 -2.1850
 2757SOL    HW219731   1.981   1.517   6.604 -0.2897  1.8885 -0.8878
 2758SOL     OW19732   1.131   0.212   7.114  1.1227  0.5568 -0.0273
 2758SOL    HW119733   1.175   0.280   7.166  1.1808  0.2469  0.3265
 2758SOL    HW219734   1.126   0.139   7.175 -2.3569 -0.1470 -1.1658
 2759SOL     OW19735   3.160   0.381   2.662  0.2761  0.0918  0.3048
 2759SOL    HW119736   3.135   0.289   2.661 -0.0424  0.2044 -2.1565
 2759SOL    HW219737   3.105   0.416   2.731  1.9458  1.0782  1.1505
 2760SOL     OW19738   1.175   4.390   4.003 -0.4275  0.3381  0.5090
 2760SOL    HW119739   1.139   4.308   3.970  1.6173  0.0496 -0.9958
 2760SOL    HW219740   1.106   4.451   3.975 -0.9536 -1.1153 -1.3397
 2761SOL     OW19741   4.470   1.815   5.793  0.2612 -0.2612  0.0249
 2761SOL    HW119742   4.406   1.881   5.765  0.0005 -0.6311 -0.2687
 2761SOL    HW219743   4.417   1.774   5.862  0.7272 -0.9943 -0.0481
 2762SOL     OW19744   1.878   0.308   4.244 -0.0891  0.2819 -0.1847
 2762SOL    HW119745   1.906   0.226   4.285  0.2997  0.6653  0.3172
 2762SOL    HW219746   1.829   0.361   4.308  0.0700 -1.1382  1.0986
 2763SOL     OW19747   2.614   0.127   8.475 -0.1528 -0.4501  0.2582
 2763SOL    HW119748   2.652   0.110   8.389 -1.1300 -0.4609 -0.1641
 2763SOL    HW219749   2.646   0.050   8.524 -1.1675 -1.7542 -1.1368
 2764SOL     OW19750   2.648   0.242   4.027  0.3541 -0.0988 -0.1721
 2764SOL    HW119751   2.611   0.154   4.037  0.4142 -0.3028 -1.7373
 2764SOL    HW219752   2.616   0.265   3.940 -1.6230 -1.7297  0.1253
 2765SOL     OW19753   4.713   3.527   6.312 -0.0266 -0.6442  0.3726
 2765SOL    HW119754   0.076   3.525   6.347 -0.0569 -1.8059  0.3784
 2765SOL    HW219755   0.004   3.550   6.221  1.8430  0.3154  0.9586
 2766SOL     OW19756   1.688   2.762  10.764  0.4839  0.3618 -0.6845
 2766SOL    HW119757   1.761   2.812  10.801  0.3181 -0.3164  0.5481
 2766SOL    HW219758   1.620   2.828  10.749 -0.5560 -0.5428  0.0468
 2767SOL     OW19759   1.421   2.126   5.967  0.2131  0.3455 -0.1395
 2767SOL    HW119760   1.441   2.214   5.997 -0.4062  0.3627  0.2200
 2767SOL    HW219761   1.393   2.132   5.875 -1.9455 -1.4901  0.4084
 2768SOL     OW19762   2.093   2.027  11.337 -0.7533  0.2631 -0.2714
 2768SOL    HW119763   2.045   2.095  11.384  0.1153 -1.0356  2.5016
 2768SOL    HW219764   2.182   2.060  11.342 -0.8064  0.3821 -0.1179
 2769SOL     OW19765   1.563   2.780   0.451 -0.5407  0.6101  0.2340
 2769SOL    HW119766   1.625   2.833   0.500 -1.2088  1.7933 -0.2176
 2769SOL    HW219767   1.614   2.722   0.394  1.3101  2.0379  0.4311
 2770SOL     OW19768   0.984   2.249   6.738  0.6025  0.0067 -0.0943
 2770SOL    HW119769   1.051   2.190   6.704  1.5322  0.1739  1.4469
 2770SOL    HW219770   0.936   2.208   6.810  0.2053 -0.8205 -0.8380
 2771SOL     OW19771   2.774   1.747   2.553  0.5477  0.3867 -0.7993
 2771SOL    HW119772   2.819   1.804   2.490 -0.6311  0.4930 -1.5387
 2771SOL    HW219773   2.807   1.783   2.635  1.0110 -0.0080 -0.8129
 2772SOL     OW19774   0.688   2.046   3.367  0.8662 -0.6300 -0.1212
 2772SOL    HW119775   0.744   2.003   3.303  2.2401  0.3944  0.4029
 2772SOL    HW219776   0.601   2.025   3.333  0.4823 -1.4785  1.3613
 2773SOL     OW19777   4.471   0.085   5.663  0.6678  0.4920 -0.5198
 2773SOL    HW119778   4.383   0.056   5.685  0.7885  1.0032  0.6150
 2773SOL    HW219779   4.486   0.025   5.589  1.4648  0.7790 -0.5864
 2774SOL     OW19780   1.877   2.278   7.594 -0.1484  0.2253 -0.3352
 2774SOL    HW119781   1.952   2.242   7.547  0.5666  3.2598 -1.4812
 2774SOL    HW219782   1.900   2.370   7.585 -0.3754  0.4248  1.0898
 2775SOL     OW19783   2.282   2.075  10.413 -0.4716  0.6977 -0.1667
 2775SOL    HW119784   2.283   2.145  10.479  1.4766  0.3410  0.1701
 2775SOL    HW219785   2.191   2.046  10.421 -0.5295  0.9734  0.1647
 2776SOL     OW19786   0.921   1.210   3.929  0.5334  0.2739  0.1369
 2776SOL    HW119787   0.948   1.300   3.916 -1.3163  0.9186  0.6965
 2776SOL    HW219788   0.922   1.194   4.023  0.5150  0.0100  0.0931
 2777SOL     OW19789   3.737   2.839  17.105 -0.7091 -0.5414  0.2127
 2777SOL    HW119790   3.760   2.916  17.156  2.9153 -1.6548  0.2029
 2777SOL    HW219791   3.804   2.778  17.136 -1.1999 -0.6767  1.0246
 2778SOL     OW19792   1.773   1.734   5.818  0.8385 -0.6543  0.4014
 2778SOL    HW119793   1.789   1.792   5.744 -1.1090  0.8047  1.1171
 2778SOL    HW219794   1.862   1.734   5.854  1.5912 -0.8370 -1.4782
 2779SOL     OW19795   3.418   1.515   5.608  0.0886  0.1959  0.0915
 2779SOL    HW119796   3.351   1.572   5.571  1.5199  1.4103 -0.6701
 2779SOL    HW219797   3.399   1.505   5.701  1.7115  0.2096  0.4321
 2780SOL     OW19798   2.585   1.829   4.090 -0.4349 -0.4537  0.2388
 2780SOL    HW119799   2.611   1.772   4.018  0.8323 -0.0692  0.3950
 2780SOL    HW219800   2.584   1.764   4.160  1.3671  0.9338  1.5323
 2781SOL     OW19801   4.651   1.763   0.380  0.1520 -0.1916  0.2140
 2781SOL    HW119802   4.577   1.726   0.428 -1.2975  3.6876  0.9807
 2781SOL    HW219803   4.724   1.717   0.422  0.4163  1.1490  1.2100
 2782SOL     OW19804   1.428   2.973  16.351 -0.2477 -0.1084 -0.0543
 2782SOL    HW119805   1.490   3.041  16.323  0.5330 -0.0135  1.9207
 2782SOL    HW219806   1.354   3.016  16.395 -1.0772  0.6709 -2.1760
 2783SOL     OW19807   2.574   1.643   9.073  0.6250 -0.0987  0.3977
 2783SOL    HW119808   2.500   1.680   9.121  1.3805  0.1392  1.3813
 2783SOL    HW219809   2.596   1.558   9.112  0.9657 -0.6205 -0.9557
 2784SOL     OW19810   0.174   2.552   2.159  0.3166 -0.0801 -0.1929
 2784SOL    HW119811   0.194   2.548   2.066 -2.0901  0.6143 -0.7415
 2784SOL    HW219812   0.083   2.520   2.162  0.6977 -1.2373 -1.1870
 2785SOL     OW19813   2.359   2.795   3.608  0.2929  0.0066 -0.2507
 2785SOL    HW119814   2.332   2.878   3.568  0.3046  0.1677  0.0708
 2785SOL    HW219815   2.453   2.789   3.592  0.6208 -2.1637  2.2884
 2786SOL     OW19816   2.651   1.839   8.430 -0.4494 -0.2046 -0.0274
 2786SOL    HW119817   2.652   1.801   8.518 -0.3194 -0.6311 -0.2175
 2786SOL    HW219818   2.712   1.789   8.377 -1.7971 -3.0410  1.1053
 2787SOL     OW19819   4.173   2.391   4.813 -0.7285  0.0054  0.1713
 2787SOL    HW119820   4.268   2.390   4.830 -1.1201  0.2508  2.3801
 2787SOL    HW219821   4.143   2.471   4.856  1.1115  1.1692 -0.6767
 2788SOL     OW19822   2.659   2.813   5.705  0.1026 -0.1323  0.1927
 2788SOL    HW119823   2.669   2.727   5.665 -0.2285 -0.6791  1.2670
 2788SOL    HW219824   2.749   2.821   5.737 -0.7498 -0.5651  2.7096
 2789SOL     OW19825   2.439   0.156   7.838 -0.1356 -0.1101 -0.0290
 2789SOL    HW119826   2.481   0.142   7.754 -0.6376  1.9753 -0.6351
 2789SOL    HW219827   2.411   0.248   7.832  1.7157  0.5457  1.6011
 2790SOL     OW19828   2.671   3.296   6.222 -0.1625  0.5138  0.8069
 2790SOL    HW119829   2.616   3.262   6.152  1.6436 -0.0594 -0.3299
 2790SOL    HW219830   2.686   3.389   6.205  2.1438  0.1528  0.8650
 2791SOL     OW19831   2.747   1.329  11.247  0.4054  0.0607  0.2285
 2791SOL    HW119832   2.662   1.371  11.237  0.4658  0.7433  2.7196
 2791SOL    HW219833   2.730   1.242  11.211  0.9552 -0.6815  1.7889
 2792SOL     OW19834   4.463   4.349   3.421  0.8021 -0.6493 -0.0828
 2792SOL    HW119835   4.488   4.345   3.514 -0.5276 -2.4690  0.2021
 2792SOL    HW219836   4.548   4.331   3.382 -0.2032 -2.6074 -1.3966
 2793SOL     OW19837   3.674   1.271   3.810  0.2776  0.0719 -0.5964
 2793SOL    HW119838   3.688   1.205   3.741 -1.7055  0.4989 -1.4265
 2793SOL    HW219839   3.767   1.286   3.826  0.4416 -0.0710 -1.3823
 2794SOL     OW19840   2.265   4.408   8.780  0.0712 -0.1665  0.1281
 2794SOL    HW119841   2.310   4.395   8.863 -1.7336 -1.8112  0.8590
 2794SOL    HW219842   2.180   4.372   8.808  0.4263 -2.2957 -1.5435
 2795SOL     OW19843   3.741   4.715   5.220 -0.5744 -0.3513  0.1451
 2795SOL    HW119844   3.663   4.693   5.271 -1.5715  1.5295 -0.5819
 2795SOL    HW219845   3.761   4.631   5.179  0.0822 -0.4343  0.6482
 2796SOL     OW19846   2.779   0.857   7.686 -0.4124 -0.4358 -0.7047
 2796SOL    HW119847   2.694   0.817   7.701 -1.7697  2.7944  0.2377
 2796SOL    HW219848   2.782   0.918   7.760  1.5779  0.7103 -1.7380
 2797SOL     OW19849   0.365   1.767  11.850  0.0136 -0.2022 -0.3621
 2797SOL    HW119850   0.272   1.772  11.831  0.0281  0.6214 -0.2163
 2797SOL    HW219851   0.369   1.733  11.939  0.0665 -0.3191 -0.4090
 2798SOL     OW19852   0.456   2.862   9.469 -0.1670  0.2760  0.0960
 2798SOL    HW119853   0.388   2.847   9.403  0.7425  0.6349 -0.9457
 2798SOL    HW219854   0.509   2.785   9.448  0.3145  0.6741 -0.1587
 2799SOL     OW19855   2.340   3.926  16.175  0.0639  0.1114 -0.0218
 2799SOL    HW119856   2.360   4.018  16.193  2.6568 -1.1886  3.7957
 2799SOL    HW219857   2.378   3.883  16.251 -0.5566 -1.0254 -0.3594
 2800SOL     OW19858   4.437   2.173   4.381  0.5261 -0.2617  0.1893
 2800SOL    HW119859   4.502   2.236   4.411 -0.9834  0.9063  0.9991
 2800SOL    HW219860   4.459   2.179   4.288 -0.1319 -0.4722  0.0211
 2801SOL     OW19861   1.156   3.511  10.709 -0.3093 -0.4325  0.4450
 2801SOL    HW119862   1.075   3.461  10.717 -0.0298 -0.8069  0.9714
 2801SOL    HW219863   1.123   3.595  10.677  3.6683  0.7134 -0.7281
 2802SOL     OW19864   2.949   1.282   6.134 -0.2036 -0.1544 -0.5374
 2802SOL    HW119865   2.957   1.365   6.086  0.9280  0.2599  0.3710
 2802SOL    HW219866   2.952   1.306   6.226 -0.2538 -3.3339  0.2649
 2803SOL     OW19867   1.305   3.838  16.258  0.0380  0.0408 -0.5819
 2803SOL    HW119868   1.390   3.832  16.216  1.6012 -2.3430  2.9081
 2803SOL    HW219869   1.282   3.746  16.248 -1.4767  0.3492  0.0629
 2804SOL     OW19870   2.961   1.389  17.164  0.2339 -0.5722  0.1717
 2804SOL    HW119871   2.872   1.422  17.154  0.7414 -0.2428 -3.3059
 2804SOL    HW219872   2.994   1.451  17.228  0.6815  0.0211 -0.6294
 2805SOL     OW19873   1.304   4.364  11.619 -0.0931  0.5291  0.0472
 2805SOL    HW119874   1.298   4.433  11.553  1.8558  2.0888  1.4915
 2805SOL    HW219875   1.317   4.289  11.562  1.2651  0.8291 -0.0295
 2806SOL     OW19876   0.329   2.938   5.876 -1.2621  0.4749 -0.1385
 2806SOL    HW119877   0.404   2.912   5.824 -3.0816  0.5983 -2.8297
 2806SOL    HW219878   0.344   2.880   5.950  1.2472 -0.6569 -1.5490
 2807SOL     OW19879   3.272   2.527   4.405  0.5238 -0.7492  0.4715
 2807SOL    HW119880   3.247   2.574   4.325  0.0377  0.0362  1.0823
 2807SOL    HW219881   3.306   2.446   4.367 -1.0879 -1.2569  0.0922
 2808SOL     OW19882   2.128   1.104   7.846 -0.0288 -0.1940  0.3373
 2808SOL    HW119883   2.175   1.187   7.855 -0.1621 -0.3497  2.4890
 2808SOL    HW219884   2.034   1.118   7.854 -0.2084 -1.4206  0.4239
 2809SOL     OW19885   1.093   3.596   2.201  0.0214 -0.1541 -0.3077
 2809SOL    HW119886   1.023   3.583   2.137 -0.1652  0.4851 -0.2416
 2809SOL    HW219887   1.164   3.628   2.146  2.5246 -1.9583  1.8802
 2810SOL     OW19888   0.958   4.271   1.683 -0.3253 -0.3012 -0.1880
 2810SOL    HW119889   1.051   4.249   1.688 -0.2533  0.0073 -0.1792
 2810SOL    HW219890   0.931   4.221   1.606  0.2638 -1.4842  0.3709
 2811SOL     OW19891   3.015   0.164  14.286  0.1322 -0.4752  0.2893
 2811SOL    HW119892   3.032   0.087  14.342  0.4525 -0.1484  0.6407
 2811SOL    HW219893   2.938   0.129  14.241  0.4986 -1.4677  0.4259
 2812SOL     OW19894   1.064   1.982   6.659 -0.1372 -0.3480 -0.5278
 2812SOL    HW119895   1.025   1.935   6.585 -1.8304  1.7423 -0.9820
 2812SOL    HW219896   1.074   1.912   6.723  0.2785 -1.4629 -1.7969
 2813SOL     OW19897   2.188   2.484   6.035 -0.3250 -0.1555  0.3675
 2813SOL    HW119898   2.113   2.542   6.029  0.4483  0.5148 -2.5516
 2813SOL    HW219899   2.247   2.530   6.095  0.3034  1.2133 -1.3245
 2814SOL     OW19900   3.501   1.608  14.619 -0.7764  0.4990 -0.3161
 2814SOL    HW119901   3.455   1.531  14.586  0.6246  0.4286 -2.0673
 2814SOL    HW219902   3.558   1.627  14.544 -0.1702 -1.4140 -0.3442
 2815SOL     OW19903   3.434   3.849   3.245 -0.0849 -0.2459  0.1334
 2815SOL    HW119904   3.385   3.865   3.164 -2.4954 -2.9401  1.0666
 2815SOL    HW219905   3.496   3.776   3.234 -0.9033 -1.3384  2.7214
 2816SOL     OW19906   3.503   4.282   3.792 -0.1176  0.7396  0.6653
 2816SOL    HW119907   3.410   4.307   3.789  0.3662  2.4754  0.1411
 2816SOL    HW219908   3.504   4.219   3.720 -0.0169  1.5913 -0.0728
 2817SOL     OW19909   1.773   3.879   8.482 -0.2485  0.0029  0.0481
 2817SOL    HW119910   1.784   3.970   8.510  1.3694 -0.2196  0.1520
 2817SOL    HW219911   1.753   3.841   8.568 -2.7028  1.3682  0.0799
 2818SOL     OW19912   0.371   0.599   2.826  0.3005  0.0969 -0.0246
 2818SOL    HW119913   0.301   0.638   2.879  1.4104  1.6582  0.3008
 2818SOL    HW219914   0.330   0.524   2.783  0.6719 -0.5432  0.7319
 2819SOL     OW19915   0.037   1.256   4.601 -0.0732  0.5472  0.5742
 2819SOL    HW119916   0.016   1.328   4.661  0.8154  1.6796 -0.4761
 2819SOL    HW219917   0.120   1.229   4.640  0.7271  1.6893 -0.3547
 2820SOL     OW19918   1.869   3.883   9.234 -0.4137  0.7483  0.4148
 2820SOL    HW119919   1.856   3.940   9.158  0.5775  0.3436 -0.0524
 2820SOL    HW219920   1.798   3.819   9.229 -0.0924  0.4927 -0.8812
 2821SOL     OW19921   4.138   4.611  16.869 -0.0433  0.1423 -0.0469
 2821SOL    HW119922   4.217   4.649  16.831 -0.4440  0.3770 -0.6599
 2821SOL    HW219923   4.140   4.517  16.852 -1.0056  0.1528 -0.2504
 2822SOL     OW19924   2.905   2.363   5.448 -0.1954  0.0858  0.1165
 2822SOL    HW119925   2.992   2.345   5.484 -0.8843 -1.1513  1.1379
 2822SOL    HW219926   2.850   2.294   5.484 -0.4952 -0.0370 -0.5812
 2823SOL     OW19927   0.597   1.489   2.540 -0.3334 -0.1864 -0.0074
 2823SOL    HW119928   0.660   1.555   2.511 -0.1262 -1.4302 -2.4176
 2823SOL    HW219929   0.522   1.507   2.482 -2.4207 -1.8366  2.2245
 2824SOL     OW19930   4.411   4.635  13.581  0.5010 -0.3903 -0.2372
 2824SOL    HW119931   4.415   4.564  13.517  0.3844 -0.9656  0.4052
 2824SOL    HW219932   4.432   4.715  13.532  0.9460  0.8693  1.9960
 2825SOL     OW19933   0.685   1.190   4.247 -0.5244  0.3728  0.0918
 2825SOL    HW119934   0.683   1.244   4.168  1.5034  1.7576  0.9971
 2825SOL    HW219935   0.660   1.246   4.320 -1.2388  0.2510 -0.0545
 2826SOL     OW19936   4.264   1.116   0.088 -0.0540 -0.8159 -0.0687
 2826SOL    HW119937   4.231   1.044   0.034 -1.4351 -0.6456  0.5517
 2826SOL    HW219938   4.185   1.140   0.135  1.6142  3.8976  0.2555
 2827SOL     OW19939   1.209   4.558   1.114  1.4583 -0.4976 -0.1769
 2827SOL    HW119940   1.253   4.473   1.106  0.0693 -1.4603  2.5398
 2827SOL    HW219941   1.214   4.584   1.022  0.1185  1.1720  0.2142
 2828SOL     OW19942   1.752   0.162   4.658  0.5717  0.4320 -0.6003
 2828SOL    HW119943   1.743   0.250   4.622 -2.4337  0.2678 -0.2726
 2828SOL    HW219944   1.759   0.168   4.754  1.5465  0.8004 -0.6973
 2829SOL     OW19945   4.398   2.448  15.986 -0.4877 -0.5051  0.1112
 2829SOL    HW119946   4.365   2.517  15.928  0.9975  0.4892  0.4363
 2829SOL    HW219947   4.432   2.502  16.057  2.8013 -1.2850 -0.8320
 2830SOL     OW19948   0.311   3.852   6.037  0.4459 -0.2785  0.1017
 2830SOL    HW119949   0.225   3.819   6.061  0.5076  0.2011  0.9813
 2830SOL    HW219950   0.306   3.933   6.088  1.0377 -0.5120  0.5250
 2831SOL     OW19951   2.471   0.648  12.082  0.0095 -0.0006 -0.3627
 2831SOL    HW119952   2.398   0.617  12.029  0.6932 -2.1325 -0.0644
 2831SOL    HW219953   2.537   0.585  12.052  0.4420  1.4303 -2.4247
 2832SOL     OW19954   4.231   4.498   4.152 -0.2264  0.4008  1.0523
 2832SOL    HW119955   4.272   4.580   4.179 -0.4048  0.0856  2.2764
 2832SOL    HW219956   4.140   4.528   4.150 -0.6728 -1.0417  0.2989
 2833SOL     OW19957   4.446   4.675  14.166 -0.1864 -0.2146  0.4484
 2833SOL    HW119958   4.375   4.650  14.225  1.1613  0.1845  2.2368
 2833SOL    HW219959   4.513   4.608  14.181 -1.0535 -0.7107  2.1168
 2834SOL     OW19960   0.632   1.103   1.176 -0.4477  0.0968  0.4191
 2834SOL    HW119961   0.592   1.182   1.213  0.9959  0.7750  0.5454
 2834SOL    HW219962   0.582   1.036   1.223  0.4037 -1.9942 -1.6720
 2835SOL     OW19963   2.188   0.204   0.855  0.1914 -0.4855  0.0549
 2835SOL    HW119964   2.243   0.274   0.820 -1.3694  0.7886  0.1634
 2835SOL    HW219965   2.207   0.144   0.783  0.4127  0.0796 -0.3527
 2836SOL     OW19966   0.603   0.682   6.848  0.0657  0.2951 -0.2133
 2836SOL    HW119967   0.626   0.621   6.778 -1.5829 -0.3863 -0.1482
 2836SOL    HW219968   0.519   0.715   6.817 -0.3187  0.8428  1.3967
 2837SOL     OW19969   0.143   0.672   7.909  0.6335 -0.2139 -0.4542
 2837SOL    HW119970   0.102   0.758   7.914  0.5792 -0.2600 -0.0850
 2837SOL    HW219971   0.130   0.650   8.001 -0.4339  1.2046 -0.2627
 2838SOL     OW19972   3.170   2.031   8.509 -0.1408 -0.5864  0.5986
 2838SOL    HW119973   3.129   2.103   8.461  2.5814  2.0835  2.2409
 2838SOL    HW219974   3.160   2.064   8.598  0.3330 -1.9645  1.1558
 2839SOL     OW19975   1.942   1.016   8.896  0.7079  0.0833  0.4747
 2839SOL    HW119976   1.892   1.011   8.977 -3.8014 -0.2489 -2.3506
 2839SOL    HW219977   1.986   1.101   8.902 -0.7204  0.6159  3.1166
 2840SOL     OW19978   3.340   0.900   7.968  0.5924  0.3150  0.6491
 2840SOL    HW119979   3.347   0.849   8.049 -0.8921  1.8361  1.7495
 2840SOL    HW219980   3.255   0.944   7.969  0.1593 -0.4821 -2.1881
 2841SOL     OW19981   0.366   2.942   7.965  0.1746 -0.5494  0.2951
 2841SOL    HW119982   0.373   2.849   7.946  1.6850 -0.0512 -1.6677
 2841SOL    HW219983   0.452   2.978   7.940 -0.9054  2.5517  1.0194
 2842SOL     OW19984   4.312   0.890  14.473  0.2900  0.3233 -0.3145
 2842SOL    HW119985   4.308   0.930  14.386 -0.7673 -1.0823 -0.9098
 2842SOL    HW219986   4.223   0.912  14.498 -0.1770  0.3838 -2.0316
 2843SOL     OW19987   1.256   4.122   3.427  0.1427 -0.4172 -0.8072
 2843SOL    HW119988   1.259   4.039   3.475  1.0512  0.5796  0.8641
 2843SOL    HW219989   1.282   4.097   3.338 -2.1064 -1.7435 -1.0934
 2844SOL     OW19990   3.336   0.091  11.110 -0.2734  0.5514  0.8000
 2844SOL    HW119991   3.296   0.160  11.057 -1.6011 -0.2770  0.7089
 2844SOL    HW219992   3.414   0.065  11.061 -1.1151 -0.2293 -0.1471
 2845SOL     OW19993   0.973   1.211   7.004  0.0022  0.4603 -0.3010
 2845SOL    HW119994   0.927   1.183   6.925 -1.6632 -2.1642  1.5924
 2845SOL    HW219995   0.954   1.135   7.059 -1.8768  0.2825 -1.1911
 2846SOL     OW19996   1.120   0.731   2.145  0.0475  0.6912  0.5725
 2846SOL    HW119997   1.043   0.785   2.162 -0.2383 -0.0978  1.8109
 2846SOL    HW219998   1.179   0.802   2.119 -1.0774  1.6234  0.5769
 2847SOL     OW19999   1.953   0.082  16.369 -0.3283  0.0812  0.1382
 2847SOL    HW120000   1.879   0.139  16.348 -0.3735  0.3897  1.1615
 2847SOL    HW220001   1.945   0.012  16.305  0.9925  1.0214 -1.0681
 2848SOL     OW20002   1.750   0.767   5.609  0.3126 -0.0036 -0.1081
 2848SOL    HW120003   1.797   0.849   5.621 -1.9595  1.3541 -0.5622
 2848SOL    HW220004   1.785   0.727   5.688  0.9237 -1.4377 -1.0933
 2849SOL     OW20005   4.044   3.166   9.251 -0.0111  0.4840  0.1501
 2849SOL    HW120006   3.988   3.150   9.174  1.5807  1.7423 -1.2713
 2849SOL    HW220007   3.984   3.139   9.320 -1.3815 -0.2608 -1.3318
 2850SOL     OW20008   3.082   0.570   1.815  0.5010  0.3527 -0.1635
 2850SOL    HW120009   3.175   0.577   1.797  1.1381 -1.5708  2.2868
 2850SOL    HW220010   3.078   0.480   1.846  1.7095 -0.0639 -1.2109
 2851SOL     OW20011   0.898   2.521   3.839  0.5092  0.3068  0.0726
 2851SOL    HW120012   0.931   2.555   3.756  0.0202 -2.2620 -1.1814
 2851SOL    HW220013   0.852   2.445   3.804  1.6014  0.2153 -1.1616
 2852SOL     OW20014   3.324   4.346   1.623 -0.2725 -0.3154  0.2975
 2852SOL    HW120015   3.372   4.277   1.670 -2.1250 -0.1871  2.3518
 2852SOL    HW220016   3.280   4.295   1.555 -0.1235 -1.5588  1.1320
 2853SOL     OW20017   4.370   2.885  10.957 -0.8488  0.8256  0.8114
 2853SOL    HW120018   4.398   2.808  10.907 -2.9969  2.5219 -2.9920
 2853SOL    HW220019   4.382   2.956  10.893 -2.4135  1.2719  1.0270
 2854SOL     OW20020   3.608   1.746   5.546  0.3545  0.1682  0.4648
 2854SOL    HW120021   3.600   1.837   5.515  1.6424 -0.6363 -2.2809
 2854SOL    HW220022   3.522   1.719   5.579  0.5919 -0.1776  0.7875
 2855SOL     OW20023   1.728   2.925   6.629 -0.2244  0.0440  0.4162
 2855SOL    HW120024   1.795   2.917   6.697  1.0270  1.9307 -0.5962
 2855SOL    HW220025   1.646   2.890   6.663 -0.6909  2.9204  2.2142
 2856SOL     OW20026   2.536   3.032   9.347 -0.6168 -0.1183  0.5907
 2856SOL    HW120027   2.474   2.963   9.320 -0.3584  0.7159 -2.1923
 2856SOL    HW220028   2.470   3.101   9.347 -1.7731 -1.2083 -1.2122
 2857SOL     OW20029   2.760   3.449   8.051  0.7783  0.4915 -0.0837
 2857SOL    HW120030   2.723   3.497   7.976 -0.5657  0.3759  0.5061
 2857SOL    HW220031   2.681   3.408   8.087  2.0465 -1.5396  0.3572
 2858SOL     OW20032   1.868   3.712   9.838  0.2721 -0.6080  0.0415
 2858SOL    HW120033   1.910   3.715   9.924  1.1041 -0.4505 -0.3671
 2858SOL    HW220034   1.911   3.789   9.801 -2.8208  0.9160 -0.3494
 2859SOL     OW20035   4.682   1.294   6.512 -0.6545 -0.8826 -0.1345
 2859SOL    HW120036   4.684   1.352   6.436  2.4564 -2.7393 -1.5040
 2859SOL    HW220037   0.027   1.233   6.490 -0.9574 -1.6320  0.9350
 2860SOL     OW20038   2.762   0.222   6.794 -0.2982  0.3657  0.0893
 2860SOL    HW120039   2.848   0.193   6.764 -0.1982  1.6680 -0.8910
 2860SOL    HW220040   2.707   0.165   6.740 -1.3691  0.3420  1.2115
 2861SOL     OW20041   4.118   3.056   4.579  0.0279  0.1725 -0.4405
 2861SOL    HW120042   4.106   3.087   4.489 -0.1878  0.9495 -0.1446
 2861SOL    HW220043   4.105   2.963   4.559  0.0194  0.3404 -1.2153
 2862SOL     OW20044   2.583   0.505   3.449  0.1276 -0.3317 -0.2363
 2862SOL    HW120045   2.640   0.576   3.421  0.2119 -0.4373 -0.3366
 2862SOL    HW220046   2.635   0.480   3.526 -0.6881 -1.3495 -0.0147
 2863SOL     OW20047   0.422   3.895  13.947  0.4388 -0.9301 -0.5553
 2863SOL    HW120048   0.474   3.949  13.887  1.2828 -1.3769 -0.2222
 2863SOL    HW220049   0.356   3.869  13.883  0.0337  3.8120 -2.0928
 2864SOL     OW20050   3.948   3.694   5.006  0.0185 -0.1842  0.2520
 2864SOL    HW120051   3.957   3.616   4.952  0.2967  1.1244 -1.6022
 2864SOL    HW220052   3.975   3.666   5.094 -2.2667 -2.4135  0.2398
 2865SOL     OW20053   0.993   4.451   1.872  0.1655  0.2927  0.0190
 2865SOL    HW120054   0.926   4.506   1.832 -1.4463 -1.8497 -0.2016
 2865SOL    HW220055   0.980   4.371   1.820 -2.6484 -0.9683  2.6573
 2866SOL     OW20056   2.259   3.040   3.483 -0.3170 -0.9553  0.3332
 2866SOL    HW120057   2.171   3.068   3.509  0.4786  0.0091  1.9419
 2866SOL    HW220058   2.261   3.102   3.411 -0.4094  0.8921  1.9291
 2867SOL     OW20059   1.990   2.529   4.763 -0.3517  0.2321  0.4059
 2867SOL    HW120060   1.898   2.513   4.746 -1.0422  3.4698  1.0583
 2867SOL    HW220061   1.995   2.485   4.848 -1.4289 -1.5806 -0.4824
 2868SOL     OW20062   3.098   4.376   8.088  0.1368 -0.5479  0.5937
 2868SOL    HW120063   3.070   4.433   8.159  0.2372  0.3795 -0.1046
 2868SOL    HW220064   3.029   4.390   8.023  0.6970  1.1453  0.3758
 2869SOL     OW20065   4.031   1.943   0.599  0.3790  0.3255  0.2545
 2869SOL    HW120066   4.115   1.990   0.601  2.0856 -2.6701 -0.8564
 2869SOL    HW220067   3.973   2.012   0.567 -1.2511 -0.4883  1.4646
 2870SOL     OW20068   4.451   0.910   3.944 -0.5700 -0.3837  0.3228
 2870SOL    HW120069   4.494   0.884   4.025  1.6362  0.2057 -0.6468
 2870SOL    HW220070   4.501   0.991   3.931  1.8317 -2.2182 -1.8003
 2871SOL     OW20071   1.861   3.388   4.978  0.6054 -0.5626 -0.2102
 2871SOL    HW120072   1.808   3.364   5.054 -1.7377 -0.1381 -1.7101
 2871SOL    HW220073   1.945   3.389   5.025  0.4829  0.0712 -0.0005
 2872SOL     OW20074   2.322   4.191   8.534  0.3704 -0.4951 -0.2223
 2872SOL    HW120075   2.416   4.206   8.541  0.1093  1.0625 -0.1044
 2872SOL    HW220076   2.284   4.278   8.530  1.9293  0.3383  2.9234
 2873SOL     OW20077   0.931   2.120   4.871  0.1196  0.1338  0.0362
 2873SOL    HW120078   0.963   2.048   4.816 -0.1250  0.7422 -0.9018
 2873SOL    HW220079   1.006   2.135   4.928 -0.5609  0.4140  0.8632
 2874SOL     OW20080   1.820   1.537   3.295  0.3759 -0.3338  0.4491
 2874SOL    HW120081   1.727   1.552   3.278  0.8401 -0.1532 -1.8509
 2874SOL    HW220082   1.820   1.597   3.370  0.4285  0.7702 -0.4256
 2875SOL     OW20083   2.919   3.372   7.828 -0.3263  0.8983  0.1231
 2875SOL    HW120084   2.922   3.455   7.781 -1.5471  0.3213 -0.9863
 2875SOL    HW220085   2.863   3.396   7.902  1.5767  1.6219  1.3269
 2876SOL     OW20086   1.043   1.803   4.930  0.2147  0.2543 -0.6611
 2876SOL    HW120087   1.123   1.814   4.981 -0.3948 -0.8165  0.5154
 2876SOL    HW220088   0.974   1.822   4.993 -0.2399 -1.2333 -0.7058
 2877SOL     OW20089   0.782   2.219   9.249 -0.0839  0.0758 -0.1376
 2877SOL    HW120090   0.857   2.198   9.194 -1.4539 -1.1742 -1.5049
 2877SOL    HW220091   0.714   2.182   9.192  0.3602  0.6501 -1.0413
 2878SOL     OW20092   2.069   1.187   2.638  0.4802  0.1865 -0.0032
 2878SOL    HW120093   2.095   1.106   2.681  0.1907  2.1017  3.7805
 2878SOL    HW220094   2.022   1.226   2.712 -0.5601  3.4234 -2.3296
 2879SOL     OW20095   4.306   1.949   6.025 -0.6950 -0.0273 -0.1798
 2879SOL    HW120096   4.289   1.891   6.100 -0.4848  0.7206  0.4419
 2879SOL    HW220097   4.222   1.983   5.997 -0.4709  1.8156  1.4185
 2880SOL     OW20098   4.449   0.918   8.360 -0.0638 -0.1490  0.1460
 2880SOL    HW120099   4.356   0.892   8.363 -0.9504  3.2526  2.2595
 2880SOL    HW220100   4.443   1.010   8.384 -2.2595  0.0603 -1.1360
 2881SOL     OW20101   1.722   2.510   4.846 -0.3082  0.4649  0.5890
 2881SOL    HW120102   1.653   2.484   4.785  1.1703 -1.1013 -0.4524
 2881SOL    HW220103   1.683   2.484   4.929  0.0618  0.4522  0.7604
 2882SOL     OW20104   4.444   2.614   3.342  0.0456  0.2170  0.6642
 2882SOL    HW120105   4.475   2.698   3.377 -0.6507  0.5110  0.5740
 2882SOL    HW220106   4.504   2.553   3.384 -2.0459 -1.3804  1.3198
 2883SOL     OW20107   0.426   2.584   7.468  0.1146  0.1168  0.6346
 2883SOL    HW120108   0.475   2.502   7.473 -0.2783 -0.2219 -1.1689
 2883SOL    HW220109   0.417   2.590   7.373 -0.8438 -0.6496  0.6842
 2884SOL     OW20110   2.091   0.511   7.437  0.4998  0.4362 -0.0110
 2884SOL    HW120111   2.103   0.490   7.344  0.3275 -0.5258  0.1787
 2884SOL    HW220112   2.117   0.432   7.485  0.4855  0.3260 -0.1830
 2885SOL     OW20113   1.768   3.283   7.616  0.0312  0.2329 -0.1725
 2885SOL    HW120114   1.816   3.200   7.621  1.9026  1.3226 -0.1731
 2885SOL    HW220115   1.737   3.287   7.707 -3.0075  2.1355 -1.3148
 2886SOL     OW20116   1.149   4.061   4.419 -0.5151 -0.3745 -0.0731
 2886SOL    HW120117   1.087   4.075   4.347 -2.3209 -2.0172  1.1732
 2886SOL    HW220118   1.086   4.089   4.486 -0.0075 -0.7204  0.5404
 2887SOL     OW20119   2.118   0.528   5.010 -0.5153 -0.0865 -0.1076
 2887SOL    HW120120   2.070   0.525   5.092 -1.1923  0.3538 -0.4939
 2887SOL    HW220121   2.181   0.599   5.023 -0.2560 -0.4853  0.8216
 2888SOL     OW20122   1.903   0.496  10.002  0.5139  0.9912 -0.1367
 2888SOL    HW120123   1.812   0.495  10.033  0.1275  1.5189 -1.2483
 2888SOL    HW220124   1.939   0.559  10.063  0.3026  1.2559 -0.2810
 2889SOL     OW20125   0.553   2.827   5.737 -0.2842  0.1695  0.0606
 2889SOL    HW120126   0.567   2.857   5.647  1.5219  0.4886  0.4586
 2889SOL    HW220127   0.537   2.735   5.714  0.9646 -0.1862  0.5934
 2890SOL     OW20128   3.821   1.359   1.732 -0.8690 -0.6893 -0.1357
 2890SOL    HW120129   3.757   1.387   1.667 -2.8237 -0.3162  1.9532
 2890SOL    HW220130   3.893   1.347   1.669 -1.0137 -0.0078 -0.4322
 2891SOL     OW20131   2.264   3.512   5.964 -0.2394  0.1761  0.0519
 2891SOL    HW120132   2.294   3.444   5.904 -0.2337  0.2473 -0.0260
 2891SOL    HW220133   2.175   3.481   5.981 -0.1590 -0.8107 -1.2941
 2892SOL     OW20134   0.547   2.153   3.661 -0.9300 -0.3694  0.1176
 2892SOL    HW120135   0.478   2.089   3.678 -1.9944  0.9777  0.8486
 2892SOL    HW220136   0.622   2.093   3.655 -1.0176 -0.6828  2.2814
 2893SOL     OW20137   3.233   1.607  15.611 -0.1157  0.4454 -0.0558
 2893SOL    HW120138   3.281   1.604  15.528 -2.7557 -0.7731 -1.5384
 2893SOL    HW220139   3.303   1.581  15.671  0.9779  1.8975 -0.6958
 2894SOL     OW20140   2.266   1.735   2.379  0.0043 -0.0538 -0.0322
 2894SOL    HW120141   2.239   1.790   2.453  3.5670  0.5096  0.8405
 2894SOL    HW220142   2.250   1.793   2.305  1.2729  1.0325  0.5542
 2895SOL     OW20143   0.902   3.139   4.505  0.0942 -0.8816 -0.1717
 2895SOL    HW120144   0.952   3.214   4.538 -1.5384  0.1529 -0.0697
 2895SOL    HW220145   0.821   3.179   4.475  0.2869 -0.2262  0.1743
 2896SOL     OW20146   0.343   1.627  14.813 -0.1620 -0.2315  0.0779
 2896SOL    HW120147   0.298   1.709  14.833 -1.3152 -0.8748  0.0707
 2896SOL    HW220148   0.345   1.623  14.717 -1.2433  1.0171  0.0067
 2897SOL     OW20149   1.867   1.003   7.551  0.0392 -0.0447  0.2362
 2897SOL    HW120150   1.929   0.939   7.586  0.5232  0.2127 -0.1481
 2897SOL    HW220151   1.913   1.033   7.472  0.4640  2.4129  1.4063
 2898SOL     OW20152   0.597   3.493   2.426  0.6332 -0.0333 -0.2185
 2898SOL    HW120153   0.575   3.580   2.458 -1.3829 -0.5121 -0.2667
 2898SOL    HW220154   0.519   3.439   2.442  0.3404  0.6027  0.4854
 2899SOL     OW20155   3.325   0.788  17.611 -0.2120 -0.0080 -0.8530
 2899SOL    HW120156   3.307   0.846  17.685  0.1209 -2.2831  1.0270
 2899SOL    HW220157   3.265   0.718  17.636  1.1681 -0.2936  1.7205
 2900SOL     OW20158   1.415   0.368  10.131 -0.2174  0.2854 -0.1199
 2900SOL    HW120159   1.391   0.347  10.221  3.0306  0.8784  0.8736
 2900SOL    HW220160   1.402   0.291  10.075 -0.9180 -0.3029  0.8550
 2901SOL     OW20161   2.457   0.102   5.107 -0.2746  0.0545  0.1793
 2901SOL    HW120162   2.450   0.150   5.024 -0.5444  2.1102  1.3895
 2901SOL    HW220163   2.395   0.150   5.162 -2.6791 -2.2858 -0.5279
 2902SOL     OW20164   2.998   1.883   1.192 -0.5892  0.0229 -0.0486
 2902SOL    HW120165   3.072   1.844   1.146 -0.6620  3.0380 -2.7610
 2902SOL    HW220166   3.018   1.974   1.168 -0.0716  0.1851  1.0275
 2903SOL     OW20167   4.471   2.406   6.872 -0.5600 -0.0916 -0.3857
 2903SOL    HW120168   4.390   2.356   6.882 -1.4811  1.4420 -0.1574
 2903SOL    HW220169   4.493   2.418   6.964  1.0429 -1.0919 -0.6184
 2904SOL     OW20170   1.306   0.652   8.488 -0.1231 -0.4122  0.0788
 2904SOL    HW120171   1.316   0.747   8.503 -3.0399 -0.2685  1.2122
 2904SOL    HW220172   1.256   0.665   8.407 -1.4915  0.7843  1.0947
 2905SOL     OW20173   4.524   3.378   8.066  0.2204 -0.4662 -0.1100
 2905SOL    HW120174   4.576   3.397   7.988 -1.9338  1.5352 -1.0635
 2905SOL    HW220175   4.487   3.293   8.044  1.1753 -0.1985 -2.7959
 2906SOL     OW20176   2.850   4.577   0.325  1.1049  0.4106  0.3301
 2906SOL    HW120177   2.775   4.625   0.361  0.0664  1.0841 -2.7066
 2906SOL    HW220178   2.856   4.618   0.239  0.9094  0.8037  0.5011
 2907SOL     OW20179   0.480   0.690   6.128  0.5472  0.3742  0.4868
 2907SOL    HW120180   0.536   0.635   6.074  0.6542 -1.2672  2.2258
 2907SOL    HW220181   0.506   0.670   6.218  0.5794  1.8151  0.7962
 2908SOL     OW20182   3.734   2.576   1.336 -0.1973  0.0857  0.1208
 2908SOL    HW120183   3.750   2.668   1.357  1.8127  0.0250 -1.1483
 2908SOL    HW220184   3.737   2.571   1.241  0.5067  2.0454  0.0251
 2909SOL     OW20185   4.602   1.199   4.364  0.5783 -0.6258  0.3416
 2909SOL    HW120186   4.650   1.243   4.434  0.4884 -0.5135  0.3316
 2909SOL    HW220187   4.643   1.257   4.299 -3.3563  0.6018 -1.0311
 2910SOL     OW20188   0.204   1.912   4.447  0.5439 -0.2922 -0.5340
 2910SOL    HW120189   0.192   1.963   4.366 -1.2073  0.1638  0.0050
 2910SOL    HW220190   0.135   1.849   4.427  0.4743  0.2834 -2.1120
 2911SOL     OW20191   2.478   2.927   7.467 -0.0810  0.2574 -0.0051
 2911SOL    HW120192   2.410   2.988   7.437 -0.0736  0.2729  0.0100
 2911SOL    HW220193   2.531   2.904   7.390  2.0054 -1.4247  1.9359
 2912SOL     OW20194   0.177   2.873   4.047  0.0558 -0.1622 -0.3312
 2912SOL    HW120195   0.239   2.912   3.986  0.0403 -0.0873 -0.2996
 2912SOL    HW220196   0.132   2.803   3.999 -1.6403  0.5862  0.1360
 2913SOL     OW20197   4.598   0.179  10.500 -0.3113  0.4396  0.2972
 2913SOL    HW120198   4.620   0.268  10.526  2.3217 -0.3025  0.6072
 2913SOL    HW220199   4.637   0.131  10.573 -1.0517  0.1513  0.5022
 2914SOL     OW20200   2.267   2.111   5.070 -0.3045 -0.2341 -0.4289
 2914SOL    HW120201   2.275   2.078   4.981  1.7749  0.2123 -0.4075
 2914SOL    HW220202   2.322   2.189   5.066 -2.1394  0.9735 -1.9744
 2915SOL     OW20203   1.017   1.518   1.476 -0.2286  0.8164 -0.0437
 2915SOL    HW120204   1.091   1.493   1.532  0.1903  1.1964 -0.4208
 2915SOL    HW220205   0.969   1.436   1.468 -0.7549  1.0040  1.1393
 2916SOL     OW20206   1.446   0.217  14.996 -0.5166 -0.1854  0.1808
 2916SOL    HW120207   1.458   0.253  15.084  2.1781 -1.2767  0.2720
 2916SOL    HW220208   1.472   0.297  14.951  3.2578 -1.1282  0.6375
 2917SOL     OW20209   4.169   1.715   2.449  0.2514  0.5539 -0.6386
 2917SOL    HW120210   4.150   1.758   2.366 -0.6210  1.2875 -0.0661
 2917SOL    HW220211   4.246   1.766   2.475  1.0084 -1.8670  1.7882
 2918SOL     OW20212   4.008   4.171   9.085 -0.3482  0.2808  0.1417
 2918SOL    HW120213   3.917   4.146   9.099 -0.8538  2.2942  0.3818
 2918SOL    HW220214   4.023   4.124   9.003  0.6950  0.6230  0.1362
 2919SOL     OW20215   1.993   1.511  12.936  0.0279 -0.3784  0.1111
 2919SOL    HW120216   2.075   1.469  12.910  0.9905  1.0376  0.8372
 2919SOL    HW220217   1.957   1.444  12.994  0.8158 -0.9415 -0.0548
 2920SOL     OW20218   4.630   1.507   1.207 -0.0483  0.0290 -0.3615
 2920SOL    HW120219   4.674   1.565   1.269  0.2622 -0.8277  0.2276
 2920SOL    HW220220   4.539   1.531   1.226  0.3562 -0.2084  1.9374
 2921SOL     OW20221   0.241   0.662   0.856  0.0708  0.8213  0.0828
 2921SOL    HW120222   0.301   0.621   0.794  0.1116  1.2011 -0.1261
 2921SOL    HW220223   0.172   0.595   0.855  1.6302 -0.7914  0.7686
 2922SOL     OW20224   0.150   1.975   7.083  0.1741  0.8595  0.1567
 2922SOL    HW120225   0.200   2.043   7.127 -0.1999  1.0105  0.3540
 2922SOL    HW220226   0.074   2.028   7.059  0.7328  1.6769  0.1960
 2923SOL     OW20227   4.527   0.416   3.498 -1.2542 -0.1157  0.2470
 2923SOL    HW120228   4.464   0.449   3.562 -2.2734 -0.0281 -0.7913
 2923SOL    HW220229   4.559   0.347   3.556  0.3967  0.3548 -0.1039
 2924SOL     OW20230   0.447   4.028   4.531  0.4307  0.0194 -0.1079
 2924SOL    HW120231   0.359   3.991   4.537  0.8688 -0.7611  1.4242
 2924SOL    HW220232   0.448   4.014   4.436  2.2049  1.2669 -0.2785
 2925SOL     OW20233   2.424   2.622   5.170  0.3307  0.4235  0.2837
 2925SOL    HW120234   2.331   2.626   5.191  0.4474 -2.0161  1.2271
 2925SOL    HW220235   2.416   2.562   5.096 -1.4584 -0.4392  1.1777
 2926SOL     OW20236   0.788   2.226   0.546  0.1396 -0.1635  0.6465
 2926SOL    HW120237   0.850   2.240   0.617 -0.3127 -2.1677  1.4397
 2926SOL    HW220238   0.838   2.260   0.471  1.9414 -0.4848  1.7013
 2927SOL     OW20239   3.599   2.862  14.347 -0.0817  0.7457 -0.3412
 2927SOL    HW120240   3.516   2.875  14.300 -1.3133 -1.6801  1.1411
 2927SOL    HW220241   3.638   2.785  14.306  1.3437  1.3387 -0.0865
 2928SOL     OW20242   1.559   4.183   1.275 -0.2809  0.4208  0.1578
 2928SOL    HW120243   1.613   4.199   1.198  2.5342 -1.2690  1.7716
 2928SOL    HW220244   1.552   4.087   1.275  3.9532  0.1320 -0.0313
 2929SOL     OW20245   3.277   3.299  17.085 -0.1287  0.3129 -0.0764
 2929SOL    HW120246   3.209   3.239  17.054 -0.4420 -0.0335  1.2672
 2929SOL    HW220247   3.256   3.322  17.175  0.0104 -1.9862  0.5580
 2930SOL     OW20248   4.292   0.164   6.584 -0.4070 -0.1910  0.1646
 2930SOL    HW120249   4.279   0.177   6.678 -1.4807 -1.3091  0.1755
 2930SOL    HW220250   4.236   0.227   6.539 -0.2544 -0.3442 -0.2380
 2931SOL     OW20251   3.473   3.458   3.661  0.1514  0.7072  0.7966
 2931SOL    HW120252   3.466   3.550   3.635 -1.2069  0.1903 -0.6051
 2931SOL    HW220253   3.415   3.427   3.592 -3.7738 -0.3361  4.5644
 2932SOL     OW20254   0.549   0.762   4.533  0.2507  0.2820  0.3538
 2932SOL    HW120255   0.505   0.776   4.449 -0.0595 -1.0696  0.2977
 2932SOL    HW220256   0.575   0.852   4.553  0.6495  0.5023 -1.2038
 2933SOL     OW20257   2.524   3.164   4.823  0.1628  0.1308 -0.2997
 2933SOL    HW120258   2.476   3.133   4.900 -1.4534  0.7990 -1.0433
 2933SOL    HW220259   2.607   3.117   4.835 -0.5015  0.0074  3.9971
 2934SOL     OW20260   3.665   0.966   2.227 -0.9038 -0.4177 -0.5686
 2934SOL    HW120261   3.742   0.954   2.172 -1.1776 -0.2948 -0.9752
 2934SOL    HW220262   3.649   1.057   2.201 -0.7071 -0.5319 -1.0884
 2935SOL     OW20263   3.579   3.672  15.739 -0.2437 -1.0103 -0.4669
 2935SOL    HW120264   3.575   3.768  15.733 -2.2022 -1.0505  0.0857
 2935SOL    HW220265   3.497   3.650  15.783 -0.9750 -0.0085 -1.3142
 2936SOL     OW20266   1.614   4.208   5.997  0.3023  0.2037 -0.0435
 2936SOL    HW120267   1.616   4.226   5.903  2.0486 -1.0450 -0.2564
 2936SOL    HW220268   1.580   4.119   6.008  0.5857  0.2859  1.5212
 2937SOL     OW20269   1.301   2.310   4.581 -0.1322 -0.0597 -1.1462
 2937SOL    HW120270   1.205   2.304   4.580 -0.2473  1.3839  2.5214
 2937SOL    HW220271   1.330   2.230   4.537 -1.4637 -1.9329  1.3786
 2938SOL     OW20272   3.026   1.745   2.355 -0.5610 -0.0352 -0.0799
 2938SOL    HW120273   3.085   1.787   2.293  0.4098 -0.0459  0.8333
 2938SOL    HW220274   2.953   1.712   2.302 -1.5744  1.5289  0.3445
 2939SOL     OW20275   4.673   2.560  10.648  0.4907  0.2668 -0.8209
 2939SOL    HW120276   4.721   2.481  10.623  0.8160 -0.3456  1.7549
 2939SOL    HW220277   0.019   2.622  10.652 -1.5694  2.6724 -0.9205
 2940SOL     OW20278   2.362   4.565   6.794  0.0166 -0.4569  0.1100
 2940SOL    HW120279   2.384   4.477   6.826 -1.1866 -0.4237  1.0280
 2940SOL    HW220280   2.276   4.580   6.834  0.1268  1.0195 -0.2005
 2941SOL     OW20281   0.124   2.306   9.930 -0.1165 -0.0076 -0.0174
 2941SOL    HW120282   0.091   2.271   9.847 -0.7236 -2.2941  1.1688
 2941SOL    HW220283   0.091   2.241   9.992  0.5986  0.1055  0.4838
 2942SOL     OW20284   2.515   2.321   8.241 -0.1775  0.0766 -0.2113
 2942SOL    HW120285   2.525   2.358   8.328  0.9751  0.3392 -0.4662
 2942SOL    HW220286   2.516   2.396   8.183  1.1290 -0.1764 -0.5079
 2943SOL     OW20287   1.313   3.925   8.810  0.1711 -0.0380  0.3128
 2943SOL    HW120288   1.333   3.874   8.889  0.9207 -0.6741 -0.2831
 2943SOL    HW220289   1.286   4.009   8.848 -1.2847  0.0512 -0.9016
 2944SOL     OW20290   4.042   0.806  15.950 -0.0997 -0.1427  0.3261
 2944SOL    HW120291   4.013   0.892  15.919 -0.1999 -0.0308  0.7332
 2944SOL    HW220292   4.077   0.829  16.036  0.1612  0.5917  0.0221
 2945SOL     OW20293   3.508   4.405   3.274 -0.4506 -0.8246 -0.0910
 2945SOL    HW120294   3.602   4.416   3.293 -1.2669  3.2004  1.6205
 2945SOL    HW220295   3.477   4.480   3.326 -0.7704 -0.9457 -0.1112
 2946SOL     OW20296   4.418   0.179  16.015 -0.1774  0.2747  0.1414
 2946SOL    HW120297   4.485   0.246  16.007  1.1191 -1.0503 -0.1028
 2946SOL    HW220298   4.399   0.161  15.923 -1.6007 -1.2687  0.7370
 2947SOL     OW20299   1.370   2.097  13.663 -0.3030  0.8846  0.5158
 2947SOL    HW120300   1.456   2.058  13.674  0.4336  2.0748 -1.0233
 2947SOL    HW220301   1.317   2.018  13.668  2.1283 -0.7986 -0.5469
 2948SOL     OW20302   1.831   0.685  11.407  0.4057 -0.0441  0.0323
 2948SOL    HW120303   1.805   0.657  11.320  3.0287 -0.7142 -0.5337
 2948SOL    HW220304   1.922   0.657  11.415  0.5323  0.4551  0.3489
 2949SOL     OW20305   4.506   4.240   1.202 -0.2157 -0.0884  0.1139
 2949SOL    HW120306   4.422   4.211   1.238  0.8268 -2.4529  0.6535
 2949SOL    HW220307   4.534   4.161   1.155  1.3728  0.2299  0.5239
 2950SOL     OW20308   3.041   4.644   2.529 -0.2097 -0.0103 -0.0409
 2950SOL    HW120309   3.016   4.571   2.586  1.2797  0.0972  0.7433
 2950SOL    HW220310   3.039   4.594   2.448  0.7297  1.2014 -0.8006
 2951SOL     OW20311   4.270   0.215   6.838 -0.5346 -0.3171 -0.0781
 2951SOL    HW120312   4.304   0.146   6.895 -0.3174  0.8720  1.2410
 2951SOL    HW220313   4.191   0.245   6.882 -0.1270 -0.3500  0.6699
 2952SOL     OW20314   3.877   4.093   7.929  0.2835  0.1710  0.9088
 2952SOL    HW120315   3.894   4.075   7.837  0.1042  0.0370  0.9021
 2952SOL    HW220316   3.954   4.055   7.973  0.7969  0.7757  0.5440
 2953SOL     OW20317   0.575   1.497   3.779  0.9405  0.3312 -0.0015
 2953SOL    HW120318   0.576   1.593   3.782  1.0111  0.2556  2.2371
 2953SOL    HW220319   0.647   1.494   3.716  0.4741 -1.7992 -0.4265
 2954SOL     OW20320   3.569   2.535  10.791  0.6526  0.1596  0.6788
 2954SOL    HW120321   3.555   2.624  10.824 -2.1241 -0.2909  0.6846
 2954SOL    HW220322   3.565   2.487  10.873  0.2807  0.9693  1.1299
 2955SOL     OW20323   3.151   3.932  11.571  0.1043  0.1342 -0.3147
 2955SOL    HW120324   3.148   3.882  11.489  1.4873 -0.2043 -0.1659
 2955SOL    HW220325   3.224   3.994  11.562 -0.9630  1.5673  1.1236
 2956SOL     OW20326   2.318   4.150   8.954 -0.2144 -0.3275 -0.3215
 2956SOL    HW120327   2.241   4.163   9.009  0.5004 -0.7926  0.7869
 2956SOL    HW220328   2.364   4.232   8.973  0.8348 -1.0035  0.0489
 2957SOL     OW20329   4.049   2.718   5.740 -0.2108 -0.0333 -0.1947
 2957SOL    HW120330   4.010   2.689   5.822  0.3916 -0.5675 -0.0996
 2957SOL    HW220331   4.094   2.635   5.722  2.7091  1.6369 -0.6336
 2958SOL     OW20332   4.318   3.342   7.732 -0.7465  0.3754 -0.5176
 2958SOL    HW120333   4.251   3.322   7.667  1.3864 -0.1879 -2.5085
 2958SOL    HW220334   4.390   3.310   7.679  1.3531  2.2028  1.2019
 2959SOL     OW20335   2.628   0.990   4.380 -0.5199  0.3149 -0.2997
 2959SOL    HW120336   2.589   1.076   4.397  1.1983  1.0048  0.1084
 2959SOL    HW220337   2.705   1.004   4.325 -0.0123 -0.9397  0.1046
 2960SOL     OW20338   3.161   3.658   3.445 -0.5228  0.1695  0.3066
 2960SOL    HW120339   3.114   3.740   3.428  0.9178  1.2558  1.5245
 2960SOL    HW220340   3.196   3.640   3.358  1.8817  1.7858  0.9277
 2961SOL     OW20341   2.201   3.303  11.604  0.2700 -0.7030 -0.0166
 2961SOL    HW120342   2.236   3.329  11.518 -1.3322  1.7391  0.0658
 2961SOL    HW220343   2.235   3.368  11.665  0.8565 -0.3494 -0.7065
 2962SOL     OW20344   1.619   3.068  14.312  0.4390  0.1523  0.3156
 2962SOL    HW120345   1.668   3.137  14.267 -0.1234 -0.0283 -0.5746
 2962SOL    HW220346   1.532   3.093  14.279  0.6572  0.1138 -0.2876
 2963SOL     OW20347   2.795   2.244   5.837  0.2760  0.0910  0.0649
 2963SOL    HW120348   2.725   2.266   5.899 -0.9526 -1.4647 -0.7603
 2963SOL    HW220349   2.826   2.172   5.893  2.2260  1.1690  0.3756
 2964SOL     OW20350   3.655   1.232   0.977  0.5954 -0.2255 -0.1149
 2964SOL    HW120351   3.632   1.323   0.961 -0.6147 -0.3636  0.8423
 2964SOL    HW220352   3.593   1.206   1.045 -0.0883  1.7466  0.0013
 2965SOL     OW20353   2.994   2.106   0.903 -0.1339  0.2426  0.1643
 2965SOL    HW120354   2.981   2.178   0.842  0.1769  0.1492 -0.0095
 2965SOL    HW220355   2.915   2.113   0.958  0.2534 -1.8438  0.9909
 2966SOL     OW20356   1.645   0.806  13.567  0.6298 -0.2164 -0.4488
 2966SOL    HW120357   1.721   0.763  13.606  0.7258  0.5048  0.1560
 2966SOL    HW220358   1.690   0.839  13.489  1.2607  0.7771  0.3456
 2967SOL     OW20359   3.418   2.082   8.400 -0.2593  0.2032 -0.3713
 2967SOL    HW120360   3.323   2.069   8.403 -0.0828 -0.5939  1.5397
 2967SOL    HW220361   3.442   1.994   8.371  1.8672  0.0443  1.8718
 2968SOL     OW20362   3.197   0.591   3.158 -0.4342 -0.1841  0.2682
 2968SOL    HW120363   3.155   0.599   3.072  1.2520  0.4226 -0.5094
 2968SOL    HW220364   3.255   0.667   3.154 -0.0631 -0.7218 -4.0537
 2969SOL     OW20365   2.277   2.162   3.603 -0.5640  0.0966  0.8297
 2969SOL    HW120366   2.355   2.201   3.643  2.3226 -1.1542 -3.5641
 2969SOL    HW220367   2.285   2.072   3.633  3.1587  0.4399  0.9502
 2970SOL     OW20368   1.374   2.601  15.079  0.3465 -0.3444 -0.7832
 2970SOL    HW120369   1.431   2.651  15.021  0.0501  3.0138  1.7703
 2970SOL    HW220370   1.343   2.672  15.136 -0.1564 -0.9066 -0.3551
 2971SOL     OW20371   0.109   1.886   0.700 -0.6374  0.2129 -0.4898
 2971SOL    HW120372   0.143   1.904   0.612 -1.6925  1.0974 -0.7006
 2971SOL    HW220373   0.188   1.866   0.751 -1.7010  2.0425  1.8353
 2972SOL     OW20374   1.591   2.287   2.769 -0.0973 -0.3555 -0.1818
 2972SOL    HW120375   1.645   2.286   2.690 -0.5950 -0.2668 -0.5245
 2972SOL    HW220376   1.525   2.352   2.743  0.0938  0.9238  2.5430
 2973SOL     OW20377   3.827   3.353   9.545  0.1535 -0.2701  0.1434
 2973SOL    HW120378   3.828   3.262   9.515  0.3359  0.8966 -3.4254
 2973SOL    HW220379   3.755   3.345   9.607 -0.3482 -1.8573 -0.6298
 2974SOL     OW20380   4.478   0.741   7.899  0.7277 -0.4952  0.2458
 2974SOL    HW120381   4.556   0.791   7.925  0.8929  0.5318 -2.2258
 2974SOL    HW220382   4.519   0.679   7.839  0.5751 -0.5990  0.2515
 2975SOL     OW20383   3.343   2.906   8.830 -0.0786  0.4535 -0.0715
 2975SOL    HW120384   3.411   2.964   8.796 -0.0791  1.9381  2.4082
 2975SOL    HW220385   3.326   2.943   8.917 -0.0731 -0.3977  0.2928
 2976SOL     OW20386   0.030   1.887   2.434 -0.2718  0.1203 -0.1984
 2976SOL    HW120387   0.098   1.891   2.366  1.5560 -0.2251  1.6021
 2976SOL    HW220388   4.683   1.911   2.377  2.5173 -0.3951 -3.9965
 2977SOL     OW20389   2.344   3.204   9.282 -0.2753  0.3603 -0.0803
 2977SOL    HW120390   2.282   3.171   9.217  0.7646  0.6835 -1.2336
 2977SOL    HW220391   2.289   3.224   9.357 -0.3978 -1.2117  0.2632
 2978SOL     OW20392   2.079   2.974  16.035  0.2287 -0.2347 -0.2026
 2978SOL    HW120393   2.039   2.888  16.049  2.2032 -0.7244  2.4201
 2978SOL    HW220394   2.131   2.966  15.955 -0.3016  0.9154 -0.6631
 2979SOL     OW20395   4.215   3.167   6.142 -0.8890  0.2509  0.0681
 2979SOL    HW120396   4.222   3.079   6.180 -2.2530  0.0145 -0.2131
 2979SOL    HW220397   4.137   3.153   6.088 -0.6864  0.4069 -0.2612
 2980SOL     OW20398   2.296   3.625   6.918  0.1546  0.3171  0.6571
 2980SOL    HW120399   2.206   3.629   6.952 -0.3270 -0.3890 -0.5242
 2980SOL    HW220400   2.289   3.681   6.841 -3.5913 -0.7968  0.1710
 2981SOL     OW20401   1.379   2.048   7.551 -0.5898  0.3254  0.3001
 2981SOL    HW120402   1.470   2.073   7.569 -0.4609 -0.7010  1.0947
 2981SOL    HW220403   1.342   2.053   7.640  1.2156  1.7854  0.9506
 2982SOL     OW20404   2.701   3.654   3.628  0.4304  0.0090  0.3169
 2982SOL    HW120405   2.771   3.674   3.566 -2.2238 -1.0206 -2.9872
 2982SOL    HW220406   2.752   3.670   3.708 -0.0897 -0.0015  0.6536
 2983SOL     OW20407   3.555   0.197   2.515 -0.4872 -0.7082 -0.2293
 2983SOL    HW120408   3.529   0.286   2.538  1.2159 -0.1386 -0.5635
 2983SOL    HW220409   3.515   0.184   2.429  1.2425 -0.2722 -1.1010
 2984SOL     OW20410   1.929   2.652   3.988 -0.1239  0.2293  0.4177
 2984SOL    HW120411   1.932   2.689   4.076  0.6144  0.3279  0.3518
 2984SOL    HW220412   1.935   2.728   3.930  0.4160 -0.4661 -0.4401
 2985SOL     OW20413   4.630   4.329  10.848 -0.3806 -0.4251 -0.1538
 2985SOL    HW120414   4.601   4.417  10.824  1.9241  0.8901  1.9003
 2985SOL    HW220415   4.622   4.326  10.943 -0.7551  0.2792 -0.1617
 2986SOL     OW20416   0.817   0.411   3.230  0.1601  0.4281  0.0834
 2986SOL    HW120417   0.769   0.487   3.264 -3.7587 -2.2973  0.7667
 2986SOL    HW220418   0.903   0.451   3.217 -1.3072  2.7943 -2.2791
 2987SOL     OW20419   2.222   0.453  17.198  0.1161  0.4467  0.4721
 2987SOL    HW120420   2.182   0.416  17.277  0.7651 -1.8740 -0.2942
 2987SOL    HW220421   2.313   0.424  17.197 -0.1521 -0.3656  0.1953
 2988SOL     OW20422   1.648   4.713   2.708  0.4569 -0.1689 -0.6524
 2988SOL    HW120423   1.694   0.054   2.759  1.7306  0.6885 -2.8915
 2988SOL    HW220424   1.568   0.038   2.694  0.3965  0.1667  0.9752
 2989SOL     OW20425   2.224   2.403  17.135  0.6194  0.0530 -0.0022
 2989SOL    HW120426   2.237   2.466  17.064  0.6571  2.5864  2.2768
 2989SOL    HW220427   2.309   2.423  17.172  0.7370  0.8931 -0.7142
 2990SOL     OW20428   2.234   4.302   6.367  0.7900 -0.2274 -0.6831
 2990SOL    HW120429   2.173   4.371   6.393  1.7276  0.0135  0.8588
 2990SOL    HW220430   2.173   4.229   6.370 -0.0113  0.4484 -0.3795
 2991SOL     OW20431   0.663   0.122   8.082  0.3885 -0.5277 -0.4321
 2991SOL    HW120432   0.653   0.035   8.044  2.2165 -0.2794 -1.4956
 2991SOL    HW220433   0.685   0.094   8.171 -0.6367  1.3331  0.3897
 2992SOL     OW20434   3.240   0.673   6.282  0.3023 -0.2925  0.0850
 2992SOL    HW120435   3.221   0.614   6.208 -2.0533  0.5684  0.0112
 2992SOL    HW220436   3.335   0.681   6.273  0.3023  0.7505  1.0994
 2993SOL     OW20437   0.053   1.926  16.266 -0.2307  0.4997 -0.3191
 2993SOL    HW120438   0.114   1.978  16.319  1.2563 -0.8686 -0.6716
 2993SOL    HW220439   0.003   1.887  16.337  3.3159 -1.3052  1.2101
 2994SOL     OW20440   4.047   4.545  14.284  0.3728  0.2618 -0.2376
 2994SOL    HW120441   4.023   4.604  14.355  1.2052  0.2471  0.0580
 2994SOL    HW220442   4.143   4.552  14.283  0.4085 -0.4762 -3.0196
 2995SOL     OW20443   1.427   2.402  15.260  0.1885 -0.5171 -0.0936
 2995SOL    HW120444   1.388   2.463  15.322  1.6808  0.4556 -0.1240
 2995SOL    HW220445   1.411   2.451  15.180  1.7700 -0.7372 -0.5403
 2996SOL     OW20446   0.340   2.730   7.658  0.0394 -0.1713 -0.5517
 2996SOL    HW120447   0.416   2.765   7.705 -0.5134 -1.0738  0.9801
 2996SOL    HW220448   0.387   2.675   7.595 -1.0649 -1.0845 -0.5697
 2997SOL     OW20449   3.859   1.638   1.970  0.2189 -0.0947  0.5907
 2997SOL    HW120450   3.782   1.595   1.932  0.0636  1.7458 -1.1940
 2997SOL    HW220451   3.843   1.722   1.928 -0.8163 -1.1602 -1.1564
 2998SOL     OW20452   1.733   2.309  10.779 -0.0642 -0.1775  0.5159
 2998SOL    HW120453   1.696   2.278  10.696 -2.1395  1.5664  0.7966
 2998SOL    HW220454   1.690   2.393  10.794  0.6481  0.2463  0.1965
 2999SOL     OW20455   0.666   4.385   5.058  0.0629 -0.1233  0.4466
 2999SOL    HW120456   0.633   4.312   5.109 -1.1339  0.5435  0.6180
 2999SOL    HW220457   0.683   4.458   5.118  0.8450 -0.2142  0.3418
 3000SOL     OW20458   1.432   3.157   3.056  0.3274 -0.6300  0.3878
 3000SOL    HW120459   1.427   3.171   2.962  0.3839 -0.6499  0.3821
 3000SOL    HW220460   1.489   3.230   3.077  0.6057 -1.1015  1.2804
 3001SOL     OW20461   3.573   1.712   5.198  0.4449 -0.7361  0.1286
 3001SOL    HW120462   3.496   1.661   5.177 -0.8534  1.5343 -0.5868
 3001SOL    HW220463   3.535   1.792   5.235  2.6041  0.2496  0.2251
 3002SOL     OW20464   3.351   1.895  15.473  0.0748 -0.3721  0.4324
 3002SOL    HW120465   3.413   1.910  15.544 -1.5483  0.9083  1.5846
 3002SOL    HW220466   3.399   1.829  15.424  3.4231  2.1562  0.2839
 3003SOL     OW20467   0.469   4.526   2.397  0.0190 -0.3348  0.0390
 3003SOL    HW120468   0.393   4.533   2.340  0.5542 -0.8894 -0.7566
 3003SOL    HW220469   0.505   4.445   2.361  2.8631  1.5430 -1.3448
 3004SOL     OW20470   2.978   3.342   6.743 -0.6548 -0.2975  0.3046
 3004SOL    HW120471   2.936   3.304   6.665 -0.2414  1.1357 -0.6203
 3004SOL    HW220472   2.989   3.431   6.710  0.3940 -0.5100  0.0561
 3005SOL     OW20473   3.200   1.548   2.463 -0.2786  0.5207  0.4740
 3005SOL    HW120474   3.152   1.465   2.464  3.4368 -1.5860  1.8275
 3005SOL    HW220475   3.142   1.607   2.415  0.4460 -0.8800 -2.1024
 3006SOL     OW20476   2.918   3.399  12.974 -0.1830  0.0283 -0.0062
 3006SOL    HW120477   3.013   3.412  12.978 -0.5675  2.9524 -0.7892
 3006SOL    HW220478   2.901   3.475  12.919 -0.7301  0.3993  0.6809
 3007SOL     OW20479   3.396   1.778   6.132 -0.0176 -0.1560  0.2272
 3007SOL    HW120480   3.384   1.860   6.179 -2.1095 -0.3178 -0.0217
 3007SOL    HW220481   3.323   1.720   6.156 -0.7866 -0.0373 -1.8310
 3008SOL     OW20482   3.410   1.451   4.773  0.6875 -1.0950  0.1972
 3008SOL    HW120483   3.346   1.439   4.843 -0.5478  1.6220 -0.4621
 3008SOL    HW220484   3.466   1.513   4.818  1.0501 -0.3397 -1.3007
 3009SOL     OW20485   1.298   2.856   5.370  0.3785  0.5328 -0.2705
 3009SOL    HW120486   1.278   2.938   5.415  2.4003  1.3479 -0.8420
 3009SOL    HW220487   1.320   2.799   5.444  0.5328  0.3027 -0.4935
 3010SOL     OW20488   1.286   0.746  12.428  0.0379 -0.1341 -0.1962
 3010SOL    HW120489   1.370   0.728  12.385 -1.2279 -0.1659 -2.6511
 3010SOL    HW220490   1.243   0.782  12.350  0.1522  2.4671  0.9466
 3011SOL     OW20491   4.566   2.468   6.376 -0.5615 -0.2464 -0.1177
 3011SOL    HW120492   4.638   2.414   6.343  1.3917  0.7052  2.5648
 3011SOL    HW220493   4.511   2.411   6.429  0.2777 -0.5634  0.4057
 3012SOL     OW20494   2.376   4.472   0.841  0.4370  0.1870  0.0972
 3012SOL    HW120495   2.318   4.399   0.820  1.4672 -0.4251 -0.5990
 3012SOL    HW220496   2.423   4.483   0.758 -1.9632  1.7882 -1.0246
 3013SOL     OW20497   3.136   2.167  14.661  0.0381 -0.1159 -0.0185
 3013SOL    HW120498   3.084   2.130  14.590  0.1407 -1.5942  0.6724
 3013SOL    HW220499   3.060   2.167  14.720 -0.1605 -0.3328 -0.2757
 3014SOL     OW20500   3.920   0.998   2.077 -0.1220  0.3575  0.3065
 3014SOL    HW120501   3.871   1.038   2.005  0.7926  0.9020 -0.0112
 3014SOL    HW220502   4.005   0.977   2.039 -0.2724  0.2145  0.0475
 3015SOL     OW20503   2.337   3.098  17.526  0.5343  0.3696 -0.2538
 3015SOL    HW120504   2.371   3.099  17.615 -0.7503  0.6166  0.2226
 3015SOL    HW220505   2.279   3.174  17.531 -1.4116 -1.1625  0.2596
 3016SOL     OW20506   3.713   2.365  11.864 -0.5350  0.4675 -0.0166
 3016SOL    HW120507   3.626   2.325  11.867 -0.6749  0.7763  0.0692
 3016SOL    HW220508   3.727   2.384  11.957  1.8700  0.7734 -0.4378
 3017SOL     OW20509   1.055   2.025  13.510 -0.1629 -0.0109 -0.4224
 3017SOL    HW120510   1.095   2.035  13.424  1.4584  2.2114  0.5871
 3017SOL    HW220511   1.111   1.961  13.555  0.0627  1.3149  1.1655
 3018SOL     OW20512   1.254   0.465  12.693  0.3897  0.1114 -0.3982
 3018SOL    HW120513   1.281   0.385  12.649 -1.2886  0.1998 -1.5882
 3018SOL    HW220514   1.220   0.511  12.617  2.2766  1.4687 -0.4298
 3019SOL     OW20515   3.731   2.794   5.541 -0.4244 -0.1686  0.2713
 3019SOL    HW120516   3.723   2.856   5.467  2.1570 -0.2988 -0.1025
 3019SOL    HW220517   3.722   2.707   5.502  0.9291  0.2227 -0.9017
 3020SOL     OW20518   3.594   3.207   8.228 -0.3531  0.0626 -0.7167
 3020SOL    HW120519   3.604   3.143   8.298  1.7201  1.2462  0.0845
 3020SOL    HW220520   3.524   3.265   8.258 -0.0719 -0.4836  0.9897
 3021SOL     OW20521   2.793   0.534   2.720 -0.0294 -0.0888  0.4678
 3021SOL    HW120522   2.715   0.479   2.728  0.1799 -0.3303  0.8488
 3021SOL    HW220523   2.809   0.528   2.626  0.6670  1.8463  0.4600
 3022SOL     OW20524   1.097   0.114   0.271  0.2049  0.0569  0.0516
 3022SOL    HW120525   1.134   0.162   0.345  0.0170  1.0395 -0.4863
 3022SOL    HW220526   1.172   0.074   0.228 -0.1550  1.7851 -2.1795
 3023SOL     OW20527   3.980   3.153   4.933 -0.3223 -0.3405 -0.0611
 3023SOL    HW120528   4.074   3.151   4.912 -0.1461  1.3230  0.5418
 3023SOL    HW220529   3.933   3.170   4.852 -0.6807  0.6970  0.3649
 3024SOL     OW20530   1.046   2.859   7.312  0.3453 -0.4683  0.2954
 3024SOL    HW120531   0.972   2.811   7.350  0.7834  1.9783  4.2084
 3024SOL    HW220532   0.998   2.910   7.247 -0.1401  1.3019  2.0217
 3025SOL     OW20533   0.112   3.431   3.162  0.2710 -0.8835  0.9526
 3025SOL    HW120534   0.075   3.368   3.223 -0.5408  0.0130  1.3850
 3025SOL    HW220535   0.074   3.403   3.078 -1.0202 -2.7292  2.1654
 3026SOL     OW20536   0.875   0.649  15.679  0.0602 -0.4607 -0.0086
 3026SOL    HW120537   0.826   0.612  15.752 -1.8695  0.5067 -0.8174
 3026SOL    HW220538   0.820   0.724  15.655 -0.4586 -1.4728 -2.0141
 3027SOL     OW20539   3.728   1.987   9.276  0.7054 -0.0461  0.3164
 3027SOL    HW120540   3.635   2.002   9.294 -0.0124 -0.1217 -3.1475
 3027SOL    HW220541   3.773   2.011   9.356  0.3436  0.3562  0.4001
 3028SOL     OW20542   0.386   2.183   1.593  0.2171 -0.0288  0.0677
 3028SOL    HW120543   0.400   2.116   1.527 -0.9261 -0.1424 -0.0545
 3028SOL    HW220544   0.314   2.139   1.639  0.0967  0.6872  0.5643
 3029SOL     OW20545   0.337   0.726   5.099 -0.1384  0.3958  0.0531
 3029SOL    HW120546   0.329   0.706   5.193 -1.0584 -0.1611 -0.1388
 3029SOL    HW220547   0.294   0.811   5.091 -0.1428  0.5396  1.5403
 3030SOL     OW20548   2.035   3.573   2.996  0.2300  0.0992 -0.2126
 3030SOL    HW120549   2.019   3.647   2.937  2.2420 -1.0517 -2.2313
 3030SOL    HW220550   1.967   3.515   2.960 -0.8929  1.6273 -0.5639
 3031SOL     OW20551   2.198   3.590   9.365  1.2581  0.1632 -0.5144
 3031SOL    HW120552   2.164   3.568   9.452 -0.1578  0.6443 -0.9332
 3031SOL    HW220553   2.280   3.623   9.401  1.4627 -2.8675  1.8027
 3032SOL     OW20554   4.074   1.926   6.580  0.5770  0.0897 -0.0395
 3032SOL    HW120555   4.084   1.971   6.664  0.5230 -0.3664  0.2111
 3032SOL    HW220556   3.983   1.951   6.569  0.6060  0.6337  0.9367
 3033SOL     OW20557   1.271   0.418   4.263 -0.0599  0.4748 -0.5096
 3033SOL    HW120558   1.187   0.463   4.261 -0.0372  0.5873  0.7457
 3033SOL    HW220559   1.320   0.474   4.324 -0.7449  0.8944 -0.3518
 3034SOL     OW20560   0.584   0.628   7.109  0.0740  0.3793  0.9027
 3034SOL    HW120561   0.601   0.669   7.024 -0.5246 -0.8872  0.1614
 3034SOL    HW220562   0.529   0.698   7.144 -0.4566 -0.0926  1.0190
 3035SOL     OW20563   0.376   1.135   1.415  0.3048  0.4375  0.1621
 3035SOL    HW120564   0.420   1.184   1.345 -0.3887 -0.9076 -1.2120
 3035SOL    HW220565   0.379   1.050   1.370 -1.9109  1.6176 -2.1853
 3036SOL     OW20566   4.605   0.559   0.254 -0.6849 -0.3915 -0.2098
 3036SOL    HW120567   4.652   0.530   0.175 -1.2747  0.5699 -0.9219
 3036SOL    HW220568   4.673   0.566   0.322  0.3622  0.0638 -1.2942
 3037SOL     OW20569   3.318   4.213  11.976  0.0867  0.4656  0.7857
 3037SOL    HW120570   3.226   4.187  11.982  0.0865 -0.1003 -1.4452
 3037SOL    HW220571   3.309   4.308  11.971  1.9618  0.5877 -0.3731
 3038SOL     OW20572   1.031   4.211   2.911 -0.0824 -0.0108  0.0797
 3038SOL    HW120573   0.961   4.196   2.975 -1.4603 -1.9686 -1.8678
 3038SOL    HW220574   1.084   4.131   2.918 -2.3947 -1.7174 -1.8079
 3039SOL     OW20575   0.682   3.350   8.718 -0.1626  0.3019 -0.1631
 3039SOL    HW120576   0.625   3.368   8.793 -0.6816 -1.0888 -0.2418
 3039SOL    HW220577   0.641   3.274   8.677 -1.6430  1.8479 -1.5301
 3040SOL     OW20578   3.322   0.996   5.741 -0.8472  0.2810  0.0112
 3040SOL    HW120579   3.360   1.019   5.656  0.6804 -1.1073  0.3261
 3040SOL    HW220580   3.382   1.042   5.799  0.0620  1.6421 -2.0073
 3041SOL     OW20581   3.484   1.521   8.095 -0.2876 -0.5020  0.1390
 3041SOL    HW120582   3.574   1.541   8.072 -0.7265 -0.9676 -1.9742
 3041SOL    HW220583   3.499   1.507   8.189  0.6227  4.5754  0.7269
 3042SOL     OW20584   0.361   2.437   8.303 -0.2982  0.5100  0.3001
 3042SOL    HW120585   0.303   2.379   8.254 -0.1039  0.9428 -0.4421
 3042SOL    HW220586   0.302   2.462   8.375  0.5986 -1.2029  1.6218
 3043SOL     OW20587   3.243   2.530   0.065  0.3429  0.3128 -0.4370
 3043SOL    HW120588   3.229   2.540  17.677 -0.1189 -0.7625 -0.4928
 3043SOL    HW220589   3.327   2.486   0.078  0.3040  0.2529 -0.3842
 3044SOL     OW20590   4.237   4.450   0.276 -0.1807  0.3407 -0.5312
 3044SOL    HW120591   4.297   4.524   0.267 -0.1179  0.2554 -0.8336
 3044SOL    HW220592   4.291   4.416   0.347  0.0313 -1.1826 -1.4335
 3045SOL     OW20593   4.501   0.075   4.496  0.8511  0.4418 -0.1636
 3045SOL    HW120594   4.427   0.059   4.554  1.3037  0.3035  0.3756
 3045SOL    HW220595   4.571   0.087   4.560  2.3120 -0.9972 -1.4792
 3046SOL     OW20596   0.355   1.668   6.151 -0.2159  0.4479 -0.3491
 3046SOL    HW120597   0.261   1.666   6.168 -0.8192 -0.2508 -3.6270
 3046SOL    HW220598   0.373   1.746   6.203 -1.7377  0.5976 -0.0279
 3047SOL     OW20599   0.585   4.538   8.557  0.3013 -0.6846  0.3035
 3047SOL    HW120600   0.547   4.595   8.625 -2.3673  0.8262 -2.4512
 3047SOL    HW220601   0.668   4.504   8.590  1.3254 -1.2069 -2.8852
 3048SOL     OW20602   2.669   4.100  14.728 -0.0340 -0.0350 -0.1550
 3048SOL    HW120603   2.743   4.103  14.667 -0.2634  0.9479 -0.3902
 3048SOL    HW220604   2.602   4.115  14.662 -2.0176 -1.6831  1.4992
 3049SOL     OW20605   4.624   2.824   2.217  0.7407 -0.0570  0.0072
 3049SOL    HW120606   4.684   2.833   2.143  3.9464  2.2262  2.8551
 3049SOL    HW220607   4.536   2.820   2.179 -0.1288  0.9700  1.8635
 3050SOL     OW20608   2.080   1.557  12.274  0.4140 -0.0353  0.3202
 3050SOL    HW120609   2.025   1.536  12.349  2.4160 -3.2469  0.9067
 3050SOL    HW220610   2.122   1.473  12.258  0.4598  0.3356 -1.4770
 3051SOL     OW20611   3.618   2.095   3.248  0.3390 -0.8836  0.0835
 3051SOL    HW120612   3.647   2.181   3.217 -1.6612  0.2220  1.3085
 3051SOL    HW220613   3.529   2.087   3.215  0.0841  1.7487  0.1921
 3052SOL     OW20614   2.070   2.895   2.680 -0.3870 -0.0679 -0.3019
 3052SOL    HW120615   2.027   2.810   2.682  0.3648 -0.4416 -0.3764
 3052SOL    HW220616   2.074   2.910   2.774 -1.3340  1.8678 -0.5499
 3053SOL     OW20617   2.455   1.221   3.487  0.1328 -0.6315 -0.3283
 3053SOL    HW120618   2.470   1.164   3.411 -0.9562 -1.2118 -0.1106
 3053SOL    HW220619   2.394   1.290   3.461  0.7798 -0.4253 -1.2873
 3054SOL     OW20620   2.628   2.703   0.588 -0.4516  0.1752 -0.5539
 3054SOL    HW120621   2.674   2.628   0.549  0.9559  0.0346  1.3544
 3054SOL    HW220622   2.691   2.775   0.579  0.3803 -0.8212 -2.6751
 3055SOL     OW20623   0.763   3.613   2.254 -0.1842 -0.3101 -0.0800
 3055SOL    HW120624   0.695   3.578   2.312 -1.6668  2.4358 -0.1930
 3055SOL    HW220625   0.712   3.612   2.173 -1.6930 -1.5506  0.8898
 3056SOL     OW20626   4.310   3.823   8.835  0.5224 -0.1648 -0.0175
 3056SOL    HW120627   4.337   3.732   8.830  0.6340 -0.1642  0.6083
 3056SOL    HW220628   4.390   3.873   8.853  0.2936  0.5270 -0.8911
 3057SOL     OW20629   1.582   0.991   5.604  0.1642 -0.5735 -0.3440
 3057SOL    HW120630   1.609   0.977   5.695 -1.5166 -3.2492 -0.2660
 3057SOL    HW220631   1.635   0.918   5.573  0.3120 -0.9423  0.7702
 3058SOL     OW20632   2.418   2.475  14.881 -0.3377 -0.2501  0.6626
 3058SOL    HW120633   2.449   2.395  14.839  0.7782  0.1583  0.7075
 3058SOL    HW220634   2.323   2.459  14.877 -0.2925 -0.2728 -0.4244
 3059SOL     OW20635   1.043   2.145  17.355  0.2207  0.5780  0.4269
 3059SOL    HW120636   1.092   2.106  17.282 -1.8664 -2.1828  0.5131
 3059SOL    HW220637   1.107   2.216  17.365  0.9618 -0.0492  0.1123
 3060SOL     OW20638   2.420   0.755   2.754  0.0812  0.1902 -0.0954
 3060SOL    HW120639   2.333   0.713   2.759 -0.7153  2.1105  2.0445
 3060SOL    HW220640   2.400   0.845   2.781 -2.9949  0.0375 -1.8135
 3061SOL     OW20641   2.272   4.354   1.335 -0.0917  0.3402 -0.0243
 3061SOL    HW120642   2.264   4.401   1.252 -0.6932  0.2272 -0.0310
 3061SOL    HW220643   2.357   4.317   1.311  0.7920  1.0901  1.9041
 3062SOL     OW20644   4.396   2.954   5.340 -0.2327  0.8836  0.3113
 3062SOL    HW120645   4.385   2.868   5.378  1.0456  0.8895  0.7179
 3062SOL    HW220646   4.332   3.007   5.388 -1.2165  0.0444 -0.0896
 3063SOL     OW20647   2.453   1.832   5.925  0.0190  0.5798  0.1490
 3063SOL    HW120648   2.458   1.912   5.978 -0.5762 -0.6383  2.0325
 3063SOL    HW220649   2.359   1.837   5.907  0.2617  1.4683 -0.8717
 3064SOL     OW20650   1.296   3.070   5.532  0.1907  0.4094  0.0413
 3064SOL    HW120651   1.223   3.111   5.579 -0.3014 -1.7048  1.1246
 3064SOL    HW220652   1.347   3.046   5.609 -0.0066  0.1972  0.1060
 3065SOL     OW20653   0.336   2.514   4.701  0.0694 -0.3322 -0.2917
 3065SOL    HW120654   0.322   2.588   4.759  0.6815 -0.2644 -0.2307
 3065SOL    HW220655   0.305   2.553   4.619 -0.9950 -0.9041 -0.1552
 3066SOL     OW20656   1.631   1.313   3.577 -0.4715  0.4375  0.3174
 3066SOL    HW120657   1.561   1.267   3.531 -0.6965 -0.6840  1.7633
 3066SOL    HW220658   1.701   1.249   3.562 -0.8347  0.0286  0.3376
 3067SOL     OW20659   1.744   2.962   2.133  0.6241 -0.3050  0.0881
 3067SOL    HW120660   1.779   2.897   2.194 -0.3305 -1.2405 -0.3599
 3067SOL    HW220661   1.810   2.969   2.065  0.6543  0.8879  0.2309
 3068SOL     OW20662   1.320   1.616   0.379 -0.0817 -0.5234  0.1713
 3068SOL    HW120663   1.411   1.605   0.351 -0.4151  1.0005 -1.4859
 3068SOL    HW220664   1.342   1.638   0.470 -0.0686 -0.9180  0.2642
 3069SOL     OW20665   4.667   3.619   5.749  0.4292  0.1705  0.5182
 3069SOL    HW120666   4.602   3.675   5.707  0.6037 -1.3328 -1.7333
 3069SOL    HW220667   4.615   3.540   5.764 -1.2361  0.9876 -0.9872
 3070SOL     OW20668   4.220   0.115   0.031 -0.0255  0.0441 -0.6712
 3070SOL    HW120669   4.291   0.102   0.094 -0.0175 -0.6679 -0.8277
 3070SOL    HW220670   4.244   0.205   0.009 -0.5828  0.1062 -1.0266
 3071SOL     OW20671   0.868   1.728  16.074  0.4146  0.7823  0.1594
 3071SOL    HW120672   0.828   1.727  15.987 -0.0512 -1.4664  0.4124
 3071SOL    HW220673   0.893   1.821  16.069  1.1758  0.6243  0.9276
 3072SOL     OW20674   0.662   1.145   3.662 -0.0422  0.5650 -0.5365
 3072SOL    HW120675   0.732   1.203   3.694 -1.2846  1.0418  1.3658
 3072SOL    HW220676   0.606   1.207   3.616 -2.4426 -2.2760 -1.4594
 3073SOL     OW20677   3.864   2.914   5.736 -0.3999 -0.8550  0.2224
 3073SOL    HW120678   3.923   2.841   5.753  1.2295  0.5246  0.4718
 3073SOL    HW220679   3.811   2.872   5.668  1.1465  0.3060 -1.6645
 3074SOL     OW20680   1.555   3.488   2.329  0.1522  0.2899  0.3168
 3074SOL    HW120681   1.495   3.482   2.255  0.5616 -1.1138  0.0915
 3074SOL    HW220682   1.558   3.396   2.355  2.9871  0.2417 -0.1851
 3075SOL     OW20683   3.230   2.707   9.050  0.1518 -0.0277  0.2537
 3075SOL    HW120684   3.290   2.635   9.031 -1.5082 -1.3926  0.1029
 3075SOL    HW220685   3.173   2.698   8.974 -1.3033 -0.5774  1.3912
 3076SOL     OW20686   2.620   1.139  12.528  1.0094  0.4040 -0.2220
 3076SOL    HW120687   2.584   1.050  12.529  1.5086  0.1988 -0.2204
 3076SOL    HW220688   2.661   1.148  12.614  2.7274  0.5344 -1.0400
 3077SOL     OW20689   4.691   3.730   2.895 -0.1159 -0.0920 -0.2418
 3077SOL    HW120690   4.657   3.760   2.811 -0.4355  0.4079  0.0651
 3077SOL    HW220691   0.029   3.679   2.846 -0.7492  1.9569 -3.2446
 3078SOL     OW20692   2.637   1.420   9.663 -0.0231  0.6726  0.5054
 3078SOL    HW120693   2.716   1.420   9.717 -1.0534  2.0598  1.9979
 3078SOL    HW220694   2.690   1.423   9.583 -0.7554 -2.1625 -0.0675
 3079SOL     OW20695   2.505   3.732  17.456 -0.7271 -0.1297 -0.6148
 3079SOL    HW120696   2.450   3.654  17.460 -1.4624  0.3855 -0.8119
 3079SOL    HW220697   2.578   3.699  17.402 -2.5567 -0.1492 -3.0882
 3080SOL     OW20698   0.008   0.744   7.616  0.6178  0.1695 -0.3312
 3080SOL    HW120699   4.707   0.663   7.660 -2.3521  0.7300 -1.0970
 3080SOL    HW220700   0.003   0.806   7.688  2.7021 -0.1158  0.0533
 3081SOL     OW20701   1.813   1.672   8.547  0.2237 -0.0160  0.1292
 3081SOL    HW120702   1.743   1.643   8.606 -0.4969  2.6423  0.5876
 3081SOL    HW220703   1.797   1.766   8.552  0.4697 -0.0210  1.0716
 3082SOL     OW20704   1.875   3.125  12.662  0.1296  0.6642  0.1168
 3082SOL    HW120705   1.853   3.188  12.593 -1.0374 -2.2257 -2.1633
 3082SOL    HW220706   1.846   3.040  12.630  1.1451 -0.2487  1.6090
 3083SOL     OW20707   3.054   1.785   8.845 -0.8199  0.0393 -0.2703
 3083SOL    HW120708   2.993   1.729   8.893 -0.0089 -0.7328 -0.1515
 3083SOL    HW220709   2.999   1.849   8.800  1.5092  1.6532 -0.7712
 3084SOL     OW20710   2.836   3.425   3.343  0.2423  0.0857  0.4033
 3084SOL    HW120711   2.831   3.507   3.392 -1.1191  0.5260 -0.5008
 3084SOL    HW220712   2.832   3.465   3.256 -1.7648 -2.6016 -0.7357
 3085SOL     OW20713   1.058   2.657   8.391  0.3065  0.1279  0.0130
 3085SOL    HW120714   1.072   2.744   8.354  0.1944  0.5962  1.0700
 3085SOL    HW220715   1.001   2.677   8.465 -0.6997 -2.5228 -0.0169
 3086SOL     OW20716   1.398   1.058   8.258  0.4370 -0.2526 -0.5503
 3086SOL    HW120717   1.363   1.068   8.169  0.9851  0.1417 -0.7216
 3086SOL    HW220718   1.485   1.088   8.232 -0.5566  1.1740 -2.2779
 3087SOL     OW20719   4.014   4.462   9.936 -0.2393 -0.3037  0.1059
 3087SOL    HW120720   4.080   4.514   9.983  1.2392 -3.8314  1.9644
 3087SOL    HW220721   3.954   4.528   9.903  0.4124  0.5640  0.6348
 3088SOL     OW20722   1.341   3.091  10.968 -0.3765  0.3222  0.0407
 3088SOL    HW120723   1.265   3.041  10.999 -0.3987  0.1298 -0.3175
 3088SOL    HW220724   1.293   3.173  10.958  0.1957  0.7319  0.6974
 3089SOL     OW20725   1.743   3.748  11.107 -0.2198 -0.7929  0.1589
 3089SOL    HW120726   1.755   3.671  11.052  1.1985 -0.9466  0.6724
 3089SOL    HW220727   1.733   3.708  11.193 -0.1855 -0.2063  0.4381
 3090SOL     OW20728   0.606   1.832   8.459 -0.9778  0.3858  0.4140
 3090SOL    HW120729   0.626   1.756   8.404  0.9960  2.2710 -1.5221
 3090SOL    HW220730   0.675   1.803   8.519 -0.3459 -1.4612 -1.2139
 3091SOL     OW20731   2.130   0.159  14.954 -0.0614 -0.4402  0.1196
 3091SOL    HW120732   2.056   0.178  15.011 -0.1146 -0.7680  0.1630
 3091SOL    HW220733   2.199   0.208  14.998 -0.3247  0.6756 -0.7011
 3092SOL     OW20734   3.432   2.744   3.776 -0.1299  0.4473  0.0299
 3092SOL    HW120735   3.384   2.664   3.801  0.9013  1.1644  4.3926
 3092SOL    HW220736   3.359   2.802   3.801  2.0822  1.9855  2.9647
 3093SOL     OW20737   4.113   0.251   9.462 -0.2471 -0.4974  0.0307
 3093SOL    HW120738   4.115   0.340   9.426 -0.7259 -1.0613 -1.3786
 3093SOL    HW220739   4.136   0.195   9.388 -0.7552  0.5920 -0.9365
 3094SOL     OW20740   4.533   0.400   2.432  0.1078  0.4701  0.0793
 3094SOL    HW120741   4.468   0.432   2.370  0.1453 -2.7447 -1.6274
 3094SOL    HW220742   4.481   0.363   2.504  0.4860  0.6344  0.4401
 3095SOL     OW20743   3.303   1.510   0.873  0.4380 -0.3668  0.1204
 3095SOL    HW120744   3.371   1.502   0.806  0.1837  3.5284 -0.6083
 3095SOL    HW220745   3.352   1.565   0.934 -0.9434  0.0677  0.8476
 3096SOL     OW20746   1.219   0.277  13.406 -0.0097  0.0551 -0.2817
 3096SOL    HW120747   1.261   0.223  13.340  0.1191 -0.5773  0.3111
 3096SOL    HW220748   1.205   0.350  13.346  0.3901 -0.8364 -1.4402
 3097SOL     OW20749   0.461   2.758  12.888 -0.3941 -0.4816  0.5187
 3097SOL    HW120750   0.413   2.770  12.971 -1.2194  2.1546 -0.3434
 3097SOL    HW220751   0.408   2.811  12.828  1.7526  2.7194  1.4221
 3098SOL     OW20752   1.668   0.305  13.405 -0.1146 -0.2768  0.0940
 3098SOL    HW120753   1.687   0.357  13.483  0.3271  0.0378 -0.2245
 3098SOL    HW220754   1.755   0.294  13.365  0.0794 -0.2715  0.5106
 3099SOL     OW20755   2.167   3.011  16.650  0.0835 -0.0777 -0.0278
 3099SOL    HW120756   2.139   2.967  16.570  0.3535 -0.6797  0.1993
 3099SOL    HW220757   2.106   3.082  16.666  0.5726  0.0628  1.2282
 3100SOL     OW20758   1.763   2.561   6.316 -0.4615  0.2304  0.8123
 3100SOL    HW120759   1.843   2.603   6.348 -0.3259 -0.6517  1.6356
 3100SOL    HW220760   1.757   2.481   6.368 -1.8607  0.5239  1.1014
 3101SOL     OW20761   3.490   2.048   8.027 -0.0531 -0.0163 -0.3750
 3101SOL    HW120762   3.478   1.987   8.100 -1.9476  1.6256  0.7023
 3101SOL    HW220763   3.576   2.084   8.047  0.3752 -1.5012  0.4298
 3102SOL     OW20764   1.410   0.057   7.739 -0.1735  0.2507  0.0316
 3102SOL    HW120765   1.405   0.113   7.817 -0.4814 -1.3085  1.1187
 3102SOL    HW220766   1.326   0.085   7.704 -0.7183 -0.4435  0.7805
 3103SOL     OW20767   4.267   1.717  14.740  0.2213  0.6908 -0.2946
 3103SOL    HW120768   4.328   1.712  14.666  0.2052  1.4917 -0.3578
 3103SOL    HW220769   4.185   1.699  14.695  1.4399 -0.9326 -1.8732
 3104SOL     OW20770   3.316   0.991   2.590 -0.1694 -0.8131 -0.1624
 3104SOL    HW120771   3.254   0.928   2.554 -1.1432  1.8673 -3.1600
 3104SOL    HW220772   3.386   0.976   2.526 -0.4610 -3.1587  0.0650
 3105SOL     OW20773   3.490   2.570  15.527  0.2975  0.7270 -0.4893
 3105SOL    HW120774   3.501   2.512  15.602 -2.0532  0.2954 -0.4806
 3105SOL    HW220775   3.521   2.514  15.456  3.4536 -1.1822  2.3960
 3106SOL     OW20776   3.888   3.497   4.383  0.5544  0.0922  0.5000
 3106SOL    HW120777   3.970   3.448   4.383 -0.1211 -1.0344  4.0536
 3106SOL    HW220778   3.833   3.424   4.356 -0.4477  1.2345 -0.5380
 3107SOL     OW20779   0.630   4.387  10.509  0.0119  0.1887  0.4690
 3107SOL    HW120780   0.591   4.434  10.582  1.9568  0.5199  1.2899
 3107SOL    HW220781   0.594   4.439  10.437  0.9552  0.8689  0.4969
 3108SOL     OW20782   4.525   4.087   0.605 -0.5661 -0.0315  0.0639
 3108SOL    HW120783   4.479   4.027   0.663 -0.6605  0.2907  0.3214
 3108SOL    HW220784   4.527   4.170   0.653 -0.7639 -0.9027  1.5978
 3109SOL     OW20785   3.185   3.340   7.360 -0.1117 -0.2780 -0.5618
 3109SOL    HW120786   3.205   3.355   7.453 -2.0887  0.1557 -0.1999
 3109SOL    HW220787   3.094   3.312   7.366 -0.6650  1.0310 -2.9445
 3110SOL     OW20788   3.388   3.232   4.763  0.2535  0.6393 -0.1470
 3110SOL    HW120789   3.315   3.293   4.762 -1.1082 -0.9814  0.4074
 3110SOL    HW220790   3.449   3.286   4.713  0.8874  0.1937  0.1374
 3111SOL     OW20791   0.586   3.286   6.167 -0.5808 -0.0722 -0.2727
 3111SOL    HW120792   0.503   3.282   6.119 -0.5057  1.8413 -0.5555
 3111SOL    HW220793   0.574   3.228   6.242  1.2190  1.9238  1.5533
 3112SOL     OW20794   3.428   1.741   7.939  0.2002 -0.5008  0.0471
 3112SOL    HW120795   3.451   1.668   7.997 -0.6141 -0.8777 -0.1018
 3112SOL    HW220796   3.462   1.707   7.857 -0.2359  1.2373 -0.8457
 3113SOL     OW20797   4.155   4.378  13.903 -0.2445  0.4819  0.6667
 3113SOL    HW120798   4.143   4.468  13.934 -2.4320 -0.0405  1.3459
 3113SOL    HW220799   4.066   4.352  13.878 -0.3617  1.7154 -0.2293
 3114SOL     OW20800   1.963   2.181   4.893 -0.5946  0.1202  0.1000
 3114SOL    HW120801   1.886   2.144   4.849  0.7513 -0.4057 -1.7748
 3114SOL    HW220802   1.980   2.108   4.954 -2.1173  1.4254  2.1068
 3115SOL     OW20803   3.093   1.267   2.449  0.9691 -0.0621  0.1290
 3115SOL    HW120804   3.092   1.286   2.355 -0.3181 -0.9844 -0.0377
 3115SOL    HW220805   3.025   1.201   2.451  3.0046 -2.2155 -1.6226
 3116SOL     OW20806   1.055   3.320   9.245 -0.1240  0.2584 -0.3873
 3116SOL    HW120807   1.048   3.261   9.170 -3.1846  0.7807 -0.5354
 3116SOL    HW220808   1.040   3.270   9.326 -0.2472 -0.2989 -0.7544
 3117SOL     OW20809   2.035   4.585   4.484 -0.6135 -0.0234  0.3373
 3117SOL    HW120810   2.035   4.553   4.575 -0.4003  0.4885  0.5188
 3117SOL    HW220811   1.956   4.538   4.460  1.1426 -3.3065  0.9307
 3118SOL     OW20812   1.147   4.284   5.503  0.3767  0.2029 -0.0600
 3118SOL    HW120813   1.200   4.274   5.424  0.7901 -1.4374  0.4248
 3118SOL    HW220814   1.056   4.266   5.478  0.2316 -1.3585  1.5677
 3119SOL     OW20815   0.554   1.160   8.939  0.2869 -0.2349  0.8115
 3119SOL    HW120816   0.535   1.072   8.905  1.6674  0.9886 -3.1065
 3119SOL    HW220817   0.633   1.175   8.887 -0.4352 -0.0533 -0.2313
 3120SOL     OW20818   1.983   3.076   9.852 -0.1874  0.0278  0.6751
 3120SOL    HW120819   2.070   3.095   9.887 -0.6229  2.0879  0.6250
 3120SOL    HW220820   1.949   3.013   9.916  0.4106 -2.1359 -1.1409
 3121SOL     OW20821   2.008   3.002  15.282  0.0444  0.2024  0.1583
 3121SOL    HW120822   1.995   3.000  15.187  0.1272 -1.8078  0.1856
 3121SOL    HW220823   2.095   2.962  15.291  0.7628  1.8301  0.4013
 3122SOL     OW20824   2.933   2.447  15.474  0.3739 -0.1918  0.0323
 3122SOL    HW120825   3.020   2.426  15.440 -0.1283 -1.1691 -0.6587
 3122SOL    HW220826   2.874   2.396  15.419 -1.2670 -0.6802  2.2432
 3123SOL     OW20827   0.268   3.465   6.388  0.4760 -0.1053 -0.1771
 3123SOL    HW120828   0.324   3.531   6.346 -0.3246  1.5513  1.3532
 3123SOL    HW220829   0.274   3.487   6.481  0.6680 -3.6286  0.6313
 3124SOL     OW20830   2.973   4.139  11.752  0.6562  0.4151  0.1405
 3124SOL    HW120831   2.998   4.217  11.702 -1.5500  0.6997 -0.5080
 3124SOL    HW220832   3.028   4.072  11.711  1.1637 -0.0618  1.6117
 3125SOL     OW20833   2.819   3.684   8.654  0.5026  0.8305 -0.4867
 3125SOL    HW120834   2.856   3.654   8.738 -2.3185  1.5833  1.0169
 3125SOL    HW220835   2.733   3.720   8.676  1.1607  1.7889  0.5475
 3126SOL     OW20836   1.011   1.518  14.109  0.3527 -0.3885 -0.0893
 3126SOL    HW120837   1.004   1.600  14.061 -2.9311 -0.6571 -0.1110
 3126SOL    HW220838   0.923   1.481  14.102  0.0770  0.3033 -0.2700
 3127SOL     OW20839   0.122   2.048   3.927 -0.1688  0.1105 -0.3072
 3127SOL    HW120840   0.197   2.106   3.922  1.9634 -2.6668 -0.6797
 3127SOL    HW220841   0.061   2.101   3.876 -3.1277 -1.2549  1.7780
 3128SOL     OW20842   1.502   1.867   8.975  0.0526 -0.0377 -0.1692
 3128SOL    HW120843   1.591   1.833   8.964 -0.3159 -0.8365 -0.6985
 3128SOL    HW220844   1.496   1.929   8.902 -1.8373  0.4924  0.4363
 3129SOL     OW20845   1.310   3.406   9.349  0.4655 -0.5267  0.0285
 3129SOL    HW120846   1.246   3.342   9.317  1.1445 -1.6547  0.9716
 3129SOL    HW220847   1.326   3.365   9.434  0.6153 -0.5717 -0.0222
 3130SOL     OW20848   3.410   1.162   8.596  0.5030 -0.5142 -0.2473
 3130SOL    HW120849   3.353   1.085   8.599 -1.9308  1.3611  1.4755
 3130SOL    HW220850   3.498   1.137   8.622  1.7215  1.1098 -2.8024
 3131SOL     OW20851   2.873   2.532   5.223 -0.3551  0.1166  0.0336
 3131SOL    HW120852   2.807   2.482   5.174 -1.8548  1.5848  0.5432
 3131SOL    HW220853   2.878   2.479   5.302 -0.3852  0.6904  0.4240
 3132SOL     OW20854   0.830   1.948   8.104  0.6271 -0.8335 -0.2202
 3132SOL    HW120855   0.883   2.027   8.091 -1.7869  0.9120  0.5277
 3132SOL    HW220856   0.795   1.970   8.190  2.4815  1.4378 -0.0461
 3133SOL     OW20857   0.464   1.200  17.423  0.1492 -0.0760  0.4606
 3133SOL    HW120858   0.556   1.191  17.397  0.1279  1.3053 -0.0810
 3133SOL    HW220859   0.436   1.111  17.404  1.4827 -0.3860 -0.0546
 3134SOL     OW20860   2.995   1.963   5.456  0.1223  0.2748 -0.2027
 3134SOL    HW120861   2.944   2.024   5.509  0.9318  0.6318  0.1642
 3134SOL    HW220862   2.931   1.896   5.433 -1.3928  1.9767 -0.9346
 3135SOL     OW20863   4.096   3.760   4.184  0.6284  0.2735 -0.9998
 3135SOL    HW120864   4.003   3.782   4.185  1.2170  2.5060  1.3072
 3135SOL    HW220865   4.115   3.749   4.277 -0.5094 -2.0818 -1.0381
 3136SOL     OW20866   1.016   3.747  13.136  0.4762  0.3015  0.3268
 3136SOL    HW120867   0.946   3.685  13.158  0.1748  0.0742 -1.2471
 3136SOL    HW220868   1.052   3.769  13.221  1.8267  0.7340 -0.3591
 3137SOL     OW20869   2.801   2.139   5.586  0.1208 -0.3887  0.4616
 3137SOL    HW120870   2.728   2.077   5.592  2.4800 -3.2896 -1.3081
 3137SOL    HW220871   2.806   2.170   5.677  1.7825 -0.0100  0.2258
 3138SOL     OW20872   1.830   0.365   3.533  0.8139 -0.7035  0.8080
 3138SOL    HW120873   1.795   0.401   3.614  0.9404  0.1015  0.5007
 3138SOL    HW220874   1.904   0.318   3.573  0.2354 -2.7515 -0.5208
 3139SOL     OW20875   3.780   0.119   4.439 -0.2183  0.0766  0.3184
 3139SOL    HW120876   3.723   0.052   4.476 -1.7877  0.6235 -1.1233
 3139SOL    HW220877   3.735   0.198   4.468 -0.2121 -0.1769  1.0211
 3140SOL     OW20878   4.723   3.889   1.837  0.2464 -0.2607 -0.6100
 3140SOL    HW120879   0.036   3.804   1.853 -1.4212 -0.5037  2.3566
 3140SOL    HW220880   0.083   3.923   1.813 -0.1769  1.5727  0.4779
 3141SOL     OW20881   1.313   2.808   8.550  0.3926 -0.3436  0.1938
 3141SOL    HW120882   1.334   2.731   8.497 -0.7246 -2.0439  2.2049
 3141SOL    HW220883   1.403   2.836   8.568  0.5882  0.4089 -1.9916
 3142SOL     OW20884   2.799   2.075   0.219  0.1726 -0.1269 -0.6054
 3142SOL    HW120885   2.875   2.122   0.252 -1.7287  1.7995  1.0700
 3142SOL    HW220886   2.829   2.071   0.128  1.5487  1.4966 -0.2345
 3143SOL     OW20887   3.169   1.148  17.438  0.5831 -0.5829  0.1377
 3143SOL    HW120888   3.147   1.059  17.412  0.2223 -0.2335 -0.7431
 3143SOL    HW220889   3.160   1.191  17.353  1.7641  0.7055  0.6597
 3144SOL     OW20890   1.607   1.576   7.976 -0.5265 -0.2239 -0.5199
 3144SOL    HW120891   1.603   1.662   7.935  1.1662  1.2629  2.4283
 3144SOL    HW220892   1.577   1.512   7.911  1.1855 -2.5818  0.9873
 3145SOL     OW20893   0.044   4.275   8.693  0.2320 -0.7007 -0.2496
 3145SOL    HW120894   0.045   4.332   8.617  0.3779 -0.6534 -0.2127
 3145SOL    HW220895   0.122   4.304   8.741  2.0599 -2.6462 -2.0367
 3146SOL     OW20896   0.728   0.560   4.528 -0.6214 -0.1138  0.2719
 3146SOL    HW120897   0.662   0.627   4.543 -1.7029 -1.1875  0.2876
 3146SOL    HW220898   0.763   0.545   4.616  0.6278  1.7196  0.0817
 3147SOL     OW20899   2.233   4.357   7.274 -1.0822  0.2758 -0.2906
 3147SOL    HW120900   2.255   4.431   7.218 -0.3263  0.4111  0.1708
 3147SOL    HW220901   2.177   4.295   7.228 -0.8033  0.1789 -0.5060
 3148SOL     OW20902   4.472   3.389   3.027 -0.0411  0.3079  0.0075
 3148SOL    HW120903   4.510   3.301   3.028  2.1942  1.2546 -0.9331
 3148SOL    HW220904   4.490   3.411   2.936  1.2086 -1.1733 -0.1110
 3149SOL     OW20905   3.267   3.668   7.688 -0.6045  0.2491  0.8090
 3149SOL    HW120906   3.281   3.574   7.700 -1.9408 -0.2185 -1.1772
 3149SOL    HW220907   3.248   3.670   7.594  0.9714 -0.3938  0.4884
 3150SOL     OW20908   2.828   4.124   7.900 -0.2296  0.1187 -0.1743
 3150SOL    HW120909   2.780   4.066   7.958  2.3070 -3.7671 -1.9499
 3150SOL    HW220910   2.871   4.059   7.844  1.7921  1.7349 -0.5134
 3151SOL     OW20911   1.141   3.720   4.454 -0.7820  0.2601  0.5803
 3151SOL    HW120912   1.131   3.762   4.540  0.7169 -0.7758  1.2678
 3151SOL    HW220913   1.069   3.768   4.413 -0.6662 -0.5002 -0.5015
 3152SOL     OW20914   1.179   2.657   5.223  0.1345  0.2442  0.0928
 3152SOL    HW120915   1.213   2.728   5.277  0.7208  2.2002 -2.7920
 3152SOL    HW220916   1.251   2.654   5.159 -1.7769  0.1244 -2.0319
 3153SOL     OW20917   0.956   4.659  17.656  0.0636 -0.1793  0.2899
 3153SOL    HW120918   0.999   4.679   0.034 -0.9318 -0.3040  0.8304
 3153SOL    HW220919   0.936   4.565  17.662  1.0802 -0.3910  0.4629
 3154SOL     OW20920   4.630   2.981  11.543  0.1745 -0.0875 -0.8512
 3154SOL    HW120921   4.617   3.037  11.467  1.1931 -0.2401 -1.1449
 3154SOL    HW220922   4.638   2.895  11.500  0.2685 -0.5713  0.1289
 3155SOL     OW20923   4.073   3.953  11.437 -0.0196  0.8820  1.0696
 3155SOL    HW120924   4.126   4.031  11.416  2.5206 -1.1204 -0.0223
 3155SOL    HW220925   4.014   3.953  11.361  1.2710  0.6057  0.0560
 3156SOL     OW20926   4.422   0.734   6.622 -0.0692  0.2023 -0.1719
 3156SOL    HW120927   4.377   0.817   6.604 -2.9672 -1.2857  0.0947
 3156SOL    HW220928   4.467   0.755   6.704 -2.5029  0.8975  1.0020
 3157SOL     OW20929   4.458   2.211  13.252  0.8579 -0.1296  0.6660
 3157SOL    HW120930   4.409   2.156  13.314 -0.9602  0.3853 -0.3191
 3157SOL    HW220931   4.515   2.147  13.209 -2.1438 -2.6899  0.5147
 3158SOL     OW20932   1.742   4.304   0.407  0.1533 -0.6383  0.0138
 3158SOL    HW120933   1.751   4.213   0.379 -3.3297 -1.0280  0.1798
 3158SOL    HW220934   1.829   4.344   0.403 -0.4038  0.5682 -0.2642
 3159SOL     OW20935   0.711   3.350   8.003  0.1386  0.2035 -0.0522
 3159SOL    HW120936   0.776   3.320   8.067  1.9882  3.2192 -0.4746
 3159SOL    HW220937   0.636   3.305   8.041  0.9371 -0.2553  0.9890
 3160SOL     OW20938   0.594   2.376   7.544 -0.3012  0.5424  0.2695
 3160SOL    HW120939   0.616   2.402   7.634  1.1544 -2.0494  0.6483
 3160SOL    HW220940   0.683   2.371   7.509 -0.8016 -0.1383 -0.8862
 3161SOL     OW20941   1.704   0.768  14.147  0.4291  1.1535 -0.1471
 3161SOL    HW120942   1.692   0.759  14.242  0.1850 -0.1481 -0.2940
 3161SOL    HW220943   1.643   0.703  14.112  1.0381 -0.2324  1.3333
 3162SOL     OW20944   4.702   3.957  12.141 -0.5536 -0.4082 -0.0347
 3162SOL    HW120945   0.052   3.927  12.191 -1.6341 -1.4029  1.0262
 3162SOL    HW220946   4.671   4.012  12.212 -2.4102  0.5776 -1.6080
 3163SOL     OW20947   3.846   2.691  11.457 -0.2221  0.2641 -0.2523
 3163SOL    HW120948   3.914   2.624  11.456 -0.8817 -0.4087  0.0105
 3163SOL    HW220949   3.773   2.643  11.496 -0.4357  0.5481 -0.3022
 3164SOL     OW20950   3.459   1.104   7.175 -0.0960  1.0415 -0.4678
 3164SOL    HW120951   3.419   1.091   7.261  0.2479 -1.1131 -0.6317
 3164SOL    HW220952   3.406   1.176   7.139 -0.8758  0.3686 -0.6691
 3165SOL     OW20953   0.430   1.281   5.830  0.2259  0.0521  0.2052
 3165SOL    HW120954   0.344   1.308   5.798  0.5965  0.0486 -0.7938
 3165SOL    HW220955   0.446   1.355   5.889 -4.4071  0.5623  0.8896
 3166SOL     OW20956   3.978   3.291   7.663 -0.4382 -0.1427  0.8705
 3166SOL    HW120957   3.956   3.251   7.748 -0.5600  1.0192  1.3878
 3166SOL    HW220958   3.990   3.216   7.606  1.5209  0.8890 -0.0936
 3167SOL     OW20959   3.028   4.347   0.005 -0.0896 -0.7363  0.2941
 3167SOL    HW120960   3.068   4.433   0.019 -1.0247 -0.3789  0.7061
 3167SOL    HW220961   2.939   4.354   0.040  1.1141  0.7407  3.0340
 3168SOL     OW20962   1.284   4.317   7.955  0.7672  0.4421  0.1730
 3168SOL    HW120963   1.312   4.229   7.981  3.1356  1.5844  1.5077
 3168SOL    HW220964   1.358   4.375   7.976  2.7609 -1.0033 -2.8729
 3169SOL     OW20965   0.916   3.260   2.781 -0.0555 -0.1798 -0.1335
 3169SOL    HW120966   0.927   3.345   2.738 -1.5598  0.4613  0.7509
 3169SOL    HW220967   0.878   3.215   2.706 -1.1823  2.7688 -1.3238
 3170SOL     OW20968   2.150   1.058   6.604  0.1648  0.1171 -0.8245
 3170SOL    HW120969   2.122   0.976   6.645 -1.8922  1.6131  0.7706
 3170SOL    HW220970   2.158   1.027   6.514 -0.0931 -1.1280 -0.4106
 3171SOL     OW20971   1.562   2.203   3.893 -0.0749 -0.1825  0.1930
 3171SOL    HW120972   1.510   2.170   3.966  2.7095 -4.4439  0.1883
 3171SOL    HW220973   1.605   2.273   3.942  1.6146 -0.8974 -0.2443
 3172SOL     OW20974   1.186   0.489   7.913  0.1931 -0.0706  0.3424
 3172SOL    HW120975   1.234   0.572   7.911 -0.6418  0.4315  0.6901
 3172SOL    HW220976   1.118   0.534   7.964 -0.2504  0.9087 -1.1303
 3173SOL     OW20977   1.752   2.722   7.916  0.3605  0.2464 -0.2065
 3173SOL    HW120978   1.832   2.775   7.920 -0.1306  0.8824  1.4144
 3173SOL    HW220979   1.750   2.681   8.002  1.3018 -0.1081 -0.3569
 3174SOL     OW20980   4.299   0.163  14.737  0.0545 -0.1401 -0.0581
 3174SOL    HW120981   4.290   0.237  14.677  1.2952  1.5922  1.9021
 3174SOL    HW220982   4.374   0.192  14.789  1.6202 -0.6900 -2.0286
 3175SOL     OW20983   3.482   1.200   1.198 -0.1030 -0.3938 -0.1501
 3175SOL    HW120984   3.387   1.209   1.208 -0.1311 -1.5732  0.6585
 3175SOL    HW220985   3.501   1.245   1.280 -1.7942 -1.3750  0.7766
 3176SOL     OW20986   0.035   3.997   6.487  0.2415 -0.4519 -0.3455
 3176SOL    HW120987   0.111   3.938   6.478 -0.6764 -1.5023 -1.1698
 3176SOL    HW220988   0.063   4.059   6.555  1.1183 -0.1039 -1.0164
 3177SOL     OW20989   4.680   3.822   2.304 -0.5248  0.0677 -0.0706
 3177SOL    HW120990   4.658   3.898   2.250  0.5862  0.2202 -0.3175
 3177SOL    HW220991   4.657   3.746   2.251 -2.6787 -0.1153  1.1131
 3178SOL     OW20992   0.505   0.664   5.692 -0.1008  0.2277 -0.2833
 3178SOL    HW120993   0.582   0.610   5.710 -1.0495 -0.8973  0.3774
 3178SOL    HW220994   0.549   0.705   5.617 -0.3770  1.4643  0.2358
 3179SOL     OW20995   2.996   0.629  10.408 -0.0878 -0.2150  0.0941
 3179SOL    HW120996   2.943   0.563  10.454 -0.4015 -0.4991 -0.6631
 3179SOL    HW220997   3.047   0.560  10.364 -1.4279 -2.3499  1.8736
 3180SOL     OW20998   2.511   0.141   2.333  0.4314  0.4645  0.1347
 3180SOL    HW120999   2.594   0.175   2.299  0.4211 -0.2097 -0.5893
 3180SOL    HW221000   2.555   0.088   2.399 -1.0437  0.4389  1.0904
 3181SOL     OW21001   4.717   0.213   4.730  0.1224  0.1521  0.4405
 3181SOL    HW121002   0.004   0.166   4.812 -1.2294 -1.1407 -0.0780
 3181SOL    HW221003   0.054   0.164   4.677 -1.2238 -0.3088 -0.7620
 3182SOL     OW21004   0.717   0.833   0.071  0.1736 -0.0185 -0.4788
 3182SOL    HW121005   0.646   0.897   0.064  0.5226  0.4983  0.5939
 3182SOL    HW221006   0.766   0.858  17.698 -1.8902  0.6107 -1.5623
 3183SOL     OW21007   4.200   0.297   7.482 -0.3118 -0.3041 -1.2068
 3183SOL    HW121008   4.282   0.273   7.524 -1.2115  0.2578  0.8975
 3183SOL    HW221009   4.134   0.247   7.530  1.5552 -0.3540  1.3213
 3184SOL     OW21010   2.846   2.781  17.655 -0.0977  0.1418  0.8220
 3184SOL    HW121011   2.928   2.795  17.703 -0.2351  1.1220  0.7776
 3184SOL    HW221012   2.792   2.829   0.012  0.1060  0.8907  0.4333
 3185SOL     OW21013   3.387   3.341   8.326 -0.1625 -0.4202  0.3954
 3185SOL    HW121014   3.389   3.390   8.408 -1.6185 -0.5866  0.5335
 3185SOL    HW221015   3.316   3.385   8.279  0.2403 -0.0186  0.1705
 3186SOL     OW21016   2.626   1.997   6.573 -0.0503 -0.1839 -0.2369
 3186SOL    HW121017   2.585   2.000   6.660 -0.1378 -2.7469 -0.1671
 3186SOL    HW221018   2.561   1.942   6.528  0.5481  0.1945 -1.5541
 3187SOL     OW21019   3.134   2.925   8.374 -0.2305 -0.2042  0.2786
 3187SOL    HW121020   3.165   3.009   8.408  2.5278 -0.1051 -2.4850
 3187SOL    HW221021   3.173   2.859   8.430  0.0353  0.1867  0.5509
 3188SOL     OW21022   0.901   2.049   6.184  0.5105 -0.0459 -0.0562
 3188SOL    HW121023   0.933   2.082   6.268  0.9244  2.0958 -1.0731
 3188SOL    HW221024   0.979   2.055   6.129  0.0015 -0.8411 -0.8661
 3189SOL     OW21025   1.831   2.537   3.168 -0.4651  0.2406  0.4926
 3189SOL    HW121026   1.786   2.588   3.100  1.5547 -0.6559 -1.4849
 3189SOL    HW221027   1.843   2.450   3.132  1.5430 -0.0559  1.8666
 3190SOL     OW21028   0.884   1.887  10.501 -0.4863 -0.0432  0.5029
 3190SOL    HW121029   0.820   1.865  10.434 -0.2023  0.9683 -0.0954
 3190SOL    HW221030   0.836   1.904  10.583 -0.6024  0.6995  0.2769
 3191SOL     OW21031   3.250   2.536   3.850  0.0231 -0.1789  0.6031
 3191SOL    HW121032   3.206   2.455   3.826  0.8143 -0.5429  0.3635
 3191SOL    HW221033   3.175   2.590   3.875  1.3907  2.1277 -0.2698
 3192SOL     OW21034   3.575   4.146   4.305  0.6187 -0.1414 -0.9718
 3192SOL    HW121035   3.654   4.094   4.322  2.3977  2.0020 -2.7410
 3192SOL    HW221036   3.600   4.237   4.319 -1.1906  0.0212  1.2028
 3193SOL     OW21037   0.875   1.791   6.934  0.5851 -0.3156  0.0804
 3193SOL    HW121038   0.899   1.703   6.906  0.5524 -0.1208 -0.5611
 3193SOL    HW221039   0.957   1.803   6.982  1.4658  0.7448 -1.6578
 3194SOL     OW21040   0.769   0.183   7.854 -0.7760  0.0033 -0.0118
 3194SOL    HW121041   0.698   0.231   7.810 -0.9604 -0.8756 -0.6620
 3194SOL    HW221042   0.738   0.194   7.944  1.3142 -0.9045  0.8134
 3195SOL     OW21043   3.292   0.716   8.174 -0.0407 -0.0041  0.4951
 3195SOL    HW121044   3.358   0.646   8.179 -0.7544 -0.4368  3.8300
 3195SOL    HW221045   3.317   0.762   8.253  2.3048  0.1641 -0.3481
 3196SOL     OW21046   2.503   3.944   4.740  0.5924 -0.3550 -0.1713
 3196SOL    HW121047   2.431   4.005   4.756  0.4960 -1.2158  2.8784
 3196SOL    HW221048   2.493   3.930   4.646 -0.4265  0.0817 -0.1310
 3197SOL     OW21049   4.257   3.642   6.345 -0.2612 -0.0876  0.1040
 3197SOL    HW121050   4.333   3.695   6.319 -0.2899  0.1489  0.5102
 3197SOL    HW221051   4.297   3.558   6.320  1.8976  0.3670  2.0073
 3198SOL     OW21052   2.037   4.012  11.445 -0.2092 -0.2195 -0.2952
 3198SOL    HW121053   2.120   3.968  11.457 -0.9933 -1.3497  0.9486
 3198SOL    HW221054   1.977   3.937  11.444 -0.7575  0.2163 -0.0027
 3199SOL     OW21055   2.805   2.019   7.101 -0.3749  0.4143 -0.2742
 3199SOL    HW121056   2.852   2.060   7.029  0.7564 -2.4503 -1.1741
 3199SOL    HW221057   2.784   1.935   7.059  0.8337 -0.3653  0.6919
 3200SOL     OW21058   0.142   1.575   0.427  0.2556  0.2083 -0.0762
 3200SOL    HW121059   0.216   1.635   0.433  2.4547 -2.6929  1.5932
 3200SOL    HW221060   0.159   1.535   0.342 -0.5611 -2.3966  0.9912
 3201SOL     OW21061   0.901   4.268  15.373  0.8019  0.2159  0.4223
 3201SOL    HW121062   0.964   4.317  15.425  0.4950  0.1822  0.8288
 3201SOL    HW221063   0.946   4.196  15.330  0.6450 -0.2088  0.9712
 3202SOL     OW21064   2.043   1.038  14.336  0.3207  0.1787  0.5852
 3202SOL    HW121065   2.033   1.120  14.383  0.5007 -0.9457  2.5672
 3202SOL    HW221066   2.116   0.990  14.375  0.6955  0.6324  0.4301
 3203SOL     OW21067   0.114   4.702   1.806 -0.0460 -0.5809 -0.2235
 3203SOL    HW121068   0.022   4.721   1.821  0.5850  0.7484  2.0175
 3203SOL    HW221069   0.152   0.045   1.861 -1.4535 -0.6089  0.7719
 3204SOL     OW21070   3.986   3.222   0.924 -0.1521 -0.2526 -0.4496
 3204SOL    HW121071   4.020   3.195   1.010 -0.6943  0.3552 -0.0466
 3204SOL    HW221072   4.053   3.185   0.866  1.4628 -0.7529  1.7182
 3205SOL     OW21073   3.756   2.780   8.032 -0.0085  0.3526  0.6153
 3205SOL    HW121074   3.797   2.860   8.064  0.0993  0.7952 -0.6224
 3205SOL    HW221075   3.742   2.734   8.115  0.5899  0.2048  0.6293
 3206SOL     OW21076   3.123   1.237   5.723 -0.2013 -0.2034 -0.0773
 3206SOL    HW121077   3.106   1.232   5.629 -3.0297  1.0444  0.3605
 3206SOL    HW221078   3.186   1.167   5.734  1.2306  0.9120 -1.2313
 3207SOL     OW21079   0.712   3.763   3.980 -0.1227  0.3161 -0.0639
 3207SOL    HW121080   0.726   3.731   4.069 -0.8331  0.9417  0.2748
 3207SOL    HW221081   0.625   3.723   3.973 -0.6061  1.2301  0.6870
 3208SOL     OW21082   1.967   1.420   3.549 -0.4143  0.0349  0.0254
 3208SOL    HW121083   1.936   1.510   3.558 -0.5762  0.2775 -2.7329
 3208SOL    HW221084   1.892   1.376   3.588 -0.4280  0.5425  0.5554
 3209SOL     OW21085   2.675   2.116   4.135  0.0245 -0.2329  0.2120
 3209SOL    HW121086   2.731   2.143   4.062  1.1334 -2.2312  0.3295
 3209SOL    HW221087   2.659   2.025   4.110  1.1333  0.4643 -3.1027
 3210SOL     OW21088   3.770   1.829   1.774 -0.1057 -0.1130 -0.1819
 3210SOL    HW121089   3.827   1.821   1.697 -2.8340 -1.6378 -2.0269
 3210SOL    HW221090   3.695   1.775   1.750 -0.1830 -0.9951  2.0522
 3211SOL     OW21091   3.956   0.135   8.308 -0.1431  0.1578 -0.2297
 3211SOL    HW121092   3.981   0.048   8.274 -0.1561  0.1053 -0.1045
 3211SOL    HW221093   3.934   0.108   8.397 -0.1281 -2.2869 -0.9514
 3212SOL     OW21094   3.316   1.603   5.191 -0.0691 -0.3911  0.3972
 3212SOL    HW121095   3.359   1.521   5.169 -0.2412  0.5717 -3.5400
 3212SOL    HW221096   3.259   1.613   5.115  2.2357 -0.0726 -1.2893
 3213SOL     OW21097   2.461   1.334   2.343 -0.0957 -0.0544 -0.3048
 3213SOL    HW121098   2.431   1.255   2.299  1.6793 -0.2461 -1.2013
 3213SOL    HW221099   2.391   1.395   2.321  1.5029  1.8140 -0.2640
 3214SOL     OW21100   0.472   3.207   5.663 -0.3211 -0.4315  0.6920
 3214SOL    HW121101   0.498   3.182   5.575 -0.9358 -0.2915  0.4707
 3214SOL    HW221102   0.539   3.164   5.717  1.6548  0.5626 -0.9954
 3215SOL     OW21103   1.346   0.907   6.696 -0.1017 -0.1072 -0.0070
 3215SOL    HW121104   1.406   0.950   6.757  0.1818 -1.5420  0.7346
 3215SOL    HW221105   1.363   0.953   6.614 -0.1254 -0.5105 -0.2414
 3216SOL     OW21106   1.048   2.901  15.321 -0.4429  0.0486  0.1055
 3216SOL    HW121107   0.977   2.961  15.296  1.5296  2.9512  1.4763
 3216SOL    HW221108   1.110   2.966  15.353 -0.8470  0.6563 -0.3372
 3217SOL     OW21109   4.311   1.404   5.798 -0.1794 -0.1152 -0.1106
 3217SOL    HW121110   4.234   1.361   5.760 -0.0645 -0.6338  0.2451
 3217SOL    HW221111   4.289   1.497   5.805 -0.6560 -0.0775 -1.9830
 3218SOL     OW21112   4.391   2.313  12.912  1.1612 -0.1119  0.1810
 3218SOL    HW121113   4.308   2.344  12.877  1.9453  0.4612 -1.1880
 3218SOL    HW221114   4.414   2.390  12.965 -0.5171 -1.5442  3.0065
 3219SOL     OW21115   2.312   3.693   5.753  0.1330 -0.4541 -0.4241
 3219SOL    HW121116   2.287   3.651   5.835  2.6743 -0.1394  0.4892
 3219SOL    HW221117   2.393   3.738   5.774 -1.0405  1.9147 -0.9455
 3220SOL     OW21118   3.928   3.841  16.680  0.5140 -0.2454 -0.1745
 3220SOL    HW121119   3.898   3.793  16.603 -2.5010 -0.2898  1.0616
 3220SOL    HW221120   3.849   3.867  16.726  1.3360  0.5167  0.8198
 3221SOL     OW21121   1.479   4.488  12.581  0.4521 -0.3537 -0.7646
 3221SOL    HW121122   1.542   4.506  12.512  0.8030  0.3238 -0.2679
 3221SOL    HW221123   1.522   4.464  12.663  0.3983  0.0373 -0.6202
 3222SOL     OW21124   3.596   1.313   5.545 -0.0379 -0.5762  0.2360
 3222SOL    HW121125   3.535   1.387   5.551  0.3476 -0.3396  1.2313
 3222SOL    HW221126   3.660   1.345   5.608 -0.9348  1.9071 -0.1253
 3223SOL     OW21127   1.986   1.812   5.623  0.7741 -0.1393  0.2440
 3223SOL    HW121128   2.031   1.896   5.614 -0.3562  0.5688  1.1262
 3223SOL    HW221129   2.053   1.746   5.607  1.2976  0.6499 -0.8599
 3224SOL     OW21130   1.987   1.922   5.005  0.3333  0.1849  0.2615
 3224SOL    HW121131   1.970   1.925   5.099  0.1380 -1.8512  0.2826
 3224SOL    HW221132   1.897   1.918   4.972  0.6310 -1.0977 -0.4080
 3225SOL     OW21133   2.467   0.178   2.867 -0.0846  0.0903  0.6528
 3225SOL    HW121134   2.455   0.085   2.848 -0.2533  0.4680 -1.1029
 3225SOL    HW221135   2.445   0.212   2.780 -0.5101  1.1924  1.1895
 3226SOL     OW21136   1.776   1.381   9.848  0.4246  0.2232 -0.4030
 3226SOL    HW121137   1.852   1.357   9.795 -0.7323 -2.6146 -0.7825
 3226SOL    HW221138   1.818   1.352   9.929 -0.1653 -3.4511 -1.3900
 3227SOL     OW21139   3.044   2.301  11.120 -0.4423 -0.4637 -0.0822
 3227SOL    HW121140   3.020   2.313  11.212 -2.0882  1.2115 -0.7083
 3227SOL    HW221141   3.137   2.324  11.118 -1.0549  1.9790 -0.0344
 3228SOL     OW21142   2.362   3.398   7.347 -0.0339 -0.1237  0.6601
 3228SOL    HW121143   2.351   3.303   7.350 -0.8128 -0.0430  0.3141
 3228SOL    HW221144   2.335   3.422   7.436 -0.2938  0.0681  0.5280
 3229SOL     OW21145   3.378   4.707   4.320 -0.0128 -0.2287  0.4593
 3229SOL    HW121146   3.286   4.685   4.308  0.3082 -0.5121 -1.5071
 3229SOL    HW221147   3.381   0.066   4.276  0.5021 -0.8376 -0.6982
 3230SOL     OW21148   4.704   0.369   6.676 -0.2341 -0.3408  0.3209
 3230SOL    HW121149   4.666   0.287   6.645  1.6599 -0.1965 -2.3409
 3230SOL    HW221150   4.662   0.384   6.761  0.1670  2.2667  0.0644
 3231SOL     OW21151   4.590   1.460   8.679  0.0052 -0.5675  0.0814
 3231SOL    HW121152   4.673   1.438   8.636  0.0993 -0.9698  0.4668
 3231SOL    HW221153   4.604   1.412   8.760 -0.5084 -0.2086  0.3808
 3232SOL     OW21154   3.770   3.928   9.340  0.6969  0.1176 -0.2947
 3232SOL    HW121155   3.717   3.859   9.380  1.3508 -0.7234 -0.8804
 3232SOL    HW221156   3.851   3.941   9.388  0.2208  0.8086  0.3256
 3233SOL     OW21157   3.305   2.569   8.362  0.2612  0.3167 -0.4064
 3233SOL    HW121158   3.296   2.595   8.271  1.5072 -0.5017 -0.7660
 3233SOL    HW221159   3.366   2.496   8.361 -0.9125 -0.6512 -0.9108
 3234SOL     OW21160   3.689   4.324   7.516 -0.0930  0.0011 -0.0499
 3234SOL    HW121161   3.667   4.242   7.473  0.0277  1.7549 -3.4515
 3234SOL    HW221162   3.771   4.309   7.564 -1.2279  1.4202  2.3640
 3235SOL     OW21163   3.214   3.624   3.182  0.1834  0.3341  0.2226
 3235SOL    HW121164   3.220   3.541   3.135  0.9034 -0.6915  2.0942
 3235SOL    HW221165   3.301   3.649   3.213  0.4482 -0.5444  0.1725
 3236SOL     OW21166   2.807   1.099  12.758 -0.8596  0.1800  0.1316
 3236SOL    HW121167   2.836   1.009  12.771  0.7522  0.4049 -1.7705
 3236SOL    HW221168   2.860   1.146  12.822  0.8849 -0.5838 -0.7245
 3237SOL     OW21169   3.208   1.604   5.916  0.1296 -0.0113  0.1002
 3237SOL    HW121170   3.114   1.614   5.904  0.1921 -1.0972 -1.3297
 3237SOL    HW221171   3.247   1.685   5.883  1.0033 -1.4451 -2.3992
 3238SOL     OW21172   3.871   0.677  11.200  0.3264 -0.0799  0.4389
 3238SOL    HW121173   3.797   0.620  11.178 -1.4436  1.9509  1.1012
 3238SOL    HW221174   3.922   0.661  11.121 -0.2749 -1.2546  0.2878
 3239SOL     OW21175   3.000   4.188   5.543 -0.2324  0.6795  0.1629
 3239SOL    HW121176   2.942   4.148   5.478 -1.4813  2.9712 -0.1303
 3239SOL    HW221177   2.929   4.234   5.588 -2.4914 -0.0891 -2.6159
 3240SOL     OW21178   2.956   2.766   7.670  0.0708  0.4497 -0.2433
 3240SOL    HW121179   3.043   2.735   7.695  1.3609  2.3672 -2.3981
 3240SOL    HW221180   2.936   2.738   7.580 -1.0498 -0.4795  0.3030
 3241SOL     OW21181   1.168   0.087   2.606 -0.4971 -0.5649  0.5209
 3241SOL    HW121182   1.092   0.143   2.624 -0.8545 -0.5021 -1.1868
 3241SOL    HW221183   1.120   0.005   2.617 -1.5922 -0.5260 -4.0802
 3242SOL     OW21184   4.232   1.785   7.448  0.4917 -0.3168  0.1071
 3242SOL    HW121185   4.235   1.881   7.451  1.7516 -0.3064 -1.3694
 3242SOL    HW221186   4.247   1.757   7.538 -1.3929  0.2800  0.5971
 3243SOL     OW21187   1.020   0.879   4.624  0.5956 -0.3513 -0.1148
 3243SOL    HW121188   0.944   0.888   4.680  0.1396 -1.6589 -0.5205
 3243SOL    HW221189   0.976   0.860   4.541  0.8318  2.4332 -0.8867
 3244SOL     OW21190   3.894   1.882  15.929 -0.0349 -0.2614 -0.1876
 3244SOL    HW121191   3.867   1.936  15.855 -1.4506 -1.4749 -0.5602
 3244SOL    HW221192   3.896   1.792  15.896  1.8453 -0.0160 -0.7704
 3245SOL     OW21193   2.273   4.325   5.154 -0.3020 -0.1820  0.1416
 3245SOL    HW121194   2.307   4.273   5.081 -0.4370  0.6746 -0.5266
 3245SOL    HW221195   2.313   4.410   5.135  1.6853 -0.8393  1.4052
 3246SOL     OW21196   1.298   2.548   8.423  0.0203  0.5143 -0.0025
 3246SOL    HW121197   1.292   2.469   8.476  0.3338  0.5538  0.0887
 3246SOL    HW221198   1.207   2.574   8.412  0.7107  1.8576 -2.5450
 3247SOL     OW21199   0.157   4.503   0.487  0.2166 -0.0444  0.2327
 3247SOL    HW121200   0.205   4.540   0.561  0.6697 -2.2704  1.0609
 3247SOL    HW221201   0.216   4.513   0.413 -0.4244 -2.6442 -0.6229
 3248SOL     OW21202   0.382   3.957   7.227 -0.2271 -0.4421 -0.6117
 3248SOL    HW121203   0.432   4.038   7.220 -1.5105  0.3699 -0.3927
 3248SOL    HW221204   0.395   3.928   7.317 -1.4293  4.9039  1.2831
 3249SOL     OW21205   2.083   3.278   7.279 -0.0337  0.0289  0.0281
 3249SOL    HW121206   2.069   3.320   7.194  1.8968  1.0245  0.1871
 3249SOL    HW221207   2.071   3.353   7.337 -1.1483 -0.8993  0.9980
 3250SOL     OW21208   2.706   1.866  14.101  0.3744  0.0667 -0.3209
 3250SOL    HW121209   2.673   1.876  14.012 -1.0156  0.8135  0.2836
 3250SOL    HW221210   2.672   1.783  14.135 -0.5032  0.0296 -1.3198
 3251SOL     OW21211   3.401   2.358   3.002  0.1041 -0.0083 -0.4872
 3251SOL    HW121212   3.365   2.384   3.087  0.8338 -0.2834 -0.0947
 3251SOL    HW221213   3.493   2.365   3.025  0.4849  0.6418 -2.1762
 3252SOL     OW21214   1.314   1.024   8.020  0.0219 -0.1296  0.6429
 3252SOL    HW121215   1.270   1.048   7.939 -0.6298 -1.2650  0.6549
 3252SOL    HW221216   1.274   0.944   8.055 -0.0740 -0.9215 -1.2733
 3253SOL     OW21217   1.331   1.769   6.519  0.3577 -0.0500 -0.1602
 3253SOL    HW121218   1.322   1.682   6.479 -2.3807 -1.1800  2.8975
 3253SOL    HW221219   1.366   1.738   6.602 -0.5887  0.2385  0.3392
 3254SOL     OW21220   3.040   3.882   3.296 -0.0241 -0.1320 -0.6303
 3254SOL    HW121221   3.039   3.856   3.204  0.2975  4.0010 -1.8065
 3254SOL    HW221222   3.105   3.952   3.294  0.5239 -0.7001 -3.1525
 3255SOL     OW21223   3.070   0.637  13.606  0.8636  0.0083  0.6494
 3255SOL    HW121224   3.002   0.694  13.570  1.6855 -0.2273 -1.2958
 3255SOL    HW221225   3.042   0.553  13.570  1.0717  2.2307 -4.7787
 3256SOL     OW21226   4.587   3.856  11.902 -0.0768 -0.0632 -0.1945
 3256SOL    HW121227   4.596   3.913  11.978  1.6811  0.3270 -0.6935
 3256SOL    HW221228   4.673   3.856  11.860 -0.3230 -1.2356 -0.7290
 3257SOL     OW21229   1.906   2.033  11.080  0.1011 -0.6186 -0.0113
 3257SOL    HW121230   1.882   1.941  11.092 -0.0346 -0.7244 -1.0295
 3257SOL    HW221231   1.938   2.067  11.163 -1.4474  0.7677  0.0166
 3258SOL     OW21232   1.010   4.646   1.575 -0.2557  0.3051 -0.4503
 3258SOL    HW121233   1.007   4.708   1.648 -1.5987  0.0897 -0.3207
 3258SOL    HW221234   1.097   4.679   1.553  0.7069 -1.0070  1.3059
 3259SOL     OW21235   3.784   4.373   7.893  0.2551  0.7163 -0.4656
 3259SOL    HW121236   3.728   4.322   7.951  0.9267  1.2592  0.6588
 3259SOL    HW221237   3.710   4.412   7.846 -1.1353 -1.2039  0.1343
 3260SOL     OW21238   1.108   1.156   2.009 -0.1546  0.1352 -0.2183
 3260SOL    HW121239   1.111   1.192   2.097  1.3174 -0.1666 -0.1390
 3260SOL    HW221240   1.054   1.224   1.970 -0.2907  0.8561  1.2593
 3261SOL     OW21241   3.875   2.618   4.495  0.0523 -0.0022 -0.0597
 3261SOL    HW121242   3.962   2.583   4.513  0.7993  0.6723 -2.3340
 3261SOL    HW221243   3.827   2.536   4.485  3.6543 -1.8454 -2.0848
 3262SOL     OW21244   3.360   1.818   5.832  0.3041 -0.1721 -0.1653
 3262SOL    HW121245   3.339   1.865   5.751  2.8046  1.7502  0.2948
 3262SOL    HW221246   3.385   1.892   5.888  1.2677 -1.5687  1.2507
 3263SOL     OW21247   0.693   0.882   7.409  0.1765  0.2565  0.2770
 3263SOL    HW121248   0.612   0.909   7.367  0.0570 -1.5107 -0.5871
 3263SOL    HW221249   0.670   0.894   7.502 -2.6748  1.4710 -0.5945
 3264SOL     OW21250   2.056   0.594   3.846 -0.0384 -0.3599 -0.0194
 3264SOL    HW121251   1.971   0.570   3.808  0.0942 -1.2332  0.2451
 3264SOL    HW221252   2.089   0.654   3.779 -0.5279  1.7927  1.6609
 3265SOL     OW21253   2.279   3.918   7.463 -0.5784 -0.2179  0.1700
 3265SOL    HW121254   2.278   3.905   7.368  0.1230 -0.7993  0.2453
 3265SOL    HW221255   2.285   3.828   7.494  2.7670 -0.3154 -0.7544
 3266SOL     OW21256   2.181   3.506   4.399  0.2681  0.2216 -0.2225
 3266SOL    HW121257   2.209   3.451   4.472 -3.1780 -0.6752  0.4494
 3266SOL    HW221258   2.137   3.570   4.456  1.3908 -1.1880  2.2027
 3267SOL     OW21259   3.002   3.634   6.869 -0.1971  0.9451  0.2822
 3267SOL    HW121260   3.004   3.646   6.774  0.8156  2.2555  0.4584
 3267SOL    HW221261   2.911   3.632   6.898 -0.9547 -2.4949 -2.3308
 3268SOL     OW21262   0.771   2.131   5.099  0.3573  0.1460 -0.0761
 3268SOL    HW121263   0.818   2.183   5.164  0.7647  0.0833 -0.3197
 3268SOL    HW221264   0.830   2.117   5.025 -1.8472  0.5486 -1.8934
 3269SOL     OW21265   0.709   2.961   1.725 -0.4111 -0.1455  0.2390
 3269SOL    HW121266   0.786   2.990   1.675  1.0866 -1.3715  1.8257
 3269SOL    HW221267   0.656   3.038   1.705 -0.7920 -0.8448 -1.5019
 3270SOL     OW21268   1.877   3.143   2.368 -0.0440  0.2600 -0.5425
 3270SOL    HW121269   1.926   3.080   2.315 -1.1608  0.7902 -2.2226
 3270SOL    HW221270   1.944   3.173   2.429 -1.6736  0.5102  1.1254
 3271SOL     OW21271   2.870   0.796   1.944  0.0286 -0.1381  0.6274
 3271SOL    HW121272   2.917   0.879   1.934 -1.9997  0.8633 -0.6530
 3271SOL    HW221273   2.783   0.822   1.975 -0.9846 -2.1252 -0.5585
 3272SOL     OW21274   1.134   0.845   3.146  0.1647  0.0678  0.7433
 3272SOL    HW121275   1.062   0.869   3.088  1.2631  0.3137 -0.5072
 3272SOL    HW221276   1.125   0.750   3.141  0.8105  0.0746 -0.3936
 3273SOL     OW21277   3.100   0.544  16.442 -0.2136 -0.3824  0.1219
 3273SOL    HW121278   3.090   0.503  16.356 -0.1738 -1.8827  0.8228
 3273SOL    HW221279   3.191   0.573  16.437  0.0116 -1.3905 -1.5364
 3274SOL     OW21280   2.138   2.636   3.670  0.4517 -0.4411 -0.2721
 3274SOL    HW121281   2.070   2.703   3.668  0.1778 -0.7062  0.0823
 3274SOL    HW221282   2.207   2.701   3.653  0.8998 -0.9294 -0.3340
 3275SOL     OW21283   0.142   0.973   1.107 -0.1001  0.5492  0.1203
 3275SOL    HW121284   0.052   0.958   1.134 -0.1960  0.7221 -0.1017
 3275SOL    HW221285   0.146   1.045   1.044  0.5548  1.8064  1.6064
 3276SOL     OW21286   1.066   1.664   5.737  0.0436  0.2939  0.0767
 3276SOL    HW121287   1.000   1.613   5.691 -0.4380  0.7017  0.3209
 3276SOL    HW221288   1.119   1.703   5.667 -1.1138  0.1969 -0.8457
 3277SOL     OW21289   2.549   0.746  16.472  0.1726 -0.2730  0.0053
 3277SOL    HW121290   2.559   0.758  16.377  0.5200 -0.5373  0.0068
 3277SOL    HW221291   2.462   0.708  16.468  1.7729 -3.8232 -1.5877
 3278SOL     OW21292   2.739   1.684  15.305 -0.4166 -0.2109 -0.2001
 3278SOL    HW121293   2.763   1.709  15.394 -1.2002 -0.9746  0.2303
 3278SOL    HW221294   2.801   1.611  15.304  0.0265  0.1638  0.8570
 3279SOL     OW21295   3.591   3.068   1.645  0.0168  0.1987 -0.0311
 3279SOL    HW121296   3.527   3.088   1.713 -0.4886 -1.1640 -0.1114
 3279SOL    HW221297   3.669   3.112   1.679 -0.7747  0.5218  1.3905
 3280SOL     OW21298   0.853   4.504   0.616  0.3605  0.2083 -0.1153
 3280SOL    HW121299   0.866   4.598   0.629 -3.0142  0.6063  0.3214
 3280SOL    HW221300   0.788   4.488   0.684 -0.6993  3.7703 -0.2959
 3281SOL     OW21301   1.964   3.014   2.924 -0.1030  0.8206  0.4677
 3281SOL    HW121302   1.955   2.948   2.993 -2.6404 -0.3453 -0.9780
 3281SOL    HW221303   1.952   3.095   2.973 -0.0437  0.7172  0.6576
 3282SOL     OW21304   3.927   1.753   9.087  0.1310  0.3502  0.8106
 3282SOL    HW121305   4.021   1.762   9.103  0.7804 -0.9299 -2.2261
 3282SOL    HW221306   3.914   1.836   9.040 -0.1711  0.3775  0.9445
 3283SOL     OW21307   0.736   2.509   5.746  0.0294 -0.0483 -0.3066
 3283SOL    HW121308   0.795   2.474   5.679  1.1959 -0.4501  0.9304
 3283SOL    HW221309   0.708   2.432   5.794  1.8536 -2.3511 -2.9068
 3284SOL     OW21310   0.582   2.247   8.111 -0.3125 -0.0945 -1.3220
 3284SOL    HW121311   0.544   2.165   8.142  0.0121  0.3912  0.3824
 3284SOL    HW221312   0.538   2.306   8.172  0.6516 -1.0025  0.2568
 3285SOL     OW21313   4.394   1.828  10.735 -0.8127  0.0837 -0.2535
 3285SOL    HW121314   4.301   1.850  10.744 -1.3137 -1.4233 -1.6630
 3285SOL    HW221315   4.407   1.788  10.821  0.2722  0.0524 -0.4382
 3286SOL     OW21316   2.079   2.282   0.585 -0.1523  0.3927  0.0593
 3286SOL    HW121317   2.067   2.263   0.678  3.0007 -0.6255  0.2681
 3286SOL    HW221318   1.991   2.313   0.564 -0.6997 -0.2588  1.3870
 3287SOL     OW21319   3.795   4.612   7.060  0.0774  0.7221  0.6291
 3287SOL    HW121320   3.725   4.662   7.103 -0.0100  0.0616  1.2514
 3287SOL    HW221321   3.774   4.527   7.099  1.7382  1.2859  2.7750
 3288SOL     OW21322   3.109   3.613   7.143 -0.0756  0.2696 -0.2180
 3288SOL    HW121323   3.059   3.595   7.063 -1.1275 -1.3891  0.8114
 3288SOL    HW221324   3.186   3.557   7.131 -1.4124 -1.2890 -1.5542
 3289SOL     OW21325   4.673   0.075   2.713  0.1643  0.0770  0.1308
 3289SOL    HW121326   4.704   0.141   2.651 -1.3691  1.0670  0.4199
 3289SOL    HW221327   4.700   0.116   2.795  0.1674  1.0774 -0.3809
 3290SOL     OW21328   3.753   1.751   4.679 -0.4387 -0.7414 -0.0452
 3290SOL    HW121329   3.754   1.664   4.640 -1.5793 -0.8704  0.2036
 3290SOL    HW221330   3.691   1.800   4.624 -0.2905 -1.1304 -0.5590
 3291SOL     OW21331   1.823   4.640  10.832  0.1622 -0.1684  0.7314
 3291SOL    HW121332   1.789   4.572  10.774  0.6555  0.8094 -0.7033
 3291SOL    HW221333   1.816   4.720  10.779  1.1568  0.5562  1.6891
 3292SOL     OW21334   3.589   3.243   3.327 -0.2014  0.0638 -0.0535
 3292SOL    HW121335   3.508   3.292   3.338  0.3186  0.7152  0.8906
 3292SOL    HW221336   3.544   3.164   3.357 -1.8212  1.7446  1.8934
 3293SOL     OW21337   4.441   0.280   1.625  0.5343  0.5237  0.1375
 3293SOL    HW121338   4.456   0.186   1.620 -1.1679  0.3412 -1.4719
 3293SOL    HW221339   4.419   0.303   1.535  0.9410  0.7774  0.0996
 3294SOL     OW21340   3.645   2.377   4.858  0.6003  0.1424 -0.4375
 3294SOL    HW121341   3.700   2.453   4.881  0.2569 -0.5641  2.6615
 3294SOL    HW221342   3.661   2.376   4.763  3.8535 -1.5618  0.1232
 3295SOL     OW21343   2.173   4.088   6.007  0.1199  0.0565  0.3165
 3295SOL    HW121344   2.201   4.173   5.972 -2.4728  1.8169  2.5748
 3295SOL    HW221345   2.084   4.098   6.041  0.6132 -0.6557  1.8295
 3296SOL     OW21346   1.129   0.920   4.986  0.0003 -0.3135 -0.7119
 3296SOL    HW121347   1.081   0.900   5.067 -0.6639 -0.8047 -1.2359
 3296SOL    HW221348   1.172   1.000   5.018 -0.3421 -0.8847  1.2232
 3297SOL     OW21349   2.555   2.640   1.092 -0.1896  0.0607  0.0659
 3297SOL    HW121350   2.634   2.586   1.095  1.8136  2.7437 -4.2159
 3297SOL    HW221351   2.576   2.702   1.023  1.1279  1.2943  1.5867
 3298SOL     OW21352   0.640   0.829   0.545  0.5854 -0.6546 -0.2895
 3298SOL    HW121353   0.716   0.799   0.595  1.6658  1.3557 -0.7321
 3298SOL    HW221354   0.589   0.872   0.614  1.4439  1.1573 -0.7700
 3299SOL     OW21355   1.353   2.129   2.743 -0.4117  0.1328 -0.2051
 3299SOL    HW121356   1.437   2.175   2.743  0.6531 -1.8134 -0.6544
 3299SOL    HW221357   1.299   2.200   2.780 -0.3671  1.0246 -1.8520
 3300SOL     OW21358   4.517   0.334  17.164 -0.7383  0.2731 -0.5813
 3300SOL    HW121359   4.589   0.356  17.106  0.9019  0.3778  1.4923
 3300SOL    HW221360   4.523   0.238  17.163  0.1244  0.2971  2.1848
 3301SOL     OW21361   2.325   2.732   8.641 -0.2150 -0.1232  0.0280
 3301SOL    HW121362   2.371   2.663   8.688 -0.2664  2.3361  3.6794
 3301SOL    HW221363   2.257   2.674   8.607 -0.2249  0.4495 -0.9233
 3302SOL     OW21364   1.070   0.242   3.736  0.4196 -0.3774  0.1915
 3302SOL    HW121365   1.129   0.304   3.694 -1.5745  0.0072 -2.0108
 3302SOL    HW221366   1.123   0.196   3.802  0.9862  0.8621  0.5928
 3303SOL     OW21367   1.453   3.425   6.668  0.1179  0.3727 -0.8127
 3303SOL    HW121368   1.365   3.395   6.646  0.8162 -2.0132 -0.4661
 3303SOL    HW221369   1.463   3.485   6.595 -0.2763 -0.3920 -1.4976
 3304SOL     OW21370   4.460   2.085   3.710 -0.1770  0.0160 -0.5389
 3304SOL    HW121371   4.519   2.159   3.729 -0.0609  0.3388 -2.1901
 3304SOL    HW221372   4.461   2.087   3.614 -0.7044  1.6010 -0.5148
 3305SOL     OW21373   3.853   1.335   7.599 -0.6499  0.1128  0.3610
 3305SOL    HW121374   3.840   1.240   7.598  0.3306 -0.0343  1.1656
 3305SOL    HW221375   3.765   1.366   7.578 -0.8088 -1.1087 -0.7381
 3306SOL     OW21376   4.410   0.675   5.988 -0.3382 -0.4483 -0.1285
 3306SOL    HW121377   4.388   0.736   6.059  1.1673 -0.6707  0.5497
 3306SOL    HW221378   4.506   0.680   5.992 -0.3201 -0.7321 -0.2212
 3307SOL     OW21379   4.125   2.672   1.639  0.0094 -0.6907 -0.6244
 3307SOL    HW121380   4.205   2.678   1.587 -0.0006  0.8972 -0.4754
 3307SOL    HW221381   4.127   2.748   1.697 -2.3850 -0.1254 -1.2561
 3308SOL     OW21382   1.565   0.032  10.599  0.7894  0.1100  0.3981
 3308SOL    HW121383   1.651   4.722  10.577  1.2130  1.8208 -0.7506
 3308SOL    HW221384   1.520   0.021  10.515  0.5401 -1.4485  0.7406
 3309SOL     OW21385   4.489   0.457   8.373  0.3463 -0.5655  0.5119
 3309SOL    HW121386   4.495   0.369   8.336  0.2731 -1.2271  2.1024
 3309SOL    HW221387   4.411   0.481   8.322  0.4506  2.9469  1.9842
 3310SOL     OW21388   1.119   1.043  11.417  0.5605 -0.1407  0.2446
 3310SOL    HW121389   1.079   1.096  11.348 -0.3221  0.0108  0.8664
 3310SOL    HW221390   1.060   1.067  11.489  0.8600  0.7828  0.1812
 3311SOL     OW21391   1.915   0.996   5.568 -0.1467 -0.2254 -0.2814
 3311SOL    HW121392   1.909   1.032   5.656  1.2474 -0.4623 -0.0828
 3311SOL    HW221393   1.867   1.052   5.507  0.6172 -1.8590 -2.3964
 3312SOL     OW21394   0.675   2.228   6.701 -0.1450  0.6136 -0.4045
 3312SOL    HW121395   0.661   2.172   6.625 -2.0853 -0.7565  0.9506
 3312SOL    HW221396   0.706   2.165   6.766 -0.5306  0.8328 -0.0076
 3313SOL     OW21397   4.170   0.230  14.286 -0.5235  0.0846 -0.4123
 3313SOL    HW121398   4.200   0.321  14.286 -0.1247 -0.0483 -0.3009
 3313SOL    HW221399   4.222   0.191  14.356  0.9962  0.3295 -1.4008
 3314SOL     OW21400   0.130   1.116   5.745 -0.1889  0.3801 -0.4282
 3314SOL    HW121401   0.213   1.137   5.702  0.5244  2.2097  1.8674
 3314SOL    HW221402   0.068   1.166   5.692  0.4958  0.2440 -1.3565
 3315SOL     OW21403   0.313   3.647   8.134 -0.0144 -0.3923 -0.8993
 3315SOL    HW121404   0.403   3.617   8.145  1.1509  2.8466 -1.6973
 3315SOL    HW221405   0.287   3.646   8.226  1.2798  0.0625 -0.5328
 3316SOL     OW21406   2.985   2.408   2.613 -0.5131 -0.5128 -0.5061
 3316SOL    HW121407   2.944   2.322   2.619 -0.9640 -0.4119 -2.0175
 3316SOL    HW221408   3.075   2.388   2.639 -1.1612 -1.7307  0.7871
 3317SOL     OW21409   3.309   2.875   3.335 -0.5953  0.1550 -0.5852
 3317SOL    HW121410   3.349   2.934   3.398 -1.9518 -1.2044  1.5698
 3317SOL    HW221411   3.268   2.822   3.404  1.6329  0.1052  0.6823
 3318SOL     OW21412   2.763   4.037   5.447 -0.2533 -0.1512 -0.0388
 3318SOL    HW121413   2.682   4.088   5.438  1.1467  2.0737 -0.0583
 3318SOL    HW221414   2.734   3.947   5.435 -1.9936  0.4925 -0.6361
 3319SOL     OW21415   0.076   4.438   1.497  0.9040 -0.2609  0.2874
 3319SOL    HW121416   0.145   4.426   1.563  1.4520  0.3308 -0.1761
 3319SOL    HW221417   0.038   4.526   1.505  2.5845  0.5573 -0.7277
 3320SOL     OW21418   0.972   3.422   5.128  0.2797 -0.6948 -0.7053
 3320SOL    HW121419   1.031   3.497   5.124 -1.0466  0.2708 -1.9106
 3320SOL    HW221420   1.009   3.348   5.177 -0.4545 -1.3400 -1.1221
 3321SOL     OW21421   1.788   3.107  15.902 -0.4713 -0.0087  0.3786
 3321SOL    HW121422   1.838   3.039  15.946 -0.4557 -0.8551 -0.9518
 3321SOL    HW221423   1.821   3.184  15.950 -0.3520  0.2006 -0.0420
 3322SOL     OW21424   1.135   1.479   7.508 -0.2975  0.6486  0.0787
 3322SOL    HW121425   1.050   1.450   7.475 -0.4183  0.3348  0.6662
 3322SOL    HW221426   1.172   1.521   7.430 -3.6399  2.8376 -0.3499
 3323SOL     OW21427   2.965   1.773  10.648 -0.4939  0.0447  0.2717
 3323SOL    HW121428   2.947   1.788  10.555 -3.3312 -2.5862  0.4461
 3323SOL    HW221429   2.875   1.772  10.680 -1.2856  1.1623 -1.9618
 3324SOL     OW21430   4.584   3.388   2.770  0.2805 -0.1949  0.1435
 3324SOL    HW121431   4.593   3.452   2.699 -0.0455  0.1702  0.4366
 3324SOL    HW221432   4.643   3.319   2.740  0.7334  0.1770  0.1785
 3325SOL     OW21433   0.578   3.228  11.331 -0.2922 -0.2140 -0.2479
 3325SOL    HW121434   0.494   3.187  11.313 -0.1565 -1.1753  1.2710
 3325SOL    HW221435   0.604   3.233  11.239  2.1997  0.2575  0.4570
 3326SOL     OW21436   3.051   1.865  10.138 -0.2258 -0.1607 -0.1751
 3326SOL    HW121437   3.122   1.829  10.084 -0.9036  1.2753 -2.0500
 3326SOL    HW221438   2.994   1.907  10.073 -0.6817 -0.1102  0.2561
 3327SOL     OW21439   3.782   2.449   8.811  0.3171 -0.4178  0.1289
 3327SOL    HW121440   3.855   2.387   8.810  0.2243 -0.5208 -0.8829
 3327SOL    HW221441   3.707   2.393   8.833  1.3772 -1.3506  1.3548
 3328SOL     OW21442   4.312   4.693  14.415 -0.4102 -0.0451  0.4852
 3328SOL    HW121443   4.331   4.600  14.404  0.8632  0.3243 -0.4644
 3328SOL    HW221444   4.399   0.005  14.429 -0.5981  0.2378  0.8841
 3329SOL     OW21445   1.244   0.022  15.193 -0.2629 -0.7796  0.1689
 3329SOL    HW121446   1.264   4.673  15.250  1.2743  1.0113  1.9919
 3329SOL    HW221447   1.323   0.026  15.139 -0.1907  0.8382  0.3913
 3330SOL     OW21448   0.340   3.108  11.335  0.6729  0.2545 -0.0083
 3330SOL    HW121449   0.341   3.027  11.283  1.3832  0.9419 -1.0505
 3330SOL    HW221450   0.253   3.108  11.377  0.3839  0.3138 -0.6029
 3331SOL     OW21451   4.068   0.124   7.046 -0.2287  0.7376  0.1122
 3331SOL    HW121452   4.049   0.142   7.138  0.5479 -1.1670  0.6542
 3331SOL    HW221453   4.026   0.039   7.030  1.6608 -0.5108  1.8510
 3332SOL     OW21454   2.264   3.260   0.827  0.3471  0.4492 -0.3720
 3332SOL    HW121455   2.273   3.187   0.766 -0.1695  0.3006 -0.2727
 3332SOL    HW221456   2.312   3.336   0.793  1.6370  0.4356  1.4112
 3333SOL     OW21457   2.402   0.643  10.336 -0.0984 -0.3783  0.3337
 3333SOL    HW121458   2.467   0.591  10.289  0.5813 -0.6271  1.5587
 3333SOL    HW221459   2.458   0.696  10.393  1.3597 -1.3143 -0.2460
 3334SOL     OW21460   3.400   3.978  16.533  0.0203  0.3256 -0.1205
 3334SOL    HW121461   3.358   4.045  16.480  0.8577  0.2567 -0.8608
 3334SOL    HW221462   3.390   4.003  16.625 -1.2012  0.3780 -0.2627
 3335SOL     OW21463   0.915   4.643   6.146 -0.0960 -0.1660  0.0382
 3335SOL    HW121464   0.986   4.583   6.123 -1.8401 -1.4210 -2.0526
 3335SOL    HW221465   0.857   4.578   6.185 -0.5727  0.0536 -0.3110
 3336SOL     OW21466   3.582   0.894  12.996 -0.3059 -0.1267  0.1437
 3336SOL    HW121467   3.669   0.891  12.955 -0.1956 -1.6688  0.4923
 3336SOL    HW221468   3.560   0.809  13.034 -0.4442  0.1601  0.7016
 3337SOL     OW21469   4.642   3.919   4.833  0.1662 -0.0880 -0.3595
 3337SOL    HW121470   4.709   3.933   4.900 -0.1893 -1.5926  0.3059
 3337SOL    HW221471   4.596   3.842   4.866 -0.6979  1.0680  1.1552
 3338SOL     OW21472   4.616   3.362   4.567 -0.1130  0.2492 -0.3056
 3338SOL    HW121473   4.677   3.434   4.578  0.7980 -0.9385  2.3936
 3338SOL    HW221474   4.668   3.289   4.533 -0.7846 -0.0782 -0.6481
 3339SOL     OW21475   0.603   1.395   4.412 -0.1212  0.3938 -0.3405
 3339SOL    HW121476   0.600   1.417   4.505  1.7939  0.2489 -0.2337
 3339SOL    HW221477   0.634   1.478   4.375  2.3076 -0.1064  0.5753
 3340SOL     OW21478   2.869   1.515  10.399 -0.0212  0.0997  0.4991
 3340SOL    HW121479   2.804   1.524  10.329  0.4020 -1.8275 -0.1402
 3340SOL    HW221480   2.883   1.609  10.413 -0.4228  0.6599 -2.7662
 3341SOL     OW21481   2.241   3.493   2.390 -0.0148 -0.6140  0.4411
 3341SOL    HW121482   2.318   3.550   2.387  0.5450 -1.3949 -0.2132
 3341SOL    HW221483   2.245   3.446   2.474 -1.3270  0.6009  1.1665
 3342SOL     OW21484   2.151   2.783   7.047 -0.2234  0.0085  0.8166
 3342SOL    HW121485   2.069   2.744   7.078 -0.9761  0.6578 -0.3435
 3342SOL    HW221486   2.178   2.735   6.969  0.3785  0.6278  0.6390
 3343SOL     OW21487   1.324   1.796   4.654 -0.5225  0.4475  0.0665
 3343SOL    HW121488   1.236   1.825   4.629 -0.7868 -0.5259 -0.1034
 3343SOL    HW221489   1.309   1.706   4.680 -0.5204  0.1112 -1.0861
 3344SOL     OW21490   0.990   1.019  12.022  0.1575 -0.0583  0.2819
 3344SOL    HW121491   1.038   0.954  11.971  1.5056  0.4815  0.8820
 3344SOL    HW221492   0.957   1.071  11.949 -1.3563 -0.4384  0.6843
 3345SOL     OW21493   2.937   0.007   4.138 -0.4567 -0.3760 -0.3326
 3345SOL    HW121494   2.998   0.024   4.209 -0.1019  2.9119 -1.4439
 3345SOL    HW221495   2.971   0.077   4.083 -5.3595  1.9605 -0.4121
 3346SOL     OW21496   3.724   1.562  11.249 -0.2979  0.2377  0.2498
 3346SOL    HW121497   3.747   1.643  11.204 -1.2310 -0.1349 -0.8925
 3346SOL    HW221498   3.629   1.579  11.247 -0.1608  0.9054 -0.8347
 3347SOL     OW21499   4.077   1.075   3.218  0.7122  0.5434  0.6896
 3347SOL    HW121500   4.107   1.138   3.152  0.5024 -0.1182 -0.0424
 3347SOL    HW221501   4.152   1.018   3.233  0.7356  0.1566 -0.8281
 3348SOL     OW21502   4.073   2.306   9.404  0.5524  0.0877 -0.5475
 3348SOL    HW121503   4.127   2.254   9.464  1.1985  0.9145 -0.4087
 3348SOL    HW221504   4.129   2.384   9.400  1.1257 -0.1527  3.0105
 3349SOL     OW21505   3.759   3.785   1.499 -0.1169 -0.5194 -0.3503
 3349SOL    HW121506   3.821   3.858   1.509 -1.4130  0.5217  0.0616
 3349SOL    HW221507   3.744   3.758   1.590  1.2870  1.6163  0.5247
 3350SOL     OW21508   2.948   2.073   7.322  0.0732 -0.3959  0.2323
 3350SOL    HW121509   2.890   2.026   7.382  0.0161 -0.2854  0.2631
 3350SOL    HW221510   2.896   2.056   7.243  0.3300 -1.2030  0.2382
 3351SOL     OW21511   3.624   4.395   4.419  0.3537 -0.3304  0.2992
 3351SOL    HW121512   3.717   4.383   4.436  0.9826  1.3840 -1.9182
 3351SOL    HW221513   3.615   4.480   4.461 -3.1587 -0.3881 -0.2675
 3352SOL     OW21514   2.420   1.354   1.197 -0.4952 -0.1300  0.0466
 3352SOL    HW121515   2.329   1.361   1.171 -0.9591  0.9955  2.0446
 3352SOL    HW221516   2.439   1.440   1.235  0.1213  0.7681 -2.2872
 3353SOL     OW21517   4.392   4.310  15.243 -0.0458 -0.4437 -0.6291
 3353SOL    HW121518   4.430   4.228  15.273 -0.4266 -0.4161 -0.0583
 3353SOL    HW221519   4.466   4.356  15.202 -1.2954 -0.7211 -3.1590
 3354SOL     OW21520   4.691   2.259   5.562 -0.2847 -0.2633 -0.8172
 3354SOL    HW121521   4.679   2.171   5.528 -1.4917 -0.6962  0.7114
 3354SOL    HW221522   0.003   2.242   5.648 -0.1390 -1.1325 -1.0598
 3355SOL     OW21523   2.444   1.104   2.787  0.2529 -0.3872  0.3138
 3355SOL    HW121524   2.511   1.172   2.782 -1.7211  1.6020  1.0569
 3355SOL    HW221525   2.464   1.060   2.869 -0.0812  2.6770  2.0513
 3356SOL     OW21526   3.181   3.504   5.346  0.0318 -0.0145 -0.1626
 3356SOL    HW121527   3.228   3.420   5.350  0.5065  0.3115  0.9557
 3356SOL    HW221528   3.101   3.491   5.397  0.3998 -1.2183  0.1115
 3357SOL     OW21529   4.031   0.406   2.584  0.2892  0.3888  0.2571
 3357SOL    HW121530   3.983   0.415   2.666  1.4253  0.7744  0.8873
 3357SOL    HW221531   4.092   0.479   2.597  2.4219 -1.7842  2.4928
 3358SOL     OW21532   4.675   3.435   7.524 -0.1679 -0.0840 -0.0758
 3358SOL    HW121533   0.011   3.393   7.464  0.9177  1.7625 -0.2378
 3358SOL    HW221534   4.645   3.362   7.578 -0.8808  0.4959  0.3050
 3359SOL     OW21535   1.809   0.324   7.606  0.6196  0.0728  0.5091
 3359SOL    HW121536   1.793   0.235   7.639  0.1199  0.7555  2.1092
 3359SOL    HW221537   1.782   0.301   7.517 -0.5383  1.8328  0.4157
 3360SOL     OW21538   3.566   2.694  10.092  0.5684 -0.0909 -0.4626
 3360SOL    HW121539   3.479   2.700  10.053  0.5755  0.5417 -0.3871
 3360SOL    HW221540   3.614   2.722  10.014  1.5790 -0.3570  0.0664
 3361SOL     OW21541   0.088   3.408   2.066  0.1895 -0.1571  0.0497
 3361SOL    HW121542   0.153   3.355   2.019  0.4764 -0.8092  1.1809
 3361SOL    HW221543   0.128   3.410   2.153 -1.9266  0.9450  1.0025
 3362SOL     OW21544   2.262   3.328   1.356  0.0542 -0.0789  0.5193
 3362SOL    HW121545   2.264   3.293   1.445 -2.3250 -2.9432 -0.5633
 3362SOL    HW221546   2.352   3.361   1.347  0.1445 -0.5430 -0.2524
 3363SOL     OW21547   2.846   1.693   8.989  0.0538  0.2674  0.0955
 3363SOL    HW121548   2.756   1.660   8.993 -0.3444  1.5325  1.6283
 3363SOL    HW221549   2.855   1.736   9.074 -0.0593  0.0326  0.2250
 3364SOL     OW21550   0.581   4.314   3.260  0.2963  0.4221 -0.0850
 3364SOL    HW121551   0.590   4.409   3.274  3.2786  0.4180 -2.0501
 3364SOL    HW221552   0.512   4.315   3.193  0.0117  0.1039  0.2083
 3365SOL     OW21553   3.020   3.114   3.736  0.1563  0.3722  0.1243
 3365SOL    HW121554   3.102   3.154   3.708  0.9731 -1.3434  0.0679
 3365SOL    HW221555   2.958   3.150   3.673 -1.0758 -0.8864  0.6093
 3366SOL     OW21556   4.411   4.006   7.935 -0.3593  0.1251  0.0244
 3366SOL    HW121557   4.446   3.918   7.921 -2.0047 -0.4496 -0.5177
 3366SOL    HW221558   4.484   4.056   7.898 -0.6760 -0.0447 -0.8259
 3367SOL     OW21559   0.281   0.583   9.820 -0.1999  0.1407 -0.6617
 3367SOL    HW121560   0.248   0.659   9.773 -3.5783 -0.1514  1.2368
 3367SOL    HW221561   0.327   0.625   9.893  0.3751 -0.0358 -0.9235
 3368SOL     OW21562   3.626   4.512   7.719 -0.5917 -0.0003  0.2858
 3368SOL    HW121563   3.643   4.444   7.654  1.0398  0.5754  0.0939
 3368SOL    HW221564   3.531   4.522   7.718 -0.6507 -0.6451 -0.8652
 3369SOL     OW21565   4.369   3.827  16.313 -0.0012  0.0463  0.3183
 3369SOL    HW121566   4.440   3.795  16.368 -0.0572  2.5635  1.8365
 3369SOL    HW221567   4.306   3.755  16.309 -1.7324  1.6878 -1.8498
 3370SOL     OW21568   4.416   0.698   0.466 -0.0228 -0.1908  0.1348
 3370SOL    HW121569   4.495   0.686   0.413 -0.1443  1.0229 -0.3380
 3370SOL    HW221570   4.408   0.618   0.516  1.3068 -0.5294 -0.1791
 3371SOL     OW21571   1.937   2.961   8.806 -0.3553 -0.0732  0.5663
 3371SOL    HW121572   1.963   3.050   8.783 -3.0185  0.8297  1.0396
 3371SOL    HW221573   2.025   2.938   8.836 -0.9119 -1.7563  0.8894
 3372SOL     OW21574   0.707   3.866  12.817  0.0778 -0.2054 -0.2033
 3372SOL    HW121575   0.785   3.921  12.817 -1.0312  1.3636  1.4153
 3372SOL    HW221576   0.647   3.935  12.845 -1.5416 -2.4027  1.7219
 3373SOL     OW21577   3.433   2.342  12.267  0.1402  0.1940 -0.1166
 3373SOL    HW121578   3.518   2.306  12.242  0.0781  0.4007 -0.6328
 3373SOL    HW221579   3.382   2.282  12.211 -0.4937 -0.5022  1.2086
 3374SOL     OW21580   2.030   1.022  16.696  0.3939  0.1531  0.2948
 3374SOL    HW121581   1.986   0.999  16.615  1.8754  2.9636 -1.3336
 3374SOL    HW221582   1.982   1.095  16.735 -0.4806 -1.8992  3.0175
 3375SOL     OW21583   4.078   3.953  11.717  0.0715  0.0457 -0.2304
 3375SOL    HW121584   4.158   4.000  11.742  0.3106  0.9784 -2.7186
 3375SOL    HW221585   4.094   3.935  11.624  0.9833  1.0016 -0.2538
 3376SOL     OW21586   1.636   3.579   0.696  0.1698  0.2484  0.2248
 3376SOL    HW121587   1.594   3.631   0.765 -1.2152  1.3043 -1.3955
 3376SOL    HW221588   1.601   3.491   0.712  2.3354 -0.6410  0.0363
 3377SOL     OW21589   4.411   1.659  11.415  0.0040  0.2225 -0.2002
 3377SOL    HW121590   4.503   1.643  11.436 -0.4555 -1.8451  0.2610
 3377SOL    HW221591   4.383   1.707  11.492  1.4800 -1.5045  1.4142
 3378SOL     OW21592   0.678   3.330   1.995 -0.0476  0.1212  0.0554
 3378SOL    HW121593   0.676   3.241   1.961 -1.9948 -0.0199  0.5453
 3378SOL    HW221594   0.629   3.367   1.922 -0.1715 -2.2736 -1.0573
 3379SOL     OW21595   2.733   4.633  15.820  0.0111 -0.0637  0.3802
 3379SOL    HW121596   2.683   4.620  15.901  1.7060  0.4655  1.4958
 3379SOL    HW221597   2.746   4.543  15.788  0.3587 -0.0427  0.4693
 3380SOL     OW21598   0.703   4.086   4.348 -0.2089 -0.1079  0.3185
 3380SOL    HW121599   0.702   4.149   4.420  3.0388 -0.3724  0.5542
 3380SOL    HW221600   0.786   4.115   4.310 -0.4895  0.1948 -0.0636
 3381SOL     OW21601   4.158   2.819   2.435  0.4375 -0.4110  0.2248
 3381SOL    HW121602   4.194   2.880   2.372 -0.4604 -0.5571 -0.4237
 3381SOL    HW221603   4.093   2.878   2.474 -0.3728 -0.5916 -0.8814
 3382SOL     OW21604   0.358   3.266   1.971 -0.2176  0.2656 -0.0862
 3382SOL    HW121605   0.281   3.211   1.956  1.1731 -1.5074 -0.6981
 3382SOL    HW221606   0.426   3.200   1.954  0.0964  0.3659  0.7960
 3383SOL     OW21607   1.269   0.170   1.153  0.0612 -0.1292  0.2638
 3383SOL    HW121608   1.252   0.079   1.126 -2.1933 -0.4617  2.8637
 3383SOL    HW221609   1.250   0.167   1.246 -0.8758 -2.6885 -0.0090
 3384SOL     OW21610   3.915   0.231   4.245  0.4094  0.0346  0.2038
 3384SOL    HW121611   3.880   0.177   4.174 -3.6689  1.7796  0.9006
 3384SOL    HW221612   3.878   0.186   4.321  0.7973 -0.8074 -0.1031
 3385SOL     OW21613   1.495   3.217   3.932  0.2148 -0.1579 -0.2118
 3385SOL    HW121614   1.462   3.129   3.912  0.0581  0.2395 -1.6965
 3385SOL    HW221615   1.522   3.246   3.845 -1.1452  1.4078 -0.1216
 3386SOL     OW21616   0.273   4.261   0.656 -0.1562 -1.1418 -0.4810
 3386SOL    HW121617   0.200   4.214   0.696 -1.2120 -0.3362 -1.4458
 3386SOL    HW221618   0.250   4.256   0.563 -3.0532  0.1080  0.1571
 3387SOL     OW21619   2.409   1.480   9.518  0.1075  0.3058  0.2303
 3387SOL    HW121620   2.479   1.449   9.576  0.0274 -0.4177 -0.0614
 3387SOL    HW221621   2.334   1.470   9.577  0.9616 -0.9270  1.1315
 3388SOL     OW21622   3.223   4.183   4.225 -0.1600 -0.0973  0.1206
 3388SOL    HW121623   3.276   4.252   4.184  0.1559 -0.6676 -0.4241
 3388SOL    HW221624   3.223   4.130   4.145 -2.6494  0.4048 -0.2389
 3389SOL     OW21625   0.500   1.380   0.886 -0.2244 -0.4483 -0.5613
 3389SOL    HW121626   0.459   1.423   0.811  2.0491  0.5260 -1.2553
 3389SOL    HW221627   0.489   1.442   0.957 -0.5452 -0.3161 -0.7262
 3390SOL     OW21628   0.253   0.644   3.967  0.3935 -0.1547  0.1421
 3390SOL    HW121629   0.265   0.580   3.898 -2.0889 -2.5331  1.9497
 3390SOL    HW221630   0.254   0.592   4.047 -1.4294  1.5633  1.2947
 3391SOL     OW21631   0.040   2.700   3.535 -0.0456  0.0119 -0.3606
 3391SOL    HW121632   0.085   2.764   3.591  2.9557 -0.5544 -2.0811
 3391SOL    HW221633   4.694   2.759   3.515 -0.9543 -0.9935  0.0019
 3392SOL     OW21634   3.040   1.428   5.190  0.0628  0.2436  0.8884
 3392SOL    HW121635   2.953   1.467   5.196 -1.1362 -1.9231 -2.4753
 3392SOL    HW221636   3.104   1.499   5.191  0.4443 -0.0574 -2.5857
 3393SOL     OW21637   1.347   3.319   7.899  0.1449  0.2782 -0.1449
 3393SOL    HW121638   1.345   3.372   7.978 -1.2695  0.4967 -0.3281
 3393SOL    HW221639   1.262   3.274   7.895  0.0195  0.4943  0.1123
 3394SOL     OW21640   2.389   2.667   0.723 -0.1428  0.2973 -0.3217
 3394SOL    HW121641   2.453   2.691   0.656  0.9658  1.0859  1.0154
 3394SOL    HW221642   2.437   2.674   0.805  1.2842 -1.9414 -0.9701
 3395SOL     OW21643   2.319   4.397  16.589  0.0811 -0.3920 -0.6341
 3395SOL    HW121644   2.225   4.414  16.592  0.2851  0.5636  0.2332
 3395SOL    HW221645   2.360   4.480  16.612 -1.4134  0.4744 -1.0864
 3396SOL     OW21646   0.679   0.910  15.704  0.3164  0.5540  0.0975
 3396SOL    HW121647   0.695   1.004  15.713 -0.7826  0.7346  0.1545
 3396SOL    HW221648   0.651   0.892  15.794 -1.3190  1.1255 -0.3132
 3397SOL     OW21649   0.357   0.856   7.619  0.2088 -0.9775 -0.6237
 3397SOL    HW121650   0.448   0.827   7.612  0.0274 -1.7946  0.2953
 3397SOL    HW221651   0.313   0.777   7.652 -0.0428 -0.6091 -0.0717
 3398SOL     OW21652   4.237   2.987   2.237  0.1317  0.1907  0.2750
 3398SOL    HW121653   4.162   2.999   2.179  0.0334 -0.6514  0.2341
 3398SOL    HW221654   4.282   3.070   2.222 -0.2390  0.4618  0.6739
 3399SOL     OW21655   0.175   1.716  12.358 -0.9228 -0.1321  0.4366
 3399SOL    HW121656   0.099   1.765  12.389 -0.1550  1.4341 -0.1810
 3399SOL    HW221657   0.141   1.627  12.348  1.1993 -0.9514  0.4013
 3400SOL     OW21658   4.381   2.758   1.805 -0.8891 -0.2760 -0.4254
 3400SOL    HW121659   4.413   2.728   1.720  3.7909 -1.2222  1.6840
 3400SOL    HW221660   4.374   2.673   1.849 -0.4017 -0.8490 -1.4327
 3401SOL     OW21661   0.780   0.431   9.473 -0.0947 -0.7799 -0.2691
 3401SOL    HW121662   0.696   0.425   9.518  0.1480 -0.2654  0.2609
 3401SOL    HW221663   0.803   0.338   9.473 -2.8876 -1.4818 -2.1272
 3402SOL     OW21664   0.510   4.185   3.786  0.0226  0.4920 -0.2686
 3402SOL    HW121665   0.515   4.238   3.707  1.3051 -1.9593 -1.8300
 3402SOL    HW221666   0.532   4.096   3.757 -0.8294  0.1107  0.2292
 3403SOL     OW21667   3.413   4.218   2.271  0.1458 -0.4138 -0.0613
 3403SOL    HW121668   3.366   4.300   2.258 -2.6814 -1.7424  1.5170
 3403SOL    HW221669   3.496   4.243   2.231 -0.4648  0.4163 -0.8062
 3404SOL     OW21670   1.609   4.471   1.097  0.0820 -0.0275 -0.0652
 3404SOL    HW121671   1.620   4.383   1.059  1.7793  0.6924 -1.2407
 3404SOL    HW221672   1.652   4.458   1.181  0.7504 -2.1546 -0.7388
 3405SOL     OW21673   3.109   2.387   8.727 -0.2207  0.4066  0.2862
 3405SOL    HW121674   3.088   2.413   8.637  2.0446 -0.6612 -0.5584
 3405SOL    HW221675   3.049   2.448   8.770 -1.4614 -0.6899  0.1302
 3406SOL     OW21676   1.529   4.644   0.629 -0.3454  0.2687 -0.5690
 3406SOL    HW121677   1.541   0.009   0.602  2.6435  0.2575  0.6929
 3406SOL    HW221678   1.530   4.651   0.724 -2.0646 -2.4720 -0.3429
 3407SOL     OW21679   0.789   0.225   5.213  0.1832 -0.3243  0.5142
 3407SOL    HW121680   0.819   0.136   5.234  2.0219  0.2593  0.3602
 3407SOL    HW221681   0.716   0.205   5.153  1.1308  1.9821 -1.4109
 3408SOL     OW21682   2.936   1.872   2.754  0.0148 -0.1165 -0.2492
 3408SOL    HW121683   2.939   1.968   2.755  0.6861 -0.1657  1.4436
 3408SOL    HW221684   3.029   1.856   2.742 -0.0324  0.4700 -1.3915
 3409SOL     OW21685   0.630   2.036   5.797 -0.3405  0.0775  0.1621
 3409SOL    HW121686   0.581   1.958   5.822 -0.3782  0.7282  2.0772
 3409SOL    HW221687   0.619   2.076   5.883  1.1023 -1.6774  1.1488
 3410SOL     OW21688   2.495   0.385   1.251 -0.1996 -0.5255  0.4814
 3410SOL    HW121689   2.515   0.479   1.245  0.1991 -0.6199  0.3290
 3410SOL    HW221690   2.579   0.342   1.261  1.2434  1.5947 -2.6245
 3411SOL     OW21691   1.873   3.707   8.022  0.4048 -0.1723  0.1982
 3411SOL    HW121692   1.790   3.660   8.015 -0.1488  0.7649  0.4869
 3411SOL    HW221693   1.870   3.746   8.110 -1.5226  1.9873 -0.8364
 3412SOL     OW21694   3.240   3.914   8.376 -0.1352 -0.1770  0.7623
 3412SOL    HW121695   3.184   3.927   8.300  1.0111  0.9375  0.1062
 3412SOL    HW221696   3.171   3.932   8.441  0.3022 -0.6629  1.3527
 3413SOL     OW21697   4.668   3.569   5.241  0.1456 -0.4548  0.2334
 3413SOL    HW121698   4.677   3.664   5.245  0.3370 -0.5264  1.4632
 3413SOL    HW221699   0.012   3.535   5.297  1.6421 -0.0037 -1.3817
 3414SOL     OW21700   2.349   2.378   5.018 -0.0710 -0.2437  0.4819
 3414SOL    HW121701   2.257   2.399   5.000  0.0960 -0.9491 -1.1383
 3414SOL    HW221702   2.392   2.426   4.948  1.8093 -0.2476  1.6355
 3415SOL     OW21703   3.072   1.358   6.664  0.0628  0.8557 -0.2961
 3415SOL    HW121704   3.153   1.344   6.614 -0.2435 -2.3660  0.1545
 3415SOL    HW221705   3.088   1.289   6.729 -0.4199  0.3270 -0.7377
 3416SOL     OW21706   4.160   3.387   1.729 -0.0649  0.2665 -0.3210
 3416SOL    HW121707   4.109   3.468   1.730 -2.1661 -1.0542 -0.9976
 3416SOL    HW221708   4.213   3.402   1.807 -0.2700  0.1332 -0.1553
 3417SOL     OW21709   0.608   1.103   1.575  0.5633  0.0174  0.5053
 3417SOL    HW121710   0.517   1.114   1.548  0.1981 -0.2171  1.6340
 3417SOL    HW221711   0.649   1.188   1.558  0.9691 -0.1295  0.7335
 3418SOL     OW21712   1.635   0.563  10.008 -0.3496  0.3585  0.1281
 3418SOL    HW121713   1.610   0.647   9.971 -0.9517 -0.0040 -0.2974
 3418SOL    HW221714   1.564   0.515   9.964 -0.4354  0.8267 -0.2377
 3419SOL     OW21715   2.550   2.264   6.481 -0.4138  0.2656  0.0725
 3419SOL    HW121716   2.460   2.264   6.514 -0.2366  1.4631  0.5675
 3419SOL    HW221717   2.590   2.180   6.501 -0.4561  0.1886 -0.1578
 3420SOL     OW21718   0.328   3.577   0.219 -0.3092 -0.2816 -0.0113
 3420SOL    HW121719   0.263   3.641   0.188  1.4308  1.4638 -0.0310
 3420SOL    HW221720   0.283   3.493   0.221 -1.0538  0.0922 -0.6322
 3421SOL     OW21721   3.268   3.650   6.012  0.0960 -0.6771 -0.3275
 3421SOL    HW121722   3.294   3.671   5.922  1.3331  1.8703  0.6443
 3421SOL    HW221723   3.281   3.555   6.009 -1.0720 -0.8844  1.2068
 3422SOL     OW21724   4.614   2.592  16.834 -0.2940 -0.4277  0.4761
 3422SOL    HW121725   4.598   2.546  16.916  1.2170  1.6969  1.9467
 3422SOL    HW221726   4.528   2.622  16.806  0.1036  1.2520  1.0504
 3423SOL     OW21727   2.880   0.441   3.104 -0.6887 -0.3431  0.0761
 3423SOL    HW121728   2.846   0.374   3.045 -2.7833 -0.1740  1.1164
 3423SOL    HW221729   2.797   0.476   3.135 -0.7950 -1.1885  0.7442
 3424SOL     OW21730   3.479   0.714   4.870  0.1378 -0.2683 -0.2849
 3424SOL    HW121731   3.445   0.705   4.960 -0.5853 -0.3818 -0.5685
 3424SOL    HW221732   3.433   0.790   4.835  2.5059  1.4782  0.3930
 3425SOL     OW21733   3.275   3.130  10.800  0.2032 -0.4735 -0.1072
 3425SOL    HW121734   3.225   3.137  10.718  0.3544  0.0166 -0.1545
 3425SOL    HW221735   3.210   3.070  10.838 -1.8897  0.7946 -1.6270
 3426SOL     OW21736   1.739   2.301  17.462  0.0947  0.2782  0.2370
 3426SOL    HW121737   1.796   2.280  17.535 -1.2435 -1.7333  0.7203
 3426SOL    HW221738   1.662   2.341  17.503  0.1724  0.7855 -0.1124
 3427SOL     OW21739   1.112   0.603  11.174  0.1653  0.0490 -0.5516
 3427SOL    HW121740   1.076   0.515  11.170  1.6354 -0.5851  0.3771
 3427SOL    HW221741   1.112   0.612  11.079 -0.4631  0.7502 -0.4885
 3428SOL     OW21742   0.531   2.136  16.717  0.0819 -0.1456 -0.3624
 3428SOL    HW121743   0.621   2.137  16.748  0.4505  4.7919 -1.5625
 3428SOL    HW221744   0.495   2.219  16.749  0.9953 -0.4247  1.3934
 3429SOL     OW21745   1.742   1.531  16.417 -0.0162 -0.5549 -0.3021
 3429SOL    HW121746   1.785   1.612  16.387  2.5796 -1.3208  1.3675
 3429SOL    HW221747   1.657   1.566  16.444  1.7179  4.0324 -0.7145
 3430SOL     OW21748   0.302   3.845  13.699 -0.4821  0.3972  0.3014
 3430SOL    HW121749   0.370   3.874  13.637 -1.5127 -0.4081 -1.1949
 3430SOL    HW221750   0.229   3.831  13.639  0.4569  2.4790 -1.3396
 3431SOL     OW21751   1.214   0.471   5.582 -0.1526 -1.3802 -0.4564
 3431SOL    HW121752   1.294   0.475   5.528 -0.1980  0.6973 -0.3869
 3431SOL    HW221753   1.250   0.433   5.662 -1.4453 -1.1736  0.2300
 3432SOL     OW21754   1.950   4.131   3.853 -0.1694 -0.3828 -0.1151
 3432SOL    HW121755   1.997   4.212   3.829  0.2124 -0.8642 -0.9980
 3432SOL    HW221756   1.863   4.152   3.819 -1.5043 -4.6335  0.6902
 3433SOL     OW21757   0.113   1.872  14.598  0.3645 -0.0027 -0.5048
 3433SOL    HW121758   0.040   1.810  14.591 -0.7763  1.1092  1.3032
 3433SOL    HW221759   0.108   1.912  14.511 -1.7809 -0.0686 -0.4118
 3434SOL     OW21760   1.176   2.634  12.559  0.2218 -0.0887 -1.1263
 3434SOL    HW121761   1.105   2.600  12.505 -3.4569  1.9853  2.3703
 3434SOL    HW221762   1.156   2.592  12.643 -2.0868  2.0947 -0.5795
 3435SOL     OW21763   2.740   0.811   3.362 -0.2377 -0.4020 -0.3253
 3435SOL    HW121764   2.723   0.783   3.272  0.3995 -2.9885  0.3661
 3435SOL    HW221765   2.833   0.833   3.363 -0.5031  0.7082  0.8159
 3436SOL     OW21766   4.320   4.115   3.707  0.1984  0.0827 -0.1635
 3436SOL    HW121767   4.366   4.199   3.711 -2.7392  1.7347 -0.6874
 3436SOL    HW221768   4.342   4.080   3.621 -2.2194 -1.6078 -0.1075
 3437SOL     OW21769   1.307   0.148  11.961 -0.3343 -0.0237 -0.0469
 3437SOL    HW121770   1.396   0.183  11.968 -0.4820  0.5542 -1.1386
 3437SOL    HW221771   1.297   0.105  12.046 -1.3958  4.6890  2.2044
 3438SOL     OW21772   2.819   4.672   5.906 -0.7519 -0.0463  0.1070
 3438SOL    HW121773   2.827   4.697   5.814  1.4741 -1.3904 -0.0676
 3438SOL    HW221774   2.828   0.026   5.956 -0.4116 -0.2196  0.3262
 3439SOL     OW21775   4.626   1.020   4.707 -0.3540  0.2230  0.4940
 3439SOL    HW121776   4.676   1.085   4.659  0.6369 -1.0204 -0.1511
 3439SOL    HW221777   4.682   1.000   4.782 -0.8406 -0.0994  0.7729
 3440SOL     OW21778   1.433   0.334   3.129  0.5820 -0.2125  0.8591
 3440SOL    HW121779   1.394   0.248   3.113  0.2924 -0.1070  0.9971
 3440SOL    HW221780   1.438   0.331   3.225  2.2424  1.7577  0.8440
 3441SOL     OW21781   1.219   3.015   4.664 -0.1502 -0.1440 -0.0553
 3441SOL    HW121782   1.206   2.989   4.755  0.2134 -1.1311 -0.2874
 3441SOL    HW221783   1.256   3.101   4.684  1.4580 -0.9024  0.2076
 3442SOL     OW21784   1.042   3.329  16.198  0.4482  0.0061  0.7661
 3442SOL    HW121785   0.972   3.369  16.250  1.1291 -0.1695  1.8256
 3442SOL    HW221786   0.995   3.302  16.120  1.9775 -0.9493  0.1730
 3443SOL     OW21787   1.544   1.195  16.119 -0.5405 -0.4396 -0.0057
 3443SOL    HW121788   1.502   1.280  16.130  0.2998  0.0238 -0.2797
 3443SOL    HW221789   1.632   1.234  16.118 -1.2281  1.0971  1.8787
 3444SOL     OW21790   3.141   1.247  15.246  0.0624  0.2368 -0.6020
 3444SOL    HW121791   3.184   1.161  15.253 -2.4661 -1.0817 -1.3373
 3444SOL    HW221792   3.076   1.239  15.316 -0.0568 -1.4516 -0.9044
 3445SOL     OW21793   2.693   2.092  13.768  0.0147  0.4911  0.4072
 3445SOL    HW121794   2.783   2.080  13.799 -0.6062 -0.5361  1.8339
 3445SOL    HW221795   2.692   2.081  13.673 -2.4924 -1.0603  0.6347
 3446SOL     OW21796   2.093   1.575   6.184 -0.4736 -0.2347  0.5469
 3446SOL    HW121797   2.060   1.494   6.146  0.0207  0.5917 -1.6389
 3446SOL    HW221798   2.149   1.537   6.252 -1.6887 -1.6821  0.7342
 3447SOL     OW21799   1.304   1.830   6.856 -0.5145 -0.7950  0.2158
 3447SOL    HW121800   1.343   1.912   6.826  1.0821 -2.0349 -1.0498
 3447SOL    HW221801   1.257   1.856   6.935 -0.9669  0.4404 -0.4537
 3448SOL     OW21802   4.636   3.167  16.141 -0.5154  0.2142 -0.9178
 3448SOL    HW121803   4.673   3.179  16.228 -0.1412 -2.5580 -0.6735
 3448SOL    HW221804   4.694   3.206  16.077  0.9491  0.2371  0.4267
 3449SOL     OW21805   0.856   2.531   4.555 -0.0321  0.3114  0.0520
 3449SOL    HW121806   0.899   2.562   4.475  1.1940 -0.4345  0.4314
 3449SOL    HW221807   0.852   2.616   4.600  0.4341  0.2231  0.2570
 3450SOL     OW21808   3.143   2.636   5.861  0.1174 -0.4317 -0.0868
 3450SOL    HW121809   3.193   2.640   5.779  0.9190 -2.5862  0.3026
 3450SOL    HW221810   3.107   2.547   5.854 -4.1408  1.3076  0.1618
 3451SOL     OW21811   1.460   3.694  15.792 -0.0709 -0.0322  0.0225
 3451SOL    HW121812   1.484   3.623  15.732  0.6723 -0.8407  1.2653
 3451SOL    HW221813   1.374   3.719  15.757 -0.0950 -1.9642 -1.3242
 3452SOL     OW21814   1.822   0.606   4.897 -0.4857 -0.1847  0.5810
 3452SOL    HW121815   1.800   0.685   4.846  2.8937 -0.3467 -1.1191
 3452SOL    HW221816   1.889   0.638   4.956 -0.5466  1.6004 -0.3112
 3453SOL     OW21817   1.099   1.208  15.638  0.0219  0.2214 -0.2144
 3453SOL    HW121818   1.047   1.130  15.621 -1.3332  1.5839 -2.3833
 3453SOL    HW221819   1.037   1.281  15.642  0.8404  0.9446 -0.5236
 3454SOL     OW21820   0.406   3.260   2.431  0.0315  0.3322 -0.4854
 3454SOL    HW121821   0.436   3.191   2.490 -2.3728  0.0391  0.4218
 3454SOL    HW221822   0.464   3.231   2.361  0.7215 -0.0901  0.2574
 3455SOL     OW21823   2.913   2.116   3.980  0.0136 -0.8472 -0.3481
 3455SOL    HW121824   2.910   2.208   3.952 -1.5600 -0.8474 -0.1851
 3455SOL    HW221825   2.998   2.116   4.024 -0.0887 -0.7134 -0.1453
 3456SOL     OW21826   0.292   0.179   4.594 -0.1473  0.1906 -0.3335
 3456SOL    HW121827   0.295   0.117   4.667 -0.5331  0.0292 -0.4569
 3456SOL    HW221828   0.235   0.136   4.531  1.1366 -0.9824 -0.7084
 3457SOL     OW21829   2.158   3.071   1.516 -0.6210 -0.6705  0.2965
 3457SOL    HW121830   2.223   3.127   1.558  0.0660 -1.9644  0.9350
 3457SOL    HW221831   2.196   2.983   1.514  1.0906  0.1289 -3.5080
 3458SOL     OW21832   2.255   0.492   4.573  0.7075 -0.6822  0.0467
 3458SOL    HW121833   2.185   0.499   4.638  0.4740 -2.8069  0.0245
 3458SOL    HW221834   2.275   0.399   4.582 -1.6309 -1.2325 -0.5317
 3459SOL     OW21835   1.241   1.897   2.661 -0.2706  0.6703 -0.4261
 3459SOL    HW121836   1.274   1.985   2.681 -0.8723  1.1098 -1.3943
 3459SOL    HW221837   1.322   1.862   2.624 -1.9036 -3.7155  0.1763
 3460SOL     OW21838   1.448   3.686   1.463  0.3133 -0.0923 -0.5021
 3460SOL    HW121839   1.396   3.646   1.533  1.0339 -0.2865 -0.0636
 3460SOL    HW221840   1.445   3.624   1.390 -0.3067 -0.6162 -0.0232
 3461SOL     OW21841   3.029   3.134   7.954 -0.0382  0.2273 -0.3278
 3461SOL    HW121842   3.120   3.166   7.957 -0.3429  1.3717 -3.1314
 3461SOL    HW221843   2.982   3.212   7.925 -2.0334 -0.2741  1.6200
 3462SOL     OW21844   2.021   2.383   2.315  0.4386 -0.1749 -0.1848
 3462SOL    HW121845   1.933   2.366   2.348 -0.3738  0.9274 -1.7961
 3462SOL    HW221846   2.024   2.475   2.289  1.0072 -0.5004 -1.2761
 3463SOL     OW21847   4.678   1.479   5.138  0.3930  0.3359 -0.4338
 3463SOL    HW121848   4.617   1.552   5.128  0.5906  0.8161  1.8738
 3463SOL    HW221849   4.666   1.479   5.233  0.5598  0.2329 -0.4126
 3464SOL     OW21850   3.133   0.196  13.472  0.0767 -0.2454  0.8466
 3464SOL    HW121851   3.176   0.227  13.551  1.9217  0.1527 -0.3193
 3464SOL    HW221852   3.044   0.170  13.499 -0.5467 -0.8027 -1.6968
 3465SOL     OW21853   3.212   4.149   1.955  0.1807  0.4837 -0.4532
 3465SOL    HW121854   3.226   4.155   1.860  2.0157  2.6168 -0.0461
 3465SOL    HW221855   3.197   4.241   1.975 -1.4561 -0.4136  2.5116
 3466SOL     OW21856   0.067   3.986  17.591 -0.1366  0.0105 -0.1386
 3466SOL    HW121857   0.058   3.958  17.500 -1.7482  0.9521 -0.2775
 3466SOL    HW221858   4.700   3.988  17.614  0.1681 -0.3648  1.1548
 3467SOL     OW21859   1.782   0.633   6.064  0.4990  0.0965 -0.4854
 3467SOL    HW121860   1.796   0.598   6.152 -0.4509  1.4376  0.2065
 3467SOL    HW221861   1.746   0.719   6.085 -1.4560 -0.9973  0.7138
 3468SOL     OW21862   0.413   4.120   5.374  0.0703  0.2600  0.1392
 3468SOL    HW121863   0.401   4.195   5.433 -0.4039  0.1888  0.1373
 3468SOL    HW221864   0.505   4.106   5.396  0.1670 -0.6316 -0.8208
 3469SOL     OW21865   3.772   3.801   7.536 -0.2691 -0.2127 -0.5477
 3469SOL    HW121866   3.840   3.750   7.492 -1.3817  0.7635 -3.3954
 3469SOL    HW221867   3.787   3.790   7.630 -0.5553  1.1721 -0.3432
 3470SOL     OW21868   1.260   0.014   1.544 -0.4919 -0.2300 -0.3088
 3470SOL    HW121869   1.318   0.067   1.490  1.0736 -0.2155  1.3814
 3470SOL    HW221870   1.322   4.677   1.580 -0.0158  0.1225 -0.5012
 3471SOL     OW21871   0.836   4.068   0.657 -0.1067 -0.3912  0.6561
 3471SOL    HW121872   0.825   3.984   0.614  3.1423 -1.2671  1.5264
 3471SOL    HW221873   0.897   4.116   0.601 -4.1327  0.4996 -2.8508
 3472SOL     OW21874   3.174   3.493   5.048 -0.8073 -0.5232  0.1137
 3472SOL    HW121875   3.146   3.532   5.131  0.3068  1.4018 -0.4309
 3472SOL    HW221876   3.268   3.506   5.056 -0.9839 -0.6007  2.4151
 3473SOL     OW21877   4.123   2.515   3.037 -0.1253 -0.3339  0.7668
 3473SOL    HW121878   4.091   2.560   3.115  0.5301  0.3683  0.6345
 3473SOL    HW221879   4.145   2.429   3.073 -0.1133 -0.3384  0.7490
 3474SOL     OW21880   0.878   4.278   5.553  0.0593  0.0238 -0.3066
 3474SOL    HW121881   0.896   4.323   5.635 -3.7655  1.4118 -0.2473
 3474SOL    HW221882   0.842   4.202   5.597 -1.9206  0.2835 -1.4906
 3475SOL     OW21883   2.607   3.063   5.554  0.1298  0.4993 -0.4268
 3475SOL    HW121884   2.631   3.004   5.625 -4.0658 -1.2404 -0.4518
 3475SOL    HW221885   2.594   3.001   5.481 -2.2261 -0.0845  0.4915
 3476SOL     OW21886   1.836   4.644  13.395  0.1365  0.0943  0.0132
 3476SOL    HW121887   1.827   4.577  13.462  0.9796  1.4644  1.4768
 3476SOL    HW221888   1.931   4.647  13.391  0.0188  1.1872 -2.5146
 3477SOL     OW21889   0.022   3.507   6.031 -0.1947 -0.0871 -0.5592
 3477SOL    HW121890   0.039   3.597   6.001  0.7439  0.1626  0.7266
 3477SOL    HW221891   4.672   3.482   5.979  0.4228 -1.6903 -0.6832
 3478SOL     OW21892   1.070   4.706  15.628 -0.6623  0.5438  0.3274
 3478SOL    HW121893   1.152   4.664  15.653 -0.1005  1.5145  0.1078
 3478SOL    HW221894   1.096   0.052  15.571  2.6990 -1.5198 -0.7314
 3479SOL     OW21895   3.453   0.170   7.556  0.2682  0.4827 -0.0068
 3479SOL    HW121896   3.462   0.213   7.471  3.2643  0.0016  0.0737
 3479SOL    HW221897   3.372   0.214   7.581  0.0384 -0.1480  0.3716
 3480SOL     OW21898   0.700   3.171  13.199  0.0560 -0.5132  0.8916
 3480SOL    HW121899   0.717   3.091  13.149 -0.4215 -0.0665  0.0136
 3480SOL    HW221900   0.679   3.228  13.125  1.2225  2.1225  2.5949
 3481SOL     OW21901   3.342   4.723  17.272  0.5581 -0.1788  0.3264
 3481SOL    HW121902   3.360   4.710  17.365 -3.5281 -3.8411  0.5896
 3481SOL    HW221903   3.266   4.667  17.257 -0.3550  0.7110  1.7138
 3482SOL     OW21904   2.298   3.659   3.077  0.4030 -0.0408  0.0210
 3482SOL    HW121905   2.206   3.655   3.052  0.1952 -2.6506  1.2795
 3482SOL    HW221906   2.302   3.752   3.100 -1.0145  0.9144 -3.6685
 3483SOL     OW21907   1.939   1.076  10.502 -0.5811 -0.2553 -0.2682
 3483SOL    HW121908   1.951   1.158  10.550  0.1902 -0.8235  0.5098
 3483SOL    HW221909   1.970   1.013  10.567  0.0240 -0.0983 -0.4116
 3484SOL     OW21910   2.089   4.560   2.620  0.3120  0.2130  0.0103
 3484SOL    HW121911   2.078   4.630   2.556 -0.1799  0.0109 -0.1294
 3484SOL    HW221912   2.164   4.514   2.585 -0.8826 -1.1771 -0.6978
 3485SOL     OW21913   0.914   2.687   5.208  0.1660 -0.2213 -0.1554
 3485SOL    HW121914   0.923   2.781   5.189  2.6902 -0.0747  1.7087
 3485SOL    HW221915   1.007   2.670   5.221  0.4596  0.5738 -1.2177
 3486SOL     OW21916   1.431   2.645   7.655 -0.7634  0.2305 -0.5999
 3486SOL    HW121917   1.427   2.707   7.729 -3.1524  1.4215 -1.7370
 3486SOL    HW221918   1.502   2.680   7.601 -1.3765 -1.6111 -2.5399
 3487SOL     OW21919   4.659   0.685  12.075 -0.2772 -0.0395 -0.3192
 3487SOL    HW121920   4.601   0.609  12.080  1.2057 -1.1927 -0.5825
 3487SOL    HW221921   4.601   0.759  12.094  1.4801  2.0675 -3.1919
 3488SOL     OW21922   1.126   1.002   4.393  0.3200 -0.1983 -0.4328
 3488SOL    HW121923   1.071   1.057   4.449 -0.3627 -2.8098  1.4419
 3488SOL    HW221924   1.171   0.951   4.460 -0.5723 -0.9365 -0.4070
 3489SOL     OW21925   3.569   1.069  15.675  0.7010  0.3462  0.6558
 3489SOL    HW121926   3.578   1.144  15.733  2.1879  1.2512 -0.7221
 3489SOL    HW221927   3.661   1.043  15.661  0.5653 -0.1223  0.6386
 3490SOL     OW21928   2.225   1.497   2.280 -0.0211  0.4437  0.4339
 3490SOL    HW121929   2.239   1.592   2.285 -2.2875  0.7083  1.6835
 3490SOL    HW221930   2.204   1.468   2.369  3.6169 -2.8579  0.2256
 3491SOL     OW21931   2.947   1.224  13.902 -0.5796 -0.3912 -0.2948
 3491SOL    HW121932   2.986   1.262  13.981 -2.3043  0.5980  0.0914
 3491SOL    HW221933   2.864   1.272  13.893  0.3313  1.3851  0.9082
 3492SOL     OW21934   2.473   4.315   6.538  0.4666 -0.5932 -0.4911
 3492SOL    HW121935   2.524   4.287   6.461 -0.1437  0.5577 -1.3151
 3492SOL    HW221936   2.383   4.302   6.511 -0.6909  2.4142  1.9128
 3493SOL     OW21937   3.633   1.784   2.754 -0.2734 -0.3357 -0.2873
 3493SOL    HW121938   3.579   1.862   2.764 -2.5052 -1.8072 -0.7897
 3493SOL    HW221939   3.575   1.716   2.719  0.4036  1.0852 -4.1982
 3494SOL     OW21940   1.625   0.670   5.217  0.1626  0.3956  0.6543
 3494SOL    HW121941   1.585   0.690   5.132  0.7989 -2.5298 -0.2979
 3494SOL    HW221942   1.554   0.646   5.277  0.7994 -0.0970  1.2051
 3495SOL     OW21943   0.052   2.559   5.677  0.1230  0.5603 -0.0568
 3495SOL    HW121944   4.708   2.498   5.653 -1.4259  2.5981 -0.6515
 3495SOL    HW221945   0.130   2.507   5.659 -0.8787 -1.0987  0.3540
 3496SOL     OW21946   3.143   2.687   5.393  0.4399 -0.8265 -0.1261
 3496SOL    HW121947   3.211   2.653   5.336  0.0432 -0.6899 -0.6752
 3496SOL    HW221948   3.071   2.627   5.373 -0.0511  0.2319 -1.5400
 3497SOL     OW21949   0.834   3.618   7.546 -0.3910  0.3503  0.1188
 3497SOL    HW121950   0.894   3.555   7.586 -0.5508  0.4675  0.5476
 3497SOL    HW221951   0.785   3.651   7.622 -0.8024 -1.9645  0.8634
 3498SOL     OW21952   1.036   2.182   4.166 -0.2140 -0.0545 -0.0643
 3498SOL    HW121953   1.069   2.237   4.095 -1.9237  1.2376  0.1400
 3498SOL    HW221954   0.956   2.230   4.192  0.6447 -0.2444  2.9035
 3499SOL     OW21955   2.291   0.345   6.103 -0.5445  0.4862  0.1855
 3499SOL    HW121956   2.207   0.339   6.149  0.0061 -1.9908  0.8882
 3499SOL    HW221957   2.348   0.325   6.177  1.2757 -0.8304 -1.5430
 3500SOL     OW21958   1.077   0.779  15.068  0.1850 -0.6527  0.0575
 3500SOL    HW121959   1.017   0.854  15.073 -0.2948 -1.2141  2.4463
 3500SOL    HW221960   1.038   0.740  14.989  2.3491  0.7480 -1.7016
 3501SOL     OW21961   2.358   0.091   2.607  0.0266 -0.6407 -0.9186
 3501SOL    HW121962   2.325   0.081   2.518  1.2925  2.0279 -1.6721
 3501SOL    HW221963   2.391   0.002   2.619  1.8290  0.2220  0.4127
 3502SOL     OW21964   0.971   3.405   0.946 -0.0713  0.5801  0.7568
 3502SOL    HW121965   0.890   3.453   0.964 -0.8669 -0.2112 -0.7241
 3502SOL    HW221966   0.962   3.399   0.851  1.9209  2.5009  0.4762
 3503SOL     OW21967   1.939   4.720   3.758  0.1457  0.1074  0.3796
 3503SOL    HW121968   1.926   0.021   3.849 -0.2816  1.0133  0.0382
 3503SOL    HW221969   1.872   0.043   3.711  1.0238 -1.5117 -2.5446
 3504SOL     OW21970   2.246   3.324   0.412 -0.0385 -0.4941 -0.9259
 3504SOL    HW121971   2.329   3.276   0.414 -1.8682 -3.6382 -0.5082
 3504SOL    HW221972   2.184   3.253   0.428  1.1234 -0.9167  1.7979
 3505SOL     OW21973   3.758   4.095  10.979 -0.5877  0.5096 -0.4812
 3505SOL    HW121974   3.829   4.115  10.919 -0.0481 -0.4432 -0.1651
 3505SOL    HW221975   3.770   4.167  11.041 -0.2176  0.5504 -0.6018
 3506SOL     OW21976   1.158   4.471   2.828  0.4606 -0.1168 -0.0545
 3506SOL    HW121977   1.093   4.404   2.851 -1.4252  2.6626  2.7140
 3506SOL    HW221978   1.232   4.426   2.788  0.0123  1.0368 -2.1636
 3507SOL     OW21979   3.677   2.138   3.551 -0.8459 -0.0666  0.4174
 3507SOL    HW121980   3.725   2.065   3.512 -2.0078 -1.3762  1.3919
 3507SOL    HW221981   3.589   2.134   3.513 -1.5105  0.9083  1.8591
 3508SOL     OW21982   3.388   1.903   3.885  0.3507  0.5755  0.0538
 3508SOL    HW121983   3.465   1.960   3.878  1.9267 -1.7230 -1.2961
 3508SOL    HW221984   3.422   1.839   3.947 -0.4331 -0.7555 -0.9061
 3509SOL     OW21985   2.984   4.599   6.988 -0.4351 -0.2702 -0.1741
 3509SOL    HW121986   3.034   4.624   6.910 -0.4833  1.1057  0.2407
 3509SOL    HW221987   2.908   4.552   6.954 -0.9393  0.9494 -0.7402
 3510SOL     OW21988   2.053   2.843   5.851  0.1874 -0.3170 -0.4359
 3510SOL    HW121989   2.052   2.794   5.768 -1.9522  0.5719 -0.9104
 3510SOL    HW221990   1.985   2.907   5.831 -0.4815 -0.0737  2.5841
 3511SOL     OW21991   1.727   1.851   6.062  0.1396  0.1602  0.0426
 3511SOL    HW121992   1.633   1.856   6.047  0.2230 -1.6511 -1.0506
 3511SOL    HW221993   1.757   1.840   5.972 -1.4163 -1.5231 -0.2696
 3512SOL     OW21994   2.738   0.982   2.770 -0.4134 -0.4185  0.0867
 3512SOL    HW121995   2.691   0.929   2.706  0.9944  0.0488 -1.3251
 3512SOL    HW221996   2.755   1.069   2.736  1.3538 -0.6933  0.2775
 3513SOL     OW21997   1.791   1.523  17.595  0.1003 -0.3905  0.1744
 3513SOL    HW121998   1.799   1.581  17.671 -2.9652  0.7085 -0.3438
 3513SOL    HW221999   1.881   1.527  17.561  0.3226  0.7970  0.8945
 3514SOL     OW22000   4.448   0.717  17.515  0.3017  0.1267 -0.4206
 3514SOL    HW122001   4.459   0.628  17.483  1.6697  0.0094  0.3510
 3514SOL    HW222002   4.353   0.728  17.513  0.2661  0.1354  1.1323
 3515SOL     OW22003   2.855   2.565   4.426  0.1995  0.5516 -0.2198
 3515SOL    HW122004   2.867   2.563   4.521 -0.6462 -0.3430 -0.1262
 3515SOL    HW222005   2.848   2.471   4.411  1.1520  0.5242 -0.4969
 3516SOL     OW22006   0.680   0.891  12.470 -0.0556 -0.0458 -0.3586
 3516SOL    HW122007   0.635   0.810  12.447  0.3054 -0.4233  0.2594
 3516SOL    HW222008   0.723   0.904  12.385 -0.4951  1.6874 -0.3277
 3517SOL     OW22009   4.315   4.112   1.463  0.8565  0.1885 -0.3197
 3517SOL    HW122010   4.278   4.179   1.406  0.3064 -2.3831 -2.9572
 3517SOL    HW222011   4.274   4.035   1.425 -1.2199 -0.0439  2.3885
 3518SOL     OW22012   3.470   4.288   8.838 -0.2253  0.6007 -0.2643
 3518SOL    HW122013   3.461   4.380   8.815  0.8615  0.5713 -0.7848
 3518SOL    HW222014   3.511   4.290   8.925 -0.1831 -1.9453 -0.2173
 3519SOL     OW22015   0.595   0.746   2.763  0.2085 -0.2232 -0.0174
 3519SOL    HW122016   0.521   0.686   2.768  0.5068 -0.6253 -0.4347
 3519SOL    HW222017   0.553   0.818   2.810 -1.1199  0.0122 -1.5772
 3520SOL     OW22018   0.474   0.916   3.640 -0.2529 -0.3732 -0.5297
 3520SOL    HW122019   0.464   0.909   3.545  1.6501  0.9756 -0.8399
 3520SOL    HW222020   0.561   0.956   3.647  0.2922 -1.5991 -0.2112
 3521SOL     OW22021   1.478   4.567   9.482  0.1618 -0.2351 -0.0014
 3521SOL    HW122022   1.449   4.647   9.438 -1.6822 -0.0295  1.5590
 3521SOL    HW222023   1.436   4.502   9.426 -0.9369  2.0736 -1.8500
 3522SOL     OW22024   1.582   3.158  15.719 -0.1526 -0.0329  0.3087
 3522SOL    HW122025   1.586   3.252  15.732 -1.1042  0.0886 -0.2627
 3522SOL    HW222026   1.648   3.134  15.785  1.4630 -0.7224 -1.5484
 3523SOL     OW22027   2.981   4.513   5.360 -0.6034 -0.3417 -0.0765
 3523SOL    HW122028   2.980   4.560   5.444 -0.6180  0.4051 -0.4927
 3523SOL    HW222029   2.898   4.465   5.359 -1.2679  0.8411 -0.8974
 3524SOL     OW22030   1.415   0.682   8.004  0.2035  0.2266  0.0573
 3524SOL    HW122031   1.443   0.734   8.079 -0.0863  2.3400 -1.3149
 3524SOL    HW222032   1.355   0.748   7.968 -2.2129 -0.2139  3.3466
 3525SOL     OW22033   4.024   4.108   4.294 -0.1195 -0.1404  0.0143
 3525SOL    HW122034   4.118   4.122   4.297 -0.1043  0.0619 -1.4796
 3525SOL    HW222035   4.021   4.104   4.390  1.2074 -0.3044  0.0386
 3526SOL     OW22036   2.208   4.157   7.579 -0.0149  0.2517 -0.3591
 3526SOL    HW122037   2.115   4.164   7.557  0.1305 -1.2115 -1.4801
 3526SOL    HW222038   2.226   4.064   7.564 -2.9750 -0.7024  2.0706
 3527SOL     OW22039   0.291   0.091   0.353 -0.5266  0.3291 -0.4552
 3527SOL    HW122040   0.370   0.117   0.306  0.1626 -1.6960 -0.4479
 3527SOL    HW222041   0.247   0.038   0.287  1.3697 -0.5750 -1.0104
 3528SOL     OW22042   4.523   2.831   4.842 -0.3647 -0.3021  0.0062
 3528SOL    HW122043   4.553   2.888   4.913  0.1582 -0.1956 -0.2943
 3528SOL    HW222044   4.554   2.744   4.866 -2.2000 -0.6398  1.1062
 3529SOL     OW22045   2.412   2.299   6.974  0.2165  0.0341 -0.6022
 3529SOL    HW122046   2.327   2.291   7.017  0.4105 -0.2610 -0.2788
 3529SOL    HW222047   2.446   2.382   7.007  0.7536 -0.4139 -0.0369
 3530SOL     OW22048   1.368   3.857   1.804 -0.5925 -0.4088 -0.3775
 3530SOL    HW122049   1.383   3.763   1.817 -0.8152 -0.2956  0.6688
 3530SOL    HW222050   1.285   3.854   1.757 -2.5300  0.9909  2.9573
 3531SOL     OW22051   3.445   1.102   5.954 -0.6832  0.2127  0.4868
 3531SOL    HW122052   3.488   1.082   6.037 -0.4091  0.9682  0.5236
 3531SOL    HW222053   3.401   1.184   5.974 -1.9636 -0.3882  0.1358
 3532SOL     OW22054   3.435   3.714   5.751  0.2198 -0.0870  0.3244
 3532SOL    HW122055   3.497   3.735   5.680 -2.2686  0.3545 -1.7070
 3532SOL    HW222056   3.351   3.734   5.711  0.3108 -0.5911 -0.1246
 3533SOL     OW22057   0.458   0.490  17.361 -0.1778 -0.2547 -0.1207
 3533SOL    HW122058   0.371   0.487  17.320  0.1505  0.2295 -0.8433
 3533SOL    HW222059   0.452   0.400  17.392 -1.6586  0.0751  0.5552
 3534SOL     OW22060   1.110   3.263   2.390  0.4583  0.5546 -0.1808
 3534SOL    HW122061   1.108   3.326   2.317  1.3838 -0.1284 -0.7985
 3534SOL    HW222062   1.022   3.286   2.420 -0.1454 -0.8232 -0.8803
 3535SOL     OW22063   1.291   3.119   6.923  0.7085 -0.3969 -0.5013
 3535SOL    HW122064   1.263   3.187   6.985  0.2584  0.7064 -1.9138
 3535SOL    HW222065   1.211   3.085   6.885  1.4389 -2.3236 -0.2907
 3536SOL     OW22066   2.891   1.960   2.181  0.4518  0.2174  0.1081
 3536SOL    HW122067   2.899   1.933   2.090  1.2811  0.4478  0.1213
 3536SOL    HW222068   2.865   1.874   2.215 -0.1070  0.2138 -0.3222
 3537SOL     OW22069   0.806   1.632   9.073  0.4305  0.0389  0.2160
 3537SOL    HW122070   0.727   1.651   9.022  0.0537 -1.9872  0.0399
 3537SOL    HW222071   0.810   1.536   9.073 -0.8749 -0.0009  3.4395
 3538SOL     OW22072   3.324   0.043   2.849 -0.3142 -0.2155 -0.3078
 3538SOL    HW122073   3.357   0.129   2.823  0.1603  0.0626  1.1941
 3538SOL    HW222074   3.362   4.709   2.785 -0.6542 -0.2720 -0.4585
 3539SOL     OW22075   3.720   2.479   6.280  0.4322 -0.0233 -0.5035
 3539SOL    HW122076   3.736   2.546   6.214 -0.1908 -1.0812 -1.7289
 3539SOL    HW222077   3.803   2.488   6.328  0.0296 -1.0645  0.3821
 3540SOL     OW22078   2.384   1.304   5.295 -0.2902 -0.0702 -0.1129
 3540SOL    HW122079   2.292   1.327   5.278 -0.4922 -0.7385  0.0635
 3540SOL    HW222080   2.381   1.208   5.290  0.2902 -0.1470  1.1605
 3541SOL     OW22081   1.550   3.263   3.675 -0.1422  0.9579 -0.8334
 3541SOL    HW122082   1.616   3.317   3.631 -1.0101  1.4411 -1.5503
 3541SOL    HW222083   1.585   3.176   3.658 -0.6545  0.4288  0.8260
 3542SOL     OW22084   2.226   3.587   9.661 -0.0691  0.5321 -0.2136
 3542SOL    HW122085   2.293   3.520   9.646 -0.2809 -0.0272  1.2822
 3542SOL    HW222086   2.198   3.568   9.751  0.0179 -0.4245 -0.3811
 3543SOL     OW22087   3.536   0.728   2.332  0.2468 -0.7632 -0.6738
 3543SOL    HW122088   3.507   0.655   2.385  1.1686 -1.1340 -0.6772
 3543SOL    HW222089   3.617   0.752   2.378 -1.4104  0.0365  1.7702
 3544SOL     OW22090   3.918   0.624  10.932  0.7056  0.1045 -0.1387
 3544SOL    HW122091   3.896   0.555  10.870 -1.0471 -2.0090  2.8152
 3544SOL    HW222092   3.936   0.695  10.871 -0.4142  1.7371  1.4342
 3545SOL     OW22093   0.831   4.693  12.765 -0.0772  0.3292  0.1941
 3545SOL    HW122094   0.919   4.721  12.738 -0.2184  2.3228  1.8462
 3545SOL    HW222095   0.778   4.684  12.686  0.0879  0.9985  0.0113
 3546SOL     OW22096   4.003   3.026   2.492 -0.1212  0.4578  0.1270
 3546SOL    HW122097   3.909   3.018   2.510 -0.1668  1.2304  0.1973
 3546SOL    HW222098   4.023   3.102   2.547  0.4735  2.6298 -3.0822
 3547SOL     OW22099   3.418   1.167   4.596 -0.3752 -0.2235  0.7576
 3547SOL    HW122100   3.426   1.247   4.648 -0.7491  1.0639 -1.1702
 3547SOL    HW222101   3.327   1.152   4.569 -0.4590  0.2632  0.7712
 3548SOL     OW22102   1.142   2.313   1.166  0.2936  0.2061  0.1716
 3548SOL    HW122103   1.113   2.296   1.255  3.0136 -2.1621  0.6037
 3548SOL    HW222104   1.148   2.226   1.127  1.7374  0.3795  0.0026
 3549SOL     OW22105   2.317   2.659   2.724  0.3047  0.8837 -0.7161
 3549SOL    HW122106   2.335   2.657   2.818  2.1162 -0.3324 -1.0810
 3549SOL    HW222107   2.309   2.570   2.689 -0.2720  0.1760  1.1808
 3550SOL     OW22108   2.954   3.305   8.825 -0.2306  0.2088 -0.0249
 3550SOL    HW122109   2.965   3.353   8.907 -0.5934 -1.5159  1.0357
 3550SOL    HW222110   2.993   3.362   8.759  0.1511  0.5518  0.4963
 3551SOL     OW22111   2.916   2.119  10.520  0.9073  0.0057  0.3308
 3551SOL    HW122112   2.834   2.096  10.477  1.8793  1.4263 -2.2718
 3551SOL    HW222113   2.982   2.119  10.450  2.0135 -0.2085  1.3704
 3552SOL     OW22114   2.208   2.853   8.854  0.2606  0.4266 -0.6753
 3552SOL    HW122115   2.283   2.889   8.902 -0.3717  0.5719  0.2039
 3552SOL    HW222116   2.246   2.821   8.773  0.6643 -0.3925 -0.1647
 3553SOL     OW22117   4.134   2.549  13.769  0.3668 -0.7665 -0.2154
 3553SOL    HW122118   4.066   2.483  13.764  0.6488 -1.1121  0.6073
 3553SOL    HW222119   4.099   2.610  13.834  1.0608  0.3338 -0.8759
 3554SOL     OW22120   3.516   0.086   9.413 -0.1962  0.2109  0.4892
 3554SOL    HW122121   3.610   0.069   9.419 -0.0935  0.5968 -0.0562
 3554SOL    HW222122   3.522   0.147   9.340  0.8280 -0.7113 -0.1961
 3555SOL     OW22123   3.395   2.641   6.566  0.1186  0.3057 -0.0656
 3555SOL    HW122124   3.335   2.574   6.534  1.6612 -1.1445  0.0709
 3555SOL    HW222125   3.335   2.702   6.609  2.4676  2.8476 -0.3526
 3556SOL     OW22126   3.653   0.561   8.286 -0.3877 -0.1824 -0.1942
 3556SOL    HW122127   3.684   0.618   8.215  1.1780 -0.0145  0.6330
 3556SOL    HW222128   3.584   0.518   8.235  0.2174  0.1007 -1.2658
 3557SOL     OW22129   1.401   3.246   0.111  0.1830  0.5711  0.1554
 3557SOL    HW122130   1.343   3.170   0.103  2.1616 -0.7219 -1.9756
 3557SOL    HW222131   1.419   3.243   0.205 -1.0792  0.9102  0.4079
 3558SOL     OW22132   2.365   0.117   1.060 -0.3277  0.3117  0.4372
 3558SOL    HW122133   2.322   0.166   0.991 -1.9587 -0.8855  0.5943
 3558SOL    HW222134   2.459   0.126   1.050  0.1189 -0.8666  3.4679
 3559SOL     OW22135   3.869   0.577   3.741 -0.0349  0.5541  0.6390
 3559SOL    HW122136   3.862   0.549   3.649 -1.1586  0.3663  0.7926
 3559SOL    HW222137   3.786   0.622   3.753 -0.3573  0.8276 -2.5248
 3560SOL     OW22138   2.306   0.337   7.115 -0.6687 -0.3180  0.7447
 3560SOL    HW122139   2.236   0.401   7.127 -0.4135 -0.3620  2.5078
 3560SOL    HW222140   2.272   0.274   7.051 -1.2111  0.1338  0.5852
 3561SOL     OW22141   0.389   1.528   6.506 -0.0471 -0.2979 -0.0442
 3561SOL    HW122142   0.474   1.492   6.482 -0.3841 -2.0608  1.4154
 3561SOL    HW222143   0.330   1.472   6.457  0.6029 -2.2504  1.4027
 3562SOL     OW22144   3.990   2.582   2.804 -0.5081  0.1091  0.4433
 3562SOL    HW122145   3.998   2.673   2.831  1.9681 -0.4425  1.5396
 3562SOL    HW222146   4.033   2.542   2.880  2.6430  2.4559 -0.1170
 3563SOL     OW22147   2.264   2.553   3.901  0.4045 -0.1735  0.3222
 3563SOL    HW122148   2.200   2.483   3.911  0.5982 -0.3136  0.5898
 3563SOL    HW222149   2.212   2.598   3.834  0.0646  0.1683  0.8073
 3564SOL     OW22150   1.606   1.085   4.296 -0.2194 -0.1697  0.2763
 3564SOL    HW122151   1.574   1.025   4.363 -0.9347 -0.4963 -0.3531
 3564SOL    HW222152   1.530   1.145   4.295  1.9526  2.5739 -0.1650
 3565SOL     OW22153   4.208   1.093  16.911  0.0246 -0.6280  0.3363
 3565SOL    HW122154   4.160   1.016  16.880 -0.8781  0.5720 -1.2417
 3565SOL    HW222155   4.222   1.063  17.001 -0.3292 -0.9339  0.2898
 3566SOL     OW22156   2.275   2.706   7.535 -0.2001 -0.1714  0.2355
 3566SOL    HW122157   2.326   2.787   7.525 -0.5434  0.0751  0.4530
 3566SOL    HW222158   2.193   2.731   7.492 -0.0831 -2.4814 -1.2999
 3567SOL     OW22159   0.498   0.470   0.001 -0.3161  0.7016 -0.0597
 3567SOL    HW122160   0.537   0.393  17.666 -0.3161  0.5730  0.1844
 3567SOL    HW222161   0.440   0.427   0.064  1.2344 -0.5430  0.4911
 3568SOL     OW22162   2.968   2.315   0.751  0.6245 -0.3472 -0.2107
 3568SOL    HW122163   2.954   2.410   0.753  0.4953 -0.2867 -4.1295
 3568SOL    HW222164   2.983   2.295   0.659 -1.1495  0.6890 -0.7245
 3569SOL     OW22165   1.115   4.550   7.518  0.1941  0.6327 -0.0982
 3569SOL    HW122166   1.080   4.506   7.595 -1.0723  0.8222 -0.5584
 3569SOL    HW222167   1.206   4.568   7.541  0.6346 -0.5949 -0.8198
 3570SOL     OW22168   3.252   1.473  13.832  0.1475  0.1950  0.1603
 3570SOL    HW122169   3.324   1.519  13.789 -0.7849  1.0861 -0.4508
 3570SOL    HW222170   3.295   1.460  13.916 -0.9106 -0.2021  0.6351
 3571SOL     OW22171   1.779   2.404   7.080 -0.4129  0.3329  1.0429
 3571SOL    HW122172   1.725   2.376   7.154 -2.9669  1.9658 -0.2015
 3571SOL    HW222173   1.723   2.367   7.011  1.1471 -0.2485  0.1028
 3572SOL     OW22174   1.319   3.830  15.250  0.1693  0.1648 -0.6930
 3572SOL    HW122175   1.260   3.806  15.179 -0.2643  0.2701 -0.3759
 3572SOL    HW222176   1.326   3.746  15.295 -3.0565  0.2640  0.0176
 3573SOL     OW22177   1.692   3.516  16.416 -0.1570  0.2075  0.2562
 3573SOL    HW122178   1.677   3.422  16.417  2.0489 -0.1441 -0.4132
 3573SOL    HW222179   1.598   3.534  16.416 -0.6394 -2.3659 -3.3204
 3574SOL     OW22180   1.311   3.189   6.356  0.1739  0.3200  0.5220
 3574SOL    HW122181   1.325   3.094   6.350  0.7258  0.4568 -0.3690
 3574SOL    HW222182   1.293   3.189   6.450 -0.8445  1.8815  0.3212
 3575SOL     OW22183   1.616   2.140  11.105  0.1488  0.3555  0.0531
 3575SOL    HW122184   1.542   2.196  11.127  0.1620  0.7991 -1.0108
 3575SOL    HW222185   1.623   2.087  11.185  0.1981 -1.9426 -1.4494
 3576SOL     OW22186   2.383   0.597   5.308  0.1150  0.5394  0.5210
 3576SOL    HW122187   2.429   0.515   5.293 -1.6155 -0.4625  0.6899
 3576SOL    HW222188   2.295   0.568   5.282  0.2266 -0.4839  1.2996
 3577SOL     OW22189   4.267   3.897   4.512  0.9627 -0.0220  0.5067
 3577SOL    HW122190   4.174   3.878   4.503  0.9641  0.1854  0.0501
 3577SOL    HW222191   4.296   3.814   4.550 -0.0781 -0.2865  0.7102
 3578SOL     OW22192   1.492   1.865   4.272 -0.3315 -0.3248  0.1264
 3578SOL    HW122193   1.466   1.773   4.275  0.6910 -0.6094  0.2841
 3578SOL    HW222194   1.579   1.862   4.232  0.8045 -0.5050  2.6036
 3579SOL     OW22195   2.624   4.570   5.327  0.2256 -0.5399 -0.0460
 3579SOL    HW122196   2.584   4.566   5.414  0.4805 -2.2997 -0.0131
 3579SOL    HW222197   2.677   4.491   5.320 -0.7965 -1.3594  1.4599
 3580SOL     OW22198   2.478   4.081   2.062 -0.9656  0.6605 -0.2684
 3580SOL    HW122199   2.568   4.090   2.031 -0.8749 -1.6081 -0.6761
 3580SOL    HW222200   2.435   4.143   2.003 -2.1683 -0.6206 -0.7189
 3581SOL     OW22201   4.146   2.644   2.232 -0.1820 -0.2905  0.1055
 3581SOL    HW122202   4.148   2.696   2.312  1.2595 -0.2935  0.0693
 3581SOL    HW222203   4.144   2.555   2.268  1.6405  0.5100  2.1346
 3582SOL     OW22204   1.256   4.531  12.141  0.6442 -0.1184  0.1188
 3582SOL    HW122205   1.182   4.482  12.105 -0.0281  1.1727 -0.2756
 3582SOL    HW222206   1.227   4.622  12.149 -2.0135 -0.8115 -1.6326
 3583SOL     OW22207   0.868   4.016  10.485 -0.2284 -0.4168  0.7562
 3583SOL    HW122208   0.854   4.037  10.577  1.1942 -1.9994  1.3415
 3583SOL    HW222209   0.960   3.990  10.491  0.1682  0.7706 -0.2591
 3584SOL     OW22210   1.332   1.981   6.252 -0.0886  0.0279  0.1068
 3584SOL    HW122211   1.331   2.010   6.343  2.5931  1.8983 -0.4626
 3584SOL    HW222212   1.419   2.015   6.232  0.6012 -2.2987 -0.9684
 3585SOL     OW22213   4.465   3.836   6.343 -0.3068  0.0841 -0.2617
 3585SOL    HW122214   4.527   3.765   6.361  1.5947  1.1346 -2.7115
 3585SOL    HW222215   4.475   3.896   6.418  0.0118  1.2162 -1.2079
 3586SOL     OW22216   0.254   3.257  10.120 -0.0753 -0.0910  0.4065
 3586SOL    HW122217   0.295   3.184  10.165 -1.3381 -0.4109  1.0456
 3586SOL    HW222218   0.247   3.336  10.174  0.9355  0.9832 -1.0224
 3587SOL     OW22219   0.008   3.763  17.345  0.0725 -0.3755  0.1194
 3587SOL    HW122220   4.682   3.709  17.287  0.7897 -0.9112 -0.0221
 3587SOL    HW222221   0.005   3.850  17.305 -1.9552 -0.4832  0.0296
 3588SOL     OW22222   3.137   4.509   4.116 -0.0293 -0.2919 -0.3885
 3588SOL    HW122223   3.150   4.499   4.210 -1.4298 -1.3325 -0.3114
 3588SOL    HW222224   3.058   4.560   4.100 -1.0323 -2.3797 -2.0916
 3589SOL     OW22225   3.112   1.813   9.534 -0.6792  0.2180 -0.7483
 3589SOL    HW122226   3.024   1.848   9.523  0.6028  4.1611  1.7471
 3589SOL    HW222227   3.096   1.756   9.609 -2.2811  0.9143 -0.5663
 3590SOL     OW22228   3.683   2.780   2.762 -0.0990  0.4684  0.3846
 3590SOL    HW122229   3.637   2.716   2.817  0.4955 -0.9947 -0.8205
 3590SOL    HW222230   3.758   2.794   2.818  0.2239  1.2133 -0.2388
 3591SOL     OW22231   3.636   3.992  12.687 -0.3881 -0.2371 -0.4053
 3591SOL    HW122232   3.633   3.906  12.645 -0.6215 -1.6884  2.5666
 3591SOL    HW222233   3.727   4.001  12.717 -1.6054  2.0018  2.6483
 3592SOL     OW22234   2.764   2.809   4.644  0.5016  0.2241 -0.2212
 3592SOL    HW122235   2.851   2.793   4.681 -0.4664 -1.8925  1.1474
 3592SOL    HW222236   2.775   2.897   4.608 -0.1571 -0.1332 -1.3064
 3593SOL     OW22237   4.702   4.476  13.262 -0.9610 -0.6478  0.0669
 3593SOL    HW122238   4.614   4.448  13.288 -0.3084 -1.1654  1.7287
 3593SOL    HW222239   4.686   4.509  13.174  1.2477  0.7407  0.2091
 3594SOL     OW22240   1.853   3.121   3.403 -0.8075 -0.3868  0.1541
 3594SOL    HW122241   1.938   3.119   3.446 -0.3527  1.1483 -0.6877
 3594SOL    HW222242   1.869   3.163   3.319 -2.6080 -3.0390 -1.5428
 3595SOL     OW22243   0.804   2.837   8.139 -0.5987  0.1303 -0.2692
 3595SOL    HW122244   0.869   2.774   8.107 -0.3306 -0.1562  0.8299
 3595SOL    HW222245   0.747   2.773   8.181  0.4472 -0.2677  0.5570
 3596SOL     OW22246   4.057   2.401  14.967 -0.1015  0.6899  0.1630
 3596SOL    HW122247   3.994   2.334  14.937 -0.0367 -0.1814  2.0087
 3596SOL    HW222248   4.135   2.352  14.990 -1.1311 -0.4261  1.2942
 3597SOL     OW22249   1.493   3.313  13.356  0.2559  0.1655 -0.0963
 3597SOL    HW122250   1.458   3.391  13.400  0.6273 -1.1176  2.4399
 3597SOL    HW222251   1.487   3.241  13.418  0.9346  0.0743 -0.1359
 3598SOL     OW22252   1.946   4.445   8.152 -0.0108  0.4972 -0.4047
 3598SOL    HW122253   2.004   4.374   8.124  1.0987  0.2631  2.6106
 3598SOL    HW222254   2.005   4.489   8.212  1.3990 -1.9937  0.0506
 3599SOL     OW22255   1.972   0.934   2.182  0.5271 -0.0041  0.2318
 3599SOL    HW122256   1.988   0.966   2.094 -1.1576  0.4884  0.1110
 3599SOL    HW222257   1.879   0.954   2.184  0.8478  1.6323 -1.8666
 3600SOL     OW22258   1.304   0.303  17.117  0.9811  0.6347  0.1546
 3600SOL    HW122259   1.378   0.363  17.132  0.9175  0.6373  0.4605
 3600SOL    HW222260   1.311   0.299  17.022  1.1294 -0.5462  0.2207
 3601SOL     OW22261   3.132   0.252   6.456 -0.1675  0.0046 -0.2136
 3601SOL    HW122262   3.124   0.190   6.384  0.1684  1.3136 -1.3651
 3601SOL    HW222263   3.112   0.339   6.424  1.1230  0.4936  0.2981
 3602SOL     OW22264   2.609   3.121   8.617  0.2576  0.2176  0.3324
 3602SOL    HW122265   2.670   3.051   8.640  0.2385  0.5589  1.4288
 3602SOL    HW222266   2.523   3.080   8.618 -0.2833  1.3223 -0.4228
 3603SOL     OW22267   4.677   2.719   3.966  0.5219 -0.8052 -0.0551
 3603SOL    HW122268   4.636   2.740   3.882 -0.1621  1.2246  0.8050
 3603SOL    HW222269   4.642   2.785   4.025  0.0123 -0.4168 -0.7836
 3604SOL     OW22270   1.720   4.208   2.081 -0.4779 -0.0938  0.0130
 3604SOL    HW122271   1.790   4.148   2.054 -0.5016 -0.2894  0.3897
 3604SOL    HW222272   1.764   4.292   2.067  2.1879 -1.6766 -1.1137
 3605SOL     OW22273   1.388   1.722   3.488  0.2383 -0.2727 -0.1056
 3605SOL    HW122274   1.413   1.810   3.461 -0.3463 -0.2180 -0.4726
 3605SOL    HW222275   1.337   1.688   3.414  2.4765 -1.7236 -0.9816
 3606SOL     OW22276   1.548   1.065   9.121 -0.0190  0.0480  0.6428
 3606SOL    HW122277   1.639   1.074   9.095 -0.8891  2.1689 -1.6408
 3606SOL    HW222278   1.501   1.111   9.052  0.7674 -0.9290 -0.5346
 3607SOL     OW22279   3.518   4.038  14.605 -0.4560 -0.2749 -0.4372
 3607SOL    HW122280   3.545   3.949  14.583  0.6272  0.7728 -3.3721
 3607SOL    HW222281   3.548   4.089  14.529 -0.1655  0.2580  0.0379
 3608SOL     OW22282   1.646   3.851  14.095 -0.4609 -0.6294 -0.2411
 3608SOL    HW122283   1.565   3.890  14.127  0.5354  1.0338  0.2819
 3608SOL    HW222284   1.616   3.830  14.006 -0.2580  0.3737 -0.5523
 3609SOL     OW22285   2.853   0.595   3.593 -0.8374  0.4069 -0.5287
 3609SOL    HW122286   2.876   0.623   3.504 -2.5653 -1.7185 -1.6235
 3609SOL    HW222287   2.915   0.522   3.602 -1.1282  0.1293 -0.7945
 3610SOL     OW22288   4.395   2.072  17.067 -0.2503 -0.4878 -0.1452
 3610SOL    HW122289   4.335   2.051  17.138 -0.6454 -0.3453 -0.4392
 3610SOL    HW222290   4.394   1.992  17.014  0.4458 -0.9815  0.5968
 3611SOL     OW22291   2.418   0.898   0.057  0.3483 -0.1110 -0.4228
 3611SOL    HW122292   2.346   0.958   0.044 -1.6217 -2.3938 -0.0999
 3611SOL    HW222293   2.462   0.954   0.122  0.6264 -0.4813 -0.2853
 3612SOL     OW22294   2.699   2.243   4.385  0.3294 -0.3847 -0.0089
 3612SOL    HW122295   2.791   2.238   4.410 -0.0717 -0.4814  1.4455
 3612SOL    HW222296   2.699   2.203   4.298 -1.4623 -0.5355  0.0548
 3613SOL     OW22297   2.309   1.139   8.182 -0.0192  0.2095 -0.0311
 3613SOL    HW122298   2.216   1.128   8.202 -0.0996  0.0417 -0.4862
 3613SOL    HW222299   2.301   1.126   8.087 -0.8264  2.6289 -0.3095
 3614SOL     OW22300   4.622   3.742   0.921 -0.3534 -0.2852 -0.4859
 3614SOL    HW122301   4.700   3.771   0.874  0.2996 -0.8583  0.2634
 3614SOL    HW222302   4.576   3.715   0.841 -0.1218 -0.8478 -0.4314
 3615SOL     OW22303   3.216   0.774   6.754 -0.6988 -0.0926 -0.3742
 3615SOL    HW122304   3.266   0.717   6.813 -1.7443  0.6716  1.2593
 3615SOL    HW222305   3.159   0.718   6.702 -0.5520 -1.4897  0.9501
 3616SOL     OW22306   1.177   1.963   7.093 -0.7224 -0.0253  0.3643
 3616SOL    HW122307   1.124   2.012   7.156  0.6132  1.2518  0.5023
 3616SOL    HW222308   1.261   1.970   7.138 -0.7327 -0.4207  0.4451
 3617SOL     OW22309   2.152   2.744  14.329  0.0377  0.0107 -0.7787
 3617SOL    HW122310   2.214   2.692  14.278  0.9644  0.5305 -0.1879
 3617SOL    HW222311   2.176   2.720  14.419 -1.7684  0.6105 -0.1345
 3618SOL     OW22312   4.309   0.007   1.830 -0.6115  0.1487 -0.7542
 3618SOL    HW122313   4.218   4.722   1.801 -1.1132  0.5538  0.6793
 3618SOL    HW222314   4.293   0.057   1.910  2.0423  0.2907 -0.3407
 3619SOL     OW22315   0.549   0.415   0.327  0.2432 -0.0722  0.2349
 3619SOL    HW122316   0.539   0.341   0.269  2.0267  1.7947 -2.4542
 3619SOL    HW222317   0.577   0.376   0.410 -1.2444  1.5607  1.5030
 3620SOL     OW22318   3.389   2.863  15.508 -0.4725  0.4970 -0.1077
 3620SOL    HW122319   3.306   2.815  15.510 -0.3636  0.3715  1.7171
 3620SOL    HW222320   3.455   2.793  15.513 -1.3140 -0.3050 -0.1321
 3621SOL     OW22321   1.406   2.068   8.789 -0.2416  0.1961 -0.3616
 3621SOL    HW122322   1.424   2.146   8.841  1.3194 -0.0334 -0.5736
 3621SOL    HW222323   1.432   2.085   8.698 -0.7070 -1.5872 -0.8403
 3622SOL     OW22324   2.693   0.692  11.837  0.1827  0.2296  0.2346
 3622SOL    HW122325   2.709   0.781  11.870  0.3452  0.5781 -0.7933
 3622SOL    HW222326   2.757   0.696  11.766 -1.2083  1.7062 -0.9152
 3623SOL     OW22327   1.527   4.498   8.016  0.3499  0.5564  0.3005
 3623SOL    HW122328   1.574   4.504   7.934  0.6225  0.5526  0.4574
 3623SOL    HW222329   1.481   4.582   8.008 -0.1993  0.2755  0.4635
 3624SOL     OW22330   3.925   3.350  16.154 -0.1437 -0.4073  0.6413
 3624SOL    HW122331   3.915   3.287  16.225  1.2727 -1.8699 -0.4783
 3624SOL    HW222332   4.005   3.322  16.111 -0.0857  0.7657 -0.0114
 3625SOL     OW22333   0.574   2.491   8.551 -0.2350 -0.4073 -0.4055
 3625SOL    HW122334   0.512   2.502   8.479  0.8211  1.1339 -1.0764
 3625SOL    HW222335   0.517   2.442   8.610 -0.1869 -1.3156 -1.1149
 3626SOL     OW22336   2.907   0.154   7.696  0.6821 -0.3565  0.3805
 3626SOL    HW122337   2.921   0.105   7.777 -0.3703 -0.0480  0.7412
 3626SOL    HW222338   2.850   0.223   7.728 -1.0447 -0.6786 -1.9820
 3627SOL     OW22339   1.462   4.470  16.881 -0.1988  0.2883 -0.5304
 3627SOL    HW122340   1.522   4.544  16.887 -2.6627  2.1974  0.7705
 3627SOL    HW222341   1.524   4.398  16.873  1.3679  1.3704  1.8061
 3628SOL     OW22342   3.743   3.381  17.401  0.4580  0.3403 -0.0833
 3628SOL    HW122343   3.667   3.384  17.343  0.8800 -1.5237 -0.7264
 3628SOL    HW222344   3.795   3.313  17.358  2.1284  2.6986 -1.7620
 3629SOL     OW22345   0.846   1.271   7.907  0.1353  0.3947  0.0210
 3629SOL    HW122346   0.828   1.259   7.814  2.9815 -0.6414 -0.4045
 3629SOL    HW222347   0.805   1.357   7.920  2.2829  1.2253  1.3628
 3630SOL     OW22348   0.545   3.878   8.360  0.2152 -0.0979 -0.2008
 3630SOL    HW122349   0.620   3.817   8.359  1.2214  1.1208  0.6511
 3630SOL    HW222350   0.584   3.944   8.303  1.6346 -0.5397  0.2424
 3631SOL     OW22351   3.923   0.407   9.668  0.9383 -0.0822  0.8347
 3631SOL    HW122352   3.957   0.496   9.673  1.1884 -0.2042  1.2638
 3631SOL    HW222353   3.851   0.408   9.731 -0.9868  2.1645 -1.3424
 3632SOL     OW22354   0.356   3.501   4.236 -0.0784  0.4754 -0.8721
 3632SOL    HW122355   0.368   3.451   4.155  0.9220 -0.6994 -0.0039
 3632SOL    HW222356   0.263   3.481   4.243  0.1599 -0.6743 -0.9907
 3633SOL     OW22357   3.256   3.722   3.742 -0.2704 -0.6228  0.6312
 3633SOL    HW122358   3.171   3.682   3.762 -0.2247 -0.5321  1.0117
 3633SOL    HW222359   3.222   3.809   3.721  2.2529 -0.2293 -1.7699
 3634SOL     OW22360   0.778   1.166   0.673  0.6529 -0.5461 -0.2475
 3634SOL    HW122361   0.873   1.175   0.666  0.8190 -1.8516  0.2818
 3634SOL    HW222362   0.765   1.139   0.764 -0.3430 -3.3735 -1.2304
 3635SOL     OW22363   0.321   0.262   6.260  0.1237  0.2324 -0.0606
 3635SOL    HW122364   0.258   0.316   6.212 -0.7009  0.7974  1.6358
 3635SOL    HW222365   0.278   0.179   6.241 -1.2459  0.6308  1.2845
 3636SOL     OW22366   0.420   0.973   3.371  0.7972 -0.4743  0.4374
 3636SOL    HW122367   0.407   0.910   3.299 -1.3634  1.5033 -0.9189
 3636SOL    HW222368   0.499   1.021   3.347  0.2213  1.1274  1.8231
 3637SOL     OW22369   3.421   0.630   3.938 -0.1955  0.3109 -0.1521
 3637SOL    HW122370   3.510   0.651   3.909  0.9599  1.3999  4.1142
 3637SOL    HW222371   3.363   0.666   3.870 -0.4690  1.4398  0.6707
 3638SOL     OW22372   0.285   0.251   2.448 -0.3560  0.0811 -0.2920
 3638SOL    HW122373   0.330   0.334   2.428 -1.3674  0.8254  0.5500
 3638SOL    HW222374   0.352   0.185   2.431 -2.3391 -2.1537  0.7066
 3639SOL     OW22375   2.595   0.287   1.557 -0.9709  0.0095 -0.1488
 3639SOL    HW122376   2.569   0.372   1.522  1.8819  0.0995 -2.0870
 3639SOL    HW222377   2.688   0.296   1.576 -0.6854 -0.1980 -1.4244
 3640SOL     OW22378   3.407   4.153   1.358  0.1979  0.2502 -0.5779
 3640SOL    HW122379   3.469   4.225   1.370  0.3426 -0.1372  1.0708
 3640SOL    HW222380   3.471   4.084   1.339 -1.0815 -0.8653 -0.8096
 3641SOL     OW22381   0.072   0.498  14.420 -0.6647  0.0761  0.0957
 3641SOL    HW122382   0.148   0.556  14.423 -0.9330  0.3764  0.9991
 3641SOL    HW222383   0.070   0.478  14.514  1.1885 -0.2761  0.0623
 3642SOL     OW22384   2.635   3.026   3.484  0.3091 -0.2072  0.4063
 3642SOL    HW122385   2.577   2.991   3.416  1.0642 -1.5271  0.4376
 3642SOL    HW222386   2.570   3.067   3.541 -1.5062 -2.9115  0.3153
 3643SOL     OW22387   2.513   2.197  16.649 -0.5515  0.3130  0.1839
 3643SOL    HW122388   2.496   2.249  16.728 -1.9581 -1.5671  1.1110
 3643SOL    HW222389   2.562   2.125  16.688 -1.1656  0.4708  1.2420
 3644SOL     OW22390   0.756   2.353   4.846  0.2712  0.1307  0.0984
 3644SOL    HW122391   0.697   2.296   4.797 -1.4504  1.7820  0.2632
 3644SOL    HW222392   0.838   2.304   4.854  0.3030 -0.1478 -1.9444
 3645SOL     OW22393   0.053   3.949   8.634  0.1573 -0.6854 -0.8613
 3645SOL    HW122394   0.043   4.033   8.589 -1.3384 -0.3726  0.0503
 3645SOL    HW222395   0.109   3.982   8.704 -0.4619 -0.1606 -0.6135
 3646SOL     OW22396   1.534   0.769  11.352 -0.1791  0.1451  0.0712
 3646SOL    HW122397   1.441   0.747  11.360  0.1749 -0.8029  1.5887
 3646SOL    HW222398   1.560   0.703  11.416 -0.7140 -1.9625 -1.8842
 3647SOL     OW22399   3.336   4.616   5.537  0.0405  0.2003 -0.5394
 3647SOL    HW122400   3.291   4.533   5.549  0.1234  0.0351 -1.3896
 3647SOL    HW222401   3.263   4.677   5.548 -0.4263 -0.4786  0.1299
 3648SOL     OW22402   4.589   0.128   4.109  0.6747 -0.5402  0.5371
 3648SOL    HW122403   4.610   0.141   4.017  0.8431 -1.7626  0.4124
 3648SOL    HW222404   4.658   0.169   4.162 -0.8841  0.9905  1.3996
 3649SOL     OW22405   2.392   0.712  12.354 -0.3569  0.0788 -0.1392
 3649SOL    HW122406   2.309   0.665  12.350 -0.4512  0.3701 -1.2951
 3649SOL    HW222407   2.441   0.675  12.281  0.8713  0.8902  0.2613
 3650SOL     OW22408   3.920   0.685   3.036 -0.2773  0.9267 -0.4548
 3650SOL    HW122409   3.859   0.730   3.095 -0.0194 -0.0783  0.5664
 3650SOL    HW222410   3.999   0.669   3.087 -1.3767  0.0272  0.9586
 3651SOL     OW22411   4.595   1.753  10.545 -0.3753  0.1499  0.2598
 3651SOL    HW122412   4.661   1.762  10.613 -1.0065 -2.3253  1.2381
 3651SOL    HW222413   4.513   1.777  10.589  0.0224  0.1128  1.0338
 3652SOL     OW22414   4.111   2.258   3.143  0.1618  0.3890  0.2479
 3652SOL    HW122415   4.065   2.175   3.129 -0.7589  0.6430  1.7828
 3652SOL    HW222416   4.204   2.237   3.136  0.4998  1.1206  2.5267
 3653SOL     OW22417   3.812   0.207   3.733 -0.5975 -0.2899  0.4734
 3653SOL    HW122418   3.787   0.146   3.663 -0.6106 -1.0986  1.1897
 3653SOL    HW222419   3.907   0.210   3.723 -0.6890 -1.4185 -0.7226
 3654SOL     OW22420   2.230   1.374   5.578  0.2237 -0.2761 -0.1087
 3654SOL    HW122421   2.229   1.375   5.674  0.2194 -1.0162 -0.0961
 3654SOL    HW222422   2.256   1.282   5.567 -0.3190 -0.5885  1.1375
 3655SOL     OW22423   2.802   4.708   2.863 -0.6909  0.1770  0.2507
 3655SOL    HW122424   2.858   4.634   2.838  0.0727  0.2700  1.7048
 3655SOL    HW222425   2.742   4.721   2.790 -1.0268  1.3289  0.7311
 3656SOL     OW22426   1.163   4.439   0.391  0.1426 -0.0838 -0.3302
 3656SOL    HW122427   1.106   4.477   0.323 -1.8192  0.6363  1.7272
 3656SOL    HW222428   1.226   4.391   0.337  0.0803  0.2787 -0.7275
 3657SOL     OW22429   0.312   4.174   7.470  0.3557  0.4611  0.0163
 3657SOL    HW122430   0.350   4.228   7.540  2.9840  0.3118 -1.2903
 3657SOL    HW222431   0.357   4.208   7.393  2.1529  0.2101  0.9385
 3658SOL     OW22432   0.980   0.960   2.937  0.3397 -0.2412  0.1341
 3658SOL    HW122433   0.889   0.944   2.961 -0.2811  1.4068 -1.1114
 3658SOL    HW222434   0.974   1.016   2.859 -0.6408 -1.4338 -0.6463
 3659SOL     OW22435   0.906   1.976   8.687  0.5375  0.0051 -0.8963
 3659SOL    HW122436   0.904   1.939   8.775 -0.7808 -0.4514 -1.1186
 3659SOL    HW222437   0.847   1.918   8.638 -0.4991 -0.3935  0.8365
 3660SOL     OW22438   1.018   1.360   7.251  0.0674  0.0677  0.0764
 3660SOL    HW122439   1.064   1.440   7.226  0.7644 -0.3896 -0.1010
 3660SOL    HW222440   0.989   1.320   7.169  1.2325 -1.1299  0.2466
 3661SOL     OW22441   1.830   0.524   5.463 -0.1466  0.1699 -0.0525
 3661SOL    HW122442   1.763   0.577   5.506  2.2183  2.1692  1.1147
 3661SOL    HW222443   1.882   0.499   5.539  1.6280  0.8031 -1.0646
 3662SOL     OW22444   3.575   3.158   2.389 -0.2416  0.1028 -0.1406
 3662SOL    HW122445   3.536   3.099   2.324  2.5039 -2.4924  0.5950
 3662SOL    HW222446   3.617   3.093   2.446  0.1937 -0.3686 -1.0021
 3663SOL     OW22447   0.560   2.773   1.847 -0.3795  0.6954  0.0349
 3663SOL    HW122448   0.614   2.734   1.916 -1.0782  0.0709  0.2240
 3663SOL    HW222449   0.621   2.822   1.792 -0.3935 -0.6517 -1.1642
 3664SOL     OW22450   4.717   0.618   6.180  0.4085 -0.2194  0.2851
 3664SOL    HW122451   4.703   0.673   6.104  0.8467  0.1678  0.4791
 3664SOL    HW222452   0.033   0.678   6.242 -0.4235  1.2960 -0.6299
 3665SOL     OW22453   4.386   2.083   2.654 -0.1759  0.3368  0.5395
 3665SOL    HW122454   4.402   2.062   2.746 -1.7942 -1.2060  0.4708
 3665SOL    HW222455   4.313   2.144   2.651  0.5028  1.1589  0.8997
 3666SOL     OW22456   3.439   2.987   6.635 -0.2911 -0.1713  0.0283
 3666SOL    HW122457   3.495   2.953   6.705 -2.1620 -0.7101  1.2577
 3666SOL    HW222458   3.452   3.082   6.636 -2.4192  0.1231 -1.2285
 3667SOL     OW22459   4.505   4.175   7.031 -0.4919  0.1968 -0.6269
 3667SOL    HW122460   4.560   4.231   6.977  1.8006  0.2233  1.7275
 3667SOL    HW222461   4.567   4.105   7.053 -0.3897  0.0800 -1.2832
 3668SOL     OW22462   3.987   3.574   7.631  0.5054  0.7755 -0.2629
 3668SOL    HW122463   3.977   3.483   7.602  0.7941  1.4462 -2.5085
 3668SOL    HW222464   4.064   3.591   7.576 -0.2516  2.0838 -0.9218
 3669SOL     OW22465   1.933   2.823   6.826 -0.2444  0.3782 -0.5153
 3669SOL    HW122466   2.010   2.774   6.855 -0.0034  1.0865  0.0252
 3669SOL    HW222467   1.876   2.795   6.898  0.8397 -1.1007 -0.2237
 3670SOL     OW22468   3.294   0.622   0.555 -0.7933  0.0398  0.4092
 3670SOL    HW122469   3.316   0.552   0.493  0.7108  0.2439  0.7174
 3670SOL    HW222470   3.263   0.692   0.498 -1.3930  0.1032  0.8187
 3671SOL     OW22471   0.323   1.040   7.892 -0.0788 -0.0306  0.3624
 3671SOL    HW122472   0.373   0.966   7.926  1.0322  0.3597 -0.4520
 3671SOL    HW222473   0.328   1.016   7.800 -0.0942  2.3176 -0.2370
 3672SOL     OW22474   3.065   4.675   7.894 -1.0417 -0.0975  0.0891
 3672SOL    HW122475   3.083   4.719   7.976  1.1310  2.6842 -1.8933
 3672SOL    HW222476   2.976   4.646   7.916 -1.2194 -1.5330 -2.4419
 3673SOL     OW22477   3.754   3.863   4.620 -0.3661 -0.4794  0.1267
 3673SOL    HW122478   3.725   3.772   4.607 -1.4750  0.2763 -2.6211
 3673SOL    HW222479   3.717   3.890   4.536  0.1969 -2.3987 -0.7318
 3674SOL     OW22480   2.396   3.658   4.586  0.2302 -0.4431  0.6858
 3674SOL    HW122481   2.463   3.726   4.579 -1.8612  1.3453 -2.0662
 3674SOL    HW222482   2.455   3.583   4.586  0.0427 -0.5931  0.1449
 3675SOL     OW22483   3.205   2.462   2.875 -0.4984 -0.2134 -0.2953
 3675SOL    HW122484   3.147   2.385   2.874  0.0170 -0.6132  0.9255
 3675SOL    HW222485   3.274   2.424   2.930  1.0076  0.9133 -1.4063
 3676SOL     OW22486   3.283   0.687  12.674  0.2967 -0.0972  0.1800
 3676SOL    HW122487   3.364   0.647  12.704  0.0454  0.5014  1.6437
 3676SOL    HW222488   3.323   0.735  12.602  0.5434 -1.8097 -0.8267
 3677SOL     OW22489   4.042   2.898  13.505  0.0723  0.2656  0.5387
 3677SOL    HW122490   4.028   2.804  13.496  0.1462  0.3488 -0.4167
 3677SOL    HW222491   4.130   2.894  13.467  0.4628  0.0021  1.4664
 3678SOL     OW22492   4.217   4.030  16.169 -0.2442  0.7752 -0.1724
 3678SOL    HW122493   4.277   3.995  16.234 -0.6007  1.9435  0.7805
 3678SOL    HW222494   4.218   3.951  16.115 -1.6345  0.0174  0.9039
 3679SOL     OW22495   2.026   0.059   7.740  0.1925 -0.6190 -0.1571
 3679SOL    HW122496   2.005   0.004   7.815  0.9832 -0.0437  0.4825
 3679SOL    HW222497   1.956   0.031   7.680 -0.4243  0.6159 -0.0048
 3680SOL     OW22498   2.439   4.561   2.689 -0.2480 -0.0543 -0.2091
 3680SOL    HW122499   2.380   4.507   2.637 -2.1930 -0.3946  2.3327
 3680SOL    HW222500   2.469   4.505   2.761  1.6319  0.2724 -0.7434
 3681SOL     OW22501   2.803   4.673   0.646 -0.2658  0.3459  0.1383
 3681SOL    HW122502   2.797   4.676   0.742 -0.3444 -1.3638  0.1877
 3681SOL    HW222503   2.856   4.593   0.640 -0.8994  0.0331 -1.2313
 3682SOL     OW22504   1.439   3.117   8.460  0.0837 -0.1067 -0.2694
 3682SOL    HW122505   1.369   3.103   8.396 -1.0374 -1.0387  1.1570
 3682SOL    HW222506   1.475   3.198   8.426 -0.4736  0.2023 -0.1205
 3683SOL     OW22507   4.484   3.807  14.516  0.3451 -0.3042  0.3212
 3683SOL    HW122508   4.472   3.880  14.456  1.4314 -0.1646  0.2808
 3683SOL    HW222509   4.579   3.810  14.518  0.3401 -0.1505  0.3150
 3684SOL     OW22510   1.285   2.225   7.753  0.4448  0.1574 -0.7958
 3684SOL    HW122511   1.272   2.304   7.701  0.4433  0.8120  0.1918
 3684SOL    HW222512   1.367   2.228   7.803 -1.3193  1.8628  2.0259
 3685SOL     OW22513   4.591   2.878   3.426 -0.2852 -0.5329  0.0824
 3685SOL    HW122514   4.565   2.877   3.333  1.8895  0.3831 -0.5283
 3685SOL    HW222515   4.591   2.973   3.442  2.3093 -0.2870 -1.3696
 3686SOL     OW22516   4.212   2.050   4.294  0.7757  0.0583  0.9630
 3686SOL    HW122517   4.217   1.955   4.298  1.3335  0.0900  1.0805
 3686SOL    HW222518   4.285   2.086   4.346  0.6013  0.5357  0.8789
 3687SOL     OW22519   3.527   2.083   2.676  0.4680  0.3230 -0.2701
 3687SOL    HW122520   3.497   2.025   2.746 -1.7320  1.4252 -0.3254
 3687SOL    HW222521   3.442   2.104   2.637 -0.1836 -0.4986  0.6979
 3688SOL     OW22522   0.455   0.092  14.823  0.0082 -0.5233 -0.1977
 3688SOL    HW122523   0.501   0.037  14.760 -1.1589  0.3652 -1.8427
 3688SOL    HW222524   0.448   0.175  14.776 -0.0097 -0.9580 -0.9695
 3689SOL     OW22525   0.214   0.981   0.287  0.2342 -0.4324  0.4281
 3689SOL    HW122526   0.238   0.963   0.196 -0.6699  1.3337 -0.1531
 3689SOL    HW222527   0.259   1.064   0.302 -0.3844  0.0045 -0.1149
 3690SOL     OW22528   2.010   3.652   7.009  0.5439  0.4683  0.5464
 3690SOL    HW122529   1.926   3.608   6.997  0.0064  1.0017  2.2872
 3690SOL    HW222530   1.983   3.732   7.056  0.4463  0.2893  0.7966
 3691SOL     OW22531   1.701   2.819   7.602  0.2531  0.4588  0.9506
 3691SOL    HW122532   1.760   2.893   7.615  1.5966 -0.7249  1.6283
 3691SOL    HW222533   1.692   2.781   7.690  1.2789 -1.6650  0.1277
 3692SOL     OW22534   3.032   2.041   4.920  0.4243 -0.7236  0.1553
 3692SOL    HW122535   3.085   1.995   4.986  0.4260 -0.0193  0.6377
 3692SOL    HW222536   3.093   2.112   4.901  0.8273 -1.1281 -0.0662
 3693SOL     OW22537   0.739   1.106  17.307 -0.2938 -0.3462  0.8471
 3693SOL    HW122538   0.740   1.036  17.242 -0.3277  3.2528 -3.0412
 3693SOL    HW222539   0.765   1.187  17.263 -2.3776  0.4395  1.0585
 3694SOL     OW22540   0.587   4.014  13.757 -0.1251 -0.1702  0.4358
 3694SOL    HW122541   0.678   4.042  13.757  0.6283 -2.6919 -1.7199
 3694SOL    HW222542   0.554   4.101  13.736 -1.8030 -0.7101  0.8363
 3695SOL     OW22543   3.983   0.688   1.386  0.3333  0.2002  0.7364
 3695SOL    HW122544   4.044   0.658   1.319  0.3870  1.7371  0.0906
 3695SOL    HW222545   4.025   0.695   1.472 -0.9395 -0.4159  1.4176
 3696SOL     OW22546   3.843   1.908  10.071 -0.4852 -0.2127 -0.2808
 3696SOL    HW122547   3.765   1.960  10.090 -1.3338 -1.6797  0.2992
 3696SOL    HW222548   3.880   1.963  10.002 -1.5513  0.8602 -0.0024
 3697SOL     OW22549   4.539   0.758   6.894 -0.2637  0.5362 -0.5048
 3697SOL    HW122550   4.603   0.829   6.897  0.2129  0.1048 -0.4907
 3697SOL    HW222551   4.498   0.763   6.980 -0.1714  1.6844 -0.5285
 3698SOL     OW22552   4.657   1.114   8.689 -0.0892  0.1162 -0.2225
 3698SOL    HW122553   4.627   1.103   8.779  0.0048  2.1070  0.0521
 3698SOL    HW222554   4.684   1.025   8.668  0.2650  0.0807  0.3970
 3699SOL     OW22555   0.571   1.046  14.419  0.1636  0.2338  0.3717
 3699SOL    HW122556   0.629   1.121  14.407  1.1592 -0.6415 -0.1901
 3699SOL    HW222557   0.532   1.054  14.332 -0.6926 -1.5063  0.5900
 3700SOL     OW22558   0.287   3.662   4.735 -0.5254 -0.5062  0.5477
 3700SOL    HW122559   0.337   3.678   4.655 -1.0954 -0.2237  0.2566
 3700SOL    HW222560   0.287   3.748   4.778 -0.8416  0.0177 -0.5082
 3701SOL     OW22561   0.368   0.672   1.203  0.0236 -0.1467  0.6198
 3701SOL    HW122562   0.285   0.659   1.157  0.2537  1.7424 -0.3430
 3701SOL    HW222563   0.395   0.583   1.226  0.9585  0.6355  2.6137
 3702SOL     OW22564   3.750   2.210   6.402  0.6576 -0.1162  0.1449
 3702SOL    HW122565   3.765   2.304   6.390 -4.5906  0.7758  0.6077
 3702SOL    HW222566   3.655   2.214   6.406  0.7623  2.1013  0.4903
 3703SOL     OW22567   2.200   3.546   4.904  0.1302 -0.2211 -0.5571
 3703SOL    HW122568   2.286   3.588   4.904  0.5052 -0.9792  1.4736
 3703SOL    HW222569   2.218   3.455   4.929  2.0958  0.8190  1.7627
 3704SOL     OW22570   1.302   4.102   1.879  0.3861 -0.6759  0.6617
 3704SOL    HW122571   1.344   4.020   1.850 -0.4726 -0.1609 -2.1040
 3704SOL    HW222572   1.288   4.147   1.796  0.7241 -1.0828  0.3791
 3705SOL     OW22573   3.795   0.312   6.217  0.3192 -0.6182 -0.4361
 3705SOL    HW122574   3.740   0.257   6.272  0.3848  0.1098  0.3705
 3705SOL    HW222575   3.768   0.284   6.130 -0.3207 -1.5457  0.0583
 3706SOL     OW22576   4.525   2.128   2.355  0.3099 -0.3119 -0.5299
 3706SOL    HW122577   4.472   2.053   2.383  0.4556 -0.8057 -1.6087
 3706SOL    HW222578   4.556   2.165   2.438  2.6400 -2.5257 -0.4412
 3707SOL     OW22579   4.353   2.659   3.633  0.0792  0.0550  0.0870
 3707SOL    HW122580   4.362   2.586   3.694 -0.6043 -1.6698 -1.8854
 3707SOL    HW222581   4.267   2.644   3.594  0.5775 -1.4380 -0.4392
 3708SOL     OW22582   2.005   0.637   4.142  0.1221  0.3510  0.0051
 3708SOL    HW122583   2.041   0.654   4.055  0.3504 -0.8823 -0.1306
 3708SOL    HW222584   1.920   0.604   4.114  0.6401 -0.3224 -0.7663
 3709SOL     OW22585   0.406   1.748   6.818  0.3459 -0.1246  0.5005
 3709SOL    HW122586   0.376   1.838   6.824  1.6332  0.2151  2.1967
 3709SOL    HW222587   0.397   1.725   6.911 -0.1475 -0.0499  0.4687
 3710SOL     OW22588   1.261   1.746   7.976  0.4721  0.2860  0.3303
 3710SOL    HW122589   1.245   1.695   7.896 -0.8936 -1.8722  2.0026
 3710SOL    HW222590   1.286   1.834   7.946  0.1184  0.1494 -0.3596
 3711SOL     OW22591   3.774   2.865   2.303  0.2215 -0.1222 -0.0223
 3711SOL    HW122592   3.852   2.879   2.248  0.6124  1.4478  0.9236
 3711SOL    HW222593   3.711   2.820   2.247  0.0818  1.0273 -0.8106
 3712SOL     OW22594   3.214   1.189   7.742  0.1102  0.7813 -0.4342
 3712SOL    HW122595   3.142   1.133   7.771  1.4372 -0.2439  0.8917
 3712SOL    HW222596   3.286   1.129   7.726  0.7157  0.8276  2.0306
 3713SOL     OW22597   1.843   4.683  14.077  0.2086  0.2067  0.2253
 3713SOL    HW122598   1.936   4.701  14.093  0.8588  0.1017 -3.4054
 3713SOL    HW222599   1.818   0.049  14.073 -1.6435 -0.1749  3.1250
 3714SOL     OW22600   2.663   4.115   3.630 -0.2343 -0.3630  0.2316
 3714SOL    HW122601   2.582   4.112   3.580 -0.7728  0.4618  1.0451
 3714SOL    HW222602   2.729   4.103   3.562  1.1118  0.2940  1.4246
 3715SOL     OW22603   2.814   0.074   1.869  0.3134  0.2467 -0.6144
 3715SOL    HW122604   2.791   0.054   1.960  0.7967 -0.0523 -0.5567
 3715SOL    HW222605   2.753   0.021   1.819  0.7851 -1.1878  0.3004
 3716SOL     OW22606   3.181   4.368   8.474 -0.3383  0.4541  0.5007
 3716SOL    HW122607   3.194   4.462   8.480 -1.5091  0.6900 -0.8250
 3716SOL    HW222608   3.221   4.348   8.389 -1.1628 -0.3189  0.2941
 3717SOL     OW22609   3.898   3.421   2.389 -0.1127  0.4292 -0.1292
 3717SOL    HW122610   3.939   3.340   2.358  0.8907  1.1890 -0.7950
 3717SOL    HW222611   3.886   3.468   2.306 -1.3575 -0.2933 -0.3535
 3718SOL     OW22612   4.123   2.192   4.084 -0.0160 -0.1699  0.4300
 3718SOL    HW122613   4.162   2.134   4.150  1.1142  0.3496  0.2142
 3718SOL    HW222614   4.100   2.264   4.143  0.9080  0.5029 -0.0336
 3719SOL     OW22615   3.843   4.706   7.467  0.1466 -0.0943  0.5533
 3719SOL    HW122616   3.752   4.677   7.469 -0.6773  2.5333  0.5487
 3719SOL    HW222617   3.893   4.644   7.520  0.5286 -1.2058 -1.1331
 3720SOL     OW22618   4.380   0.090   2.663 -0.3598 -0.5937  0.6161
 3720SOL    HW122619   4.372   0.185   2.666  0.8317 -0.4932  0.5869
 3720SOL    HW222620   4.475   0.082   2.671 -0.4299 -0.2499  1.7093
 3721SOL     OW22621   2.776   2.456  13.645 -0.2118 -0.9228 -0.8174
 3721SOL    HW122622   2.831   2.398  13.697 -0.9080 -1.0015 -0.1788
 3721SOL    HW222623   2.749   2.391  13.580  0.3106 -0.8405 -1.1190
 3722SOL     OW22624   3.845   2.280  15.527 -0.1751 -0.0963  0.3096
 3722SOL    HW122625   3.903   2.282  15.451 -0.1215  0.6405  0.3680
 3722SOL    HW222626   3.851   2.186  15.543 -1.0521 -0.5268 -1.9610
 3723SOL     OW22627   0.034   2.995   7.419 -0.0452 -0.0839 -0.6531
 3723SOL    HW122628   0.111   3.025   7.371 -0.9779  1.9375 -0.9007
 3723SOL    HW222629   4.694   3.039   7.366 -1.5175 -0.5206  0.8426
 3724SOL     OW22630   1.903   2.633  11.739 -0.1965  0.0564  0.2435
 3724SOL    HW122631   1.919   2.651  11.831 -1.7211  2.1814  0.0921
 3724SOL    HW222632   1.941   2.545  11.739  0.3551  0.2951  0.0597
 3725SOL     OW22633   4.039   4.430   2.370  0.7041 -0.7248  0.0675
 3725SOL    HW122634   3.998   4.468   2.447  2.1492  0.6222  0.1699
 3725SOL    HW222635   4.069   4.508   2.323  0.2132 -1.7717 -1.9961
 3726SOL     OW22636   3.178   1.601  11.137  0.0219 -0.1987  0.3779
 3726SOL    HW122637   3.095   1.642  11.112  0.5452 -0.0279 -1.0814
 3726SOL    HW222638   3.132   1.520  11.162  1.9205 -1.2124  0.5762
 3727SOL     OW22639   1.782   0.127   5.365 -0.3282  0.3423 -0.0879
 3727SOL    HW122640   1.764   0.033   5.379  1.5814 -0.0850 -0.5516
 3727SOL    HW222641   1.779   0.167   5.452 -1.3222  4.4060 -2.0025
 3728SOL     OW22642   3.121   2.594   2.486  0.2630 -0.0233  0.2997
 3728SOL    HW122643   3.177   2.615   2.560  2.1551 -1.8255 -0.6066
 3728SOL    HW222644   3.059   2.539   2.533 -0.4070  1.8481  1.5904
 3729SOL     OW22645   0.350   3.945   2.981  0.6187 -0.0128  0.2219
 3729SOL    HW122646   0.274   3.892   3.005  1.3579 -1.1590  0.0240
 3729SOL    HW222647   0.415   3.910   3.042  0.6306 -3.5743 -1.8532
 3730SOL     OW22648   3.526   4.517  13.146 -0.0781  0.5680 -0.7350
 3730SOL    HW122649   3.483   4.493  13.064  0.5231  2.8916 -1.7278
 3730SOL    HW222650   3.543   4.610  13.134  1.1012  0.5979  1.0865
 3731SOL     OW22651   4.656   0.083   0.597 -0.4243 -0.1365 -0.1674
 3731SOL    HW122652   0.013   0.062   0.640  0.0399  0.9142 -0.5532
 3731SOL    HW222653   4.673   0.163   0.548  0.7023 -0.2516  0.0318
 3732SOL     OW22654   2.008   4.382  15.983 -0.3050  0.4442  0.5973
 3732SOL    HW122655   1.939   4.343  16.036 -1.3621  0.7760 -0.5166
 3732SOL    HW222656   2.031   4.329  15.907 -1.4046 -1.9429  1.9600
 3733SOL     OW22657   3.622   0.482   8.541 -0.9065  0.3785 -0.0245
 3733SOL    HW122658   3.660   0.516   8.461  0.3774  0.2016  0.5214
 3733SOL    HW222659   3.703   0.463   8.589 -0.4875  1.3092 -0.3753
 3734SOL     OW22660   1.578   2.788  10.419  0.3340  0.0123 -0.2544
 3734SOL    HW122661   1.632   2.709  10.414  1.3631  0.6984 -0.0307
 3734SOL    HW222662   1.524   2.768  10.495  0.5410  0.5666  0.0434
 3735SOL     OW22663   1.714   2.844   9.444  0.3350 -0.1329  0.2618
 3735SOL    HW122664   1.759   2.885   9.518 -1.5308 -1.2293  1.9685
 3735SOL    HW222665   1.745   2.909   9.380  1.6028  0.7279  1.7640
 3736SOL     OW22666   3.682   3.641  13.210 -0.5800 -0.3716  0.3526
 3736SOL    HW122667   3.737   3.692  13.270  1.0825 -0.2923 -1.2156
 3736SOL    HW222668   3.716   3.656  13.121 -1.8040 -1.0272 -0.2160
 3737SOL     OW22669   3.319   3.743   2.229  0.8937  0.2492 -0.2030
 3737SOL    HW122670   3.242   3.800   2.234 -0.4478 -1.6098  0.3509
 3737SOL    HW222671   3.386   3.810   2.214  1.8108 -0.3542  1.2381
 3738SOL     OW22672   4.661   0.209   0.330  0.2069  0.2919  0.4607
 3738SOL    HW122673   4.700   0.153   0.263 -0.2283  0.1043  0.3688
 3738SOL    HW222674   4.570   0.218   0.304 -0.0724  3.4247  2.5377
 3739SOL     OW22675   4.515   3.643  17.189 -0.5517 -0.2901  0.5075
 3739SOL    HW122676   4.565   3.661  17.109 -0.9927 -2.0587 -0.1440
 3739SOL    HW222677   4.438   3.696  17.170  1.4345  1.9223 -1.4051
 3740SOL     OW22678   2.224   1.385   3.440 -0.5317 -0.0217 -0.4040
 3740SOL    HW122679   2.218   1.427   3.354 -1.2760  0.3482 -0.1771
 3740SOL    HW222680   2.133   1.384   3.470 -0.7097 -0.2060 -0.9561
 3741SOL     OW22681   1.068   1.898  13.019  0.0659  0.1412 -0.2096
 3741SOL    HW122682   1.157   1.878  12.989 -0.1208  1.9540 -2.0543
 3741SOL    HW222683   1.081   1.968  13.083 -0.4060  0.6151 -0.6259
 3742SOL     OW22684   3.624   3.302   9.147  0.3322  0.3297 -0.4083
 3742SOL    HW122685   3.647   3.219   9.189 -0.9048  0.1784 -0.0320
 3742SOL    HW222686   3.695   3.358   9.179  1.7198 -0.1160 -2.7186
 3743SOL     OW22687   2.578   2.519   7.798  0.4307  0.5108 -0.0615
 3743SOL    HW122688   2.660   2.492   7.758  2.2649  2.3688  2.4781
 3743SOL    HW222689   2.540   2.432   7.812 -0.2596  1.1205  1.9273
 3744SOL     OW22690   3.079   0.837   3.576 -0.0611 -0.0170  0.0844
 3744SOL    HW122691   3.079   0.778   3.501 -0.1864  1.9131 -1.4505
 3744SOL    HW222692   3.141   0.902   3.542  0.1354 -1.1105 -1.6254
 3745SOL     OW22693   1.673   4.483  11.067 -0.3909 -0.0558 -0.9122
 3745SOL    HW122694   1.763   4.481  11.034  0.0345  1.1394  0.1761
 3745SOL    HW222695   1.647   4.548  11.002  1.0491  1.4110 -0.0309
 3746SOL     OW22696   2.482   4.504   0.596 -0.1452  0.3196 -0.3944
 3746SOL    HW122697   2.491   4.458   0.512 -1.4575 -0.1573 -0.2736
 3746SOL    HW222698   2.551   4.570   0.588 -0.1076  0.1027 -2.0144
 3747SOL     OW22699   4.569   2.496  15.715  0.3015 -0.2639 -0.0710
 3747SOL    HW122700   4.485   2.540  15.733 -0.5698 -1.1474 -1.9242
 3747SOL    HW222701   4.547   2.412  15.754 -1.6192  0.2333 -0.0390
 3748SOL     OW22702   0.540   0.188   3.457  0.1989  0.0298 -0.0104
 3748SOL    HW122703   0.589   0.174   3.537 -0.7948  0.0660  0.6120
 3748SOL    HW222704   0.612   0.188   3.394 -0.0027  5.0239 -0.2814
 3749SOL     OW22705   2.604   1.350   4.679 -0.6647  0.2678 -0.1852
 3749SOL    HW122706   2.517   1.388   4.690 -1.1540 -1.1418  0.9004
 3749SOL    HW222707   2.658   1.418   4.718  0.8746 -1.7014  1.1653
 3750SOL     OW22708   2.695   4.517   8.789  0.1541  0.0147 -0.2177
 3750SOL    HW122709   2.662   4.429   8.773 -1.1465  0.4976 -0.2197
 3750SOL    HW222710   2.631   4.542   8.856  0.9450  0.2428  0.4574
 3751SOL     OW22711   4.356   0.514   8.077  0.5506  0.5669 -0.3510
 3751SOL    HW122712   4.317   0.469   8.002 -0.0163  0.0738  0.2251
 3751SOL    HW222713   4.445   0.517   8.044  0.0095  0.8667 -1.7799
 3752SOL     OW22714   0.281   1.478   5.460 -0.4680  0.1388 -0.1772
 3752SOL    HW122715   0.232   1.481   5.543 -1.0053 -1.8462 -0.3974
 3752SOL    HW222716   0.370   1.455   5.485 -0.2131  1.7899  0.4031
 3753SOL     OW22717   3.023   4.147   4.452  1.1197  0.7778  0.1615
 3753SOL    HW122718   2.972   4.213   4.500 -0.3835 -0.1482 -0.1542
 3753SOL    HW222719   3.055   4.195   4.375 -0.3643  2.0650  0.3370
 3754SOL     OW22720   0.719   0.359   8.392  0.1618 -0.1546  0.8482
 3754SOL    HW122721   0.638   0.391   8.352  0.2902 -1.0043 -0.0781
 3754SOL    HW222722   0.709   0.265   8.408  0.7922 -0.4276 -0.3379
 3755SOL     OW22723   2.426   1.844   8.932  0.1587 -0.0399  0.1047
 3755SOL    HW122724   2.488   1.785   8.976 -0.0340 -0.7627 -0.6082
 3755SOL    HW222725   2.378   1.860   9.013  0.2935 -0.4909  0.2738
 3756SOL     OW22726   0.703   1.205  14.086  0.1873  0.7786 -0.2864
 3756SOL    HW122727   0.610   1.196  14.102  0.0958 -1.2948 -1.9644
 3756SOL    HW222728   0.718   1.229  13.994 -1.5128 -2.2499 -1.3526
 3757SOL     OW22729   4.073   0.838  11.928  0.0329 -0.2596 -0.5709
 3757SOL    HW122730   4.086   0.922  11.973  3.2339 -0.5244 -0.9971
 3757SOL    HW222731   4.157   0.793  11.920  0.1976 -0.1677  0.5430
 3758SOL     OW22732   0.839   2.286   2.169 -0.1726  0.1680  0.4687
 3758SOL    HW122733   0.850   2.381   2.168  4.0938 -0.3185 -0.0665
 3758SOL    HW222734   0.760   2.279   2.115  0.5156 -2.7349 -0.1886
 3759SOL     OW22735   4.049   4.506   7.051  0.2014 -0.6714 -0.0437
 3759SOL    HW122736   4.016   4.418   7.038 -2.0720  0.1467  0.2171
 3759SOL    HW222737   3.971   4.559   7.069  2.2678  2.5879 -0.7470
 3760SOL     OW22738   4.617   4.322  15.072 -0.2277  0.3088 -0.3190
 3760SOL    HW122739   4.612   4.272  14.991 -2.9234  0.0692  0.0038
 3760SOL    HW222740   4.699   4.288  15.108 -2.0072 -0.4991  2.9186
 3761SOL     OW22741   2.361   0.814   8.354  0.6009 -0.1765  0.0580
 3761SOL    HW122742   2.321   0.901   8.362  4.1645  1.4142  0.9038
 3761SOL    HW222743   2.332   0.768   8.433 -0.0505  1.7697  0.9819
 3762SOL     OW22744   3.007   3.678   1.536  0.2414 -0.2365 -0.3910
 3762SOL    HW122745   2.933   3.739   1.548 -0.4050 -1.4844  1.8361
 3762SOL    HW222746   2.973   3.591   1.554  0.8187 -0.2205  0.7689
 3763SOL     OW22747   3.413   0.614   5.309  0.0011 -0.1336 -0.0667
 3763SOL    HW122748   3.469   0.687   5.336 -0.1928  0.3359 -0.9491
 3763SOL    HW222749   3.468   0.590   5.235 -1.2342  0.9709 -1.3602
 3764SOL     OW22750   3.439   0.770  14.020  0.0878 -0.0271  1.1111
 3764SOL    HW122751   3.396   0.852  13.996 -1.1088 -1.2045 -0.7520
 3764SOL    HW222752   3.369   0.707  14.036  0.8997 -1.4312 -0.8915
 3765SOL     OW22753   4.496   0.118  12.327 -0.0868 -0.3209  0.1441
 3765SOL    HW122754   4.418   0.092  12.277  1.5375 -3.0620 -0.9437
 3765SOL    HW222755   4.506   0.031  12.367 -0.4905  0.1873  1.3663
 3766SOL     OW22756   1.018   0.048   6.621 -0.1435  0.6844 -0.3042
 3766SOL    HW122757   0.946   0.087   6.572 -0.0847  0.0666 -0.8746
 3766SOL    HW222758   1.067   4.725   6.555  0.6709  0.9643  0.0943
 3767SOL     OW22759   2.138   3.015   4.278  0.4778 -0.1869 -0.3113
 3767SOL    HW122760   2.212   2.954   4.287  1.4178  0.9760 -0.0693
 3767SOL    HW222761   2.119   3.040   4.368 -0.6579 -1.1414 -0.2876
 3768SOL     OW22762   0.817   3.420   4.343 -0.1375  0.3701  0.5747
 3768SOL    HW122763   0.801   3.380   4.257 -2.1682  2.4824 -0.0491
 3768SOL    HW222764   0.900   3.463   4.323 -0.5990  1.0078  0.0258
 3769SOL     OW22765   0.086   1.973   4.930 -0.4969 -0.1790 -0.3233
 3769SOL    HW122766   0.057   1.924   4.853  0.7265  1.6592 -1.9468
 3769SOL    HW222767   0.012   1.979   4.991  0.5213  1.7948  0.7222
 3770SOL     OW22768   1.176   1.161   7.379  0.3987 -0.7166  0.0585
 3770SOL    HW122769   1.176   1.179   7.473 -1.7812 -0.8511  0.0837
 3770SOL    HW222770   1.108   1.219   7.344  0.4395 -0.1705  0.8774
 3771SOL     OW22771   3.204   4.388   4.566  0.3910  0.4599 -0.2794
 3771SOL    HW122772   3.277   4.445   4.589  0.8317 -0.8272  1.5512
 3771SOL    HW222773   3.254   4.307   4.560  0.2625  0.3482  0.1018
 3772SOL     OW22774   3.269   3.192   8.952 -0.1374  0.3589 -0.5306
 3772SOL    HW122775   3.188   3.242   8.959 -1.1550 -1.4385  0.5412
 3772SOL    HW222776   3.310   3.253   8.890  0.9684 -1.5891 -1.7014
 3773SOL     OW22777   2.531   4.332   3.351 -0.0811  0.8205 -0.5049
 3773SOL    HW122778   2.451   4.321   3.403  0.2339 -0.4461 -0.2775
 3773SOL    HW222779   2.507   4.413   3.307 -0.1612 -0.3396 -2.5782
 3774SOL     OW22780   0.906   2.139   2.927 -0.1723 -0.4989 -0.0020
 3774SOL    HW122781   0.940   2.069   2.871 -1.1710 -2.7342  2.1575
 3774SOL    HW222782   0.920   2.216   2.873  0.4349 -0.2050  0.5730
 3775SOL     OW22783   0.290   0.789   4.614 -0.2448  0.6180 -0.0970
 3775SOL    HW122784   0.279   0.880   4.586 -1.4219  0.0437 -1.4791
 3775SOL    HW222785   0.384   0.772   4.612 -0.4750 -0.5793 -0.5772
 3776SOL     OW22786   2.395   3.829   9.248  0.1908 -0.2260  0.4138
 3776SOL    HW122787   2.306   3.863   9.252  0.0222 -0.8326  2.1159
 3776SOL    HW222788   2.402   3.763   9.317 -0.6775 -1.2857 -0.5154
 3777SOL     OW22789   1.548   3.382  16.676  0.1359 -0.1394 -0.5204
 3777SOL    HW122790   1.573   3.455  16.732  1.5814  0.0493 -1.4289
 3777SOL    HW222791   1.564   3.304  16.729 -0.3881  1.1239  1.5292
 3778SOL     OW22792   4.270   1.598   4.663 -0.4808  0.0049  0.4243
 3778SOL    HW122793   4.209   1.592   4.736 -1.2054  0.2135 -0.1747
 3778SOL    HW222794   4.350   1.567   4.707 -1.5065 -0.2349  2.1375
 3779SOL     OW22795   1.580   4.465   2.820 -0.1731  0.1036  0.2556
 3779SOL    HW122796   1.604   4.541   2.768  2.0911 -0.0089  1.1382
 3779SOL    HW222797   1.593   4.496   2.909  0.0276 -0.7038  0.5111
 3780SOL     OW22798   1.358   0.792  14.089  0.0636  0.1116 -0.3575
 3780SOL    HW122799   1.338   0.813  13.997  0.3357 -0.1633 -0.4764
 3780SOL    HW222800   1.435   0.740  14.068 -2.0410 -1.5565 -3.9586
 3781SOL     OW22801   4.434   1.779   6.499  0.0329 -0.2877  0.0272
 3781SOL    HW122802   4.363   1.763   6.560  1.0536 -0.5160  1.1630
 3781SOL    HW222803   4.383   1.824   6.431  0.2983  1.4181  0.9541
 3782SOL     OW22804   3.630   0.632   4.254 -0.3307  0.3461  0.2710
 3782SOL    HW122805   3.692   0.591   4.193  3.4955  4.2760  1.4783
 3782SOL    HW222806   3.694   0.647   4.324 -1.0152 -1.4053  1.2564
 3783SOL     OW22807   3.401   4.429   2.736 -0.0864 -0.5879  0.4806
 3783SOL    HW122808   3.369   4.461   2.820  1.7272  0.1819  0.8702
 3783SOL    HW222809   3.332   4.364   2.728  0.6963 -1.1145 -2.0525
 3784SOL     OW22810   1.523   2.399   4.705  0.5459 -0.0068 -0.3928
 3784SOL    HW122811   1.448   2.365   4.656  0.5499  2.0458 -1.8076
 3784SOL    HW222812   1.571   2.424   4.626 -0.3102 -0.9977 -1.2453
 3785SOL     OW22813   0.592   3.194   5.392  0.3061  0.0932  0.5118
 3785SOL    HW122814   0.555   3.120   5.344 -0.4994  0.1964  0.9785
 3785SOL    HW222815   0.661   3.214   5.329  0.7754  1.9687  1.6311
 3786SOL     OW22816   2.806   1.628   7.278  0.2545 -0.5976 -0.1347
 3786SOL    HW122817   2.750   1.677   7.338 -1.6542  0.1312 -2.5301
 3786SOL    HW222818   2.891   1.662   7.307  0.0776  1.4962 -2.1096
 3787SOL     OW22819   4.011   2.742   6.042  0.6067  0.0670 -0.3451
 3787SOL    HW122820   3.929   2.746   6.092  0.0851  1.2173 -1.2770
 3787SOL    HW222821   4.059   2.810   6.089  0.2655  1.2333 -1.6698
 3788SOL     OW22822   2.973   1.707  16.907 -0.3312  0.7080  0.3656
 3788SOL    HW122823   2.981   1.798  16.879 -0.1187  0.6653  0.2836
 3788SOL    HW222824   2.882   1.710  16.935 -0.3651  0.6435  0.2631
 3789SOL     OW22825   1.920   0.836  10.355  0.0852 -0.3350 -0.2144
 3789SOL    HW122826   1.848   0.801  10.407  0.4510 -1.2135 -0.3005
 3789SOL    HW222827   1.921   0.923  10.394 -0.4547 -0.3389 -0.1977
 3790SOL     OW22828   3.102   4.620   4.375  0.1979  0.2639 -0.5500
 3790SOL    HW122829   3.104   4.564   4.453 -1.5609 -0.3513 -0.9435
 3790SOL    HW222830   3.034   4.679   4.410 -1.8504 -1.5120 -1.5630
 3791SOL     OW22831   0.453   4.137   6.438 -0.1213 -0.4766  0.0199
 3791SOL    HW122832   0.547   4.121   6.425 -0.6374 -1.6470 -2.1851
 3791SOL    HW222833   0.464   4.190   6.517  3.0752  0.8299 -1.2854
 3792SOL     OW22834   0.959   0.039   8.405 -0.0874  0.3659  0.6305
 3792SOL    HW122835   0.985   0.021   8.314 -0.9622  0.1695  0.4245
 3792SOL    HW222836   0.979   4.682   8.447  1.7278 -0.0336 -1.0442
 3793SOL     OW22837   1.851   2.853   5.436  0.2673  0.6805  0.5147
 3793SOL    HW122838   1.770   2.880   5.479 -1.4574 -0.0124 -2.2884
 3793SOL    HW222839   1.888   2.800   5.506  2.0719  0.4693 -0.5902
 3794SOL     OW22840   0.284   1.320  15.449 -0.2581  0.8546  0.1601
 3794SOL    HW122841   0.282   1.415  15.448 -3.8052  0.8100  4.1956
 3794SOL    HW222842   0.371   1.310  15.487 -0.3106  1.0724  0.3346
 3795SOL     OW22843   2.963   2.627   3.370 -0.1904 -0.2724  0.0973
 3795SOL    HW122844   2.923   2.670   3.295  0.6412  1.4732  0.6732
 3795SOL    HW222845   3.006   2.695   3.421 -1.6095 -0.7416  1.9802
 3796SOL     OW22846   0.791   2.650  12.711 -0.0803  0.2471  0.1226
 3796SOL    HW122847   0.807   2.731  12.759 -1.0564  0.0331  0.8093
 3796SOL    HW222848   0.699   2.640  12.736  0.4712  1.0831  2.4798
 3797SOL     OW22849   1.454   0.675   4.081  0.3654 -0.1376  0.2157
 3797SOL    HW122850   1.402   0.746   4.119 -0.8326 -0.6920 -0.3838
 3797SOL    HW222851   1.539   0.715   4.067  0.8971 -0.4380  2.7102
 3798SOL     OW22852   1.464   0.023   8.053  0.2345 -0.4627  0.0038
 3798SOL    HW122853   1.420   0.093   8.102 -2.3627 -3.1467  1.5096
 3798SOL    HW222854   1.541   0.066   8.017 -0.2576 -0.1182 -0.6278
 3799SOL     OW22855   0.179   3.104   1.866 -0.5522  0.4152  0.3974
 3799SOL    HW122856   0.093   3.084   1.829  0.1057 -0.1592 -0.8167
 3799SOL    HW222857   0.227   3.117   1.784  0.0594  0.8902  0.8259
 3800SOL     OW22858   3.806   0.222  12.012  0.3139 -0.2092 -0.5551
 3800SOL    HW122859   3.809   0.303  12.064 -0.1387 -2.0085  2.2518
 3800SOL    HW222860   3.721   0.186  12.037 -0.0953  0.5688 -0.7966
 3801SOL     OW22861   2.030   1.424  14.712 -0.3247 -0.7548  0.3368
 3801SOL    HW122862   2.101   1.461  14.766  0.2796 -1.1755 -0.1681
 3801SOL    HW222863   2.039   1.479  14.634  1.4047 -0.7342  0.5477
 3802SOL     OW22864   3.201   2.920   3.791 -0.4702  0.0522 -0.0055
 3802SOL    HW122865   3.124   2.976   3.778 -0.7769 -0.0590  1.3303
 3802SOL    HW222866   3.223   2.942   3.882  2.5825  0.9875 -0.9661
 3803SOL     OW22867   1.513   3.924   4.859 -0.5166 -0.0111  0.0576
 3803SOL    HW122868   1.596   3.896   4.897 -0.6203 -0.1071  0.2142
 3803SOL    HW222869   1.457   3.846   4.862  1.5170 -1.5224 -1.9409
 3804SOL     OW22870   2.506   3.821   4.070 -0.3254 -0.6034 -0.3792
 3804SOL    HW122871   2.513   3.852   3.980  0.7756 -1.0332 -0.4378
 3804SOL    HW222872   2.422   3.775   4.061 -0.8538  0.1103  0.8495
 3805SOL     OW22873   4.155   1.489  14.597 -0.1708  0.7302 -0.6720
 3805SOL    HW122874   4.070   1.497  14.553 -0.3054  0.7514 -0.4106
 3805SOL    HW222875   4.120   1.464  14.683  0.7737 -1.1061 -0.8267
 3806SOL     OW22876   4.305   2.942   9.619 -0.4441 -0.3918 -0.3549
 3806SOL    HW122877   4.319   2.925   9.713 -1.6792 -2.6030 -0.5582
 3806SOL    HW222878   4.306   3.037   9.632 -2.6210 -0.7531  2.4973
 3807SOL     OW22879   3.219   4.621   0.612  0.0288 -0.1413  0.1812
 3807SOL    HW122880   3.305   4.627   0.654  0.1989  1.3204 -0.3784
 3807SOL    HW222881   3.232   4.616   0.517  0.4158 -1.3195  0.2878
 3808SOL     OW22882   0.329   2.748   2.700  0.2340  0.3559  0.1681
 3808SOL    HW122883   0.379   2.701   2.633 -0.1528 -0.6237  0.5673
 3808SOL    HW222884   0.299   2.826   2.652 -1.7853 -1.4067 -1.3985
 3809SOL     OW22885   2.243   2.438   5.764  0.1328 -0.2322 -0.4127
 3809SOL    HW122886   2.232   2.460   5.857  1.5072 -1.8312  0.1231
 3809SOL    HW222887   2.188   2.361   5.754  0.8485 -0.8831  0.6256
 3810SOL     OW22888   2.267   4.086   8.303  0.2758  0.0191 -0.9983
 3810SOL    HW122889   2.282   4.114   8.393  0.5918 -0.5587 -0.8758
 3810SOL    HW222890   2.319   4.006   8.296 -1.0240 -1.0561  1.8650
 3811SOL     OW22891   0.264   1.102  15.237  0.1362  0.0083  0.2561
 3811SOL    HW122892   0.170   1.118  15.246  0.4197  1.4171  0.6675
 3811SOL    HW222893   0.310   1.151  15.304 -1.7645  0.6402  1.0968
 3812SOL     OW22894   2.081   0.233  13.878  0.2232  0.2758 -0.0407
 3812SOL    HW122895   2.078   0.163  13.812  0.7806  1.5717 -1.4327
 3812SOL    HW222896   2.078   0.183  13.959 -1.6811 -1.8073 -1.4066
 3813SOL     OW22897   4.045   1.380  16.752 -0.2372 -0.5568  0.0456
 3813SOL    HW122898   3.977   1.412  16.811 -1.3498 -0.3298 -1.3748
 3813SOL    HW222899   4.079   1.463  16.718  0.3399 -0.5420  0.6610
 3814SOL     OW22900   0.825   0.652  12.053 -0.0487 -0.5001  0.0369
 3814SOL    HW122901   0.898   0.604  12.012  0.8225  1.8412 -1.1413
 3814SOL    HW222902   0.829   0.616  12.142 -2.7592 -1.1647 -0.1114
 3815SOL     OW22903   3.282   4.598   8.921 -0.2332  0.2443  0.1006
 3815SOL    HW122904   3.354   4.577   8.861 -0.5234  1.3105 -0.6359
 3815SOL    HW222905   3.338   4.649   8.980  1.1873 -0.8034 -0.3297
 3816SOL     OW22906   4.629   2.140   0.575 -0.4896 -0.4460  0.1203
 3816SOL    HW122907   4.611   2.091   0.495  2.0682 -0.7016 -0.3153
 3816SOL    HW222908   4.720   2.169   0.561 -1.1985  1.4504 -0.6271
 3817SOL     OW22909   2.986   3.459   6.330  0.3572 -0.5318 -0.4718
 3817SOL    HW122910   3.073   3.497   6.319 -0.1852  1.0181  0.6413
 3817SOL    HW222911   2.957   3.439   6.240  0.3802 -0.8648 -0.4054
 3818SOL     OW22912   2.313   1.158  16.750 -0.4259 -0.0094 -0.0112
 3818SOL    HW122913   2.297   1.143  16.844  0.2471 -0.2552  0.0697
 3818SOL    HW222914   2.242   1.108  16.711 -0.6236  0.4619 -0.2431
 3819SOL     OW22915   1.474   0.905  14.504  0.4920  0.1719 -0.8750
 3819SOL    HW122916   1.493   0.997  14.485 -1.9625  0.5898 -1.2316
 3819SOL    HW222917   1.428   0.902  14.588 -0.4787  1.0007 -1.3927
 3820SOL     OW22918   4.280   1.299   1.345 -0.5816  0.1607 -0.2698
 3820SOL    HW122919   4.373   1.280   1.341 -0.6645  0.0114 -1.5099
 3820SOL    HW222920   4.253   1.207   1.340 -3.0868  0.8427  0.4472
 3821SOL     OW22921   1.613   0.310   1.497  0.2125  0.1154 -0.3775
 3821SOL    HW122922   1.595   0.285   1.588  0.4749  0.7769 -0.1429
 3821SOL    HW222923   1.688   0.367   1.513 -0.8530  1.3910  0.1030
 3822SOL     OW22924   2.243   0.848   5.768  0.4825 -0.1496 -0.1406
 3822SOL    HW122925   2.205   0.847   5.856 -0.0391  0.6461 -0.3560
 3822SOL    HW222926   2.332   0.823   5.793  0.8548  3.6014  2.3824
 3823SOL     OW22927   4.304   0.093   2.404  0.5207  0.2251 -0.2944
 3823SOL    HW122928   4.386   0.061   2.367  0.4921  3.3907 -3.1913
 3823SOL    HW222929   4.320   0.077   2.497 -0.4495 -0.6160 -0.2729
 3824SOL     OW22930   0.951   0.503  12.698 -0.3076 -0.5772 -0.1793
 3824SOL    HW122931   0.878   0.554  12.734  0.1353 -1.9199  2.5909
 3824SOL    HW222932   0.960   0.446  12.774 -0.3403  0.2975  0.4792
 3825SOL     OW22933   1.643   0.126   9.450  0.1879  0.3566  0.1997
 3825SOL    HW122934   1.608   0.170   9.527  0.1829 -2.0549  1.5944
 3825SOL    HW222935   1.580   0.162   9.387 -1.0399 -0.8825  0.7297
 3826SOL     OW22936   3.533   4.671   5.742  0.3606  0.7351 -0.2951
 3826SOL    HW122937   3.469   4.614   5.700 -1.5003  2.3537  0.3666
 3826SOL    HW222938   3.496   0.033   5.738 -0.8530  0.1974 -0.8875
 3827SOL     OW22939   3.684   0.750   6.577 -0.0131  0.4787 -0.5464
 3827SOL    HW122940   3.779   0.754   6.568 -0.0711  0.7796 -1.0015
 3827SOL    HW222941   3.653   0.664   6.550  1.9341 -0.1756 -0.6573
 3828SOL     OW22942   0.008   0.012  17.421  0.2793  0.7356  0.0198
 3828SOL    HW122943   0.083   4.721  17.478  0.1532  1.2240  0.3301
 3828SOL    HW222944   0.043   0.075  17.358  2.9226  0.5281  1.2773
 3829SOL     OW22945   2.281   2.614  16.901  0.5259  0.3827  0.6770
 3829SOL    HW122946   2.271   2.705  16.930 -0.8523  0.1297  0.9903
 3829SOL    HW222947   2.287   2.619  16.805 -0.2056  1.5382  0.6890
 3830SOL     OW22948   2.669   2.406   5.069  0.9156 -0.0685 -0.2745
 3830SOL    HW122949   2.654   2.358   4.988 -2.0246 -0.1916  0.3443
 3830SOL    HW222950   2.648   2.492   5.032  2.7311  1.1393  1.5413
 3831SOL     OW22951   4.047   1.535   7.175 -0.3916 -0.0206  0.3044
 3831SOL    HW122952   4.006   1.605   7.123 -1.7665 -0.5094  0.7384
 3831SOL    HW222953   4.036   1.463   7.113 -0.9802 -0.1220  0.5334
 3832SOL     OW22954   3.013   4.545   2.274 -0.0662 -0.4061 -0.3210
 3832SOL    HW122955   3.042   4.604   2.204  0.1248  1.2767  1.1663
 3832SOL    HW222956   3.090   4.489   2.283  0.5210  0.3851 -0.3290
 3833SOL     OW22957   3.857   4.233   4.107  0.0802  0.2411 -0.6461
 3833SOL    HW122958   3.917   4.213   4.179  0.3213 -0.7935 -1.1310
 3833SOL    HW222959   3.924   4.277   4.054 -0.4566  0.6389 -0.9930
 3834SOL     OW22960   3.929   3.484  16.505  0.6148 -0.1266  0.5381
 3834SOL    HW122961   3.845   3.440  16.495  0.6202  0.6673 -2.8710
 3834SOL    HW222962   3.902   3.573  16.483  2.1753  0.3040  0.3852
 3835SOL     OW22963   4.202   2.849  15.828 -0.4681  0.2615  0.2429
 3835SOL    HW122964   4.129   2.823  15.771 -1.1294  1.2757  0.6248
 3835SOL    HW222965   4.143   2.899  15.885 -1.4699 -1.7422  0.9574
 3836SOL     OW22966   1.879   0.402  13.617 -0.5405 -0.0482  0.1792
 3836SOL    HW122967   1.854   0.493  13.632  0.7153  0.3895 -0.3695
 3836SOL    HW222968   1.971   0.418  13.596 -0.7215 -0.6858 -1.1169
 3837SOL     OW22969   2.351   3.425   7.713 -0.3113 -0.2720  0.2781
 3837SOL    HW122970   2.438   3.387   7.716 -0.2319 -0.0643  0.6624
 3837SOL    HW222971   2.321   3.397   7.799 -1.2842  0.7122  0.2686
 3838SOL     OW22972   2.233   2.776  11.907 -0.0553 -0.1302  0.2831
 3838SOL    HW122973   2.241   2.682  11.920  2.6005  0.1207  0.5123
 3838SOL    HW222974   2.148   2.794  11.945 -0.1629 -0.7202  0.3073
 3839SOL     OW22975   0.356   2.675   7.968  0.1703 -0.0285  0.1611
 3839SOL    HW122976   0.325   2.696   8.056 -3.0245  0.5193 -1.0887
 3839SOL    HW222977   0.325   2.586   7.952  1.3232 -0.8609  2.7158
 3840SOL     OW22978   0.114   2.747   6.429  0.1810 -0.3480 -0.5355
 3840SOL    HW122979   0.199   2.711   6.454 -0.2339 -1.1554 -0.2837
 3840SOL    HW222980   0.076   2.757   6.517 -0.1304  0.0671 -0.7166
 3841SOL     OW22981   4.585   2.795   4.201 -0.4275  0.2369 -0.5987
 3841SOL    HW122982   4.507   2.840   4.233 -0.0394  2.1389 -2.3327
 3841SOL    HW222983   4.656   2.836   4.249 -2.1365  2.3149  0.1477
 3842SOL     OW22984   1.970   1.739   0.583 -0.6018  0.0263  0.1360
 3842SOL    HW122985   1.992   1.773   0.670  0.9077  0.9505 -0.6111
 3842SOL    HW222986   1.963   1.644   0.597 -0.7081  0.3275  2.1109
 3843SOL     OW22987   4.022   2.999  15.926 -0.0101  0.0856  0.4256
 3843SOL    HW122988   3.944   3.021  15.875 -1.4230 -1.4559  1.8792
 3843SOL    HW222989   4.051   3.081  15.966  1.2848 -0.8331  1.3939
 3844SOL     OW22990   0.193   1.366   6.320 -0.5399  0.4549  0.1862
 3844SOL    HW122991   0.120   1.415   6.282 -0.3643 -0.1035 -0.8587
 3844SOL    HW222992   0.190   1.291   6.261 -1.2948  0.2139  0.5162
 3845SOL     OW22993   3.477   2.782   3.135 -0.1994 -0.2368  0.0631
 3845SOL    HW122994   3.424   2.822   3.204  0.6271  1.4058 -0.2536
 3845SOL    HW222995   3.561   2.813   3.170 -0.2013  0.8899 -0.9231
 3846SOL     OW22996   0.540   1.768   5.883  0.1784  1.1717 -0.0449
 3846SOL    HW122997   0.617   1.735   5.837 -0.2222  0.6197 -0.3180
 3846SOL    HW222998   0.564   1.759   5.976  3.9746  1.0530 -1.0215
 3847SOL     OW22999   0.230   1.336   9.313  0.9041  0.5297  0.2071
 3847SOL    HW123000   0.215   1.242   9.320 -1.6994  0.9181 -0.1647
 3847SOL    HW223001   0.296   1.341   9.244 -0.2089 -1.2272 -0.9917
 3848SOL     OW23002   2.708   1.583   4.732 -1.2485 -0.1849 -0.3353
 3848SOL    HW123003   2.661   1.593   4.815  1.3546 -2.5227  1.4524
 3848SOL    HW223004   2.715   1.677   4.713  0.7132  0.1089  1.8135
 3849SOL     OW23005   4.502   4.130  11.867  0.0351 -0.1267  0.1267
 3849SOL    HW123006   4.470   4.138  11.957 -1.1649 -0.9355 -0.2411
 3849SOL    HW223007   4.533   4.220  11.853  2.0936 -0.4335  2.7361
 3850SOL     OW23008   2.660   1.603   5.599 -0.5498  0.2348 -0.5764
 3850SOL    HW123009   2.620   1.611   5.686 -0.7219 -3.1283 -0.3609
 3850SOL    HW223010   2.683   1.510   5.598  1.5671  0.7305  1.8648
 3851SOL     OW23011   2.397   4.394   9.038  0.6240  0.1417 -0.3617
 3851SOL    HW123012   2.451   4.469   9.013 -0.4631  0.6469 -1.2283
 3851SOL    HW223013   2.352   4.441   9.108  1.5016  1.3891 -0.6348
 3852SOL     OW23014   3.368   0.473  11.016 -0.5844 -0.0971 -0.5698
 3852SOL    HW123015   3.342   0.466  11.108 -0.2449  1.6794 -0.3509
 3852SOL    HW223016   3.300   0.410  10.991 -0.0675 -0.1632 -1.8091
 3853SOL     OW23017   0.439   0.133  15.412 -0.4015 -0.3232 -0.1004
 3853SOL    HW123018   0.492   0.212  15.423 -1.1946 -0.1525  2.6777
 3853SOL    HW223019   0.491   0.066  15.369 -0.4963  0.7648 -1.8789
 3854SOL     OW23020   2.246   3.034   1.830  0.4074 -0.8882  0.0763
 3854SOL    HW123021   2.287   2.964   1.880  1.2246 -0.8474 -0.5421
 3854SOL    HW223022   2.170   2.984   1.800  1.3013 -2.4790  0.4808
 3855SOL     OW23023   3.696   3.341   5.622 -0.0670 -0.1780 -0.7298
 3855SOL    HW123024   3.675   3.342   5.529 -3.0976  0.0536 -0.0393
 3855SOL    HW223025   3.619   3.302   5.662 -0.2398 -1.1177 -1.9823
 3856SOL     OW23026   4.612   0.524   7.765 -0.3670  0.0609  0.2626
 3856SOL    HW123027   4.561   0.511   7.685 -2.9882  0.4652  1.8713
 3856SOL    HW223028   4.568   0.458   7.820  0.1680  1.0208  1.8313
 3857SOL     OW23029   2.693   0.008   8.222 -0.2725  0.5273 -0.4112
 3857SOL    HW123030   2.626   4.705   8.160  1.9016 -4.8822 -0.2097
 3857SOL    HW223031   2.688   4.663   8.286 -1.6348  0.0618 -1.0494
 3858SOL     OW23032   4.680   3.374   2.318  0.3007  0.1081  0.1958
 3858SOL    HW123033   0.019   3.441   2.299 -1.3120  1.4954 -0.4214
 3858SOL    HW223034   4.614   3.414   2.261 -0.6690 -1.9547 -0.1102
 3859SOL     OW23035   4.144   4.643  13.679 -0.1111  0.2533 -0.0442
 3859SOL    HW123036   4.167   4.679  13.765  1.5830  0.0007 -0.4014
 3859SOL    HW223037   4.227   4.629  13.635 -0.0505 -0.4055  0.2763
 3860SOL     OW23038   0.538   2.851  13.278  0.5920 -0.1117  0.0083
 3860SOL    HW123039   0.582   2.876  13.196  1.2690  0.8588  0.6677
 3860SOL    HW223040   0.559   2.760  13.301  3.5139  0.3620 -0.7108
 3861SOL     OW23041   3.342   2.294   5.893  0.2375 -0.0311  0.3569
 3861SOL    HW123042   3.384   2.356   5.833  0.2774 -2.9966 -2.6265
 3861SOL    HW223043   3.249   2.311   5.884  0.6185  1.1507 -1.3488
 3862SOL     OW23044   0.601   4.388   8.333 -0.2712  0.2145  1.1183
 3862SOL    HW123045   0.547   4.445   8.388 -0.2538  0.7497  0.5901
 3862SOL    HW223046   0.655   4.336   8.392 -0.3512 -1.2359 -0.0848
 3863SOL     OW23047   2.902   2.131   2.642  0.1997  0.0816  0.1323
 3863SOL    HW123048   2.929   2.125   2.551  2.3938 -0.1408  0.7932
 3863SOL    HW223049   2.808   2.117   2.641  0.0429  1.2359 -1.4169
 3864SOL     OW23050   4.602   0.555  10.868 -0.2325  0.4705 -0.0282
 3864SOL    HW123051   4.558   0.590  10.946  0.4679 -1.5583  1.2681
 3864SOL    HW223052   4.666   0.499  10.911 -1.4548 -0.9570 -0.0767
 3865SOL     OW23053   3.738   3.911   4.984  0.5065 -0.1820  0.0275
 3865SOL    HW123054   3.794   3.834   4.993  0.0527 -0.4313  0.6934
 3865SOL    HW223055   3.707   3.912   5.074  1.0859  1.0093  0.2172
 3866SOL     OW23056   3.769   4.092   6.128 -0.0577 -0.6815  0.6160
 3866SOL    HW123057   3.735   4.057   6.046 -2.5437  4.1079 -0.4005
 3866SOL    HW223058   3.808   4.176   6.103  0.0784 -0.4492  1.6065
 3867SOL     OW23059   1.552   2.399   0.375 -0.3700 -0.4521  0.0848
 3867SOL    HW123060   1.476   2.417   0.431 -2.8671 -2.4376 -2.6415
 3867SOL    HW223061   1.592   2.320   0.411  0.3817 -0.1294 -0.0455
 3868SOL     OW23062   1.423   4.635   4.818 -0.0133  0.0285  0.6287
 3868SOL    HW123063   1.417   4.573   4.745  2.7175  1.4050 -0.7819
 3868SOL    HW223064   1.498   4.606   4.870 -0.1746 -0.8878  0.3430
 3869SOL     OW23065   4.710   0.349  16.964 -0.0308 -0.2248 -0.4025
 3869SOL    HW123066   0.074   0.331  16.939 -0.4397 -3.4443  0.4181
 3869SOL    HW223067   4.673   0.270  16.923 -1.9805 -0.5797  2.0473
 3870SOL     OW23068   0.067   1.414   3.929 -0.1213  0.2090  0.0123
 3870SOL    HW123069   0.152   1.456   3.935 -0.1336  0.2179  0.1270
 3870SOL    HW223070   0.029   1.454   3.851 -2.5966 -1.4064  0.3783
 3871SOL     OW23071   2.380   1.951   4.402 -0.4579  0.6488 -0.3319
 3871SOL    HW123072   2.353   1.990   4.319 -0.7008 -3.4995 -2.2009
 3871SOL    HW223073   2.300   1.964   4.454  0.7890  0.1155  1.7385
 3872SOL     OW23074   4.374   2.703   0.852  0.2529 -0.4402 -0.7073
 3872SOL    HW123075   4.444   2.730   0.792 -0.6124 -1.5258 -2.1869
 3872SOL    HW223076   4.335   2.791   0.852  2.0502  0.3570 -0.8792
 3873SOL     OW23077   2.115   3.905   7.816  1.0012 -0.1848  0.3521
 3873SOL    HW123078   2.196   3.956   7.813  0.6088  0.4714  0.7943
 3873SOL    HW223079   2.119   3.881   7.909 -0.5176  2.1327  1.0449
 3874SOL     OW23080   1.065   4.295  17.074 -0.0789  0.3842 -1.0394
 3874SOL    HW123081   1.127   4.367  17.080 -0.3295  0.5024  0.0818
 3874SOL    HW223082   1.113   4.213  17.085 -0.9911 -0.2209 -1.5854
 3875SOL     OW23083   1.521   2.689  15.933 -0.4237 -0.3542 -0.5491
 3875SOL    HW123084   1.544   2.753  15.866 -0.9999  1.2361  0.7594
 3875SOL    HW223085   1.427   2.709  15.943 -0.5596 -0.3036 -1.9931
 3876SOL     OW23086   0.779   0.657  12.849  0.0966  0.0574  0.0569
 3876SOL    HW123087   0.777   0.624  12.939  0.0384  1.6068  0.6106
 3876SOL    HW223088   0.711   0.724  12.860  3.5382  3.2065  1.8877
 3877SOL     OW23089   2.802   4.059   9.068 -0.1706  0.3517 -0.0204
 3877SOL    HW123090   2.710   4.065   9.095 -0.1342  0.2645  0.1230
 3877SOL    HW223091   2.816   4.153   9.059 -2.8778  0.7648  0.1197
 3878SOL     OW23092   2.033   0.633  10.207 -0.2210 -0.0747  0.4349
 3878SOL    HW123093   2.031   0.560  10.269  1.0424  0.4516  1.0908
 3878SOL    HW223094   1.992   0.701  10.260 -0.5107  0.3092 -0.2880
 3879SOL     OW23095   2.158   3.480   1.746 -0.5146  0.7346 -0.0079
 3879SOL    HW123096   2.093   3.424   1.789  0.8449  0.4291  1.6725
 3879SOL    HW223097   2.213   3.423   1.694  2.9928  3.2949  0.8874
 3880SOL     OW23098   0.755   3.379   9.117  0.0090 -0.0071 -0.0530
 3880SOL    HW123099   0.779   3.471   9.131  1.8339 -0.5083  0.1568
 3880SOL    HW223100   0.702   3.361   9.195 -2.6006  0.3170 -1.7511
 3881SOL     OW23101   0.053   1.831   1.852 -0.0926 -0.2400 -0.3780
 3881SOL    HW123102   0.064   1.816   1.946  1.0938  2.5195 -0.0773
 3881SOL    HW223103   0.130   1.778   1.830 -1.4841 -2.1602 -0.5565
 3882SOL     OW23104   0.081   0.157   7.798 -0.7880  0.5058  1.0736
 3882SOL    HW123105   0.108   0.248   7.790 -2.1683  0.7659 -0.8218
 3882SOL    HW223106   0.026   0.150   7.720  0.6617 -1.7041  0.2434
 3883SOL     OW23107   2.470   3.705   3.384  0.0740 -0.2038  0.5663
 3883SOL    HW123108   2.514   3.717   3.299 -0.4770  0.8053  0.4247
 3883SOL    HW223109   2.545   3.689   3.441 -1.2250 -0.7671  2.1044
 3884SOL     OW23110   0.261   2.800   6.164 -0.2293 -0.7852 -0.1245
 3884SOL    HW123111   0.199   2.778   6.233 -0.7965 -0.2753 -0.4669
 3884SOL    HW223112   0.344   2.804   6.210 -0.1327 -1.3931 -0.2441
 3885SOL     OW23113   2.906   3.467  13.448 -0.1379 -0.0705 -0.2945
 3885SOL    HW123114   2.995   3.432  13.445  0.1637  0.7730 -1.4978
 3885SOL    HW223115   2.896   3.450  13.354 -2.5225  4.3081 -0.8390
 3886SOL     OW23116   4.654   1.763   1.589  0.3123  0.1455 -0.0510
 3886SOL    HW123117   4.657   1.806   1.675 -1.2038  0.3475 -0.1040
 3886SOL    HW223118   4.568   1.793   1.560 -0.1593 -3.4029 -2.2156
 3887SOL     OW23119   0.166   0.753   2.147 -0.1540  0.1190  0.0461
 3887SOL    HW123120   0.252   0.768   2.107 -0.5732  0.6824 -0.6409
 3887SOL    HW223121   0.146   0.662   2.124 -0.0765  0.4818 -1.4599
 3888SOL     OW23122   4.473   0.620   1.991  0.4511  0.1190 -0.1248
 3888SOL    HW123123   4.563   0.651   1.999  0.8565 -1.2922  0.8778
 3888SOL    HW223124   4.501   0.549   1.933 -0.4282 -0.2570 -0.0828
 3889SOL     OW23125   2.701   2.217  12.851 -0.0469  0.1822 -0.1044
 3889SOL    HW123126   2.789   2.190  12.826  0.7216  3.1093 -0.5165
 3889SOL    HW223127   2.696   2.310  12.832  1.4978  0.3313  0.2683
 3890SOL     OW23128   1.309   3.623   4.134  0.7852 -0.8609 -0.0055
 3890SOL    HW123129   1.351   3.663   4.058  0.2573 -0.4632 -0.0859
 3890SOL    HW223130   1.367   3.655   4.203  0.5745 -0.0384 -0.2159
 3891SOL     OW23131   1.489   0.165   9.696 -0.4616  0.4629  0.6418
 3891SOL    HW123132   1.489   0.105   9.771 -1.2295  0.0732  0.3251
 3891SOL    HW223133   1.402   0.153   9.658  0.0335 -0.6400 -0.1540
 3892SOL     OW23134   2.306   0.386   2.624 -0.4297  0.2147 -0.2008
 3892SOL    HW123135   2.316   0.293   2.601  4.1672  0.3704  1.2020
 3892SOL    HW223136   2.284   0.428   2.541 -0.6590 -0.6316 -0.5700
 3893SOL     OW23137   3.188   4.050   0.278  0.0599 -0.3484 -0.3504
 3893SOL    HW123138   3.207   4.139   0.250  1.1533 -0.1416  1.0227
 3893SOL    HW223139   3.273   4.046   0.323 -0.0226  2.8521  0.0888
 3894SOL     OW23140   0.691   0.410   7.259 -0.5252 -0.5536  0.4254
 3894SOL    HW123141   0.686   0.358   7.179  1.6243 -1.3548  0.8113
 3894SOL    HW223142   0.637   0.485   7.233  0.4305 -0.5727 -1.6435
 3895SOL     OW23143   2.462   4.472  11.125 -0.2169 -0.1191 -0.4096
 3895SOL    HW123144   2.494   4.489  11.037 -1.5182  1.2395 -0.6265
 3895SOL    HW223145   2.376   4.431  11.111  0.6548 -1.7026 -1.1302
 3896SOL     OW23146   2.841   0.264   6.440 -0.4367 -0.0456 -0.4192
 3896SOL    HW123147   2.887   0.342   6.409 -0.6726  0.5976  0.8594
 3896SOL    HW223148   2.843   0.277   6.535  1.7239 -0.2952 -0.4254
 3897SOL     OW23149   2.734   4.227  13.910 -0.1182  0.0113  0.2690
 3897SOL    HW123150   2.661   4.206  13.968 -0.0292  0.5512  0.5765
 3897SOL    HW223151   2.730   4.147  13.857 -1.4926 -0.3173  0.8594
 3898SOL     OW23152   1.762   1.999   4.875  0.0840  0.1760 -0.2484
 3898SOL    HW123153   1.682   2.050   4.883 -0.1237  0.0656 -1.6499
 3898SOL    HW223154   1.722   1.915   4.854  4.5192 -1.9825 -0.1429
 3899SOL     OW23155   0.392   4.139  11.844 -0.0422  0.1802  0.0875
 3899SOL    HW123156   0.406   4.138  11.938  0.5020 -0.1051 -0.0006
 3899SOL    HW223157   0.441   4.219  11.825 -2.9882  2.5899  2.6354
 3900SOL     OW23158   1.050   0.780   0.156 -0.1964  0.3435 -0.5787
 3900SOL    HW123159   1.017   0.822   0.076  2.0439 -1.6894 -2.5427
 3900SOL    HW223160   1.064   0.692   0.122  3.7683  0.2407  1.2832
 3901SOL     OW23161   4.083   0.745   3.475  0.1799 -0.2934 -0.7232
 3901SOL    HW123162   4.115   0.807   3.541 -0.1242 -0.8639 -0.0372
 3901SOL    HW223163   4.110   0.658   3.503 -0.7181 -1.3000 -2.9334
 3902SOL     OW23164   2.096   3.855  16.129 -0.4154 -0.0437 -0.2692
 3902SOL    HW123165   2.101   3.779  16.186 -1.9998  1.2970  1.6705
 3902SOL    HW223166   2.187   3.882  16.132 -0.6471  0.8528 -1.5984
 3903SOL     OW23167   0.796   0.348   8.846  0.0650  0.0119 -0.4682
 3903SOL    HW123168   0.738   0.277   8.818 -0.4941 -0.5306  2.0680
 3903SOL    HW223169   0.737   0.398   8.903 -0.8074 -2.4183  0.7685
 3904SOL     OW23170   2.833   1.970   8.730  0.2839  0.5502 -0.3461
 3904SOL    HW123171   2.884   2.037   8.775  1.0087 -0.9638  1.0655
 3904SOL    HW223172   2.806   2.014   8.649 -1.1054 -0.7229 -0.5846
 3905SOL     OW23173   2.017   0.066   2.449 -0.0744  0.0695 -0.1107
 3905SOL    HW123174   2.113   0.065   2.440 -0.1344 -2.1776 -0.4222
 3905SOL    HW223175   1.983   0.038   2.364  1.4937 -0.4434 -0.5788
 3906SOL     OW23176   2.255   4.549   4.366 -0.0193 -0.1567 -0.2689
 3906SOL    HW123177   2.322   4.611   4.394  0.4016  0.2704 -2.2390
 3906SOL    HW223178   2.174   4.568   4.412 -0.0935 -1.8100  0.2806
 3907SOL     OW23179   1.970   3.179  15.508 -0.1158 -0.0084  0.6790
 3907SOL    HW123180   1.973   3.089  15.542 -2.9829 -0.1303  0.6390
 3907SOL    HW223181   1.982   3.154  15.416 -0.1109 -0.3618  0.7741
 3908SOL     OW23182   2.112   3.870   5.758 -0.6263 -0.1745 -0.5143
 3908SOL    HW123183   2.153   3.948   5.722 -3.5007  2.0708  1.0814
 3908SOL    HW223184   2.170   3.800   5.728  0.9716  0.5659  0.8572
 3909SOL     OW23185   0.434   1.079  14.194 -0.0284  0.0177  0.0531
 3909SOL    HW123186   0.417   1.172  14.180 -0.4656  0.0093  0.5546
 3909SOL    HW223187   0.412   1.032  14.114 -2.0338  1.4811 -0.2397
 3910SOL     OW23188   3.074   2.300   7.800  0.0597 -0.2179 -0.0452
 3910SOL    HW123189   3.150   2.257   7.838 -0.1461  0.1610  0.8187
 3910SOL    HW223190   3.103   2.391   7.808 -2.5567  0.6098  0.1980
 3911SOL     OW23191   3.414   4.124   1.725  0.3392 -0.7826  0.1021
 3911SOL    HW123192   3.508   4.145   1.727  0.2323 -0.2601 -0.3737
 3911SOL    HW223193   3.419   4.032   1.748 -0.5162 -0.2965  2.2233
 3912SOL     OW23194   0.935   4.617   0.307  0.1958  1.1182  0.1533
 3912SOL    HW123195   1.000   4.608   0.237  2.1641  0.6598  2.0528
 3912SOL    HW223196   0.948   4.709   0.329 -1.0137  1.5832 -1.0282
 3913SOL     OW23197   2.532   0.669   6.185  0.3624 -0.3028 -0.0354
 3913SOL    HW123198   2.625   0.654   6.170  0.6526  1.3125  0.0919
 3913SOL    HW223199   2.499   0.650   6.097 -0.5361  1.0424  0.0022
 3914SOL     OW23200   2.045   2.204   4.652  0.3228  0.7566  0.7752
 3914SOL    HW123201   1.955   2.195   4.621  0.4266  2.1997  0.0448
 3914SOL    HW223202   2.031   2.205   4.747 -2.6933 -1.0417  0.3766
 3915SOL     OW23203   0.384   1.846  11.290 -0.5184  0.5442  0.2901
 3915SOL    HW123204   0.292   1.830  11.268 -0.2328 -2.2487  1.1018
 3915SOL    HW223205   0.403   1.936  11.266  1.2079 -0.1271 -0.9227
 3916SOL     OW23206   3.515   3.460   7.621  0.4595 -0.0865 -0.1256
 3916SOL    HW123207   3.428   3.420   7.618  1.3023 -1.7989 -0.9156
 3916SOL    HW223208   3.508   3.525   7.692  1.2418  1.1468 -1.1791
 3917SOL     OW23209   4.431   4.150  16.439  0.2364  0.0761  0.2062
 3917SOL    HW123210   4.459   4.241  16.428 -0.0394  0.0925 -0.3582
 3917SOL    HW223211   4.473   4.102  16.368  2.1133 -0.1447  1.4693
 3918SOL     OW23212   0.338   4.633   4.421 -0.1966 -0.3950 -0.1303
 3918SOL    HW123213   0.266   4.607   4.477 -1.1016 -1.7454 -1.9233
 3918SOL    HW223214   0.404   4.659   4.485 -1.1187  0.0041  0.6568
 3919SOL     OW23215   0.320   1.575  13.062 -0.3033  0.1100  0.0797
 3919SOL    HW123216   0.319   1.482  13.038  0.4792  0.4917 -1.4390
 3919SOL    HW223217   0.407   1.599  13.031 -1.0562 -0.3748 -2.4151
 3920SOL     OW23218   2.863   2.776  15.874 -0.4381 -0.3458  0.2769
 3920SOL    HW123219   2.849   2.713  15.803  0.8292  2.4611 -2.4762
 3920SOL    HW223220   2.892   2.855  15.828  2.5553 -0.5756  1.7868
 3921SOL     OW23221   2.949   0.109  13.668 -0.3818  0.1887 -0.0515
 3921SOL    HW123222   2.986   0.104  13.757 -2.0207  0.2693  0.6332
 3921SOL    HW223223   2.860   0.104  13.702 -0.4789 -2.3237 -0.6944
 3922SOL     OW23224   0.268   4.656   5.822  0.4393 -0.2259  0.0508
 3922SOL    HW123225   0.180   4.666   5.786  1.2081  1.8750 -1.2500
 3922SOL    HW223226   0.269   4.574   5.871 -0.2169  0.5416  1.3522
 3923SOL     OW23227   3.263   4.312   5.507 -0.3615  0.1342 -0.1563
 3923SOL    HW123228   3.172   4.342   5.503 -0.2300  0.4928 -0.5094
 3923SOL    HW223229   3.245   4.227   5.465  0.6425  0.4283 -1.1792
 3924SOL     OW23230   2.111   0.552   6.812 -0.8242 -0.5225 -0.1357
 3924SOL    HW123231   2.043   0.491   6.783 -2.1037  0.7789  0.1175
 3924SOL    HW223232   2.109   0.522   6.903  0.4741 -0.8028 -0.1948
 3925SOL     OW23233   3.910   1.697   6.960  0.4928  0.0171  0.1519
 3925SOL    HW123234   3.950   1.782   6.943  1.4181 -0.6337 -0.9470
 3925SOL    HW223235   3.936   1.646   6.883  1.1642  0.3258  0.1740
 3926SOL     OW23236   4.347   3.909   5.492 -0.1912 -0.0945 -0.0749
 3926SOL    HW123237   4.329   3.932   5.583 -0.6603  1.6981 -0.6317
 3926SOL    HW223238   4.352   3.814   5.503  0.5213 -0.1053 -0.4643
 3927SOL     OW23239   2.021   4.386   7.767  0.0300 -0.2344  0.0436
 3927SOL    HW123240   1.983   4.465   7.806  1.2453 -0.4211  1.6083
 3927SOL    HW223241   2.094   4.368   7.826  0.0474  0.8344  0.3409
 3928SOL     OW23242   0.688   4.097  16.765  0.2173 -0.3732 -0.3587
 3928SOL    HW123243   0.753   4.076  16.699  1.0626 -0.2569  0.4391
 3928SOL    HW223244   0.715   4.186  16.786 -1.2412  0.1560 -0.6944
 3929SOL     OW23245   0.753   2.934  12.767 -0.2248  0.4228  0.3368
 3929SOL    HW123246   0.743   2.919  12.674 -0.0525  1.4696  0.1454
 3929SOL    HW223247   0.695   3.005  12.794 -1.8028  0.1324 -2.3188
 3930SOL     OW23248   1.440   3.069  13.614 -0.2104 -0.3049  0.4114
 3930SOL    HW123249   1.533   3.077  13.632 -0.4364  0.7070  1.0984
 3930SOL    HW223250   1.415   3.002  13.678  0.3649  0.9837  1.9643
 3931SOL     OW23251   4.298   0.073  10.620  0.1894 -0.3695  0.3491
 3931SOL    HW123252   4.335   0.096  10.705  2.0806 -0.3553 -0.4861
 3931SOL    HW223253   4.310   0.145  10.558 -0.4409 -0.6518 -0.1042
 3932SOL     OW23254   1.082   3.823   1.723 -0.0151 -0.0580 -0.2386
 3932SOL    HW123255   1.026   3.888   1.681  1.1714  2.0219  1.3889
 3932SOL    HW223256   1.008   3.772   1.756 -0.5233  1.0228  0.3113
 3933SOL     OW23257   2.241   0.565  11.961  0.3133 -0.1961  0.2636
 3933SOL    HW123258   2.247   0.504  11.888 -1.5612  0.9324 -0.8328
 3933SOL    HW223259   2.193   0.517  12.028  0.0053  0.9935  0.8932
 3934SOL     OW23260   1.668   2.494   8.779 -0.0977  0.2345 -0.1116
 3934SOL    HW123261   1.684   2.495   8.684  0.2470  0.1290 -0.0554
 3934SOL    HW223262   1.703   2.581   8.799 -0.4182  0.2138  0.5357
 3935SOL     OW23263   1.721   1.659   7.629  0.1192 -0.1883 -0.0340
 3935SOL    HW123264   1.773   1.605   7.688 -1.8509 -1.4031  0.5847
 3935SOL    HW223265   1.698   1.731   7.688  0.9983  0.7594 -0.8500
 3936SOL     OW23266   3.157   2.098   6.457 -0.0010 -0.2481  0.0474
 3936SOL    HW123267   3.185   2.163   6.522  1.5752  0.4372 -1.3081
 3936SOL    HW223268   3.080   2.055   6.493 -0.6287  0.8831  0.0810
 3937SOL     OW23269   0.780   3.744   8.310 -0.6493 -0.1367 -0.4017
 3937SOL    HW123270   0.841   3.813   8.287 -0.3697  0.9073  3.5125
 3937SOL    HW223271   0.831   3.711   8.384 -0.9197  2.8942  1.0960
 3938SOL     OW23272   0.220   0.195  17.191  0.9837 -0.0666  0.5100
 3938SOL    HW123273   0.218   0.217  17.098  1.9213  0.7513  0.6834
 3938SOL    HW223274   0.313   0.176  17.200  1.2143  1.3017  1.0535
 3939SOL     OW23275   1.676   3.529   8.967  0.1257  0.1681 -0.0673
 3939SOL    HW123276   1.599   3.474   8.950 -0.3967  1.1449 -0.8207
 3939SOL    HW223277   1.742   3.460   8.979  0.8937  0.7575 -0.9793
 3940SOL     OW23278   0.387   3.790   7.906 -0.7272 -0.1574 -0.7232
 3940SOL    HW123279   0.338   3.750   7.978 -0.7859 -0.3313 -0.8613
 3940SOL    HW223280   0.378   3.722   7.840  0.4818  0.1355 -1.1843
 3941SOL     OW23281   4.530   0.089  13.383 -0.0527  0.2467  0.3899
 3941SOL    HW123282   4.625   0.079  13.378  0.0572  0.6311  1.7627
 3941SOL    HW223283   4.494   0.076  13.296  0.5144  0.4295  0.1257
 3942SOL     OW23284   0.147   3.983   4.221  0.8481  0.2876 -0.4050
 3942SOL    HW123285   0.088   3.963   4.294 -0.0707  2.7725 -0.4676
 3942SOL    HW223286   0.148   4.079   4.220  2.9980  0.2555 -1.2090
 3943SOL     OW23287   1.831   3.976   7.857 -0.1201 -0.4849  0.2468
 3943SOL    HW123288   1.840   3.948   7.948  2.4016  0.7175  0.3542
 3943SOL    HW223289   1.910   3.938   7.818  0.5956  0.9202  0.3363
 3944SOL     OW23290   2.937   0.091   8.498 -0.5813 -0.0328 -0.1793
 3944SOL    HW123291   2.900   0.008   8.527 -1.8651  0.2319 -1.0570
 3944SOL    HW223292   3.030   0.068   8.498 -0.5049  0.2792 -0.1586
 3945SOL     OW23293   3.607   2.386  15.768  0.0364  0.4040  0.2091
 3945SOL    HW123294   3.693   2.424  15.748  1.6515 -1.9402  2.7262
 3945SOL    HW223295   3.580   2.452  15.832 -0.9720  0.0106  0.1826
 3946SOL     OW23296   1.179   0.276  12.907  0.2177  0.2191 -0.2672
 3946SOL    HW123297   1.203   0.328  12.830  0.3277 -0.6373 -0.8102
 3946SOL    HW223298   1.083   0.276  12.909  0.2450 -2.3385  1.4214
 3947SOL     OW23299   4.070   1.755   9.793  0.8233 -0.1181 -0.5140
 3947SOL    HW123300   4.149   1.803   9.818  1.1106 -0.5212 -0.6401
 3947SOL    HW223301   4.069   1.689   9.863  3.5585  0.4041  0.0186
 3948SOL     OW23302   0.760   4.648   1.869 -0.5903 -0.2685  0.2461
 3948SOL    HW123303   0.690   4.711   1.854  0.7761  0.7564 -1.8400
 3948SOL    HW223304   0.718   4.588   1.930  0.8910 -1.4827  0.0928
 3949SOL     OW23305   1.352   0.942   0.569 -0.3494  0.1565  0.3359
 3949SOL    HW123306   1.283   0.898   0.520  0.7901 -0.5284 -0.6554
 3949SOL    HW223307   1.390   0.982   0.491  0.1433 -1.5083 -0.2687
 3950SOL     OW23308   4.057   1.324   5.682 -0.2451  0.1266 -0.3511
 3950SOL    HW123309   3.997   1.323   5.756 -1.7688  2.7280 -1.5728
 3950SOL    HW223310   4.047   1.244   5.631 -1.1370  0.3354 -0.5002
 3951SOL     OW23311   4.669   2.177   8.579 -0.5232  0.1005 -0.0705
 3951SOL    HW123312   0.037   2.172   8.562 -0.7358 -0.2599 -1.1732
 3951SOL    HW223313   4.648   2.087   8.602  1.8492 -0.7782 -1.3160
 3952SOL     OW23314   0.736   2.097  13.463 -0.2750  0.4999 -0.5921
 3952SOL    HW123315   0.756   2.039  13.389 -2.0907  1.1189 -1.5855
 3952SOL    HW223316   0.709   2.027  13.522 -0.6554  0.5738 -0.6795
 3953SOL     OW23317   1.993   2.187   3.625  0.3238 -0.2066  0.1673
 3953SOL    HW123318   2.079   2.228   3.620  0.1365  0.3342  1.4964
 3953SOL    HW223319   1.934   2.261   3.610 -1.3429 -1.1274  2.1526
 3954SOL     OW23320   4.248   4.666   5.773 -0.0415 -0.0688 -0.1851
 3954SOL    HW123321   4.279   4.599   5.834 -1.3068  1.0910  1.7334
 3954SOL    HW223322   4.251   0.019   5.826  1.4515 -0.8245  0.8496
 3955SOL     OW23323   2.098   0.846   0.029  0.0305  0.3368  0.0867
 3955SOL    HW123324   2.118   0.926   0.078 -2.1053  0.7162  0.2989
 3955SOL    HW223325   2.017   0.873  17.692 -0.1164  2.6495  1.7802
 3956SOL     OW23326   1.344   0.839   3.705  0.5343 -0.0196 -0.1349
 3956SOL    HW123327   1.361   0.929   3.676  0.0964 -0.9115 -3.1421
 3956SOL    HW223328   1.293   0.799   3.635 -1.6224  0.1637  1.3197
 3957SOL     OW23329   2.993   3.638   8.450  0.8213 -0.1857  0.4305
 3957SOL    HW123330   2.928   3.678   8.507 -1.2013  0.0600 -2.0694
 3957SOL    HW223331   2.937   3.618   8.375 -0.9885  1.0204  1.4516
 3958SOL     OW23332   2.466   0.555   4.306 -0.3539  0.1873 -0.8280
 3958SOL    HW123333   2.531   0.589   4.367  0.5096 -0.7642 -1.2166
 3958SOL    HW223334   2.514   0.535   4.225  0.8901  3.1688 -0.8244
 3959SOL     OW23335   4.562   1.495   1.555  0.4633 -0.3269 -0.1597
 3959SOL    HW123336   4.596   1.575   1.595 -0.9965  0.1002  0.2270
 3959SOL    HW223337   4.470   1.518   1.541  0.5087  0.6247  1.1429
 3960SOL     OW23338   3.313   2.716   5.005 -0.4976 -0.5502 -0.0179
 3960SOL    HW123339   3.221   2.730   5.027 -0.5240  1.6632 -1.4601
 3960SOL    HW223340   3.351   2.685   5.087 -0.3132  0.8615  0.4421
 3961SOL     OW23341   1.709   3.430   4.112  0.1537 -0.1097 -0.2662
 3961SOL    HW123342   1.742   3.416   4.201  2.8968  0.2094 -1.2302
 3961SOL    HW223343   1.616   3.409   4.119 -0.1061  0.3885 -2.4246
 3962SOL     OW23344   4.353   1.853  11.912  0.1558 -0.4078 -0.2447
 3962SOL    HW123345   4.329   1.764  11.938  1.8561 -0.6994  0.3196
 3962SOL    HW223346   4.361   1.886  12.002 -0.7732 -1.2606  0.1463
 3963SOL     OW23347   1.018   2.217   7.182  0.0105 -0.1241 -0.1754
 3963SOL    HW123348   1.090   2.216   7.245 -0.5456 -1.4175  0.4402
 3963SOL    HW223349   1.060   2.260   7.108  0.1833 -0.6932 -0.4127
 3964SOL     OW23350   0.249   0.542  10.307 -0.1779  0.0116  0.0154
 3964SOL    HW123351   0.332   0.542  10.354  0.1990 -0.3572 -0.6508
 3964SOL    HW223352   0.204   0.619  10.340 -0.7267 -0.2526 -0.1082
 3965SOL     OW23353   2.415   1.578   4.728 -0.1281 -0.6192  0.0174
 3965SOL    HW123354   2.401   1.607   4.638 -1.6807 -1.3948  0.0164
 3965SOL    HW223355   2.458   1.654   4.768  3.7013 -1.7790 -1.8682
 3966SOL     OW23356   0.058   2.713   8.819  0.0322 -0.2359  0.3500
 3966SOL    HW123357   0.130   2.740   8.876 -1.0662  2.0122  0.6785
 3966SOL    HW223358   4.708   2.751   8.863 -0.5740 -1.3932  0.3106
 3967SOL     OW23359   2.390   1.956   9.823  0.5344 -0.0673 -0.3515
 3967SOL    HW123360   2.316   1.940   9.765  0.4355  2.1933 -0.8618
 3967SOL    HW223361   2.368   1.897   9.895  2.8516  1.0655  1.2850
 3968SOL     OW23362   3.387   0.515   9.059  0.1758 -0.5775  0.1644
 3968SOL    HW123363   3.351   0.594   9.100  0.0604 -0.3767 -0.3248
 3968SOL    HW223364   3.476   0.500   9.092  0.5453  2.7226  0.6634
 3969SOL     OW23365   1.342   1.342   7.588 -0.3706  0.0442 -0.0082
 3969SOL    HW123366   1.284   1.410   7.554 -0.7579 -0.1948  0.1811
 3969SOL    HW223367   1.286   1.274   7.625 -0.6290  0.6611  0.7060
 3970SOL     OW23368   0.093   3.168   8.479  0.7748 -0.2684  0.0633
 3970SOL    HW123369   0.014   3.141   8.433  0.4553  1.9343 -0.6956
 3970SOL    HW223370   0.057   3.201   8.561  2.5318 -0.9631  1.1082
 3971SOL     OW23371   3.068   1.450   7.341 -0.2023 -0.0541  0.6008
 3971SOL    HW123372   3.073   1.539   7.376  0.2381 -0.6007  1.9283
 3971SOL    HW223373   3.016   1.403   7.407  0.3909 -1.2555  0.2025
 3972SOL     OW23374   3.074   4.044   8.588  0.6095  0.0199  0.3406
 3972SOL    HW123375   3.056   4.054   8.681 -2.5260  0.2224 -0.2827
 3972SOL    HW223376   3.148   4.104   8.586  0.3581  0.3497  1.2968
 3973SOL     OW23377   2.705   1.934  10.311 -0.3459 -0.2990  0.5842
 3973SOL    HW123378   2.707   1.963  10.219 -0.8961 -0.7618  0.4219
 3973SOL    HW223379   2.615   1.901  10.315 -0.1382 -1.3518 -2.9474
 3974SOL     OW23380   1.663   0.190   3.426 -0.4110 -0.6368  0.2470
 3974SOL    HW123381   1.713   0.270   3.445  1.3278 -1.5217 -0.6124
 3974SOL    HW223382   1.674   0.144   3.510  0.6741 -0.3975  0.2358
 3975SOL     OW23383   0.898   2.593  12.479 -0.6731  0.0529 -0.5298
 3975SOL    HW123384   0.812   2.562  12.450 -0.9596 -2.0530  2.5201
 3975SOL    HW223385   0.881   2.611  12.572  2.6369 -0.0363  0.0953
 3976SOL     OW23386   2.165   0.324  12.126  0.1284 -0.1032  0.1994
 3976SOL    HW123387   2.080   0.294  12.094 -0.1240  1.7815 -0.8489
 3976SOL    HW223388   2.191   0.257  12.189 -0.4419 -1.6672 -1.2103
 3977SOL     OW23389   1.164   1.359   7.913 -0.1276 -0.0823  0.3734
 3977SOL    HW123390   1.082   1.310   7.904  0.9658 -1.5518 -1.5873
 3977SOL    HW223391   1.163   1.363   8.009  0.1247  1.6828  0.2965
 3978SOL     OW23392   4.268   1.434   2.273 -0.6357 -0.2319  0.0046
 3978SOL    HW123393   4.205   1.460   2.206 -0.6265  1.5864  0.7081
 3978SOL    HW223394   4.290   1.521   2.306 -2.8386  0.4888 -0.4543
 3979SOL     OW23395   3.712   4.662   2.466 -0.7483  0.0140  0.3313
 3979SOL    HW123396   3.748   4.720   2.533  0.8688 -1.3680  0.6293
 3979SOL    HW223397   3.712   4.715   2.386 -1.5221  0.0635  0.3570
 3980SOL     OW23398   0.917   0.350  12.912  0.1964 -0.0089  0.2523
 3980SOL    HW123399   0.834   0.302  12.917 -0.4144  1.2943  2.6098
 3980SOL    HW223400   0.919   0.388  13.000 -0.4411 -0.7193  0.5701
 3981SOL     OW23401   1.614   2.969  14.565  0.1504 -0.0396  1.0663
 3981SOL    HW123402   1.687   2.911  14.547 -1.9121 -1.9248 -1.2207
 3981SOL    HW223403   1.602   3.000  14.475 -1.1268  0.1568  1.2979
 3982SOL     OW23404   3.703   0.659   7.473  0.3806  0.4344  0.1544
 3982SOL    HW123405   3.734   0.607   7.399 -0.6695  0.5490 -0.3682
 3982SOL    HW223406   3.738   0.618   7.553 -2.3283  0.8976  1.6045
 3983SOL     OW23407   0.876   1.460   8.450 -0.4656 -0.2889  0.5635
 3983SOL    HW123408   0.838   1.372   8.450  0.3615 -0.6326  2.4649
 3983SOL    HW223409   0.971   1.451   8.462 -0.4760  1.4443  1.9627
 3984SOL     OW23410   0.878   3.968   4.015  0.5778  0.6281  0.5177
 3984SOL    HW123411   0.825   3.891   3.996 -0.2206  1.4175 -0.4351
 3984SOL    HW223412   0.913   3.941   4.100 -0.9074 -2.1192  0.2690
 3985SOL     OW23413   3.833   1.137  15.111 -0.0200  0.6676 -0.0802
 3985SOL    HW123414   3.860   1.162  15.022  0.6738  0.3614  0.0469
 3985SOL    HW223415   3.901   1.176  15.166  0.2057  0.7395 -0.4056
 3986SOL     OW23416   1.231   0.089  13.620  0.2094  0.0652 -0.0261
 3986SOL    HW123417   1.259   0.173  13.584 -3.0359  0.7035 -1.1158
 3986SOL    HW223418   1.304   0.028  13.615  0.2436 -0.0781  2.1659
 3987SOL     OW23419   3.708   4.129   8.144  0.3001 -0.0185 -0.0832
 3987SOL    HW123420   3.736   4.119   8.053  0.6483  0.1495  0.0038
 3987SOL    HW223421   3.614   4.118   8.127  0.1935 -1.4882  1.4622
 3988SOL     OW23422   0.033   2.831   1.997  0.7433  0.6866 -0.2605
 3988SOL    HW123423   0.006   2.886   1.923  1.5882  0.2579 -0.8905
 3988SOL    HW223424   4.718   2.747   1.976  1.8543 -0.7030  3.3099
 3989SOL     OW23425   1.821   1.625   8.291 -0.6955  0.9595 -0.5445
 3989SOL    HW123426   1.798   1.705   8.244  1.1589  0.9663 -1.4496
 3989SOL    HW223427   1.797   1.641   8.382 -2.4480  0.8103 -0.9757
 3990SOL     OW23428   1.068   3.227   0.722  0.3261 -0.8109  0.7193
 3990SOL    HW123429   1.054   3.189   0.635 -0.1659  0.5224  0.2092
 3990SOL    HW223430   1.163   3.218   0.730  0.2002 -3.1585 -0.6973
 3991SOL     OW23431   1.404   3.764   5.183  0.1424  0.0417 -0.3034
 3991SOL    HW123432   1.420   3.829   5.252  1.2738 -2.4216  1.7407
 3991SOL    HW223433   1.492   3.733   5.162  0.1074 -1.6944  2.0720
 3992SOL     OW23434   3.842   2.451   7.095 -0.3961 -0.1614 -0.2407
 3992SOL    HW123435   3.933   2.451   7.123 -0.6440  0.2197  0.5537
 3992SOL    HW223436   3.814   2.514   7.162 -2.1755 -2.4447  1.1645
 3993SOL     OW23437   4.414   0.216   7.617  0.6277 -0.1897 -0.3313
 3993SOL    HW123438   4.504   0.234   7.590  0.7808  1.9089  1.5321
 3993SOL    HW223439   4.407   0.278   7.689  0.7156 -1.0614  0.4269
 3994SOL     OW23440   3.396   3.635  12.287  0.6369 -0.7138  0.5216
 3994SOL    HW123441   3.461   3.658  12.220 -2.8512 -0.7006 -2.8109
 3994SOL    HW223442   3.419   3.700  12.354 -0.3090  1.1338 -0.9222
 3995SOL     OW23443   2.069   0.706  13.443 -0.0205 -0.4332 -0.4329
 3995SOL    HW123444   2.112   0.636  13.491 -0.4414  0.7222  1.6572
 3995SOL    HW223445   2.137   0.771  13.422 -0.0885  0.0659  0.8892
 3996SOL     OW23446   2.137   3.924   3.806 -0.1942  0.4704 -0.1810
 3996SOL    HW123447   2.106   3.855   3.864 -2.2619  1.1281 -0.4857
 3996SOL    HW223448   2.078   3.993   3.836  0.4993  1.4671 -1.1401
 3997SOL     OW23449   3.401   2.413   8.780 -0.9661  0.2924  0.4183
 3997SOL    HW123450   3.394   2.465   8.859 -0.8542 -0.9450  1.2390
 3997SOL    HW223451   3.306   2.404   8.774 -1.0532  0.6595  1.2883
 3998SOL     OW23452   1.162   0.829   3.440 -0.1570 -0.0354  0.9742
 3998SOL    HW123453   1.159   0.817   3.345  2.8340 -0.2258  0.9032
 3998SOL    HW223454   1.110   0.759   3.480 -0.0130 -0.2470  0.7945
 3999SOL     OW23455   4.265   4.434   1.770 -0.1204  0.2081 -0.4302
 3999SOL    HW123456   4.253   4.526   1.792 -1.1169 -0.6201  2.3781
 3999SOL    HW223457   4.335   4.418   1.833 -0.1687  2.8749  0.3248
 4000SOL     OW23458   1.959   0.545   3.387 -0.0801 -0.0439 -0.1552
 4000SOL    HW123459   1.895   0.483   3.420  0.5666  0.1675  1.4758
 4000SOL    HW223460   1.978   0.587   3.471  1.4466  1.9039 -1.4638
 4001SOL     OW23461   1.062   4.125  15.163 -0.1237  0.6352  0.0409
 4001SOL    HW123462   1.083   4.032  15.172  2.0090  1.1569  0.3462
 4001SOL    HW223463   1.026   4.123  15.074  4.7117 -3.2414 -1.8575
 4002SOL     OW23464   3.112   1.550   8.439 -0.3619 -0.1075 -0.0824
 4002SOL    HW123465   3.172   1.478   8.458  0.3079 -0.0431 -1.8904
 4002SOL    HW223466   3.111   1.555   8.343  0.1903  2.9242  0.0664
 4003SOL     OW23467   3.513   0.552   0.141  0.0567  0.4843  0.3673
 4003SOL    HW123468   3.539   0.558   0.049  1.2840  3.7812  0.9161
 4003SOL    HW223469   3.545   0.464   0.161  3.4346  1.5708 -0.3156
 4004SOL     OW23470   1.447   2.728   0.094  0.1043  0.4684  0.2942
 4004SOL    HW123471   1.523   2.697   0.143  2.0640  0.8359 -2.5239
 4004SOL    HW223472   1.485   2.806   0.053 -0.7500  0.2780 -0.8611
 4005SOL     OW23473   0.772   3.836   6.282  0.2427  0.0203  0.6950
 4005SOL    HW123474   0.755   3.818   6.190 -1.6826  1.3833  0.7914
 4005SOL    HW223475   0.861   3.869   6.282  1.2935 -2.8110  1.6854
 4006SOL     OW23476   1.895   3.435  10.089 -0.4639  0.6564  0.3711
 4006SOL    HW123477   1.942   3.455  10.171  1.2817 -1.1863 -0.1916
 4006SOL    HW223478   1.887   3.341  10.099  1.1062  0.4975  0.1922
 4007SOL     OW23479   4.667   2.328  15.964  0.2605  0.5406 -0.2532
 4007SOL    HW123480   4.583   2.374  15.967  0.4241  0.9201 -1.5229
 4007SOL    HW223481   4.666   2.272  16.042  2.3969 -0.6353 -1.0642
 4008SOL     OW23482   4.466   3.191   3.295  0.1708  0.4985 -0.3054
 4008SOL    HW123483   4.456   3.285   3.308  0.4139  0.0410  3.4441
 4008SOL    HW223484   4.561   3.185   3.281  0.3380 -1.2612  1.4858
 4009SOL     OW23485   2.599   2.870  15.070  0.1460 -0.3548 -0.0070
 4009SOL    HW123486   2.509   2.883  15.041  0.4009 -0.3589 -0.7910
 4009SOL    HW223487   2.647   2.862  14.988 -1.1566 -1.3241 -0.6650
 4010SOL     OW23488   3.795   2.084   9.527  0.3643 -0.2864  0.1190
 4010SOL    HW123489   3.839   2.162   9.493 -1.3653  0.2601 -0.8510
 4010SOL    HW223490   3.866   2.030   9.561  0.2147  0.8404  2.2433
 4011SOL     OW23491   2.624   4.647  16.578  0.0746 -0.5651  0.0916
 4011SOL    HW123492   2.528   4.646  16.582  0.1446 -1.1279  1.4534
 4011SOL    HW223493   2.631   0.016  16.587  1.5986 -0.4080 -2.5372
 4012SOL     OW23494   0.339   3.888  11.958 -0.3047 -0.4396 -1.1593
 4012SOL    HW123495   0.259   3.904  11.906  0.5725  1.5083 -1.9237
 4012SOL    HW223496   0.388   3.966  11.930 -0.6897 -0.1181 -0.9433
 4013SOL     OW23497   4.078   1.291   8.711  0.0457  0.2270 -0.1397
 4013SOL    HW123498   4.083   1.272   8.804  0.5672  1.7626  0.1474
 4013SOL    HW223499   3.988   1.324   8.707  0.6136  2.0466  2.5773
 4014SOL     OW23500   1.570   1.718   4.620  0.3314 -0.2357 -0.1938
 4014SOL    HW123501   1.492   1.772   4.609  0.4063 -0.0988 -0.0485
 4014SOL    HW223502   1.558   1.724   4.714 -2.2649 -3.1994 -0.3446
 4015SOL     OW23503   3.490   2.756  15.176 -0.4635  0.6114  0.2682
 4015SOL    HW123504   3.562   2.724  15.231 -1.0177  0.8464  1.1225
 4015SOL    HW223505   3.430   2.682  15.173  0.2414  0.0259  0.5494
 4016SOL     OW23506   2.422   1.038   7.830 -0.6424 -0.4908  0.1971
 4016SOL    HW123507   2.407   1.068   7.741  1.8347 -2.6254 -0.9700
 4016SOL    HW223508   2.418   1.119   7.881  0.9380 -0.7768  0.8041
 4017SOL     OW23509   0.839   4.468   6.688  0.0630 -0.3113  0.3498
 4017SOL    HW123510   0.932   4.460   6.708 -0.1173 -1.4555  0.7482
 4017SOL    HW223511   0.823   4.374   6.693 -1.4081 -0.1291 -0.8007
 4018SOL     OW23512   2.751   3.244   9.882 -0.5210 -0.0605 -0.3920
 4018SOL    HW123513   2.786   3.305   9.946  0.7987  1.2362 -2.3352
 4018SOL    HW223514   2.780   3.160   9.916 -1.2213 -0.1562 -0.0428
 4019SOL     OW23515   0.725   1.533   5.906 -0.1970  0.1951  0.3367
 4019SOL    HW123516   0.779   1.456   5.887  0.9091  0.6497  1.5971
 4019SOL    HW223517   0.780   1.598   5.951  0.4067  0.8446 -1.3512
 4020SOL     OW23518   3.394   0.126   3.125 -0.0413  0.2973  0.0959
 4020SOL    HW123519   3.420   0.218   3.130  1.9638 -0.2871  0.1226
 4020SOL    HW223520   3.353   0.116   3.039 -0.6627 -1.4997  0.5870
 4021SOL     OW23521   4.688   0.152   6.078  0.1586  0.3729  0.6694
 4021SOL    HW123522   4.648   0.198   6.004  0.4728  0.4133  0.5285
 4021SOL    HW223523   0.031   0.213   6.102  3.2426 -2.4048 -1.2145
 4022SOL     OW23524   3.159   3.432   3.605 -0.2449 -0.1866  0.0902
 4022SOL    HW123525   3.175   3.517   3.564  2.7291 -1.7079 -1.8719
 4022SOL    HW223526   3.094   3.456   3.671 -0.2802  0.2956 -0.1145
 4023SOL     OW23527   1.365   4.345   8.589  0.1372  0.3266  0.1861
 4023SOL    HW123528   1.282   4.347   8.637  1.1551  0.6956  1.9439
 4023SOL    HW223529   1.427   4.326   8.660  0.6758 -0.3853 -0.4719
 4024SOL     OW23530   4.455   0.122  10.860  0.8676 -0.2144  0.2433
 4024SOL    HW123531   4.537   0.131  10.812  0.7590 -1.1037 -0.1157
 4024SOL    HW223532   4.459   0.038  10.906 -0.4629 -0.6430 -0.3961
 4025SOL     OW23533   2.038   0.504   4.752  0.0972 -0.0442  0.1276
 4025SOL    HW123534   2.074   0.499   4.840 -0.9966 -3.0105  0.4062
 4025SOL    HW223535   1.951   0.534   4.777 -0.4236 -2.1236  0.7418
 4026SOL     OW23536   0.081   2.667   1.568  0.0447 -0.3196  0.2876
 4026SOL    HW123537   0.098   2.666   1.474  1.0735  0.5094  0.4608
 4026SOL    HW223538   0.019   2.739   1.578 -2.7224 -2.7138  0.1771
 4027SOL     OW23539   0.268   3.546   6.666  0.2675  0.1300  0.1782
 4027SOL    HW123540   0.339   3.495   6.705 -0.3899 -1.2837 -0.4858
 4027SOL    HW223541   0.296   3.636   6.683  0.2699  0.0117  0.7979
 4028SOL     OW23542   3.864   0.150  10.873 -0.1161 -0.5440 -0.1984
 4028SOL    HW123543   3.946   0.193  10.849 -0.2778 -0.5413 -0.7369
 4028SOL    HW223544   3.885   0.148  10.966  0.3109  2.1898 -0.2314
 4029SOL     OW23545   2.066   2.251   5.723  0.6478  0.2219  0.0351
 4029SOL    HW123546   1.977   2.243   5.759 -0.1016  0.5666 -1.7179
 4029SOL    HW223547   2.083   2.170   5.676 -1.2755 -1.5183  2.3230
 4030SOL     OW23548   4.067   0.887   0.623 -0.2830 -0.1631 -0.0675
 4030SOL    HW123549   4.147   0.924   0.584  0.1063 -0.3502  0.5549
 4030SOL    HW223550   4.053   0.806   0.576 -0.8307 -0.4032  0.5184
 4031SOL     OW23551   4.277   0.547   8.607  0.2976 -0.1814  0.0133
 4031SOL    HW123552   4.322   0.467   8.632  0.4555 -0.2661 -0.5370
 4031SOL    HW223553   4.252   0.527   8.516 -0.0437  0.5338 -0.0497
 4032SOL     OW23554   1.299   4.663   9.224  0.0661  0.0861  0.5562
 4032SOL    HW123555   1.315   0.029   9.205  1.4300 -0.6976 -2.0076
 4032SOL    HW223556   1.349   4.618   9.156 -2.8366 -1.9141 -0.2703
 4033SOL     OW23557   0.191   1.797  16.048  0.7335  0.1291 -0.6047
 4033SOL    HW123558   0.250   1.872  16.046  1.2011 -0.1560  2.1961
 4033SOL    HW223559   0.126   1.840  16.105  1.2833 -1.5787  1.3329
 4034SOL     OW23560   1.212   1.936   0.110  0.1383  0.2127 -0.5304
 4034SOL    HW123561   1.221   1.845   0.137 -0.6385  0.8791  2.0051
 4034SOL    HW223562   1.278   1.976   0.167  1.1965 -0.4317 -1.3262
 4035SOL     OW23563   2.552   1.944   1.031  0.3046  0.2396  0.1828
 4035SOL    HW123564   2.541   1.871   1.092 -1.3528  0.9696  0.7655
 4035SOL    HW223565   2.523   1.902   0.951  0.0031  1.5013 -0.3716
 4036SOL     OW23566   1.800   3.641   7.519  0.1457 -0.6966  0.0802
 4036SOL    HW123567   1.792   3.618   7.611 -0.4014 -2.4643 -0.3958
 4036SOL    HW223568   1.865   3.710   7.531 -0.2779 -0.3476  0.3566
 4037SOL     OW23569   2.082   2.051   5.281 -0.4230 -0.1161  0.1117
 4037SOL    HW123570   2.088   1.958   5.301 -1.0433  0.0437  1.0791
 4037SOL    HW223571   2.128   2.053   5.198 -0.5723  0.0158  0.0320
 4038SOL     OW23572   0.431   0.185  17.409 -0.1874 -0.4270 -0.0402
 4038SOL    HW123573   0.503   0.223  17.459  1.3941  0.3434 -2.8507
 4038SOL    HW223574   0.474   0.117  17.356  1.2604  1.7173 -1.6284
 4039SOL     OW23575   3.799   1.207  14.813 -0.0574  0.7788 -0.1557
 4039SOL    HW123576   3.818   1.295  14.781 -2.9101  0.7899 -1.8212
 4039SOL    HW223577   3.880   1.162  14.788 -0.6775 -0.0254 -0.7263
 4040SOL     OW23578   0.261   2.597   3.411  0.4544 -0.0193 -0.1877
 4040SOL    HW123579   0.286   2.511   3.446  1.6971 -0.7117 -2.7060
 4040SOL    HW223580   0.191   2.619   3.472 -0.0250 -0.9087 -0.4158
 4041SOL     OW23581   4.687   1.496   6.246  0.5561 -0.1834  0.0613
 4041SOL    HW123582   4.618   1.513   6.183  1.4582  2.0541 -0.3404
 4041SOL    HW223583   4.672   1.569   6.306  3.1165  1.5145 -1.3727
 4042SOL     OW23584   0.385   1.490   0.668 -0.2977  0.3178 -0.2601
 4042SOL    HW123585   0.428   1.476   0.583  3.6376  1.3958  1.5639
 4042SOL    HW223586   0.297   1.458   0.648 -0.4601  0.5893  0.0364
 4043SOL     OW23587   2.752   0.242   2.230  0.1778 -0.3496  0.4357
 4043SOL    HW123588   2.842   0.242   2.264  0.8078 -1.5879 -1.2052
 4043SOL    HW223589   2.745   0.333   2.200  0.0780 -1.0118 -1.5721
 4044SOL     OW23590   2.711   1.616  13.210 -0.5539  0.1428  0.0388
 4044SOL    HW123591   2.732   1.642  13.120  0.0543 -0.9402 -0.1357
 4044SOL    HW223592   2.635   1.671  13.231  0.4555  1.2887  0.6368
 4045SOL     OW23593   3.515   2.807   9.093  0.7893  0.1629 -0.2374
 4045SOL    HW123594   3.431   2.780   9.058  1.1851 -1.2549 -0.1070
 4045SOL    HW223595   3.568   2.791   9.014 -0.2743 -1.7829 -0.5565
 4046SOL     OW23596   4.239   4.170  16.754  0.1391 -0.0749 -0.1318
 4046SOL    HW123597   4.224   4.109  16.681 -0.6696  0.9790 -0.8296
 4046SOL    HW223598   4.171   4.141  16.815 -0.0740 -0.5854 -0.6068
 4047SOL     OW23599   1.819   4.116   0.081 -0.0253  0.2817  0.7310
 4047SOL    HW123600   1.828   4.199   0.129  3.0296  0.4626 -0.1233
 4047SOL    HW223601   1.864   4.136  17.705 -1.3177  1.2990  0.2746
 4048SOL     OW23602   2.486   2.908   3.232  0.7919 -0.1673 -0.1627
 4048SOL    HW123603   2.509   2.976   3.170 -0.6672 -0.1835 -0.7327
 4048SOL    HW223604   2.395   2.887   3.212  0.5220  0.9978 -0.1292
 4049SOL     OW23605   2.247   3.869   6.756 -0.2900 -0.7423  0.4685
 4049SOL    HW123606   2.262   3.953   6.800  1.2977  0.1263 -1.7352
 4049SOL    HW223607   2.319   3.866   6.693 -0.3635 -0.9396  0.3952
 4050SOL     OW23608   0.388   1.374  17.629  0.0551  0.5765  0.1550
 4050SOL    HW123609   0.461   1.347  17.687 -0.2710 -0.8729 -0.1029
 4050SOL    HW223610   0.413   1.319  17.555 -1.5267 -0.2252  0.2257
 4051SOL     OW23611   2.203   0.599   8.803  0.1803  0.4727 -0.1120
 4051SOL    HW123612   2.156   0.659   8.861  0.7881 -2.1699  3.0903
 4051SOL    HW223613   2.149   0.519   8.802 -1.1805  1.3887 -0.8781
 4052SOL     OW23614   4.379   1.893   8.637  0.1345 -0.6160  0.5309
 4052SOL    HW123615   4.389   1.940   8.555  0.7363 -3.0187 -0.7828
 4052SOL    HW223616   4.392   1.801   8.611  2.0497 -0.6115  1.4661
 4053SOL     OW23617   2.212   1.635   5.093 -0.4643 -0.1473 -0.0772
 4053SOL    HW123618   2.168   1.550   5.094  3.4329 -2.1715  0.0128
 4053SOL    HW223619   2.179   1.683   5.017 -0.1704  1.0657  0.5641
 4054SOL     OW23620   2.132   2.530   3.223  0.1851 -0.2364 -0.3098
 4054SOL    HW123621   2.174   2.447   3.245  2.6189  0.7491 -1.2529
 4054SOL    HW223622   2.051   2.498   3.183 -0.7804 -0.0221  1.4998
 4055SOL     OW23623   3.085   0.940  10.393 -0.7120 -0.0127  0.3302
 4055SOL    HW123624   3.105   0.969  10.482  1.1833  1.6573 -0.6613
 4055SOL    HW223625   3.069   0.847  10.409  1.9092 -1.0012 -2.8101
 4056SOL     OW23626   2.759   2.634   6.869  0.1810 -0.3603 -0.0659
 4056SOL    HW123627   2.714   2.556   6.838  0.1514 -0.5533  0.4590
 4056SOL    HW223628   2.688   2.695   6.850  0.8467  0.4877  0.1321
 4057SOL     OW23629   0.409   2.924   4.575 -0.5233 -0.4446  0.1336
 4057SOL    HW123630   0.459   2.992   4.621 -1.1881  0.2366 -0.1504
 4057SOL    HW223631   0.475   2.867   4.536  1.6124  1.0137  1.6360
 4058SOL     OW23632   2.929   4.147  12.264 -0.5656 -0.4912  0.2368
 4058SOL    HW123633   2.928   4.231  12.311  1.4097 -1.5234  2.1284
 4058SOL    HW223634   2.899   4.083  12.328 -0.1986 -1.0936 -0.1973
 4059SOL     OW23635   0.875   3.734  10.637  0.1098 -1.0394 -0.4606
 4059SOL    HW123636   0.932   3.808  10.615  1.3247 -2.3108 -1.6314
 4059SOL    HW223637   0.881   3.682  10.557 -1.5599 -1.9601  0.0168
 4060SOL     OW23638   0.201   1.003  14.290  0.5360  0.3417  0.2179
 4060SOL    HW123639   0.173   1.068  14.227  0.1891 -0.9236 -0.9414
 4060SOL    HW223640   0.293   1.031  14.295  0.7649 -0.1244 -1.1782
 4061SOL     OW23641   3.078   1.437   2.920 -0.0688  0.2796 -0.4368
 4061SOL    HW123642   3.064   1.501   2.990 -1.5641 -0.9745  0.4120
 4061SOL    HW223643   3.127   1.487   2.855 -0.9475  0.6038 -0.8593
 4062SOL     OW23644   1.132   1.623   5.321 -0.3281 -0.3310  0.5581
 4062SOL    HW123645   1.083   1.541   5.326 -1.9356  0.5908 -0.0702
 4062SOL    HW223646   1.203   1.600   5.381 -0.5794  2.0040  1.7655
 4063SOL     OW23647   1.048   3.964   7.667  0.3382  0.1917 -0.0531
 4063SOL    HW123648   1.119   3.969   7.731 -0.8087 -0.5525  1.2863
 4063SOL    HW223649   0.987   3.896   7.696 -0.8046  0.6846 -1.3034
 4064SOL     OW23650   3.258   0.985   3.452  0.2075  0.2330  0.6384
 4064SOL    HW123651   3.256   1.012   3.360  1.4421  0.4357  0.6775
 4064SOL    HW223652   3.332   0.926   3.445  0.4309  0.4967  0.7969
 4065SOL     OW23653   0.594   1.831   1.964 -0.2549  0.4667  0.1468
 4065SOL    HW123654   0.649   1.828   1.885 -1.3634  1.1693 -0.6442
 4065SOL    HW223655   0.527   1.891   1.933 -1.2790 -1.1236 -0.7545
 4066SOL     OW23656   2.478   1.070  12.917  0.0056 -0.7667 -0.3298
 4066SOL    HW123657   2.473   0.989  12.866 -0.7986 -1.2383  0.5055
 4066SOL    HW223658   2.502   1.140  12.857 -0.2226  0.2523  0.7743
 4067SOL     OW23659   4.395   4.454  14.351 -0.8458  0.0455  0.9668
 4067SOL    HW123660   4.332   4.382  14.344 -0.7853  0.0714  0.1326
 4067SOL    HW223661   4.462   4.414  14.407 -2.1578 -1.5996  1.3552
 4068SOL     OW23662   3.852   2.454   3.907 -0.6465  0.0232  0.3169
 4068SOL    HW123663   3.947   2.460   3.893 -0.5974  0.3154  0.7936
 4068SOL    HW223664   3.825   2.433   3.817 -0.7798  0.6257  0.2188
 4069SOL     OW23665   1.673   2.846   2.497  0.1740  0.1499 -0.1881
 4069SOL    HW123666   1.757   2.822   2.458 -0.1204  1.0490 -1.3711
 4069SOL    HW223667   1.705   2.882   2.580 -1.2537  0.2273  0.3306
 4070SOL     OW23668   1.753   0.837   7.259  0.1534 -0.2247 -0.0974
 4070SOL    HW123669   1.751   0.749   7.295  0.3682 -0.2462 -0.1366
 4070SOL    HW223670   1.779   0.896   7.330  1.5371 -0.3355 -0.5038
 4071SOL     OW23671   4.486   0.952   5.669  0.7343  0.1209 -0.0485
 4071SOL    HW123672   4.391   0.944   5.673  0.8459 -1.6054 -0.5741
 4071SOL    HW223673   4.513   0.877   5.615 -1.4284  0.1172 -1.0974
 4072SOL     OW23674   2.140   4.315  13.224  0.2479 -0.3392  0.4410
 4072SOL    HW123675   2.077   4.322  13.295  1.4224 -1.6578  1.6096
 4072SOL    HW223676   2.221   4.352  13.259  1.2891 -2.7518  0.5842
 4073SOL     OW23677   0.357   3.723   7.038 -0.0628 -0.4676 -0.8065
 4073SOL    HW123678   0.417   3.751   6.969  1.3082 -0.0179  0.5720
 4073SOL    HW223679   0.351   3.800   7.094  0.7750 -1.0826  0.1339
 4074SOL     OW23680   1.019   4.399  14.916  0.4019 -0.0093  0.7691
 4074SOL    HW123681   1.114   4.403  14.909  0.2952  0.6550 -0.3289
 4074SOL    HW223682   1.001   4.437  14.830  0.3473 -1.6263  0.0679
 4075SOL     OW23683   2.838   1.564   7.793  0.5086  0.2606 -0.0340
 4075SOL    HW123684   2.912   1.586   7.737  1.0221 -0.2957  0.4228
 4075SOL    HW223685   2.880   1.503   7.854  0.5451  0.7567  0.4345
 4076SOL     OW23686   3.847   1.686   2.259 -0.2686 -0.3107 -0.2754
 4076SOL    HW123687   3.882   1.599   2.281 -0.8362 -0.4668  0.0312
 4076SOL    HW223688   3.825   1.685   2.166  1.6890  0.3549 -0.7260
 4077SOL     OW23689   1.015   1.689  12.727 -0.4971 -0.5303 -0.2575
 4077SOL    HW123690   1.051   1.663  12.643  1.9626 -2.0893  1.2623
 4077SOL    HW223691   1.076   1.643  12.785 -1.9867 -2.1001  0.0442
 4078SOL     OW23692   4.213   3.982   8.562  0.6580  0.2751 -0.4969
 4078SOL    HW123693   4.290   4.033   8.586  0.3636  0.4751  0.0176
 4078SOL    HW223694   4.152   4.054   8.548  0.7935  0.4348 -0.2575
 4079SOL     OW23695   2.524   4.043   9.117 -0.6587 -0.2166  0.0173
 4079SOL    HW123696   2.446   4.077   9.075  1.1973  0.7757 -2.6290
 4079SOL    HW223697   2.479   3.984   9.177  2.0075 -0.3893  1.8737
 4080SOL     OW23698   1.332   2.894  15.610 -0.1444  0.4401  0.4257
 4080SOL    HW123699   1.292   2.959  15.552 -0.3859  0.6187  0.7942
 4080SOL    HW223700   1.256   2.880  15.667 -0.6641  2.4191  0.2187
 4081SOL     OW23701   2.509   3.320  17.362  0.0096 -0.2407 -0.7531
 4081SOL    HW123702   2.439   3.375  17.399 -1.1061 -0.9490 -1.8075
 4081SOL    HW223703   2.562   3.393  17.331 -0.6180  0.9079  0.8841
 4082SOL     OW23704   2.702   2.889   8.731  0.4806  0.9199  0.2588
 4082SOL    HW123705   2.796   2.902   8.722  0.6826  0.8792  2.3606
 4082SOL    HW223706   2.686   2.798   8.705  1.1288  0.1949  2.4169
 4083SOL     OW23707   4.287   2.056   0.267  0.2146  0.3008 -0.4696
 4083SOL    HW123708   4.376   2.036   0.297  0.2237  1.8757  0.5376
 4083SOL    HW223709   4.240   2.065   0.350 -2.6884 -1.8868 -1.8721
 4084SOL     OW23710   1.410   3.698   4.366  0.0998  0.4009  0.2849
 4084SOL    HW123711   1.317   3.712   4.382  0.0138 -0.6921  0.7388
 4084SOL    HW223712   1.442   3.690   4.456 -1.0855  0.2684  0.6907
 4085SOL     OW23713   2.947   0.344   8.421 -0.1202  0.1513 -0.4839
 4085SOL    HW123714   2.908   0.353   8.334 -0.2683 -1.2409 -0.5667
 4085SOL    HW223715   2.944   0.250   8.441 -3.5310  0.3337 -0.1982
 4086SOL     OW23716   1.628   3.612   5.136  0.0685 -0.5581 -0.2387
 4086SOL    HW123717   1.609   3.533   5.084 -0.3547 -0.1298 -0.7403
 4086SOL    HW223718   1.681   3.576   5.207  0.3720  0.8149  0.2332
 4087SOL     OW23719   4.470   2.017   7.629 -0.0942  0.3497  0.3436
 4087SOL    HW123720   4.380   2.046   7.640 -0.5114 -0.7514 -0.1541
 4087SOL    HW223721   4.508   2.088   7.577  0.6043 -1.4615 -1.6071
 4088SOL     OW23722   1.712   3.708   2.222  0.2338 -0.2675 -0.2366
 4088SOL    HW123723   1.634   3.740   2.177  0.3735 -1.1844 -1.1200
 4088SOL    HW223724   1.674   3.630   2.263  1.6735 -1.1478 -0.5566
 4089SOL     OW23725   0.392   1.674   5.694  0.3484  0.0754  0.0066
 4089SOL    HW123726   0.430   1.724   5.766  0.6525  0.0112 -0.1095
 4089SOL    HW223727   0.469   1.673   5.638  0.8710  4.4702  0.6926
 4090SOL     OW23728   1.759   4.677   8.282 -0.2508 -0.3168  0.2672
 4090SOL    HW123729   1.684   4.665   8.224  0.1230 -0.2275 -0.2299
 4090SOL    HW223730   1.837   4.660   8.228 -0.1189 -2.2572  1.0623
 4091SOL     OW23731   3.526   0.190   7.962  0.1513 -0.0121  0.2268
 4091SOL    HW123732   3.563   0.103   7.978  0.0168  0.0099  0.6603
 4091SOL    HW223733   3.578   0.218   7.886  4.2213 -1.4859  2.4485
 4092SOL     OW23734   3.213   3.084   3.141  0.1202 -0.1149 -0.1391
 4092SOL    HW123735   3.242   3.047   3.224 -1.8502  2.0211  1.5037
 4092SOL    HW223736   3.223   3.005   3.088  0.2090 -0.0578 -0.2085
 4093SOL     OW23737   2.413   4.508  15.822 -0.2437 -0.2070  0.2638
 4093SOL    HW123738   2.366   4.587  15.797 -0.8808 -0.7675 -0.2855
 4093SOL    HW223739   2.441   4.523  15.912  0.3482 -1.6090  0.3248
 4094SOL     OW23740   3.389   3.931   6.972  0.1442 -0.2124  0.1460
 4094SOL    HW123741   3.426   3.842   6.974 -0.2481 -0.3608  1.1448
 4094SOL    HW223742   3.462   3.984   6.940  0.6262 -0.1675  1.3308
 4095SOL     OW23743   0.422   3.568   5.191 -0.1565 -0.4015 -0.2840
 4095SOL    HW123744   0.407   3.559   5.097 -0.8367 -3.0184  0.0607
 4095SOL    HW223745   0.513   3.542   5.200  0.1083  1.4336  2.4825
 4096SOL     OW23746   2.065   4.555   5.525  0.0023 -0.5559 -0.0771
 4096SOL    HW123747   2.107   4.545   5.611  0.9183  2.9506 -0.0998
 4096SOL    HW223748   2.005   4.627   5.547 -1.2585 -1.2577 -1.2711
 4097SOL     OW23749   0.177   3.759   4.019  0.1478  0.3135 -0.7237
 4097SOL    HW123750   0.223   3.824   4.071 -0.2490 -0.1746  0.2554
 4097SOL    HW223751   0.089   3.794   4.031  0.5398  1.9518 -2.6668
 4098SOL     OW23752   0.275   1.257  11.178  0.7185 -0.2289  0.0715
 4098SOL    HW123753   0.294   1.187  11.114  0.1155  1.0940 -1.5495
 4098SOL    HW223754   0.362   1.280  11.210  0.5044 -3.2402  2.8193
 4099SOL     OW23755   1.721   3.329   7.186  0.6305  0.1487  0.3612
 4099SOL    HW123756   1.700   3.385   7.111  1.6975  0.7020  0.4696
 4099SOL    HW223757   1.708   3.392   7.257 -1.5558  1.5633 -1.2832
 4100SOL     OW23758   0.545   4.617  15.320  0.2971  0.2571 -0.3811
 4100SOL    HW123759   0.531   4.523  15.327 -0.2609  0.3381 -0.4090
 4100SOL    HW223760   0.638   4.624  15.337  0.0865  0.8031  0.5155
 4101SOL     OW23761   3.959   1.746   7.856 -0.2148 -0.1096 -0.1404
 4101SOL    HW123762   4.022   1.679   7.883  0.8875  0.2106 -1.9075
 4101SOL    HW223763   3.896   1.693   7.807  1.6673 -1.1352 -1.4640
 4102SOL     OW23764   4.568   3.390   8.319  0.1733 -0.5036  0.5773
 4102SOL    HW123765   4.658   3.419   8.304  0.2061  0.0686  1.9414
 4102SOL    HW223766   4.537   3.387   8.228 -1.4413 -0.4219  1.1267
 4103SOL     OW23767   1.398   2.071   6.812 -0.4057  0.1536 -0.4367
 4103SOL    HW123768   1.460   2.142   6.829  1.0695 -1.3461  0.4704
 4103SOL    HW223769   1.394   2.081   6.717 -1.1066  3.8136 -0.0046
 4104SOL     OW23770   1.757   2.211  13.160  0.0269  0.3193 -0.0638
 4104SOL    HW123771   1.683   2.219  13.220  1.0812  1.4450  1.1142
 4104SOL    HW223772   1.761   2.304  13.136  0.5435  0.4171  0.3993
 4105SOL     OW23773   3.572   3.949   1.374  0.4295  0.0330  0.5053
 4105SOL    HW123774   3.639   3.894   1.415  0.6535  0.2296  0.3972
 4105SOL    HW223775   3.506   3.881   1.386  0.9463 -0.8390 -1.7751
 4106SOL     OW23776   4.040   4.522   7.576  0.1433  0.3025  0.5512
 4106SOL    HW123777   3.997   4.437   7.563 -0.3068  0.4708  0.9328
 4106SOL    HW223778   4.085   4.505   7.659  0.7198 -1.2095 -0.0800
 4107SOL     OW23779   2.763   2.996   2.584 -0.5169  0.4650 -0.5335
 4107SOL    HW123780   2.823   2.923   2.570  0.3800  1.0955  0.0734
 4107SOL    HW223781   2.783   3.044   2.504  0.8788  1.2029  0.2800
 4108SOL     OW23782   0.306   3.196   1.341 -0.5114 -0.2243 -0.0786
 4108SOL    HW123783   0.372   3.159   1.283 -0.6060  0.3034 -0.5283
 4108SOL    HW223784   0.237   3.208   1.276  0.0558  2.5828 -0.1861
 4109SOL     OW23785   3.882   0.661  16.858 -0.2126 -0.7058 -0.1244
 4109SOL    HW123786   3.825   0.734  16.884  1.5720  0.8415 -0.5262
 4109SOL    HW223787   3.949   0.713  16.815  0.0251  0.7467  1.9617
 4110SOL     OW23788   4.048   2.209   6.367 -0.7978 -0.3025  0.1072
 4110SOL    HW123789   4.039   2.115   6.382 -0.6069 -0.4531 -0.7242
 4110SOL    HW223790   3.994   2.213   6.287  0.5260  0.8479 -0.7284
 4111SOL     OW23791   4.091   3.534  10.354  0.0348  0.6755 -0.5320
 4111SOL    HW123792   4.176   3.540  10.310  0.2970  1.2659  0.0433
 4111SOL    HW223793   4.029   3.551  10.284 -0.8836  1.0871  0.3765
 4112SOL     OW23794   2.725   3.381   7.124  0.2010 -0.0279 -0.0765
 4112SOL    HW123795   2.701   3.429   7.203  2.3774  2.7038 -1.0944
 4112SOL    HW223796   2.719   3.449   7.057  0.5204  1.3310  1.2952
 4113SOL     OW23797   1.586   0.440   2.431  1.0501  0.1972  1.0423
 4113SOL    HW123798   1.608   0.395   2.513  0.6047 -1.5956  0.1750
 4113SOL    HW223799   1.663   0.495   2.418  0.7842  0.2724 -0.2204
 4114SOL     OW23800   0.215   3.446  10.943 -0.0462  0.2934 -0.3447
 4114SOL    HW123801   0.298   3.402  10.961 -0.4727 -0.5716 -0.5207
 4114SOL    HW223802   0.258   3.528  10.918 -1.0077  1.0400  0.4501
 4115SOL     OW23803   3.185   3.876   1.578  0.0522 -0.0348 -0.1018
 4115SOL    HW123804   3.213   3.875   1.486  1.9455 -1.3120  0.4770
 4115SOL    HW223805   3.119   3.807   1.574 -0.3774  0.3445  0.4485
 4116SOL     OW23806   1.261   3.588  17.141  0.8327 -0.0093 -0.9207
 4116SOL    HW123807   1.174   3.626  17.130 -0.1162 -2.8615 -3.2397
 4116SOL    HW223808   1.288   3.637  17.219 -2.8043  0.6850 -0.0536
 4117SOL     OW23809   2.920   1.884   3.850 -0.4524  0.0028  0.3056
 4117SOL    HW123810   2.895   1.812   3.908 -0.3232 -0.9834 -0.8335
 4117SOL    HW223811   2.889   1.962   3.894  2.4689  1.7537 -0.7489
 4118SOL     OW23812   2.561   0.439   8.465 -0.3770 -0.7695 -0.0872
 4118SOL    HW123813   2.580   0.351   8.497  3.0914  0.5464  1.3705
 4118SOL    HW223814   2.474   0.420   8.428 -0.5749  1.1851 -0.6250
 4119SOL     OW23815   1.089   0.229   3.259  0.3316 -0.3465  0.4089
 4119SOL    HW123816   1.131   0.197   3.339  1.9130 -2.3929 -1.2658
 4119SOL    HW223817   1.052   0.152   3.217  2.7892 -1.7789  0.8593
 4120SOL     OW23818   1.859   1.975   0.477  0.2502  0.1885 -0.4691
 4120SOL    HW123819   1.940   2.010   0.440  0.4392  1.7110  1.3744
 4120SOL    HW223820   1.892   1.901   0.527  0.5565  1.5086  1.2853
 4121SOL     OW23821   4.080   4.240   9.351 -0.1734  0.1121 -0.1286
 4121SOL    HW123822   4.086   4.228   9.256 -2.8816  0.3767 -0.3198
 4121SOL    HW223823   4.024   4.167   9.377  1.1012 -0.6590  0.4898
 4122SOL     OW23824   1.417   0.444   6.475 -0.4431 -0.0162 -0.6866
 4122SOL    HW123825   1.370   0.500   6.413 -0.6405  2.1127  1.3906
 4122SOL    HW223826   1.374   0.360   6.462  0.3287 -0.5091 -0.0825
 4123SOL     OW23827   1.626   3.833   4.254  0.6335  0.1142 -0.1008
 4123SOL    HW123828   1.614   3.823   4.160  1.7996  1.4089 -0.3836
 4123SOL    HW223829   1.540   3.811   4.289  0.4124  1.9809  0.5132
 4124SOL     OW23830   1.038   2.868  12.861  0.1131 -0.1908 -0.4614
 4124SOL    HW123831   1.039   2.809  12.937 -2.2116 -1.2047 -1.1936
 4124SOL    HW223832   0.954   2.914  12.856  0.0313 -0.0328  2.3175
 4125SOL     OW23833   4.333   2.494   6.044 -0.4237 -0.4630 -0.5665
 4125SOL    HW123834   4.238   2.482   6.047 -0.6482  0.7832 -2.6936
 4125SOL    HW223835   4.342   2.576   6.093  1.2551 -2.1401  1.8708
 4126SOL     OW23836   0.832   1.602  10.184  0.4086  0.1215 -0.1288
 4126SOL    HW123837   0.907   1.611  10.243  0.3631  1.4858 -0.2736
 4126SOL    HW223838   0.778   1.534  10.225 -0.6064 -0.3452 -2.2233
 4127SOL     OW23839   2.758   0.179  14.496 -0.2556  0.3289  0.4978
 4127SOL    HW123840   2.789   0.234  14.568  0.5640  0.4040  0.0896
 4127SOL    HW223841   2.718   0.107  14.544 -1.4068  0.0369 -0.8724
 4128SOL     OW23842   0.510   3.223   8.117 -0.1762 -0.0506  0.2779
 4128SOL    HW123843   0.439   3.160   8.127 -0.4130  0.2095  0.2654
 4128SOL    HW223844   0.498   3.279   8.194  0.2942 -2.1586  1.8654
 4129SOL     OW23845   3.449   0.138   1.337  0.0711 -0.5291  0.6557
 4129SOL    HW123846   3.437   0.207   1.273  1.5242  0.4248  1.4140
 4129SOL    HW223847   3.405   0.068   1.289  0.5292 -0.7231  0.5187
 4130SOL     OW23848   2.822   3.871   7.638 -0.0959 -0.0201  0.0940
 4130SOL    HW123849   2.742   3.840   7.595  0.8970 -3.0458  0.4246
 4130SOL    HW223850   2.845   3.940   7.576 -2.1756  2.3436  1.9704
 4131SOL     OW23851   4.535   2.497  11.473 -0.1684 -0.4587  0.1192
 4131SOL    HW123852   4.455   2.475  11.519 -0.7105  2.3093  0.5262
 4131SOL    HW223853   4.501   2.525  11.388  0.4243  0.5850  0.2169
 4132SOL     OW23854   1.035   1.482   4.336  0.6065 -0.2909 -0.0434
 4132SOL    HW123855   1.098   1.531   4.284  0.1500  1.7387  1.3214
 4132SOL    HW223856   0.960   1.499   4.279  0.8634  0.0578 -0.2776
 4133SOL     OW23857   0.178   0.551   4.238 -0.3159  0.3478 -0.4389
 4133SOL    HW123858   0.145   0.516   4.321 -1.6573  0.4978 -0.9066
 4133SOL    HW223859   0.154   0.643   4.240 -0.1884  0.3487  1.1361
 4134SOL     OW23860   1.483   3.182  15.444 -0.0061  0.3212  0.3746
 4134SOL    HW123861   1.498   3.175  15.539  2.4549 -1.0439 -0.1268
 4134SOL    HW223862   1.560   3.137  15.412 -0.0670 -1.5385  2.8309
 4135SOL     OW23863   3.942   1.439   2.336 -0.8298 -0.3168 -0.5200
 4135SOL    HW123864   3.881   1.415   2.266  1.2361 -0.6767 -2.1867
 4135SOL    HW223865   4.019   1.387   2.312 -0.2563 -0.5847  1.9420
 4136SOL     OW23866   2.973   2.784   4.808  0.1249 -0.2310  0.1821
 4136SOL    HW123867   2.998   2.787   4.901 -1.8270  1.6042  0.6697
 4136SOL    HW223868   3.050   2.825   4.770  0.1833  0.7017  1.2832
 4137SOL     OW23869   4.103   2.628   3.533 -0.1746  0.1920  0.4317
 4137SOL    HW123870   4.077   2.547   3.576 -0.8043  0.1145 -0.1046
 4137SOL    HW223871   4.020   2.672   3.517  0.0562  0.9286  1.2914
 4138SOL     OW23872   0.814   4.156   6.153  0.1868 -0.4813  0.1510
 4138SOL    HW123873   0.876   4.182   6.085  0.5579  0.0073  0.6807
 4138SOL    HW223874   0.878   4.101   6.198  0.1168  0.2238  1.0982
 4139SOL     OW23875   3.715   2.563  10.285  0.2193  0.0230  0.1409
 4139SOL    HW123876   3.782   2.629  10.304 -0.0786  0.7538 -1.3615
 4139SOL    HW223877   3.654   2.613  10.232 -0.0186 -2.4230 -1.9052
 4140SOL     OW23878   0.486   4.496   1.133 -0.3722  0.6841  0.3303
 4140SOL    HW123879   0.413   4.440   1.159 -0.4416  1.2149  1.2999
 4140SOL    HW223880   0.434   4.555   1.078  2.1277  1.1685 -1.5485
 4141SOL     OW23881   1.106   3.111   8.054 -0.1639  0.2592 -0.3887
 4141SOL    HW123882   1.064   3.120   7.968 -1.4800  1.4990  0.4005
 4141SOL    HW223883   1.055   3.173   8.106  0.3828  0.0613  0.3748
 4142SOL     OW23884   2.852   0.528   9.313 -0.2573 -0.5315 -0.3704
 4142SOL    HW123885   2.895   0.574   9.242  1.3984 -1.8869 -0.2320
 4142SOL    HW223886   2.778   0.584   9.339 -1.2929 -1.7059 -0.7658
 4143SOL     OW23887   2.787   1.548   3.398 -0.0238  0.2521 -0.1254
 4143SOL    HW123888   2.878   1.534   3.426 -0.0145 -0.3958 -0.4955
 4143SOL    HW223889   2.781   1.461   3.361 -1.2675 -0.3133  1.4066
 4144SOL     OW23890   0.631   1.032   3.945  0.0583 -0.3366  0.0617
 4144SOL    HW123891   0.538   1.034   3.967 -0.2155 -0.5737 -1.0718
 4144SOL    HW223892   0.629   1.073   3.858 -0.1754  1.2237  0.7964
 4145SOL     OW23893   3.103   4.151   0.618 -0.5608 -0.7321 -0.7964
 4145SOL    HW123894   3.073   4.160   0.527  1.6558 -0.2800 -1.4652
 4145SOL    HW223895   3.021   4.146   0.667  1.4625 -0.1249  2.6148
 4146SOL     OW23896   0.203   1.879   2.141  0.3726 -0.2191 -0.0916
 4146SOL    HW123897   0.280   1.822   2.138  2.3468  2.3390  2.2885
 4146SOL    HW223898   0.238   1.968   2.141 -1.5898  0.5520  0.4664
 4147SOL     OW23899   1.384   2.789   9.817  0.0744 -0.1575  0.5894
 4147SOL    HW123900   1.356   2.804   9.907  1.9241 -0.1590  1.1812
 4147SOL    HW223901   1.296   2.770   9.786  1.7481  0.6856 -4.5325
 4148SOL     OW23902   3.774   3.020  11.790  0.0952 -0.5234  0.2099
 4148SOL    HW123903   3.807   3.106  11.764  0.2459 -0.6664 -0.0682
 4148SOL    HW223904   3.781   2.980  11.703  0.8019  0.9940 -0.4386
 4149SOL     OW23905   1.936   2.754   0.668 -0.4242 -1.1358  0.1109
 4149SOL    HW123906   2.005   2.691   0.685  0.1260  0.1198  2.5912
 4149SOL    HW223907   1.866   2.698   0.701 -0.2956 -1.1430  0.3688
 4150SOL     OW23908   3.369   3.817   5.012 -0.3998 -0.3010  0.1498
 4150SOL    HW123909   3.283   3.809   5.054 -0.4847  0.8786  0.1911
 4150SOL    HW223910   3.400   3.728   5.030  2.3438  0.3872 -1.2703
 4151SOL     OW23911   0.179   2.229   8.218 -0.3732  0.2702 -0.6791
 4151SOL    HW123912   0.084   2.229   8.211 -0.3493  1.3016 -0.9968
 4151SOL    HW223913   0.209   2.170   8.148  0.9282  0.8123 -0.5797
 4152SOL     OW23914   4.501   2.443   5.847 -0.2043  0.2877  0.4796
 4152SOL    HW123915   4.432   2.449   5.913 -0.3100  0.5798  0.3456
 4152SOL    HW223916   4.571   2.491   5.893 -0.3136  0.8277  0.0789
 4153SOL     OW23917   4.569   0.329  11.360 -0.2155 -0.3338 -0.5045
 4153SOL    HW123918   4.556   0.347  11.266  0.4073 -1.3062 -0.7700
 4153SOL    HW223919   4.656   0.290  11.358  0.3236  0.8795 -0.3634
 4154SOL     OW23920   2.689   4.579   1.772  0.0310  0.0626 -0.5155
 4154SOL    HW123921   2.657   4.527   1.699 -2.7753  0.3230  0.5422
 4154SOL    HW223922   2.765   4.526   1.797 -1.2798 -1.5419  0.0125
 4155SOL     OW23923   0.014   2.352   7.059 -0.4749  0.7079  0.6546
 4155SOL    HW123924   0.085   2.389   7.007 -0.3805  2.6268  2.1515
 4155SOL    HW223925   4.712   2.274   7.011  0.6464  1.5840 -1.3924
 4156SOL     OW23926   2.107   3.668  14.371  0.8336  1.0704 -0.5430
 4156SOL    HW123927   2.138   3.749  14.332 -0.1587  1.2383 -0.9870
 4156SOL    HW223928   2.017   3.660  14.339  0.6886 -1.8778  0.5471
 4157SOL     OW23929   0.049   0.351  17.523  0.3709  0.1935 -0.0089
 4157SOL    HW123930   0.099   0.275  17.552  0.5437  0.1206 -0.4847
 4157SOL    HW223931   0.069   0.408  17.597 -1.2903  1.2578 -0.3719
 4158SOL     OW23932   3.603   0.307   0.628  0.6267 -0.1917 -0.4652
 4158SOL    HW123933   3.637   0.369   0.564  2.2091  0.2171  0.7870
 4158SOL    HW223934   3.645   0.325   0.712 -0.9229 -1.7805  0.6510
 4159SOL     OW23935   3.877   0.790   0.993 -0.0273 -0.5414  0.0503
 4159SOL    HW123936   3.918   0.857   0.939  0.5911 -2.7957 -2.2807
 4159SOL    HW223937   3.804   0.841   1.026  0.3465 -0.7965  1.2566
 4160SOL     OW23938   1.128   2.036  10.110 -0.5627  0.3538 -0.2656
 4160SOL    HW123939   1.217   2.068  10.123 -0.7811  0.6509  0.5137
 4160SOL    HW223940   1.103   1.976  10.181  1.2845 -0.9260 -0.6983
 4161SOL     OW23941   4.568   4.528   6.703 -0.0450 -0.0566  0.0395
 4161SOL    HW123942   4.630   4.576   6.648 -0.8531 -0.7562 -1.5041
 4161SOL    HW223943   4.489   4.560   6.659 -0.2271  2.1012  1.9821
 4162SOL     OW23944   0.062   3.181   2.437  0.3358  0.2009  0.3943
 4162SOL    HW123945   0.004   3.247   2.398  2.4448 -0.4660 -3.7922
 4162SOL    HW223946   0.137   3.201   2.381  0.1085  1.5563  0.5730
 4163SOL     OW23947   1.470   2.622   5.886  0.0103 -0.2198 -0.1362
 4163SOL    HW123948   1.450   2.716   5.883  2.0191  0.2810  2.5025
 4163SOL    HW223949   1.548   2.616   5.941 -0.3506  1.3519  0.5583
 4164SOL     OW23950   4.021   0.732  11.595 -0.2336  0.2978  0.0081
 4164SOL    HW123951   3.964   0.722  11.671 -0.5064  1.2353 -0.0707
 4164SOL    HW223952   4.075   0.656  11.617 -0.7131  0.3398  1.3450
 4165SOL     OW23953   3.820   0.109   4.027  0.4879  0.1714  0.1642
 4165SOL    HW123954   3.839   0.133   3.936  0.7457  1.4645  0.5582
 4165SOL    HW223955   3.728   0.089   4.011  0.9029  0.6753 -2.7964
 4166SOL     OW23956   4.509   0.237   1.190 -0.0862 -0.3219  0.5986
 4166SOL    HW123957   4.455   0.159   1.172 -0.0606 -0.7395  2.3577
 4166SOL    HW223958   4.583   0.219   1.132 -0.8980  0.3280 -0.6538
 4167SOL     OW23959   1.537   3.568   6.445 -0.5772 -0.1026 -0.1760
 4167SOL    HW123960   1.538   3.530   6.357 -0.5155 -1.7375  0.5162
 4167SOL    HW223961   1.608   3.515   6.482  0.6451  1.8979  0.3355
 4168SOL     OW23962   1.429   3.380   4.119  0.0096  0.2754  0.2420
 4168SOL    HW123963   1.441   3.316   4.049  0.9500  2.1737 -1.3360
 4168SOL    HW223964   1.368   3.445   4.084 -0.0139  1.1251  1.8646
 4169SOL     OW23965   0.904   4.107  14.930  0.0231 -0.5413  0.7003
 4169SOL    HW123966   0.903   4.109  14.835  1.0559 -1.4963  0.6729
 4169SOL    HW223967   0.911   4.201  14.945  0.1286 -0.4832  0.2815
 4170SOL     OW23968   0.577   1.912  17.530 -0.4539  0.2381 -0.3958
 4170SOL    HW123969   0.641   1.983  17.523 -2.0813  1.9270  1.8899
 4170SOL    HW223970   0.542   1.913  17.619  0.7942 -1.5609  0.1048
 4171SOL     OW23971   0.674   4.564   3.341 -0.1602 -0.2438  0.0624
 4171SOL    HW123972   0.707   4.615   3.414 -1.1688 -0.9638  1.0100
 4171SOL    HW223973   0.756   4.518   3.325 -0.8359 -0.2245 -3.4829
 4172SOL     OW23974   4.578   2.960   8.225  0.5375  0.8954  0.2154
 4172SOL    HW123975   4.540   3.012   8.295  1.1432 -1.2160  2.0869
 4172SOL    HW223976   4.650   3.018   8.198  0.0462  0.4795 -2.0094
 4173SOL     OW23977   0.879   3.588   8.695 -0.1032 -0.2437  0.1057
 4173SOL    HW123978   0.932   3.585   8.774  2.2390  0.7792 -1.4186
 4173SOL    HW223979   0.818   3.515   8.704 -1.9969  1.4997  1.5277
 4174SOL     OW23980   2.967   0.601   5.236  0.3338 -0.0671  0.4347
 4174SOL    HW123981   2.994   0.561   5.153 -1.1424 -1.1902  0.5069
 4174SOL    HW223982   3.047   0.579   5.284 -0.2397  3.5054  2.9624
 4175SOL     OW23983   4.519   3.239   9.222  0.0908  0.2696 -0.8240
 4175SOL    HW123984   4.440   3.197   9.255  0.0732 -0.6287 -2.0042
 4175SOL    HW223985   4.496   3.330   9.204 -0.9851  0.5269  1.8216
 4176SOL     OW23986   2.619   0.958   3.685 -0.0711 -0.6667 -0.1851
 4176SOL    HW123987   2.714   0.954   3.689 -0.1367 -0.3859  1.3331
 4176SOL    HW223988   2.594   0.954   3.777 -0.9478  0.1500 -0.3919
 4177SOL     OW23989   3.460   1.599  11.135 -0.3569  0.1931  0.1487
 4177SOL    HW123990   3.458   1.505  11.116 -0.9969  0.4540 -1.0506
 4177SOL    HW223991   3.365   1.608  11.134 -0.4964 -1.0897  1.0015
 4178SOL     OW23992   3.620   2.231   8.486  0.3708  0.7474  0.0933
 4178SOL    HW123993   3.541   2.182   8.463  0.8532  0.1796 -0.3521
 4178SOL    HW223994   3.671   2.162   8.529 -1.1295 -0.2811  0.2098
 4179SOL     OW23995   0.947   2.180   7.746 -0.0444  0.3500 -0.0658
 4179SOL    HW123996   0.928   2.165   7.838 -1.4986 -1.6566 -0.7039
 4179SOL    HW223997   1.033   2.140   7.741  0.5282  1.4972  0.4838
 4180SOL     OW23998   0.192   2.002   7.720 -0.4276 -0.0973  0.5293
 4180SOL    HW123999   0.266   2.003   7.661 -0.2396 -0.8277  0.7529
 4180SOL    HW224000   0.119   1.964   7.671  1.8933 -2.5200 -1.0430
 4181SOL     OW24001   2.573   4.091   7.481  0.2808  0.3339  0.6399
 4181SOL    HW124002   2.566   4.024   7.550  2.8619  1.1297  1.6760
 4181SOL    HW224003   2.495   4.145   7.496  1.6216  2.3670  0.2947
 4182SOL     OW24004   0.291   3.099   6.950  0.1158  0.6490  0.1160
 4182SOL    HW124005   0.268   3.186   6.918 -3.1198  0.0649  0.9379
 4182SOL    HW224006   0.381   3.114   6.981 -0.1588  1.9013  0.2992
 4183SOL     OW24007   4.179   3.274   5.145  0.2406 -0.3475 -0.5305
 4183SOL    HW124008   4.111   3.213   5.173 -0.9230  0.9067 -0.6658
 4183SOL    HW224009   4.243   3.211   5.111  2.1902  1.7042 -0.6356
 4184SOL     OW24010   3.531   2.149  11.727 -0.0197  0.0800  0.0628
 4184SOL    HW124011   3.463   2.199  11.682 -0.3057  0.5452  1.0330
 4184SOL    HW224012   3.551   2.083  11.660 -1.9369 -1.1398  0.7061
 4185SOL     OW24013   3.154   2.337   5.533 -0.3076 -0.2104  0.0274
 4185SOL    HW124014   3.167   2.391   5.610  0.2276  2.1631 -1.7103
 4185SOL    HW224015   3.241   2.297   5.535  0.2770  1.0111 -0.9802
 4186SOL     OW24016   4.283   1.005   7.145  0.2484  0.7390  0.1340
 4186SOL    HW124017   4.360   0.953   7.123  0.1583  0.3351  0.7972
 4186SOL    HW224018   4.287   0.992   7.240 -0.7143 -2.0894 -0.2226
 4187SOL     OW24019   1.268   1.964   0.826  0.3455 -0.6737 -0.2967
 4187SOL    HW124020   1.210   1.888   0.836  1.5025 -1.3255  1.5485
 4187SOL    HW224021   1.303   1.949   0.738  1.9539  0.2522  0.1851
 4188SOL     OW24022   3.595   3.325   2.157 -0.0141 -0.8164  0.0510
 4188SOL    HW124023   3.504   3.326   2.126 -0.1961  0.8725  0.6186
 4188SOL    HW224024   3.593   3.305   2.251 -5.5302  1.3906  0.3979
 4189SOL     OW24025   1.367   4.543  17.671 -0.7272  0.0402 -0.1522
 4189SOL    HW124026   1.350   4.637  17.672 -0.3636  0.0937  0.7033
 4189SOL    HW224027   1.461   4.558  17.660 -0.5546 -1.4219 -0.6865
 4190SOL     OW24028   3.333   2.207   7.863 -0.0929 -0.7335  0.1875
 4190SOL    HW124029   3.395   2.154   7.912 -0.3172 -1.0083  0.1781
 4190SOL    HW224030   3.391   2.282   7.856 -1.7350  0.4609 -0.6795
 4191SOL     OW24031   2.860   0.363  15.849 -0.1714  0.6004 -0.3261
 4191SOL    HW124032   2.820   0.400  15.770 -1.4990 -0.3603 -0.0998
 4191SOL    HW224033   2.795   0.299  15.878  1.6223 -1.3045 -0.5864
 4192SOL     OW24034   1.874   2.345  11.073 -0.1812  0.2430  0.3078
 4192SOL    HW124035   1.848   2.392  11.153 -1.3613  2.6342 -1.4853
 4192SOL    HW224036   1.959   2.387  11.056  0.9688 -2.4623 -0.6258
 4193SOL     OW24037   1.341   4.528   3.209 -0.4494  0.2201  0.6356
 4193SOL    HW124038   1.428   4.490   3.192 -0.4613  0.4118  0.1272
 4193SOL    HW224039   1.319   4.566   3.124  0.8573  0.7414  0.5230
 4194SOL     OW24040   2.077   3.044   8.384  0.8675  0.6228 -0.1858
 4194SOL    HW124041   2.025   3.117   8.350  0.9403  0.8228  0.1350
 4194SOL    HW224042   2.104   2.987   8.312 -0.2315 -0.8768  0.5783
 4195SOL     OW24043   3.353   3.863   1.804 -0.1680  0.0612  0.4885
 4195SOL    HW124044   3.298   3.856   1.726 -0.6240  1.1501  0.7122
 4195SOL    HW224045   3.349   3.768   1.819  0.2667 -0.1196 -0.4969
 4196SOL     OW24046   4.001   4.068  12.012 -0.1220 -0.2808  0.1349
 4196SOL    HW124047   3.986   4.097  12.102 -0.5520  1.6965 -0.5749
 4196SOL    HW224048   3.940   4.131  11.973  1.4249  0.7736 -0.6083
 4197SOL     OW24049   3.879   1.364   2.087 -0.4103 -0.1533  0.4836
 4197SOL    HW124050   3.946   1.313   2.041  1.3529  1.2494  1.5180
 4197SOL    HW224051   3.891   1.449   2.045 -3.6892  0.9598  1.8525
 4198SOL     OW24052   0.750   3.179   5.142  0.1234 -0.1536 -0.6059
 4198SOL    HW124053   0.676   3.155   5.086 -0.2753 -1.2272  0.3817
 4198SOL    HW224054   0.812   3.232   5.091 -0.3199  1.2857  0.3554
 4199SOL     OW24055   3.271   2.597   5.624 -0.1516  0.2878 -0.0360
 4199SOL    HW124056   3.347   2.656   5.630 -0.6209  0.9135 -0.1798
 4199SOL    HW224057   3.230   2.625   5.542 -1.3495  2.2202  1.2098
 4200SOL     OW24058   4.405   0.799   3.485  0.3777  0.2727  0.4967
 4200SOL    HW124059   4.337   0.864   3.499 -1.5418 -1.3038 -1.5155
 4200SOL    HW224060   4.440   0.795   3.574  0.0700 -2.0360  0.5141
 4201SOL     OW24061   4.423   0.328   7.306  0.1957 -0.0954  0.6476
 4201SOL    HW124062   4.457   0.242   7.330  1.1384 -0.2104 -1.1584
 4201SOL    HW224063   4.334   0.321   7.342  0.4121 -1.4779  0.9131
 4202SOL     OW24064   2.771   0.568   7.398 -0.0454 -0.0251  0.6946
 4202SOL    HW124065   2.776   0.618   7.317 -0.2977 -1.6656 -0.3343
 4202SOL    HW224066   2.685   0.582   7.437 -0.5807  3.1106 -1.6282
 4203SOL     OW24067   2.189   0.528  12.328 -0.4636  0.3593 -0.0097
 4203SOL    HW124068   2.223   0.468  12.262  2.0408  0.4416  1.1980
 4203SOL    HW224069   2.127   0.467  12.369  0.6650 -0.2945  0.7251
 4204SOL     OW24070   3.766   2.609   8.240 -0.4469 -0.3041 -0.0260
 4204SOL    HW124071   3.732   2.522   8.219 -0.2821 -0.6747  1.2217
 4204SOL    HW224072   3.755   2.600   8.335  2.1401 -0.3439  0.2922
 4205SOL     OW24073   0.621   3.579   2.766 -0.2194 -0.0090  0.0886
 4205SOL    HW124074   0.594   3.653   2.712  0.8068  0.4125  0.1550
 4205SOL    HW224075   0.709   3.565   2.730  0.0446  1.3516  0.1745
 4206SOL     OW24076   3.760   3.004   3.564 -1.0528  0.5907  1.1568
 4206SOL    HW124077   3.781   2.972   3.652 -1.2218  0.6047  1.2019
 4206SOL    HW224078   3.814   3.081   3.547  0.7365 -1.0222 -0.4330
 4207SOL     OW24079   0.631   2.967   7.980  0.1362 -0.6063  0.0219
 4207SOL    HW124080   0.701   2.917   8.021  2.7883  2.5841 -0.5431
 4207SOL    HW224081   0.644   3.055   8.017 -0.4650 -1.0136  1.1989
 4208SOL     OW24082   2.485   0.787   7.751  0.0165 -0.2208 -0.8268
 4208SOL    HW124083   2.440   0.811   7.670 -1.4640 -1.4028 -0.3420
 4208SOL    HW224084   2.479   0.870   7.799  1.5175 -0.8572  0.4677
 4209SOL     OW24085   0.256   1.722   7.061  0.1790  0.7322  0.6490
 4209SOL    HW124086   0.221   1.805   7.094  2.0346  0.8764  2.2387
 4209SOL    HW224087   0.206   1.660   7.115 -0.2501  1.1165  0.6925
 4210SOL     OW24088   1.513   0.458   2.904  0.2057  0.5872 -0.7544
 4210SOL    HW124089   1.523   0.396   2.831 -1.6810 -2.9489  1.9992
 4210SOL    HW224090   1.488   0.402   2.977  1.3115  2.0535  0.7239
 4211SOL     OW24091   3.114   2.542  16.924  0.0672  0.0733 -0.4458
 4211SOL    HW124092   3.034   2.560  16.973  0.3797  2.8685 -0.9919
 4211SOL    HW224093   3.171   2.605  16.966  0.6990  1.3273 -3.1690
 4212SOL     OW24094   4.644   3.926   1.509  0.1283  0.4609 -0.4339
 4212SOL    HW124095   4.579   3.923   1.580  0.0389  1.9100 -0.4630
 4212SOL    HW224096   4.649   4.021   1.503  1.3477  0.3573 -0.8872
 4213SOL     OW24097   2.094   4.637   8.734 -0.5133 -1.2752 -0.3130
 4213SOL    HW124098   2.161   4.585   8.779  2.6410  1.2848 -2.0975
 4213SOL    HW224099   2.049   4.682   8.806 -0.2413 -2.5595  0.6570
 4214SOL     OW24100   2.133   1.838  12.783  0.1919  0.4409 -0.1504
 4214SOL    HW124101   2.170   1.813  12.867 -2.0828  0.7459  0.9312
 4214SOL    HW224102   2.124   1.930  12.809 -2.1274 -0.1385  1.0892
 4215SOL     OW24103   0.369   2.241   6.843  0.3103  0.3727 -0.1491
 4215SOL    HW124104   0.366   2.337   6.841  0.1761  0.3591 -0.6761
 4215SOL    HW224105   0.453   2.230   6.888 -0.3055 -0.5496  0.7548
 4216SOL     OW24106   4.073   1.215   7.913 -0.2750  0.4280 -0.2932
 4216SOL    HW124107   4.119   1.200   7.996 -0.6700  2.7637  0.3598
 4216SOL    HW224108   3.989   1.175   7.935 -0.7908  2.9725  2.4511
 4217SOL     OW24109   3.691   0.764   3.164 -0.4870 -0.1583 -0.0667
 4217SOL    HW124110   3.651   0.849   3.147  1.8020  0.7775 -0.8137
 4217SOL    HW224111   3.689   0.770   3.260 -1.8817  0.2584 -0.1318
 4218SOL     OW24112   2.610   4.247   8.852 -0.7854 -0.0112 -0.8441
 4218SOL    HW124113   2.580   4.212   8.936 -0.7541  0.2616 -0.7183
 4218SOL    HW224114   2.669   4.176   8.828  1.3120  1.7531 -0.8749
 4219SOL     OW24115   1.989   3.232   9.257  0.2773  0.4258  0.5041
 4219SOL    HW124116   2.034   3.212   9.175  0.5229  0.7124  0.5680
 4219SOL    HW224117   2.049   3.214   9.330  2.1603  0.8020 -0.9451
 4220SOL     OW24118   0.562   0.682  10.307  0.1222  0.3246  0.7454
 4220SOL    HW124119   0.639   0.735  10.285  0.2015 -0.2414 -0.3292
 4220SOL    HW224120   0.515   0.732  10.374 -1.4301  0.8268 -0.7176
 4221SOL     OW24121   1.116   4.474   6.085  0.0694 -0.4895  0.0370
 4221SOL    HW124122   1.096   4.382   6.068 -2.1124 -0.4953  2.5544
 4221SOL    HW224123   1.199   4.476   6.038 -0.3079  0.6050 -0.5745
 4222SOL     OW24124   4.075   1.983   8.441 -0.2482  0.2018 -0.3286
 4222SOL    HW124125   4.104   2.062   8.487 -1.6223 -0.4755  1.7217
 4222SOL    HW224126   4.008   2.013   8.379 -0.0498 -0.6838 -0.9604
 4223SOL     OW24127   0.888   0.954  13.314  0.3557  0.3871  0.5323
 4223SOL    HW124128   0.888   0.872  13.266  0.3678  0.4496  0.4256
 4223SOL    HW224129   0.983   0.970  13.313  0.4706 -0.6453 -3.0000
 4224SOL     OW24130   2.056   2.593   1.711  0.0002 -0.0503 -0.3911
 4224SOL    HW124131   2.147   2.563   1.713 -0.0648 -0.3074 -1.2833
 4224SOL    HW224132   2.056   2.680   1.751  1.9457  0.2250 -0.9789
 4225SOL     OW24133   0.218   1.874   5.619  0.1137  0.3924  0.3601
 4225SOL    HW124134   0.209   1.879   5.714  0.4855 -0.9282  0.4667
 4225SOL    HW224135   0.274   1.797   5.616  1.3597  1.3696 -1.5546
 4226SOL     OW24136   1.869   0.720  16.371  0.0966  0.0182  0.0242
 4226SOL    HW124137   1.935   0.653  16.350  0.4483  0.2667  0.3252
 4226SOL    HW224138   1.784   0.678  16.360  1.7754 -2.7304 -2.5703
 4227SOL     OW24139   2.692   0.797   1.651 -0.2521  0.6038 -0.2527
 4227SOL    HW124140   2.644   0.879   1.639  0.8135  1.2600 -0.1104
 4227SOL    HW224141   2.636   0.757   1.717 -1.3041  0.2506 -1.3555
 4228SOL     OW24142   0.545   2.456   6.734  0.7439 -0.2633  0.1246
 4228SOL    HW124143   0.603   2.380   6.729 -0.7307 -1.4097  0.6498
 4228SOL    HW224144   0.584   2.503   6.808 -1.5423  1.7060  0.0721
 4229SOL     OW24145   4.583   3.667   1.689 -0.0137  0.0039 -0.3612
 4229SOL    HW124146   4.577   3.750   1.736  2.6751  0.5140 -0.9315
 4229SOL    HW224147   4.500   3.657   1.643 -0.5611  1.2403  0.3561
 4230SOL     OW24148   0.050   0.021   0.136 -0.3395  0.4420 -0.0992
 4230SOL    HW124149   0.052   0.074   0.056 -0.7176 -0.4493 -0.6926
 4230SOL    HW224150   0.075   4.659   0.108 -0.6999 -0.3460  2.0674
 4231SOL     OW24151   4.144   1.627   2.104 -0.0742 -0.1107  0.5750
 4231SOL    HW124152   4.061   1.651   2.063  0.2742 -1.6587 -1.0724
 4231SOL    HW224153   4.154   1.707   2.156 -0.4525 -0.0759  0.5979
 4232SOL     OW24154   2.624   2.679   9.338 -0.5869 -0.2594  0.0176
 4232SOL    HW124155   2.528   2.678   9.337 -0.5902  0.5563 -0.0627
 4232SOL    HW224156   2.636   2.725   9.421 -0.4437  1.0435 -0.7353
 4233SOL     OW24157   4.616   1.780  15.229  0.0724  0.2299 -0.1287
 4233SOL    HW124158   4.648   1.703  15.276 -4.5853 -2.4635 -1.4040
 4233SOL    HW224159   4.686   1.818  15.176 -1.5150  0.7009 -1.8894
 4234SOL     OW24160   1.523   2.554  15.650 -0.1315 -0.1574  0.2679
 4234SOL    HW124161   1.430   2.548  15.632 -0.4718  1.9429  1.3074
 4234SOL    HW224162   1.532   2.502  15.730 -0.0181 -0.5298  0.0156
 4235SOL     OW24163   0.323   1.524   4.008 -0.5664 -0.1684  0.0299
 4235SOL    HW124164   0.309   1.465   4.082 -1.0769  1.0457  0.9163
 4235SOL    HW224165   0.402   1.483   3.973  0.1802  0.7617  0.6063
 4236SOL     OW24166   4.429   2.871   7.301  0.2083 -0.3795  0.0591
 4236SOL    HW124167   4.455   2.829   7.383  1.3574  2.2692  1.0420
 4236SOL    HW224168   4.344   2.828   7.288 -1.3878  2.4992  0.8911
 4237SOL     OW24169   4.046   3.676   3.115  0.3880 -0.0414  0.2457
 4237SOL    HW124170   4.057   3.656   3.022 -0.0321 -0.6334  0.3297
 4237SOL    HW224171   3.961   3.721   3.119 -0.7399 -2.2786  1.2688
 4238SOL     OW24172   3.662   0.520  11.084  0.0688  0.2721 -0.2875
 4238SOL    HW124173   3.701   0.508  10.997  0.9417  0.5969  0.0613
 4238SOL    HW224174   3.582   0.469  11.078  0.0797  0.2412 -0.1629
 4239SOL     OW24175   3.542   4.636   0.109  0.1609  0.2261 -0.0600
 4239SOL    HW124176   3.548   4.668   0.019  0.9594 -2.2223 -0.8584
 4239SOL    HW224177   3.634   4.636   0.135 -0.1980  1.3995  1.1880
 4240SOL     OW24178   4.004   2.255   8.149  0.1970 -0.4237  0.1120
 4240SOL    HW124179   4.085   2.304   8.133  0.1088 -1.0606 -2.2963
 4240SOL    HW224180   3.946   2.279   8.077  1.4317  2.1281 -0.0439
 4241SOL     OW24181   3.793   3.122   3.184 -0.0281 -0.3052  0.6221
 4241SOL    HW124182   3.713   3.167   3.211 -0.9184 -0.6665 -1.5186
 4241SOL    HW224183   3.842   3.124   3.267 -2.2902 -0.7828  1.9751
 4242SOL     OW24184   1.230   0.241   2.105 -0.5312  0.2256  0.2702
 4242SOL    HW124185   1.185   0.323   2.086 -1.4005 -0.5160 -0.8959
 4242SOL    HW224186   1.262   0.248   2.195  1.7442 -2.5059 -0.3154
 4243SOL     OW24187   0.147   4.360   3.756 -0.0826  0.0134 -0.6275
 4243SOL    HW124188   0.190   4.444   3.738  0.4307 -0.3307 -1.0029
 4243SOL    HW224189   0.204   4.336   3.830 -1.0115  0.5898  0.2771
 4244SOL     OW24190   0.853   2.365   4.245 -0.4343 -0.0672  0.0976
 4244SOL    HW124191   0.797   2.348   4.321 -0.3219 -2.0701 -0.2653
 4244SOL    HW224192   0.864   2.460   4.240 -1.8290  0.2076  2.5108
 4245SOL     OW24193   0.635   4.609  11.277  0.3321  0.2798  0.2890
 4245SOL    HW124194   0.621   4.703  11.286  1.1694  0.4207  0.1062
 4245SOL    HW224195   0.680   4.605  11.193 -0.2766  2.5121 -0.1378
 4246SOL     OW24196   3.794   0.905  16.955 -0.5293 -0.0416  0.1886
 4246SOL    HW124197   3.876   0.921  17.001  0.3676 -3.5058 -0.1764
 4246SOL    HW224198   3.777   0.991  16.916 -0.6993  0.9740  2.5103
 4247SOL     OW24199   4.206   4.615  17.516 -0.2804  0.2922  0.8164
 4247SOL    HW124200   4.157   4.694  17.540 -0.8888 -0.7381  2.9418
 4247SOL    HW224201   4.272   4.653  17.457 -2.6120  1.3464 -1.1306
 4248SOL     OW24202   2.595   3.098   3.075  0.3923  0.1914 -0.0046
 4248SOL    HW124203   2.667   3.073   3.016 -0.6257 -1.3962 -0.5485
 4248SOL    HW224204   2.644   3.145   3.143  1.6049 -1.8872  0.5623
 4249SOL     OW24205   2.835   4.303   6.150  0.4611  0.0727 -0.2102
 4249SOL    HW124206   2.773   4.246   6.103  0.8788 -0.6834  0.1467
 4249SOL    HW224207   2.914   4.285   6.100  0.4928  1.9772 -0.8418
 4250SOL     OW24208   2.053   1.575  14.488 -0.0984  0.1073  0.1569
 4250SOL    HW124209   2.098   1.601  14.408 -1.7093 -1.4685 -1.2773
 4250SOL    HW224210   2.055   1.660  14.532  0.2514 -0.6790  1.6714
 4251SOL     OW24211   3.782   0.127   9.729 -0.4358  0.4189  0.0470
 4251SOL    HW124212   3.797   0.036   9.758 -1.7539 -0.2375 -1.3623
 4251SOL    HW224213   3.721   0.158   9.795  0.0969 -1.3908  1.3887
 4252SOL     OW24214   1.502   4.123   7.775 -0.4131 -0.1431 -0.7516
 4252SOL    HW124215   1.554   4.200   7.751  0.2132 -0.0444  0.9671
 4252SOL    HW224216   1.555   4.050   7.742 -0.2221 -0.9625  1.4060
 4253SOL     OW24217   4.560   2.783   0.655  0.3486 -0.6262 -0.5071
 4253SOL    HW124218   4.567   2.871   0.619 -3.1256  0.1796  0.7196
 4253SOL    HW224219   4.617   2.728   0.602 -1.7917 -1.5904 -1.8080
 4254SOL     OW24220   3.415   1.115   5.517  0.3764  0.2523 -0.0597
 4254SOL    HW124221   3.398   1.140   5.426  0.6074  0.8633  0.0616
 4254SOL    HW224222   3.454   1.196   5.549 -1.5284  1.7573 -1.5078
 4255SOL     OW24223   4.630   2.655  11.704  0.2597  1.0189 -0.0965
 4255SOL    HW124224   4.663   2.597  11.635  1.8192  0.5035  1.0928
 4255SOL    HW224225   4.543   2.690  11.684 -0.4386 -0.0879  1.0501
 4256SOL     OW24226   0.379   1.644  17.702 -0.4657  0.1306  0.5169
 4256SOL    HW124227   0.368   1.562  17.654  1.8500 -0.1378  0.4705
 4256SOL    HW224228   0.422   1.613   0.076 -0.2012 -1.4307 -0.2273
 4257SOL     OW24229   4.048   2.176   9.133  0.1480  0.3953  0.2658
 4257SOL    HW124230   4.080   2.086   9.144 -2.0200 -0.3640  0.3214
 4257SOL    HW224231   4.070   2.215   9.218 -0.6973  3.8147 -1.0827
 4258SOL     OW24232   0.348   3.594   3.595 -0.1830  0.6832  0.2198
 4258SOL    HW124233   0.355   3.621   3.686  0.5153 -0.5003  0.5179
 4258SOL    HW224234   0.336   3.499   3.597  2.5788  0.3749  2.1928
 4259SOL     OW24235   4.682   3.008   1.790  0.7579  0.1395  0.2741
 4259SOL    HW124236   4.647   2.962   1.714 -2.5581 -1.6515  2.8621
 4259SOL    HW224237   4.600   3.041   1.828 -0.1225 -1.8027  0.0177
 4260SOL     OW24238   4.318   2.368   3.489 -0.6091  0.1821 -0.2657
 4260SOL    HW124239   4.304   2.452   3.447 -1.7525  0.6098  0.9590
 4260SOL    HW224240   4.378   2.319   3.433 -1.2176 -0.8265 -0.0423
 4261SOL     OW24241   1.051   0.957  12.927  0.3256 -0.1792  0.0887
 4261SOL    HW124242   1.017   0.873  12.897  0.0043  0.7757 -2.2075
 4261SOL    HW224243   1.109   0.973  12.853 -0.2583 -1.2177 -0.5971
 4262SOL     OW24244   0.035   0.528   8.413  0.6465 -0.1236 -0.0433
 4262SOL    HW124245   4.666   0.524   8.406  0.8239 -0.7429 -2.2037
 4262SOL    HW224246   0.056   0.436   8.428  1.2467 -0.3472 -2.1581
 4263SOL     OW24247   4.395   2.415  14.810  0.8907  0.7152 -0.0727
 4263SOL    HW124248   4.489   2.415  14.791  0.6639  0.0575 -1.2382
 4263SOL    HW224249   4.380   2.333  14.858 -0.2481  0.1423 -1.3984
 4264SOL     OW24250   3.218   3.572   8.290 -0.2848  0.1700 -0.1999
 4264SOL    HW124251   3.210   3.649   8.234  0.1478  0.9442  0.8107
 4264SOL    HW224252   3.154   3.591   8.359  0.6657 -1.3698  1.1074
 4265SOL     OW24253   1.009   3.363   4.009  0.1784  0.2172  0.1634
 4265SOL    HW124254   1.029   3.310   4.086  1.2685  0.0730 -0.2252
 4265SOL    HW224255   1.072   3.332   3.944  0.2141  1.1509 -0.2433
 4266SOL     OW24256   0.410   1.976   3.329 -0.2313  0.4251  0.2575
 4266SOL    HW124257   0.360   1.938   3.257  0.6153  0.6421 -0.4368
 4266SOL    HW224258   0.368   1.938   3.407 -1.5511 -0.5229 -0.9292
 4267SOL     OW24259   4.226   3.820  12.760  0.4533 -0.3416 -0.4642
 4267SOL    HW124260   4.181   3.889  12.808  0.4937 -0.0792 -0.7980
 4267SOL    HW224261   4.258   3.763  12.830  2.7444 -0.7057 -1.8081
 4268SOL     OW24262   0.332   3.219   2.876 -0.2497 -0.2481  0.6410
 4268SOL    HW124263   0.273   3.275   2.826  1.8310 -0.2845 -1.8296
 4268SOL    HW224264   0.321   3.131   2.839 -2.8547 -0.5269  2.0690
 4269SOL     OW24265   3.819   2.498   3.086 -0.1830  0.4495 -0.0105
 4269SOL    HW124266   3.892   2.441   3.063 -0.2839  1.1564 -2.1218
 4269SOL    HW224267   3.874   2.564   3.129 -0.4136  0.8116 -0.2655
 4270SOL     OW24268   2.957   0.690   2.250  0.0468 -0.3288  0.1703
 4270SOL    HW124269   2.957   0.782   2.224  0.1620  0.0488  1.4625
 4270SOL    HW224270   3.005   0.657   2.175  0.3326 -0.4537  0.4056
 4271SOL     OW24271   0.309   0.523   5.537 -0.0549  0.3510  0.0886
 4271SOL    HW124272   0.359   0.555   5.613  1.4732 -0.7404 -0.4554
 4271SOL    HW224273   0.225   0.560   5.566 -0.1277  0.9899 -0.9758
 4272SOL     OW24274   1.022   2.630   9.664 -0.2525 -0.4642  0.6716
 4272SOL    HW124275   0.951   2.673   9.616 -2.9721 -2.9362  2.4787
 4272SOL    HW224276   1.101   2.645   9.611 -1.0476  1.8029  0.1386
 4273SOL     OW24277   0.796   0.391   6.439 -0.0683  0.5928  0.5378
 4273SOL    HW124278   0.722   0.360   6.386  2.1496 -1.8557 -1.2019
 4273SOL    HW224279   0.822   0.304   6.469 -1.4314 -0.1264 -0.3407
 4274SOL     OW24280   4.344   3.042  13.435  0.0789  0.1136 -0.5365
 4274SOL    HW124281   4.298   3.068  13.515  1.7479 -1.0979  0.7866
 4274SOL    HW224282   4.391   2.962  13.454 -1.0255 -0.2732  0.5958
 4275SOL     OW24283   1.238   3.429  17.469 -0.0144  0.1128  0.0809
 4275SOL    HW124284   1.191   3.418  17.386  1.6349  1.0978 -0.9837
 4275SOL    HW224285   1.310   3.365  17.460 -0.2076  0.0677 -1.1706
 4276SOL     OW24286   2.616   1.321   8.685 -0.4070 -0.0588 -0.4783
 4276SOL    HW124287   2.596   1.270   8.606 -1.4679  0.5040 -0.5718
 4276SOL    HW224288   2.641   1.403   8.644 -0.7257  0.3975  0.2473
 4277SOL     OW24289   4.291   3.260  10.295 -0.0556 -0.0800  0.6614
 4277SOL    HW124290   4.323   3.287  10.382  2.2052 -1.8985  0.4092
 4277SOL    HW224291   4.329   3.172  10.288 -0.3615 -0.3516  2.3288
 4278SOL     OW24292   1.062   1.988   1.356 -0.0890 -0.5217 -0.2795
 4278SOL    HW124293   1.058   2.076   1.394  0.3110 -0.8397  0.5175
 4278SOL    HW224294   1.116   1.996   1.278  0.6055 -1.1923  0.1332
 4279SOL     OW24295   1.430   1.269   6.733  0.3281 -0.2839 -0.1216
 4279SOL    HW124296   1.426   1.328   6.657 -3.7576  0.3730  0.6016
 4279SOL    HW224297   1.361   1.309   6.787  0.0161 -2.6085  1.1965
 4280SOL     OW24298   0.009   4.720   5.720 -0.2545  0.0451  0.3492
 4280SOL    HW124299   4.673   4.647   5.724 -1.6984  1.3146  0.8358
 4280SOL    HW224300   4.676   0.065   5.697 -1.2884 -0.5341  1.2255
 4281SOL     OW24301   0.228   0.743   7.394  0.2030  0.1741  0.3320
 4281SOL    HW124302   0.203   0.696   7.474 -0.0252 -1.0252 -0.4471
 4281SOL    HW224303   0.300   0.799   7.422  1.4950 -1.5431  0.4545
 4282SOL     OW24304   3.142   3.001  15.938  0.1128  0.1402 -0.0293
 4282SOL    HW124305   3.048   3.005  15.919  0.0376  0.1116  0.3447
 4282SOL    HW224306   3.173   2.938  15.872  1.6688  0.7565  0.1188
 4283SOL     OW24307   4.557   2.546   5.345  1.0248 -0.8260 -0.5126
 4283SOL    HW124308   4.539   2.536   5.439 -0.8241  2.8525 -0.4859
 4283SOL    HW224309   4.482   2.495   5.312  0.1854  1.5741 -2.2388
 4284SOL     OW24310   4.248   3.973  14.145 -0.2328 -0.1123 -0.2742
 4284SOL    HW124311   4.293   4.056  14.131 -3.9712  2.3274  2.0141
 4284SOL    HW224312   4.236   3.947  14.054  3.0921 -0.7933 -0.5199
 4285SOL     OW24313   4.697   4.198   1.431 -0.4790 -0.4187 -0.2420
 4285SOL    HW124314   4.659   4.205   1.343 -0.6702  2.5671  0.0755
 4285SOL    HW224315   0.007   4.283   1.454  0.1911 -0.7720  0.0192
 4286SOL     OW24316   2.737   2.656   8.020  0.0275  0.3790 -0.4521
 4286SOL    HW124317   2.683   2.621   7.949 -0.3739  0.6099 -0.2580
 4286SOL    HW224318   2.756   2.737   7.974  2.1616 -1.0580 -2.0745
 4287SOL     OW24319   2.027   0.968  14.896  0.1180 -0.3281  0.4477
 4287SOL    HW124320   2.004   1.029  14.825 -0.0577 -0.5679  0.2985
 4287SOL    HW224321   2.117   0.988  14.920 -0.7936  1.7227  2.1912
 4288SOL     OW24322   1.228   1.025   6.986 -0.3081  0.1367 -0.3068
 4288SOL    HW124323   1.273   0.966   7.046 -1.8388 -0.0300  0.6532
 4288SOL    HW224324   1.300   1.069   6.940  1.0528 -0.5949  1.0905
 4289SOL     OW24325   2.846   2.742   3.148  0.8440  0.0946 -0.0477
 4289SOL    HW124326   2.920   2.716   3.092  1.4354 -0.1659  0.8627
 4289SOL    HW224327   2.864   2.835   3.164  1.2786 -0.1452  0.8402
 4290SOL     OW24328   0.966   0.067  13.614  0.2250  0.2245  0.6946
 4290SOL    HW124329   1.008   0.012  13.680  2.8074  0.8096 -0.4632
 4290SOL    HW224330   1.047   0.108  13.583  0.1663  0.2335  0.5544
 4291SOL     OW24331   2.606   3.551   7.443 -0.3971  0.2174 -0.0990
 4291SOL    HW124332   2.516   3.520   7.456  0.2010 -1.6164 -0.3378
 4291SOL    HW224333   2.599   3.634   7.396  4.9655 -0.0431 -1.3039
 4292SOL     OW24334   1.665   0.639  11.914  0.1141 -0.1220  0.3632
 4292SOL    HW124335   1.621   0.561  11.882  0.5231 -0.0133 -0.4661
 4292SOL    HW224336   1.670   0.694  11.836 -2.0244  1.1072  1.0896
 4293SOL     OW24337   2.646   0.869   5.973  0.3317 -0.2552 -0.5043
 4293SOL    HW124338   2.678   0.800   6.032  3.7816  1.7412 -0.0591
 4293SOL    HW224339   2.699   0.844   5.897 -0.6112 -2.8382 -0.3320
 4294SOL     OW24340   4.554   3.409   8.736 -0.2142  0.2858 -0.4152
 4294SOL    HW124341   4.544   3.489   8.788  0.3365 -0.1220  0.3203
 4294SOL    HW224342   4.467   3.368   8.742  0.0060  0.0808  1.5051
 4295SOL     OW24343   1.163   4.126   6.466  0.2739  0.3369  0.7100
 4295SOL    HW124344   1.217   4.165   6.535  0.1933  0.0637  0.9228
 4295SOL    HW224345   1.230   4.096   6.403  1.0756 -2.4453  2.9020
 4296SOL     OW24346   1.195   2.420   5.648  0.4124  0.0676  0.0657
 4296SOL    HW124347   1.284   2.424   5.683  1.2319  0.1828 -2.0149
 4296SOL    HW224348   1.212   2.394   5.558  1.0953  1.5975 -0.2435
 4297SOL     OW24349   4.343   2.091   7.890 -0.1228  0.2433 -0.0589
 4297SOL    HW124350   4.438   2.084   7.899 -0.0880  0.8882  0.1094
 4297SOL    HW224351   4.323   2.170   7.941 -0.6768  0.8489 -1.2263
 4298SOL     OW24352   4.304   3.863  17.238 -0.0066  0.2599 -0.4515
 4298SOL    HW124353   4.295   3.839  17.146 -0.4954 -1.7326  0.1120
 4298SOL    HW224354   4.212   3.857  17.263 -0.4969 -1.5997 -2.7399
 4299SOL     OW24355   3.160   0.914   9.019  0.5038  0.4137 -0.1746
 4299SOL    HW124356   3.107   0.863   8.958  1.2271  1.7753 -1.9199
 4299SOL    HW224357   3.179   0.850   9.088  1.1369  1.2980  0.4732
 4300SOL     OW24358   1.732   1.389  12.380 -0.1991  0.0933 -0.1979
 4300SOL    HW124359   1.679   1.358  12.306 -0.7396  0.3656  0.0688
 4300SOL    HW224360   1.763   1.308  12.418 -0.5343 -0.3463 -0.8616
 4301SOL     OW24361   0.469   4.534   5.658  0.0455 -0.2651  0.0105
 4301SOL    HW124362   0.413   4.466   5.622 -0.0034 -0.6651  0.8272
 4301SOL    HW224363   0.410   4.605   5.682  0.5104 -0.8033  2.8649
 4302SOL     OW24364   4.274   1.465   1.120 -0.2656 -0.1037  0.0446
 4302SOL    HW124365   4.262   1.370   1.121  0.7251 -0.2155  1.5662
 4302SOL    HW224366   4.256   1.481   1.213  3.0143 -2.9597  1.1627
 4303SOL     OW24367   1.701   0.305  17.313  0.1651  0.0482 -0.2490
 4303SOL    HW124368   1.667   0.371  17.253 -2.0427 -1.1610 -0.3332
 4303SOL    HW224369   1.649   0.230  17.283 -0.2899 -0.0406  0.7804
 4304SOL     OW24370   4.203   3.611   6.788  0.6512  0.1203  0.1229
 4304SOL    HW124371   4.291   3.589   6.819 -0.3822  1.4224  4.0922
 4304SOL    HW224372   4.167   3.654   6.866  2.0421 -1.7091  1.7795
 4305SOL     OW24373   3.179   2.201   1.410  0.2016 -0.3773 -0.0650
 4305SOL    HW124374   3.259   2.240   1.375 -0.1251 -0.4118 -0.8472
 4305SOL    HW224375   3.135   2.164   1.333 -0.7087 -0.7914  0.6606
 4306SOL     OW24376   3.914   1.414   3.167  0.3438  0.2835  0.7709
 4306SOL    HW124377   3.832   1.430   3.214  1.0588  0.0892  2.0823
 4306SOL    HW224378   3.925   1.504   3.136  0.1331  0.5148  1.3644
 4307SOL     OW24379   2.071   2.097   0.358  0.0036  0.1134  0.0597
 4307SOL    HW124380   2.080   2.167   0.423 -0.0842  1.1257 -1.0067
 4307SOL    HW224381   2.089   2.145   0.277  1.9896 -1.2640 -0.3260
 4308SOL     OW24382   4.021   0.006   0.183 -0.3481 -0.6473 -0.4362
 4308SOL    HW124383   4.044   4.649   0.225 -1.4678 -0.4602  0.5531
 4308SOL    HW224384   4.098   0.017   0.127 -0.0081 -4.0487 -0.6455
 4309SOL     OW24385   0.781   3.184   0.728  0.0036 -0.5722  0.4625
 4309SOL    HW124386   0.729   3.108   0.753 -1.3781 -0.7053 -2.7994
 4309SOL    HW224387   0.858   3.181   0.785  1.1743  4.7661 -0.8394
 4310SOL     OW24388   4.708   3.822  10.626  0.0356  0.3037 -0.1506
 4310SOL    HW124389   4.724   3.803  10.719 -0.8323 -0.2307 -0.1122
 4310SOL    HW224390   4.695   3.916  10.634  2.3673  0.5149  1.3051
 4311SOL     OW24391   0.737   0.002   2.896 -0.5242  0.3920  0.0212
 4311SOL    HW124392   0.688   0.019   2.976 -1.8836 -2.3023 -0.2381
 4311SOL    HW224393   0.683   4.659   2.856 -0.0147 -0.2991  0.5389
 4312SOL     OW24394   2.616   0.548   5.736 -0.4874 -0.1335 -0.0306
 4312SOL    HW124395   2.681   0.602   5.692 -0.7727  0.2794  0.0544
 4312SOL    HW224396   2.671   0.488   5.785 -1.3662 -0.5711  0.4277
 4313SOL     OW24397   4.203   4.628   7.373 -0.4263 -0.4056 -0.3610
 4313SOL    HW124398   4.163   4.574   7.441 -1.7793 -1.1802 -1.7589
 4313SOL    HW224399   4.138   4.622   7.303 -2.7966 -2.6334  2.0342
 4314SOL     OW24400   0.023   3.128   8.151  0.5835 -0.5683 -0.3275
 4314SOL    HW124401   0.021   3.142   8.057 -1.1532  1.3768  0.0066
 4314SOL    HW224402   0.117   3.117   8.164  0.5666  1.3350  1.4708
 4315SOL     OW24403   4.007   0.954   8.068  0.3143  0.0569  0.7499
 4315SOL    HW124404   4.084   0.902   8.046  0.1582  0.0974  0.0922
 4315SOL    HW224405   4.049   1.033   8.100 -1.7099  1.4936 -0.0913
 4316SOL     OW24406   2.249   1.056   7.308 -0.2098  0.5395  0.2133
 4316SOL    HW124407   2.256   1.084   7.399 -1.5072 -0.4356  0.6035
 4316SOL    HW224408   2.338   1.030   7.285 -0.9873 -2.4072  0.5757
 4317SOL     OW24409   2.959   2.157  12.758 -0.1802 -0.4747  0.1772
 4317SOL    HW124410   3.034   2.099  12.747 -1.3259 -2.0664  0.8360
 4317SOL    HW224411   2.992   2.238  12.718  1.7955 -0.0331  2.7349
 4318SOL     OW24412   0.769   1.621  14.681 -0.8468  0.5902  0.6154
 4318SOL    HW124413   0.735   1.599  14.768 -0.4332 -2.1546  0.0731
 4318SOL    HW224414   0.691   1.637  14.629  0.2217 -4.0194 -2.3936
 4319SOL     OW24415   4.524   0.652   0.887  0.3075  0.6363 -0.7295
 4319SOL    HW124416   4.593   0.589   0.910  0.6719  1.1292 -0.4643
 4319SOL    HW224417   4.502   0.689   0.973 -0.2227 -1.8290  0.2034
 4320SOL     OW24418   4.629   2.019   0.826 -0.2976  0.1480  0.2549
 4320SOL    HW124419   4.703   1.960   0.814 -0.2453  0.8959 -3.3861
 4320SOL    HW224420   4.623   2.055   0.737 -0.1464 -1.2286 -0.3097
 4321SOL     OW24421   4.366   0.248  10.415 -0.0539 -0.4677  0.2819
 4321SOL    HW124422   4.452   0.224  10.448 -0.4564 -1.4964  0.5797
 4321SOL    HW224423   4.384   0.256  10.322  0.8247 -2.2223  0.3196
 4322SOL     OW24424   3.354   3.981   5.534  0.5341  0.3906 -0.3417
 4322SOL    HW124425   3.378   3.897   5.494  0.5822 -0.0058  0.5185
 4322SOL    HW224426   3.298   4.011   5.462  1.3055  2.1464 -0.2090
 4323SOL     OW24427   3.232   2.025   2.333 -0.4525  0.0348 -0.3591
 4323SOL    HW124428   3.228   1.966   2.258  2.1532 -2.3377  1.3749
 4323SOL    HW224429   3.234   1.956   2.399  1.2553  2.1981  1.8708
 4324SOL     OW24430   1.060   1.844   5.513  0.1473 -0.3984  0.2533
 4324SOL    HW124431   0.995   1.915   5.511  1.4316  0.7279 -1.2894
 4324SOL    HW224432   1.068   1.816   5.422 -1.0387 -1.6076  0.5192
 4325SOL     OW24433   4.569   2.993  11.120  0.0209 -0.4033  0.6126
 4325SOL    HW124434   4.490   2.944  11.096 -0.2170 -0.2053  0.9734
 4325SOL    HW224435   4.523   3.076  11.108 -0.8253 -0.9311  0.1640
 4326SOL     OW24436   1.675   0.128   1.059  0.1742  0.4305  0.4176
 4326SOL    HW124437   1.770   0.119   1.057  0.0925 -0.5995  1.7278
 4326SOL    HW224438   1.651   0.103   1.148 -2.5310 -1.0507 -0.7302
 4327SOL     OW24439   4.192   4.573   3.161  0.3781  0.0518  0.4740
 4327SOL    HW124440   4.202   4.557   3.255  0.7490  1.6937  0.7026
 4327SOL    HW224441   4.246   4.498   3.135  0.5878  1.2316 -2.4477
 4328SOL     OW24442   3.708   1.440   8.936  0.2408  0.2690 -0.2379
 4328SOL    HW124443   3.743   1.454   8.848  2.2680 -0.4479  0.4525
 4328SOL    HW224444   3.789   1.411   8.977 -0.5576  0.4462  1.4409
 4329SOL     OW24445   0.884   3.378   3.052 -0.4478  0.4362  0.1777
 4329SOL    HW124446   0.841   3.387   3.136  0.7167 -2.4496  1.1007
 4329SOL    HW224447   0.867   3.462   3.011 -2.6020 -0.0030  0.1848
 4330SOL     OW24448   2.074   2.181  15.065  0.0489 -0.1814  0.5956
 4330SOL    HW124449   1.987   2.223  15.070 -0.4482 -1.2797  1.1156
 4330SOL    HW224450   2.106   2.204  14.978  0.9179 -0.2113  0.9090
 4331SOL     OW24451   3.838   0.798  11.784  0.2767 -0.6216 -0.4482
 4331SOL    HW124452   3.916   0.783  11.838  0.4396  0.0268 -0.5067
 4331SOL    HW224453   3.848   0.887  11.752 -2.2397  0.4591  1.7055
 4332SOL     OW24454   0.824   0.765   1.940 -0.6750  0.4103 -0.2128
 4332SOL    HW124455   0.830   0.725   1.854 -0.2311  2.5241 -1.1808
 4332SOL    HW224456   0.742   0.725   1.970 -0.2957 -0.6959 -0.6552
 4333SOL     OW24457   4.303   0.606   5.412 -0.4313 -0.5531  0.1390
 4333SOL    HW124458   4.284   0.563   5.495 -1.2647  0.0783  0.2760
 4333SOL    HW224459   4.262   0.542   5.353 -0.1154 -1.6183  1.0858
 4334SOL     OW24460   0.722   4.190   3.980 -0.6277  0.1409 -0.1092
 4334SOL    HW124461   0.657   4.183   3.911  1.3178  0.6317 -1.9672
 4334SOL    HW224462   0.768   4.108   3.963  2.6545  2.3370 -1.6776
 4335SOL     OW24463   1.394   4.361   5.693 -0.5004 -0.3993  0.2186
 4335SOL    HW124464   1.364   4.451   5.703  5.3050  1.2797  2.4825
 4335SOL    HW224465   1.306   4.326   5.677 -0.3329 -0.9950  0.5917
 4336SOL     OW24466   0.617   0.958  15.221 -0.0462 -0.0842 -0.0916
 4336SOL    HW124467   0.651   1.020  15.156 -0.5411  1.1415  0.8136
 4336SOL    HW224468   0.596   0.882  15.167 -0.8929 -1.4278  2.1157
 4337SOL     OW24469   3.284   2.844   2.294  0.5078  0.1262 -0.0500
 4337SOL    HW124470   3.341   2.821   2.368  1.2378 -1.3001 -1.0637
 4337SOL    HW224471   3.298   2.762   2.246 -0.5453  0.0606 -0.2317
 4338SOL     OW24472   1.237   4.528  17.028  0.2037  0.5377  0.0320
 4338SOL    HW124473   1.307   4.515  17.092 -0.3373  0.2600  0.5753
 4338SOL    HW224474   1.280   4.503  16.947  1.4579 -0.8448  1.1367
 4339SOL     OW24475   2.702   0.914  13.638 -0.2205 -0.7942  0.2648
 4339SOL    HW124476   2.779   0.966  13.615  0.7419 -1.6498  1.5519
 4339SOL    HW224477   2.655   0.926  13.555 -0.4260 -2.2767  0.1711
 4340SOL     OW24478   1.750   1.775   8.885  1.5819  0.2205 -0.0492
 4340SOL    HW124479   1.694   1.751   8.811 -1.1165  0.7645  1.8073
 4340SOL    HW224480   1.829   1.724   8.868  1.1031 -0.2406 -0.9027
 4341SOL     OW24481   1.853   2.210   6.026 -0.1185 -0.0770  0.7093
 4341SOL    HW124482   1.847   2.140   6.090  0.5275  0.0020  0.8526
 4341SOL    HW224483   1.867   2.283   6.086  1.3495 -0.7629  1.1913
 4342SOL     OW24484   0.062   2.489  16.267  0.0996 -0.5124 -0.4905
 4342SOL    HW124485   4.708   2.440  16.282  1.0284 -2.0605 -0.5260
 4342SOL    HW224486   0.026   2.556  16.209 -0.2406  0.0086  0.3327
 4343SOL     OW24487   2.851   3.780  15.829  0.2858  0.4266 -0.1994
 4343SOL    HW124488   2.767   3.770  15.873 -0.9720  0.7605 -2.4985
 4343SOL    HW224489   2.880   3.867  15.856 -1.2493  1.5650 -2.1892
 4344SOL     OW24490   1.301   3.697   3.473  0.5088 -0.1101 -0.3190
 4344SOL    HW124491   1.208   3.689   3.451  0.2847 -2.3691  1.5054
 4344SOL    HW224492   1.311   3.633   3.543 -0.4787 -0.2801 -0.3316
 4345SOL     OW24493   3.929   0.804   8.609 -0.3719  0.5908  0.4810
 4345SOL    HW124494   3.948   0.710   8.617  0.1474  0.5883 -0.8278
 4345SOL    HW224495   4.011   0.831   8.652 -1.3001  0.5045  2.3046
 4346SOL     OW24496   4.010   0.654  10.374  0.2384  0.6163 -0.5221
 4346SOL    HW124497   4.064   0.579  10.398 -1.5022 -0.0466  1.3705
 4346SOL    HW224498   4.062   0.733  10.390 -0.8377  1.0573  0.8344
 4347SOL     OW24499   3.895   1.161   4.701  0.0758 -0.1986 -0.6079
 4347SOL    HW124500   3.907   1.254   4.720  2.5773 -0.5004 -0.7751
 4347SOL    HW224501   3.983   1.134   4.677 -0.1471 -0.1683 -1.4868
 4348SOL     OW24502   2.654   0.857  12.114  0.6261  0.2027  0.4856
 4348SOL    HW124503   2.728   0.796  12.117 -0.3560 -0.9251  1.7742
 4348SOL    HW224504   2.585   0.792  12.106  0.8792 -0.0743  0.5333
 4349SOL     OW24505   1.687   2.521   5.373  0.1952  0.9948 -0.5085
 4349SOL    HW124506   1.726   2.458   5.312 -1.4921 -1.4291  0.8774
 4349SOL    HW224507   1.753   2.511   5.441 -1.0737  2.6387  0.9627
 4350SOL     OW24508   0.622   3.858   8.606  0.2218 -0.3976 -0.9754
 4350SOL    HW124509   0.638   3.763   8.603  2.0606 -0.0192 -3.5587
 4350SOL    HW224510   0.577   3.867   8.522  0.6473  0.3325 -1.1199
 4351SOL     OW24511   3.960   1.404  11.028  0.4072 -0.0061 -0.1116
 4351SOL    HW124512   3.953   1.319  11.072 -1.1454  0.9095  1.4036
 4351SOL    HW224513   4.046   1.438  11.053  1.0854 -0.8453 -1.3078
 4352SOL     OW24514   3.437   4.652   6.957 -0.1574 -0.5352 -0.1356
 4352SOL    HW124515   3.460   4.657   7.050 -2.7702 -0.4784  0.5056
 4352SOL    HW224516   3.343   4.663   6.966  0.0942  2.1274 -0.8163
 4353SOL     OW24517   3.966   1.893   5.410  0.3531  0.1090 -0.1579
 4353SOL    HW124518   3.985   1.809   5.453 -1.2760 -0.5476 -0.7488
 4353SOL    HW224519   3.951   1.864   5.321  0.9034  0.8114 -0.4838
 4354SOL     OW24520   3.655   2.386   0.949  0.0990 -0.1277  0.3255
 4354SOL    HW124521   3.707   2.430   0.881  3.3126  1.8497  4.0931
 4354SOL    HW224522   3.641   2.464   1.002  0.0125 -0.3651  0.6472
 4355SOL     OW24523   3.379   3.383   9.165 -0.0612  0.3061  0.0761
 4355SOL    HW124524   3.466   3.346   9.150  0.4998  2.2592 -1.5439
 4355SOL    HW224525   3.407   3.473   9.147  0.8108 -0.0552 -0.4170
 4356SOL     OW24526   2.922   4.417   1.860 -0.9078  0.1889 -0.0887
 4356SOL    HW124527   2.963   4.415   1.774  1.4977 -0.8283  1.0738
 4356SOL    HW224528   3.001   4.430   1.912 -0.4578 -1.5697 -0.3161
 4357SOL     OW24529   2.901   1.920   5.869 -0.0823  0.5727  1.2904
 4357SOL    HW124530   2.995   1.938   5.882  0.6352 -1.3671 -1.2417
 4357SOL    HW224531   2.892   1.827   5.892  4.2941 -0.1543  0.1182
 4358SOL     OW24532   2.860   0.676  12.136  0.3642  0.1991 -0.0844
 4358SOL    HW124533   2.939   0.686  12.188  0.1117 -1.0321  0.5579
 4358SOL    HW224534   2.873   0.591  12.093 -2.5045  0.9271 -2.3754
 4359SOL     OW24535   0.635   0.403   5.705  0.4217  0.0890  0.0515
 4359SOL    HW124536   0.603   0.369   5.621  0.2586 -0.1479  0.2108
 4359SOL    HW224537   0.728   0.381   5.708  0.9340  2.3471  0.4475
 4360SOL     OW24538   4.325   0.012   1.214 -0.0821 -0.5230 -0.1365
 4360SOL    HW124539   4.342   4.658   1.263 -0.8194 -1.4328 -1.3693
 4360SOL    HW224540   4.229   0.011   1.223 -0.2078 -1.7296 -1.5371
 4361SOL     OW24541   2.093   2.458   2.614  0.1343 -0.8003  0.8516
 4361SOL    HW124542   2.090   2.366   2.642 -1.3315 -0.5893  1.3485
 4361SOL    HW224543   1.998   2.468   2.611  0.1525 -0.6621  0.7512
 4362SOL     OW24544   1.788   2.324   5.220 -0.4673 -0.1612 -0.0066
 4362SOL    HW124545   1.767   2.230   5.221 -1.5015  0.0769  0.2089
 4362SOL    HW224546   1.882   2.313   5.230 -0.2319  0.6939 -1.2659
 4363SOL     OW24547   2.413   3.468   9.172 -0.2982  0.1171  0.2596
 4363SOL    HW124548   2.374   3.527   9.236 -2.0508  0.9832 -1.6210
 4363SOL    HW224549   2.368   3.387   9.194 -1.8688  1.4400  1.8990
 4364SOL     OW24550   0.446   2.632   3.724  0.3717 -0.2235  0.3683
 4364SOL    HW124551   0.421   2.718   3.691 -1.9950  0.2647  3.4302
 4364SOL    HW224552   0.498   2.595   3.652  2.3583  0.9215  1.2180
 4365SOL     OW24553   4.232   3.142   3.179  0.5770 -0.6596  0.2936
 4365SOL    HW124554   4.193   3.186   3.255 -2.8996 -2.4847 -0.4310
 4365SOL    HW224555   4.324   3.145   3.204  0.5639 -0.9049  0.3620
 4366SOL     OW24556   3.862   1.214  11.938 -0.0194 -0.8001 -0.0239
 4366SOL    HW124557   3.826   1.175  12.018 -0.5229  0.1797  0.2250
 4366SOL    HW224558   3.842   1.155  11.866 -0.6840  1.1151 -1.4094
 4367SOL     OW24559   2.443   1.049  16.463  0.4341  0.1173 -0.2022
 4367SOL    HW124560   2.427   1.012  16.550 -0.6967  1.1094  0.0015
 4367SOL    HW224561   2.384   0.999  16.407 -1.5461  1.8733  0.3093
 4368SOL     OW24562   1.518   4.378   4.361  0.1927  0.2881  0.1182
 4368SOL    HW124563   1.475   4.463   4.361 -2.4630 -1.0578 -1.2608
 4368SOL    HW224564   1.455   4.330   4.307 -0.4417  1.8708 -0.5248
 4369SOL     OW24565   0.508   3.766   9.960  0.3717  0.3779 -0.4876
 4369SOL    HW124566   0.479   3.750  10.050 -0.5910  0.1192 -0.8541
 4369SOL    HW224567   0.523   3.678   9.926 -1.4469 -0.4001  0.7401
 4370SOL     OW24568   0.188   1.902   5.908  0.4173  0.1606 -0.1247
 4370SOL    HW124569   0.208   1.935   5.996  0.9495 -1.0746  0.2101
 4370SOL    HW224570   0.124   1.835   5.932 -0.6338  1.7282  1.5480
 4371SOL     OW24571   3.508   2.790   8.463 -0.8358 -0.1878 -0.3404
 4371SOL    HW124572   3.570   2.729   8.503 -0.6947 -0.9451 -1.6907
 4371SOL    HW224573   3.467   2.731   8.400  1.1149 -1.1629 -0.7213
 4372SOL     OW24574   2.291   1.400   7.605 -1.0827  0.0300  0.2538
 4372SOL    HW124575   2.204   1.360   7.593 -0.0444 -2.7501  2.0668
 4372SOL    HW224576   2.277   1.461   7.677  0.7618  1.2504 -0.4286
 4373SOL     OW24577   0.572   3.533  14.535 -0.3477 -0.1738  0.1000
 4373SOL    HW124578   0.526   3.534  14.452 -0.5381 -1.5570  0.1762
 4373SOL    HW224579   0.658   3.499  14.511 -1.3105  0.4855 -4.1118
 4374SOL     OW24580   3.054   3.946   2.508 -0.1094 -0.1231  0.2222
 4374SOL    HW124581   3.098   3.928   2.590 -0.3099  0.8892  0.5468
 4374SOL    HW224582   3.060   3.861   2.463 -0.7036  0.2436 -0.5468
 4375SOL     OW24583   2.880   3.614  11.002  0.2122  0.7809  0.2205
 4375SOL    HW124584   2.930   3.600  10.921 -0.0553  0.4378  0.1131
 4375SOL    HW224585   2.924   3.687  11.045  1.9101 -1.2413  1.9258
 4376SOL     OW24586   0.696   1.019  13.501  0.1638  0.3828 -0.0362
 4376SOL    HW124587   0.763   0.979  13.445 -0.5958  2.6768 -2.5965
 4376SOL    HW224588   0.741   0.999  13.583  0.3653  0.6928 -0.0723
 4377SOL     OW24589   1.883   1.152   3.855  0.3314  0.1759 -0.0070
 4377SOL    HW124590   1.830   1.232   3.848 -2.4061 -1.7974 -1.8503
 4377SOL    HW224591   1.969   1.191   3.844  0.7337 -1.1770 -1.7603
 4378SOL     OW24592   1.443   4.360  11.207 -0.1280 -0.4383 -0.1186
 4378SOL    HW124593   1.527   4.364  11.161 -0.1230  1.6191  0.0892
 4378SOL    HW224594   1.444   4.450  11.238 -2.6114 -0.7436  0.8184
 4379SOL     OW24595   4.097   3.835   6.198 -0.3436 -0.5945 -0.0009
 4379SOL    HW124596   4.105   3.903   6.265 -3.1796  0.5297 -0.8053
 4379SOL    HW224597   4.136   3.759   6.241  1.5192 -0.0204 -0.6854
 4380SOL     OW24598   2.827   0.142   3.317  0.3803  0.3005  0.4848
 4380SOL    HW124599   2.868   0.223   3.289  0.3118  0.2180  0.1504
 4380SOL    HW224600   2.781   0.160   3.399 -1.6309 -0.5065 -0.4512
 4381SOL     OW24601   2.560   3.886   1.582  0.5082  0.4306  0.4426
 4381SOL    HW124602   2.653   3.907   1.593  0.2069  1.2956  1.3275
 4381SOL    HW224603   2.577   3.851   1.495  0.1007 -1.6194  1.1716
 4382SOL     OW24604   1.460   2.397   7.548  0.2774 -0.1785  0.5030
 4382SOL    HW124605   1.439   2.439   7.465 -2.1925 -0.7236  0.8367
 4382SOL    HW224606   1.466   2.471   7.608 -4.2120  1.6834 -1.3596
 4383SOL     OW24607   2.625   1.419  11.715 -0.1672  0.5291 -0.3737
 4383SOL    HW124608   2.531   1.424  11.731 -0.3082 -1.9743 -0.4632
 4383SOL    HW224609   2.660   1.366  11.787 -0.4398  1.6132  0.5566
 4384SOL     OW24610   1.234   4.285  17.595 -0.0764 -0.5720 -0.6157
 4384SOL    HW124611   1.284   4.363  17.616  0.6112 -0.9166 -0.9704
 4384SOL    HW224612   1.305   4.224  17.574  1.0972  0.5593  0.0774
 4385SOL     OW24613   0.706   4.284   1.963 -0.6789  0.1745  0.0847
 4385SOL    HW124614   0.771   4.215   1.948 -0.2874  1.2842 -3.4069
 4385SOL    HW224615   0.735   4.338   2.036  4.0692  0.1158 -1.7480
 4386SOL     OW24616   3.745   2.610   9.230  0.2958 -0.0763 -0.3875
 4386SOL    HW124617   3.773   2.591   9.141 -1.0540 -0.9766 -0.6253
 4386SOL    HW224618   3.727   2.520   9.257 -0.8509  0.1079 -0.5602
 4387SOL     OW24619   2.165   0.642  16.250 -0.2738 -0.0944  0.4741
 4387SOL    HW124620   2.159   0.565  16.193  1.2851  0.5019 -0.4877
 4387SOL    HW224621   2.214   0.609  16.325 -0.6798 -0.1743  0.7023
 4388SOL     OW24622   0.312   0.886   4.099 -0.3514  0.4297  0.4089
 4388SOL    HW124623   0.295   0.947   4.027 -1.2398 -2.3358 -1.6999
 4388SOL    HW224624   0.290   0.803   4.058 -0.7617 -0.4518  2.4295
 4389SOL     OW24625   0.060   4.655   6.526 -0.2798  0.3492  0.0306
 4389SOL    HW124626   0.129   4.678   6.588 -0.8509  1.7990  0.1387
 4389SOL    HW224627   4.725   0.002   6.534  2.1933  2.2513  1.6089
 4390SOL     OW24628   3.641   1.891   5.973  0.0615 -0.0830 -0.2396
 4390SOL    HW124629   3.654   1.843   5.892  2.8365 -0.1529  0.2446
 4390SOL    HW224630   3.553   1.928   5.961 -0.6716 -1.1468  1.9594
 4391SOL     OW24631   3.263   0.671   0.233  0.2695 -0.7069 -0.1539
 4391SOL    HW124632   3.203   0.602   0.205  0.9296 -1.4138  0.1777
 4391SOL    HW224633   3.342   0.627   0.201  0.9751  0.8999 -0.6439
 4392SOL     OW24634   2.467   1.490   7.953  0.4182  0.2779 -0.3835
 4392SOL    HW124635   2.492   1.468   8.043 -3.2658 -1.8993  0.1046
 4392SOL    HW224636   2.488   1.583   7.956  0.1164  0.3220  0.4198
 4393SOL     OW24637   0.996   0.741   5.835  0.8071 -0.3798 -0.3017
 4393SOL    HW124638   0.911   0.767   5.800  2.6945  3.2955 -2.1058
 4393SOL    HW224639   1.045   0.823   5.835  1.4864 -0.7853  0.2376
 4394SOL     OW24640   2.616   0.511   4.062 -0.1079 -0.0352  0.0612
 4394SOL    HW124641   2.595   0.524   3.969 -1.6204 -0.8802  0.2933
 4394SOL    HW224642   2.642   0.419   4.060 -1.1034 -0.3470  1.1022
 4395SOL     OW24643   4.346   4.179  14.016 -0.3443 -0.0872 -0.8609
 4395SOL    HW124644   4.287   4.254  14.006  0.5023  0.9025  1.7511
 4395SOL    HW224645   4.425   4.233  14.024  0.9656 -2.1176 -0.0776
 4396SOL     OW24646   3.400   0.882   4.601 -0.1820 -0.5821 -0.2271
 4396SOL    HW124647   3.421   0.944   4.671  1.5400 -0.6283 -0.7030
 4396SOL    HW224648   3.357   0.941   4.539 -1.3597 -1.0191  0.1781
 4397SOL     OW24649   1.174   1.999   5.720 -0.5505  0.4100 -0.2883
 4397SOL    HW124650   1.177   1.940   5.645 -1.1641 -2.2163  1.7548
 4397SOL    HW224651   1.110   1.954   5.774  0.8131 -2.6423 -1.2008
 4398SOL     OW24652   3.925   1.345  10.780  0.7484  0.8920 -0.1696
 4398SOL    HW124653   3.830   1.342  10.774  0.7663  0.3563 -0.1623
 4398SOL    HW224654   3.933   1.372  10.872  0.8300 -0.5205  0.2508
 4399SOL     OW24655   4.088   3.270  11.133 -0.0813 -0.1287  0.0960
 4399SOL    HW124656   4.073   3.319  11.052  0.0664 -0.1109  0.0795
 4399SOL    HW224657   4.092   3.183  11.094  0.3949 -0.0382 -0.0562
 4400SOL     OW24658   1.642   3.237   1.773 -0.0178  0.4967 -1.1594
 4400SOL    HW124659   1.635   3.325   1.737 -0.0458  2.2175  3.0952
 4400SOL    HW224660   1.587   3.240   1.851  1.2730 -1.5558 -0.1591
 4401SOL     OW24661   3.007   4.024   2.961 -0.2995 -0.5958 -0.4409
 4401SOL    HW124662   2.947   4.098   2.969  0.6623  0.1054  0.2446
 4401SOL    HW224663   2.954   3.953   2.996  0.1543 -0.9244 -0.4289
 4402SOL     OW24664   3.534   4.304   5.888 -0.5063 -0.2148 -0.3457
 4402SOL    HW124665   3.555   4.352   5.809  3.4568 -0.0967  0.7766
 4402SOL    HW224666   3.526   4.212   5.866  0.0341 -0.0523 -1.1814
 4403SOL     OW24667   2.962   0.005   8.936  0.4424  0.0120 -0.3091
 4403SOL    HW124668   3.028   4.717   9.003  1.5252  1.1359 -1.1372
 4403SOL    HW224669   2.898   4.667   8.967  1.1611 -0.5067  0.1089
 4404SOL     OW24670   2.651   2.884   9.553 -0.0556 -0.5880 -0.5212
 4404SOL    HW124671   2.626   2.919   9.468  0.1596  0.9208  0.0389
 4404SOL    HW224672   2.728   2.938   9.567 -0.6976  0.2607 -0.3228
 4405SOL     OW24673   0.875   3.102   7.497  0.0237 -0.3741  0.3301
 4405SOL    HW124674   0.913   3.189   7.490 -0.3856 -0.0979  1.6628
 4405SOL    HW224675   0.785   3.133   7.506  0.4535  1.3884 -1.4707
 4406SOL     OW24676   2.360   0.744  15.474 -0.1182  0.0299  0.2954
 4406SOL    HW124677   2.337   0.819  15.528  0.4224 -0.3928  1.1148
 4406SOL    HW224678   2.278   0.732  15.426 -0.2785  0.1383  0.5459
 4407SOL     OW24679   4.685   4.589   3.320  0.3569 -0.1466 -0.2144
 4407SOL    HW124680   4.683   4.493   3.322  0.4975 -0.1390  0.3150
 4407SOL    HW224681   4.687   4.611   3.413 -0.7987  0.9601 -0.4482
 4408SOL     OW24682   3.439   1.275   7.961 -0.3686 -0.1434  0.0170
 4408SOL    HW124683   3.351   1.239   7.973  0.5943 -2.0614  1.4219
 4408SOL    HW224684   3.422   1.365   7.988 -1.2332 -0.4054  0.3695
 4409SOL     OW24685   3.514   3.284  13.617 -0.3367  0.0340 -0.2430
 4409SOL    HW124686   3.521   3.372  13.581  0.4389 -0.0778 -0.3736
 4409SOL    HW224687   3.595   3.277  13.667  1.4989  0.6143 -3.1172
 4410SOL     OW24688   3.706   3.926   6.985 -0.0620  0.3526 -0.1970
 4410SOL    HW124689   3.647   3.852   6.992  1.9586 -1.0547  1.6162
 4410SOL    HW224690   3.680   3.970   6.903 -1.9540  1.3550  0.9356
 4411SOL     OW24691   1.527   1.903   3.285  0.6498  0.1971  0.2964
 4411SOL    HW124692   1.574   1.978   3.321 -0.1858  0.3283  1.0986
 4411SOL    HW224693   1.515   1.926   3.193 -1.3560  2.0242  1.0445
 4412SOL     OW24694   0.230   1.326   7.062  0.4954 -0.0232 -0.6477
 4412SOL    HW124695   0.152   1.377   7.086 -1.2220 -2.2811 -1.4515
 4412SOL    HW224696   0.199   1.248   7.016 -0.1271 -1.2592  1.8966
 4413SOL     OW24697   2.407   2.421   8.521  0.0818  0.0800  0.4266
 4413SOL    HW124698   2.414   2.329   8.547  0.0122 -0.8093 -2.6774
 4413SOL    HW224699   2.316   2.442   8.540  0.2667  0.1056  1.2475
 4414SOL     OW24700   2.659   3.217   5.934 -0.3409  0.9484  0.6464
 4414SOL    HW124701   2.752   3.198   5.945 -0.4169  1.8376  2.7162
 4414SOL    HW224702   2.650   3.295   5.878  1.6468 -0.1000 -1.1674
 4415SOL     OW24703   4.020   3.763   8.992  0.5048 -0.7504  0.0924
 4415SOL    HW124704   3.998   3.671   8.979  1.4096 -1.1473  1.2491
 4415SOL    HW224705   4.020   3.773   9.087  1.8161 -2.9039  0.3237
 4416SOL     OW24706   3.868   0.208  11.151 -0.0466 -0.0807 -0.3279
 4416SOL    HW124707   3.817   0.213  11.231  0.1618  0.8439 -0.2427
 4416SOL    HW224708   3.938   0.272  11.164  1.2689 -1.2557 -1.6241
 4417SOL     OW24709   0.468   4.590   7.324 -0.4837 -0.0764  0.1123
 4417SOL    HW124710   0.550   4.615   7.367 -1.2369 -0.3055  1.7050
 4417SOL    HW224711   0.434   4.678   7.309 -2.8510 -1.1437 -0.7872
 4418SOL     OW24712   0.138   2.087   6.209  0.3864  0.0521 -0.3195
 4418SOL    HW124713   0.184   2.156   6.161 -0.1142 -1.0246 -2.3376
 4418SOL    HW224714   0.045   2.110   6.205  0.8870  2.2895  0.9081
 4419SOL     OW24715   3.577   4.241   2.900  0.3029  0.2659 -0.3232
 4419SOL    HW124716   3.568   4.275   2.811  2.3427  0.5854 -0.4134
 4419SOL    HW224717   3.632   4.310   2.939 -2.3116  1.2574  1.5904
 4420SOL     OW24718   0.385   1.862  13.467 -0.1951  0.1401  0.1340
 4420SOL    HW124719   0.472   1.861  13.508 -0.0938 -2.7248 -0.1366
 4420SOL    HW224720   0.348   1.776  13.485  2.2605 -1.1394 -0.8460
 4421SOL     OW24721   2.963   2.493   4.814  0.1984  0.1847 -0.0668
 4421SOL    HW124722   2.971   2.588   4.817  0.6590  0.0764  2.2241
 4421SOL    HW224723   3.052   2.483   4.848  0.4506  3.2680  0.1825
 4422SOL     OW24724   4.169   0.848  16.814 -0.0749  0.2965  0.1471
 4422SOL    HW124725   4.235   0.800  16.864  0.3416 -0.3387 -1.0036
 4422SOL    HW224726   4.184   0.805  16.729  1.3813 -1.7527  1.4522
 4423SOL     OW24727   4.326   1.437   4.177  0.1066  0.0680  0.2864
 4423SOL    HW124728   4.378   1.434   4.257  0.0254  0.1765  0.3423
 4423SOL    HW224729   4.313   1.531   4.170 -2.9244 -0.1851  3.1828
 4424SOL     OW24730   1.338   0.449   3.948 -0.5588 -0.0077  0.1147
 4424SOL    HW124731   1.430   0.457   3.921 -0.8362  2.7313  0.0108
 4424SOL    HW224732   1.336   0.515   4.017 -0.0930 -0.2194  0.3396
 4425SOL     OW24733   0.234   0.995   2.800 -0.1865  0.1788 -0.4257
 4425SOL    HW124734   0.236   0.958   2.712  1.5096 -1.5851  0.3369
 4425SOL    HW224735   0.165   0.935   2.827  0.0491  0.0341 -0.1400
 4426SOL     OW24736   0.090   1.035   1.574  0.1015  0.4028  0.4977
 4426SOL    HW124737   0.175   1.051   1.614  1.2139 -1.7696 -1.0323
 4426SOL    HW224738   0.062   1.122   1.543  0.0453  0.6092  1.1235
 4427SOL     OW24739   0.960   3.627   3.904 -0.0938 -0.4876  0.2658
 4427SOL    HW124740   0.877   3.650   3.945 -0.2882 -2.2214  0.8250
 4427SOL    HW224741   0.962   3.536   3.934  0.5998 -0.5823 -0.0594
 4428SOL     OW24742   0.820   4.380   0.347 -0.1700  0.8278 -0.3090
 4428SOL    HW124743   0.860   4.344   0.426  0.7822  0.6417 -0.8792
 4428SOL    HW224744   0.886   4.448   0.336 -0.2081  0.7421 -1.0784
 4429SOL     OW24745   1.010   1.821  10.899 -0.5590  0.0672  0.0043
 4429SOL    HW124746   1.029   1.838  10.991 -1.1282 -0.0570  0.1466
 4429SOL    HW224747   1.096   1.785  10.876 -0.0876  0.9738  0.3905
 4430SOL     OW24748   1.864   2.980   4.712 -0.1683 -0.0753 -0.6313
 4430SOL    HW124749   1.873   2.973   4.807 -2.5190  1.2954 -0.3082
 4430SOL    HW224750   1.933   2.919   4.686 -0.7259 -0.6048 -0.8767
 4431SOL     OW24751   1.445   1.379  12.325 -0.5175  0.3490  0.1962
 4431SOL    HW124752   1.366   1.337  12.289  1.5410 -1.6748 -1.9576
 4431SOL    HW224753   1.505   1.359  12.253 -0.3550 -2.9866  1.2509
 4432SOL     OW24754   4.670   3.734  16.985 -0.3699  0.3307 -0.1928
 4432SOL    HW124755   4.646   3.827  16.976 -0.5317  0.2880 -0.1901
 4432SOL    HW224756   0.038   3.742  16.971 -0.1052 -0.7593  0.9396
 4433SOL     OW24757   1.961   1.974   1.152  0.2904  0.2668 -0.3802
 4433SOL    HW124758   1.993   1.884   1.157 -1.5942 -0.5644 -3.6155
 4433SOL    HW224759   2.035   2.013   1.107 -1.1432  1.5716 -1.6039
 4434SOL     OW24760   2.793   1.089   7.801 -0.4925 -0.2284  0.6138
 4434SOL    HW124761   2.747   1.155   7.852 -0.1960  0.8009 -0.4663
 4434SOL    HW224762   2.878   1.131   7.793 -0.9018  0.2868 -1.0091
 4435SOL     OW24763   1.075   0.946  11.072  0.3167 -0.3194  0.4961
 4435SOL    HW124764   1.074   0.982  10.984 -4.8283  0.3230  0.8607
 4435SOL    HW224765   1.142   0.878  11.064  0.1785  0.0384 -3.5430
 4436SOL     OW24766   3.625   2.357   3.203  0.5410  0.2292 -0.3156
 4436SOL    HW124767   3.608   2.416   3.276 -0.2047 -0.4977  0.1031
 4436SOL    HW224768   3.701   2.397   3.161  0.5983 -0.3081 -0.7303
 4437SOL     OW24769   4.164   2.639  13.524  0.0683  0.1576  0.4847
 4437SOL    HW124770   4.118   2.563  13.488 -0.4331 -0.2086  1.9068
 4437SOL    HW224771   4.171   2.616  13.616  1.1858  1.0044  0.6145
 4438SOL     OW24772   0.968   4.627   2.599 -0.4656  0.4438  0.5630
 4438SOL    HW124773   0.879   4.597   2.585  0.2411 -2.0799  1.3349
 4438SOL    HW224774   1.009   4.541   2.610 -0.2088  0.6072  0.9000
 4439SOL     OW24775   1.725   1.550   7.389  0.4719  0.2502 -0.0408
 4439SOL    HW124776   1.809   1.589   7.412  0.2324  0.3500  0.6840
 4439SOL    HW224777   1.674   1.567   7.469 -1.6969 -1.9026 -0.9735
 4440SOL     OW24778   4.425   1.724   1.240  0.1734 -0.4699  0.0616
 4440SOL    HW124779   4.420   1.749   1.148  1.5048  2.6641  0.8253
 4440SOL    HW224780   4.333   1.708   1.261 -0.0679  0.0452 -0.5877
 4441SOL     OW24781   2.197   0.043   3.765 -0.2007 -0.1086  0.1744
 4441SOL    HW124782   2.230   4.701   3.824  1.4784  0.6458  0.0933
 4441SOL    HW224783   2.103   0.026   3.772 -0.6748  1.5611 -2.3715
 4442SOL     OW24784   3.428   3.847   9.114  0.1282 -0.4802 -0.2052
 4442SOL    HW124785   3.353   3.906   9.129  1.0887  0.3852  1.2170
 4442SOL    HW224786   3.418   3.837   9.019  1.2239 -1.1608 -0.2415
 4443SOL     OW24787   2.246   0.004   6.135  0.5470  0.8227 -0.0206
 4443SOL    HW124788   2.185   4.675   6.185  0.3493  0.7326 -0.3581
 4443SOL    HW224789   2.319   4.725   6.196  0.4612  1.4033  0.1286
 4444SOL     OW24790   2.667   1.889   2.864 -0.3601 -0.1929 -0.2934
 4444SOL    HW124791   2.762   1.899   2.856 -0.3563  0.1700  0.1549
 4444SOL    HW224792   2.663   1.800   2.898  0.2110 -0.8127 -1.8316
 4445SOL     OW24793   2.975   1.410  11.113 -0.2599  0.0599  0.2226
 4445SOL    HW124794   2.924   1.367  11.181  1.1119 -2.5537 -0.4007
 4445SOL    HW224795   2.909   1.456  11.061  0.6349  1.9256  0.7514
 4446SOL     OW24796   2.472   1.624  11.032  0.1287  0.4686 -0.3449
 4446SOL    HW124797   2.549   1.657  10.987  0.3219  1.2180  0.5500
 4446SOL    HW224798   2.495   1.533  11.051  2.5838  1.2642  0.4236
 4447SOL     OW24799   0.141   2.769   8.179 -0.5627  0.5019 -0.5988
 4447SOL    HW124800   0.108   2.790   8.092 -0.8837  1.1850 -0.3150
 4447SOL    HW224801   0.061   2.761   8.232 -0.3593 -1.3236 -0.5827
 4448SOL     OW24802   1.970   1.458   0.627  0.3004  0.3359 -0.0494
 4448SOL    HW124803   1.901   1.414   0.676  0.7337 -1.2911 -0.8952
 4448SOL    HW224804   2.042   1.396   0.640  1.1153  1.2713 -0.0930
 4449SOL     OW24805   1.847   1.163   3.561  0.3787 -0.5470 -0.0329
 4449SOL    HW124806   1.783   1.092   3.549 -0.8602  0.0950  2.7322
 4449SOL    HW224807   1.920   1.113   3.598  1.9054  1.0723 -0.8436
 4450SOL     OW24808   0.983   3.330   7.443  0.1404  0.0737 -0.2579
 4450SOL    HW124809   1.015   3.402   7.389  0.1664  2.0373  2.3800
 4450SOL    HW224810   0.998   3.365   7.531 -2.0362 -0.0717  0.1661
 4451SOL     OW24811   4.277   3.963  11.908  0.6591 -0.7718  0.0776
 4451SOL    HW124812   4.240   3.876  11.920  0.0546 -0.7488 -1.6239
 4451SOL    HW224813   4.238   4.019  11.975 -1.2524 -0.0728 -1.6117
 4452SOL     OW24814   4.596   1.678   2.930  0.3402  0.4340  0.6945
 4452SOL    HW124815   4.634   1.742   2.990  1.8399 -1.6139  1.9435
 4452SOL    HW224816   4.672   1.667   2.873 -0.2719 -1.7163  0.2962
 4453SOL     OW24817   1.276   1.540  14.224  0.6391  0.4441  1.2197
 4453SOL    HW124818   1.239   1.505  14.305  1.3380  1.4040  1.9516
 4453SOL    HW224819   1.192   1.526  14.179  1.8044 -1.8864 -0.2208
 4454SOL     OW24820   0.103   4.151   9.794  0.2661  0.5817 -0.7578
 4454SOL    HW124821   0.175   4.102   9.753  0.2466 -0.0361 -0.0464
 4454SOL    HW224822   0.148   4.199   9.863 -0.8179 -1.6984  1.4897
 4455SOL     OW24823   2.976   1.882   1.918 -0.2813  0.0454  0.3081
 4455SOL    HW124824   2.943   1.821   1.852 -0.1213 -0.5257  0.7511
 4455SOL    HW224825   2.970   1.971   1.883 -0.8283 -0.2148 -0.2469
 4456SOL     OW24826   3.572   4.265   5.072  0.2603 -0.1874  0.3362
 4456SOL    HW124827   3.507   4.195   5.062  0.7494 -0.6812  0.6171
 4456SOL    HW224828   3.548   4.321   4.998  2.1119  1.7741  1.2387
 4457SOL     OW24829   0.726   4.283   8.685 -0.1803  0.9691 -0.2897
 4457SOL    HW124830   0.787   4.258   8.616 -2.3316  0.4780 -2.0247
 4457SOL    HW224831   0.689   4.199   8.715  1.0824  0.7765  0.7104
 4458SOL     OW24832   0.877   3.439   0.657  0.1778 -0.4591 -0.2078
 4458SOL    HW124833   0.911   3.432   0.568 -0.2384  3.4427 -0.7053
 4458SOL    HW224834   0.841   3.351   0.669  0.4664 -0.5837 -0.2571
 4459SOL     OW24835   2.467   0.298   3.278  0.1680 -0.2973  0.0273
 4459SOL    HW124836   2.515   0.362   3.329 -1.4634 -1.2288  2.7774
 4459SOL    HW224837   2.461   0.353   3.200 -1.1087 -0.9797 -0.3690
 4460SOL     OW24838   2.104   0.910   7.650 -0.5506  0.3038  0.1382
 4460SOL    HW124839   2.188   0.895   7.607 -0.8798  0.2506 -0.4874
 4460SOL    HW224840   2.135   0.952   7.730  0.6333 -2.3965  1.0674
 4461SOL     OW24841   4.475   4.417   1.612 -0.3874 -0.0175  0.3957
 4461SOL    HW124842   4.415   4.437   1.685  0.0583 -0.5276  0.9028
 4461SOL    HW224843   4.468   4.322   1.603 -4.2574  0.1537  1.5628
 4462SOL     OW24844   4.639   2.382   1.724 -0.5711 -0.0925 -0.4728
 4462SOL    HW124845   4.603   2.358   1.638  0.7045 -2.6434 -0.3015
 4462SOL    HW224846   4.638   2.298   1.769  0.9053  0.6554  0.9364
 4463SOL     OW24847   4.530   4.689   2.359 -0.1186  0.1861 -0.3981
 4463SOL    HW124848   4.606   4.690   2.417  0.4711 -2.6809 -1.0998
 4463SOL    HW224849   4.529   4.603   2.316 -1.1857 -0.8033  1.6229
 4464SOL     OW24850   2.614   1.259  11.983 -0.1720  0.3733  0.2215
 4464SOL    HW124851   2.564   1.337  12.007 -0.3093  0.4569 -0.3533
 4464SOL    HW224852   2.603   1.218  12.069 -0.1135  0.2719  0.1808
 4465SOL     OW24853   0.125   4.367   1.027  0.3486  0.1307 -0.3906
 4465SOL    HW124854   0.194   4.318   0.982  1.1847  0.3989  0.5859
 4465SOL    HW224855   0.156   4.357   1.117  1.2495  0.9642 -0.6111
 4466SOL     OW24856   2.051   1.398   5.972  0.2239  0.5675 -0.2220
 4466SOL    HW124857   2.126   1.378   5.915  1.9680  4.9473  0.5497
 4466SOL    HW224858   1.983   1.383   5.906 -0.8311  0.2097  0.9518
 4467SOL     OW24859   3.847   3.448   5.350 -0.1629  0.0674 -0.0879
 4467SOL    HW124860   3.917   3.459   5.287 -1.0037  2.3223 -0.6384
 4467SOL    HW224861   3.885   3.403   5.426 -2.0509  0.4344  1.0830
 4468SOL     OW24862   0.938   4.571   4.207  0.1456 -0.5716 -0.0825
 4468SOL    HW124863   0.869   4.506   4.192 -0.2862  0.0064 -0.5965
 4468SOL    HW224864   1.002   4.523   4.260  1.0585 -1.2592 -1.7798
 4469SOL     OW24865   1.009   1.167  17.098  0.7464 -0.2136 -0.6467
 4469SOL    HW124866   1.064   1.209  17.031  0.3545  0.2203 -0.6948
 4469SOL    HW224867   0.946   1.236  17.121  0.3816 -0.9325  0.4891
 4470SOL     OW24868   3.372   4.098   5.051  0.1614  0.3465  0.3618
 4470SOL    HW124869   3.321   4.113   4.972  0.0861 -1.9122 -0.0364
 4470SOL    HW224870   3.370   4.002   5.060  0.7563  0.3269  0.3023
 4471SOL     OW24871   0.770   4.052   2.536 -0.0038  0.6219  0.0191
 4471SOL    HW124872   0.760   4.019   2.447 -0.2856  0.7245  0.0149
 4471SOL    HW224873   0.743   3.976   2.589 -2.3526  1.1504 -0.4326
 4472SOL     OW24874   4.361   2.771   2.112  0.1226  0.1111  0.2501
 4472SOL    HW124875   4.301   2.705   2.147 -0.5918  0.1264 -0.9449
 4472SOL    HW224876   4.315   2.853   2.124  0.3250 -0.0203  1.9105
 4473SOL     OW24877   2.355   0.569   5.999  0.2063 -0.3307 -0.0330
 4473SOL    HW124878   2.325   0.485   6.034 -0.3247  0.8021  2.2085
 4473SOL    HW224879   2.374   0.558   5.906 -1.8315  0.5646 -0.5469
 4474SOL     OW24880   4.152   2.520  15.578  0.6080 -0.1351 -0.4835
 4474SOL    HW124881   4.078   2.522  15.516  1.1348  1.6370 -1.0351
 4474SOL    HW224882   4.229   2.506  15.523  0.4613  0.9471 -0.9514
 4475SOL     OW24883   1.941   1.932   6.558 -0.5757  0.3869  0.3054
 4475SOL    HW124884   1.914   1.996   6.623 -0.6040  1.4877 -0.7937
 4475SOL    HW224885   2.020   1.906   6.606  0.7748  0.0806 -2.0996
 4476SOL     OW24886   3.841   3.543  16.773 -0.1002  0.2674  0.5821
 4476SOL    HW124887   3.886   3.545  16.688 -1.9436 -0.8428 -0.4102
 4476SOL    HW224888   3.876   3.459  16.800 -2.8739 -0.5080  1.6578
 4477SOL     OW24889   2.617   2.683   3.337  0.3133  0.7581 -0.2083
 4477SOL    HW124890   2.558   2.753   3.309 -0.9121  0.2045  0.9734
 4477SOL    HW224891   2.684   2.686   3.270 -1.0769  0.7698 -1.6058
 4478SOL     OW24892   2.156   4.090   7.097  0.0347  0.1446  0.3543
 4478SOL    HW124893   2.086   4.116   7.157  0.3332 -0.8789  1.1588
 4478SOL    HW224894   2.205   4.035   7.159  0.8474  0.7774  0.2760
 4479SOL     OW24895   4.671   0.973  10.446  0.1256  0.2168  0.4034
 4479SOL    HW124896   4.621   0.998  10.524  1.9657  0.4613  1.4909
 4479SOL    HW224897   4.616   1.012  10.378  2.5120  0.4002 -1.4074
 4480SOL     OW24898   0.531   0.714   2.483 -0.6872  0.2191 -0.0924
 4480SOL    HW124899   0.530   0.745   2.574  1.5217 -0.6986  0.2455
 4480SOL    HW224900   0.527   0.790   2.424  2.6480  0.8361  0.4779
 4481SOL     OW24901   1.141   1.653   2.594  0.4242  0.2428  0.0454
 4481SOL    HW124902   1.169   1.737   2.630  0.5973  0.2917 -0.2011
 4481SOL    HW224903   1.216   1.631   2.538  0.4286 -0.2803  0.2550
 4482SOL     OW24904   3.141   2.294   3.193 -0.6114  0.1579  0.2324
 4482SOL    HW124905   3.121   2.201   3.201 -0.9806  0.2506  0.3957
 4482SOL    HW224906   3.059   2.331   3.225  0.7931  3.7534 -0.3038
 4483SOL     OW24907   3.438   2.546  14.413 -0.0943  0.5505 -0.1792
 4483SOL    HW124908   3.411   2.466  14.457  0.1518  0.3232 -0.4438
 4483SOL    HW224909   3.484   2.587  14.486  1.5910 -0.7345 -0.5218
 4484SOL     OW24910   2.277   4.475   2.226  0.5397 -0.5946 -0.0359
 4484SOL    HW124911   2.183   4.462   2.218  0.4775  0.0444 -0.3051
 4484SOL    HW224912   2.309   4.418   2.156 -0.4843  1.4060 -2.1426
 4485SOL     OW24913   0.161   3.669   1.877  0.4506 -0.2677  0.2479
 4485SOL    HW124914   0.228   3.612   1.915  1.6570  1.0819  0.1257
 4485SOL    HW224915   0.183   3.667   1.784  4.2156 -1.9832  1.1762
 4486SOL     OW24916   3.994   0.212  16.218  0.0759  0.3254  0.3937
 4486SOL    HW124917   3.962   0.271  16.149  2.1261  1.1712  0.1560
 4486SOL    HW224918   4.035   0.146  16.162 -1.5886 -1.5039  1.3593
 4487SOL     OW24919   2.741   1.196   3.087 -0.0684  0.5231 -0.1521
 4487SOL    HW124920   2.697   1.237   3.012  0.7206  2.3342  0.3597
 4487SOL    HW224921   2.699   1.111   3.080  0.5381  0.3254 -1.4873
 4488SOL     OW24922   3.790   4.437  17.562 -0.0628  0.0441 -0.1128
 4488SOL    HW124923   3.799   4.523  17.602 -1.1141  0.7508 -1.3647
 4488SOL    HW224924   3.857   4.383  17.604 -0.0044  0.6077  0.5134
 4489SOL     OW24925   0.659   1.641   8.281 -0.0833  0.3988 -0.3118
 4489SOL    HW124926   0.601   1.584   8.230  0.9400  0.2786 -1.3238
 4489SOL    HW224927   0.737   1.649   8.227  2.5732 -0.4405  3.4059
 4490SOL     OW24928   1.282   1.428   9.101 -0.1771 -0.2690 -0.3498
 4490SOL    HW124929   1.201   1.478   9.084 -0.4134 -0.5051  0.0882
 4490SOL    HW224930   1.338   1.505   9.091 -1.5359  0.9408  1.2829
 4491SOL     OW24931   3.258   1.928   7.901  0.2241 -0.1322 -0.3269
 4491SOL    HW124932   3.314   1.992   7.946  1.0096 -0.6934 -0.5120
 4491SOL    HW224933   3.312   1.850   7.905  1.7572  0.8605 -1.9266
 4492SOL     OW24934   1.812   3.550   3.899 -0.1940  0.3939 -0.0099
 4492SOL    HW124935   1.798   3.488   3.971  1.7583  1.5307  1.3183
 4492SOL    HW224936   1.726   3.585   3.874 -0.1172  0.5369 -0.0746
 4493SOL     OW24937   4.124   1.283   1.987  0.1747 -0.4364  0.1388
 4493SOL    HW124938   4.200   1.334   2.014  0.6783 -0.5743 -1.0258
 4493SOL    HW224939   4.116   1.295   1.893  0.6231 -2.2595 -0.1367
 4494SOL     OW24940   0.740   0.829   6.055 -0.6442  0.3093  0.3576
 4494SOL    HW124941   0.738   0.864   5.966  1.8639  0.5247  0.3800
 4494SOL    HW224942   0.769   0.737   6.058  1.1380  0.8232 -0.9992
 4495SOL     OW24943   2.505   2.858   4.541 -0.4222  0.2143  0.3090
 4495SOL    HW124944   2.584   2.830   4.586  0.7378  0.5704 -1.5055
 4495SOL    HW224945   2.498   2.952   4.554  0.0102  0.1092  1.2489
 4496SOL     OW24946   0.187   4.153  14.347  0.3279 -0.6037 -0.5135
 4496SOL    HW124947   0.162   4.245  14.339  0.7729 -0.5916 -1.6854
 4496SOL    HW224948   0.103   4.111  14.327 -0.8717  1.1504  0.8307
 4497SOL     OW24949   1.686   2.164   2.992 -0.8495 -0.1514  0.1548
 4497SOL    HW124950   1.663   2.219   2.917 -0.0819 -2.5426 -1.8308
 4497SOL    HW224951   1.763   2.208   3.028  1.4876 -3.3869 -0.8250
 4498SOL     OW24952   2.061   3.943   4.465 -1.2402  0.3710 -0.5833
 4498SOL    HW124953   2.046   3.858   4.506 -2.6300  0.9145  0.0123
 4498SOL    HW224954   2.065   3.928   4.370 -1.5973  0.7029 -0.6475
 4499SOL     OW24955   0.276   0.302  16.940  0.1498 -0.3787 -0.2443
 4499SOL    HW124956   0.359   0.342  16.913 -1.0471  2.2801 -0.0086
 4499SOL    HW224957   0.289   0.225  16.885  1.3356  0.7804 -1.5801
 4500SOL     OW24958   4.411   3.168   7.953  0.4417  0.2466  0.1915
 4500SOL    HW124959   4.345   3.109   7.987 -0.8288  0.9818 -1.0254
 4500SOL    HW224960   4.357   3.220   7.894 -2.5667 -2.0071  0.9955
 4501SOL     OW24961   2.262   3.745  16.361 -0.4396  0.4394  0.0162
 4501SOL    HW124962   2.219   3.675  16.311  1.8262 -0.4159 -0.7864
 4501SOL    HW224963   2.341   3.693  16.377  0.1730  0.8422 -1.7236
 4502SOL     OW24964   2.566   0.569   1.519  0.1956  0.5359 -0.0163
 4502SOL    HW124965   2.633   0.623   1.562  1.3302  1.1992 -2.6117
 4502SOL    HW224966   2.547   0.606   1.433  0.4431  1.6759  0.4207
 4503SOL     OW24967   3.817   0.927   0.313  0.7792 -0.0717 -0.5851
 4503SOL    HW124968   3.794   0.936   0.405  1.6312 -0.1463 -0.3682
 4503SOL    HW224969   3.728   0.910   0.282  0.8077 -0.4437 -0.4645
 4504SOL     OW24970   2.907   1.256   4.431 -0.3586  0.5480  0.3404
 4504SOL    HW124971   2.902   1.233   4.524 -1.2863  1.5476  0.5456
 4504SOL    HW224972   2.815   1.253   4.404  0.1266 -0.9798 -1.1543
 4505SOL     OW24973   3.455   4.035   8.054  0.0559 -0.3422  0.2484
 4505SOL    HW124974   3.469   4.105   7.990 -1.9763 -0.8904 -0.7993
 4505SOL    HW224975   3.390   3.989   8.001 -1.5301  1.5011  0.6013
 4506SOL     OW24976   0.111   1.735   4.231 -0.1125 -0.1055  0.0349
 4506SOL    HW124977   0.059   1.687   4.166  0.6473  0.7381 -1.1857
 4506SOL    HW224978   0.145   1.796   4.166  1.1464 -1.8139 -0.9253
 4507SOL     OW24979   0.337   3.329   4.467 -0.4296 -0.4324 -0.2799
 4507SOL    HW124980   0.394   3.357   4.538 -0.4422  0.5297 -0.6570
 4507SOL    HW224981   0.372   3.381   4.395 -0.8769 -1.3421 -1.1492
 4508SOL     OW24982   4.608   2.096   6.973  0.1152  0.3451  0.0151
 4508SOL    HW124983   4.596   2.028   6.908  1.8369  0.3406 -0.3152
 4508SOL    HW224984   4.577   2.046   7.048  1.4780  0.6005  0.7582
 4509SOL     OW24985   1.916   2.133   2.517 -0.1561  1.1463 -0.2244
 4509SOL    HW124986   1.862   2.202   2.481  0.3681  2.7650  2.1134
 4509SOL    HW224987   1.968   2.105   2.441 -1.8927 -0.7879 -0.6997
 4510SOL     OW24988   2.169   2.784  10.663 -0.4269  0.0563  0.1068
 4510SOL    HW124989   2.085   2.827  10.644 -0.3794 -0.3710 -1.0569
 4510SOL    HW224990   2.219   2.854  10.704 -0.2913  1.1411 -1.9093
 4511SOL     OW24991   4.156   0.794   4.047 -0.0365  0.0858 -0.2530
 4511SOL    HW124992   4.238   0.844   4.051 -0.4674  0.7888 -0.2303
 4511SOL    HW224993   4.150   0.756   3.960  1.6140 -2.7139  0.8817
 4512SOL     OW24994   4.396   4.267   7.682 -0.3225  0.1341  0.8448
 4512SOL    HW124995   4.339   4.319   7.625  1.8368  1.1593 -0.3792
 4512SOL    HW224996   4.377   4.176   7.661  0.3147  0.6307 -1.8071
 4513SOL     OW24997   0.281   2.247  16.146 -0.3210  0.4502  0.0985
 4513SOL    HW124998   0.323   2.310  16.203  1.2670 -2.5705  2.2580
 4513SOL    HW224999   0.223   2.200  16.206 -2.2820 -0.2806 -2.3355
 4514SOL     OW25000   2.681   1.410  17.232 -0.0562  0.6289 -0.0418
 4514SOL    HW125001   2.639   1.494  17.251 -0.4406  0.5244 -0.4400
 4514SOL    HW225002   2.723   1.395  17.317  0.8504  1.1457 -0.4012
 4515SOL     OW25003   3.438   0.407   3.135 -0.1171  0.3159  0.3803
 4515SOL    HW125004   3.363   0.466   3.141 -0.0670  0.5085 -0.8320
 4515SOL    HW225005   3.477   0.422   3.221 -0.8929  2.6515  0.3085
 4516SOL     OW25006   3.726   0.256   2.815 -0.2505 -0.6938 -0.2590
 4516SOL    HW125007   3.633   0.251   2.839 -0.2332  5.6623  1.1385
 4516SOL    HW225008   3.743   0.179   2.762  0.2262 -0.8321  0.0951
 4517SOL     OW25009   4.416   0.623   4.351 -0.3988  0.1155 -0.1283
 4517SOL    HW125010   4.444   0.636   4.442 -2.4611  0.3260  0.4706
 4517SOL    HW225011   4.440   0.530   4.342 -0.5816 -0.1938  2.6886
 4518SOL     OW25012   2.362   1.559   3.598  0.5451 -0.8209 -0.1448
 4518SOL    HW125013   2.307   1.564   3.676  1.8655 -1.2788  0.8096
 4518SOL    HW225014   2.319   1.497   3.539 -2.7628  0.7732  0.6297
 4519SOL     OW25015   1.878   4.466  13.171 -0.3047 -0.0004 -0.2315
 4519SOL    HW125016   1.889   4.491  13.079 -0.1340 -0.3346 -0.3022
 4519SOL    HW225017   1.910   4.546  13.212  1.7544 -0.9759  0.0538
 4520SOL     OW25018   3.515   1.176   6.687  0.1079  0.1752  0.6117
 4520SOL    HW125019   3.581   1.110   6.708 -2.4741 -2.3616  0.7087
 4520SOL    HW225020   3.490   1.183   6.779  1.5153 -0.2931  1.0212
 4521SOL     OW25021   1.015   3.767  11.474  0.4576 -0.2480 -0.2497
 4521SOL    HW125022   1.072   3.843  11.485  0.4732 -0.1542 -0.9776
 4521SOL    HW225023   1.076   3.706  11.432 -0.7672 -1.1469 -0.7292
 4522SOL     OW25024   3.374   1.153   3.826 -0.4411  0.7713 -0.1409
 4522SOL    HW125025   3.415   1.068   3.837 -0.0520  0.8056 -1.3636
 4522SOL    HW225026   3.449   1.210   3.810  0.7384 -0.1607  2.0906
 4523SOL     OW25027   4.284   2.598   8.880 -0.2165  0.2961  0.3376
 4523SOL    HW125028   4.293   2.506   8.855  0.2959  1.0845 -2.4547
 4523SOL    HW225029   4.296   2.636   8.793  0.2851 -0.3716  0.1096
 4524SOL     OW25030   0.386   0.483   2.028  0.0720 -0.1084 -0.4590
 4524SOL    HW125031   0.358   0.400   2.067 -2.0167 -0.2261 -2.2361
 4524SOL    HW225032   0.309   0.521   1.986  0.8231  0.3788 -1.3991
 4525SOL     OW25033   2.176   3.771   0.457 -0.5883 -0.1900  0.2394
 4525SOL    HW125034   2.238   3.843   0.445  0.3479 -1.1219 -0.5569
 4525SOL    HW225035   2.095   3.819   0.472  0.0854  1.7732 -2.4071
 4526SOL     OW25036   3.836   4.368   1.084 -0.2692 -0.5128  0.0856
 4526SOL    HW125037   3.864   4.447   1.038 -0.9915 -1.1677 -1.4508
 4526SOL    HW225038   3.744   4.394   1.086 -0.8190 -2.5886  2.6097
 4527SOL     OW25039   3.833   1.411   8.691 -0.9258  0.7572  0.1272
 4527SOL    HW125040   3.795   1.383   8.608 -2.4595  0.8835  0.7881
 4527SOL    HW225041   3.834   1.506   8.680  0.0461  0.5344 -1.6102
 4528SOL     OW25042   0.820   4.225   1.461  0.3385  0.3218  0.2585
 4528SOL    HW125043   0.754   4.287   1.431 -0.5275 -1.0390 -0.5812
 4528SOL    HW225044   0.812   4.148   1.406 -2.1084  2.1477 -1.9050
 4529SOL     OW25045   2.625   3.616  11.064 -0.5744  0.3781  0.1598
 4529SOL    HW125046   2.718   3.611  11.042 -0.3445 -0.7326  1.3687
 4529SOL    HW225047   2.620   3.565  11.145  0.6594 -2.3447 -1.5107
 4530SOL     OW25048   0.286   3.858   6.392  0.1010 -0.3297 -0.2369
 4530SOL    HW125049   0.327   3.803   6.326  3.4867 -0.0059  1.6016
 4530SOL    HW225050   0.364   3.874   6.445  1.5149 -1.4915 -1.9757
 4531SOL     OW25051   2.608   1.937   1.371  0.4961 -0.2975 -0.1182
 4531SOL    HW125052   2.698   1.924   1.403 -0.0784 -0.8140  1.3000
 4531SOL    HW225053   2.583   1.846   1.359  0.0232 -0.3170  0.9878
 4532SOL     OW25054   2.404   0.851   5.178 -0.0543 -0.2284 -0.0528
 4532SOL    HW125055   2.395   0.779   5.241 -2.6116  1.8064  1.9006
 4532SOL    HW225056   2.491   0.887   5.198 -0.6363  1.7459 -1.1333
 4533SOL     OW25057   3.540   0.553   5.691 -0.0197 -0.8160 -0.1840
 4533SOL    HW125058   3.585   0.636   5.706 -2.6297  0.9475 -2.1978
 4533SOL    HW225059   3.489   0.553   5.772 -0.8557 -2.2582 -0.6994
 4534SOL     OW25060   1.624   0.377   9.784 -0.4135  0.6375  0.3613
 4534SOL    HW125061   1.589   0.309   9.727  0.3999  0.7591 -0.2719
 4534SOL    HW225062   1.669   0.333   9.856 -4.0114 -3.2729  0.2088
 4535SOL     OW25063   2.802   0.892  16.683 -0.5495  0.2205  0.6931
 4535SOL    HW125064   2.754   0.826  16.734  1.1024 -1.2861  0.2786
 4535SOL    HW225065   2.773   0.978  16.713  0.1772 -0.0271  2.1148
 4536SOL     OW25066   3.513   2.879   6.389 -0.3551 -0.2356 -0.2614
 4536SOL    HW125067   3.532   2.815   6.457 -0.3801 -0.3299 -0.3422
 4536SOL    HW225068   3.461   2.940   6.441  1.5526  0.0872  1.2401
 4537SOL     OW25069   2.250   0.683   4.367 -0.0891  0.0772 -0.3913
 4537SOL    HW125070   2.251   0.629   4.446  1.4305 -1.4847 -1.4693
 4537SOL    HW225071   2.330   0.658   4.320  0.6229  2.5787 -0.5226
 4538SOL     OW25072   1.268   4.166   4.680  0.7098  0.4857  0.5770
 4538SOL    HW125073   1.332   4.113   4.632 -1.1910 -0.5282 -0.8654
 4538SOL    HW225074   1.334   4.172   4.750 -1.1959  2.3005  2.2110
 4539SOL     OW25075   4.207   3.998   7.304 -0.1142 -0.1141  0.5626
 4539SOL    HW125076   4.120   4.009   7.266 -0.0453  0.4530  0.5742
 4539SOL    HW225077   4.185   3.980   7.396 -3.2329  2.0194  0.2140
 4540SOL     OW25078   1.326   3.093   3.324  0.3332 -0.6584  0.1338
 4540SOL    HW125079   1.333   3.008   3.279  2.7578 -0.7299  0.6299
 4540SOL    HW225080   1.382   3.145   3.268 -0.4800  0.4216  0.3285
 4541SOL     OW25081   1.958   2.806   5.180  0.5909 -0.4662  0.3622
 4541SOL    HW125082   1.899   2.802   5.256  2.5335  2.6147  2.0136
 4541SOL    HW225083   1.893   2.785   5.113 -0.3513 -0.8712  1.3945
 4542SOL     OW25084   2.222   3.475  13.438  0.1115  0.4408 -0.4779
 4542SOL    HW125085   2.284   3.526  13.491  0.7098 -0.5559 -0.2097
 4542SOL    HW225086   2.147   3.533  13.438 -0.4045 -0.2264  1.4843
 4543SOL     OW25087   2.995   3.352  13.737 -0.0047  0.2871  0.0010
 4543SOL    HW125088   2.949   3.285  13.687  1.2007  0.0008 -0.7178
 4543SOL    HW225089   2.949   3.344  13.820  0.0146 -0.7177 -0.0798
 4544SOL     OW25090   4.537   0.603  11.753 -0.3318  0.3130  0.4080
 4544SOL    HW125091   4.633   0.594  11.750 -0.2386  1.3169  0.5644
 4544SOL    HW225092   4.527   0.645  11.839 -1.7344 -0.5590  0.6673
 4545SOL     OW25093   1.291   0.192   8.211 -0.2464  0.1782  0.5632
 4545SOL    HW125094   1.207   0.158   8.180  0.5293 -1.1227 -0.1063
 4545SOL    HW225095   1.277   0.282   8.240 -0.7657  0.7769 -1.5896
 4546SOL     OW25096   3.702   0.954   1.154  0.4250 -0.0475 -0.2655
 4546SOL    HW125097   3.638   1.012   1.114 -1.4886 -2.6288 -0.9620
 4546SOL    HW225098   3.711   0.996   1.239  1.4974 -0.8032 -0.0001
 4547SOL     OW25099   2.426   1.707   5.459 -0.6193 -0.2197  0.5013
 4547SOL    HW125100   2.508   1.677   5.499  1.0308  2.9883 -0.4954
 4547SOL    HW225101   2.439   1.678   5.369  0.0997 -1.1776  0.9131
 4548SOL     OW25102   0.792   3.641   9.130 -0.5827  0.1678 -0.5969
 4548SOL    HW125103   0.851   3.697   9.181 -1.9222  2.1207 -1.1925
 4548SOL    HW225104   0.714   3.653   9.184  0.9543 -2.4300  2.2461
 4549SOL     OW25105   0.657   1.319   2.235 -0.0085  0.0439 -0.3706
 4549SOL    HW125106   0.594   1.391   2.229 -0.1847  0.0356  1.4355
 4549SOL    HW225107   0.596   1.247   2.215  1.3574 -1.4749  0.9235
 4550SOL     OW25108   3.100   0.947  16.412 -0.4822  0.2885 -0.1514
 4550SOL    HW125109   3.014   0.907  16.400 -0.0353 -0.1575 -1.8486
 4550SOL    HW225110   3.130   0.902  16.491  2.7737 -0.2818 -1.6954
 4551SOL     OW25111   0.098   1.231   2.639 -0.9760 -0.9256 -0.1825
 4551SOL    HW125112   0.171   1.176   2.610 -0.5351 -0.1587 -0.5218
 4551SOL    HW225113   0.121   1.262   2.726 -2.1789 -0.7309  0.0698
 4552SOL     OW25114   4.556   3.813   7.807 -0.0096 -0.1563  0.7687
 4552SOL    HW125115   4.530   3.757   7.735 -1.3166 -0.5457  1.5487
 4552SOL    HW225116   4.604   3.874   7.751 -2.4236  0.9599 -0.0731
 4553SOL     OW25117   0.478   0.891   2.248  0.2886  0.1869  0.3301
 4553SOL    HW125118   0.497   0.980   2.220  0.8235  0.5643  1.8890
 4553SOL    HW225119   0.393   0.900   2.291  0.4780 -0.3492  0.8108
 4554SOL     OW25120   4.255   2.409   0.432  0.4089  0.2150 -0.0896
 4554SOL    HW125121   4.236   2.451   0.348  0.4899  1.0367  0.3058
 4554SOL    HW225122   4.245   2.482   0.493 -2.6655  0.4991 -0.9350
 4555SOL     OW25123   2.317   4.417   6.127 -0.0209 -0.6148 -0.5569
 4555SOL    HW125124   2.287   4.391   6.214 -1.1228 -0.4606 -0.8844
 4555SOL    HW225125   2.380   4.485   6.150 -3.4058  2.7879 -1.3842
 4556SOL     OW25126   4.576   4.507   4.729  0.4561 -0.0436 -0.6477
 4556SOL    HW125127   4.591   4.454   4.651  0.3630  1.1766 -1.4812
 4556SOL    HW225128   4.488   4.476   4.752  0.8714 -1.1003 -0.4674
 4557SOL     OW25129   1.417   3.483  10.918 -0.1088  0.6316 -0.1067
 4557SOL    HW125130   1.364   3.407  10.942  3.3555 -1.6116  0.5049
 4557SOL    HW225131   1.353   3.553  10.911 -1.1296 -0.5068 -2.2020
 4558SOL     OW25132   0.201   2.425   5.443  0.0596 -0.2819 -0.2519
 4558SOL    HW125133   0.124   2.369   5.459  0.9921 -1.4459  0.1670
 4558SOL    HW225134   0.249   2.375   5.377  0.1414  3.3908 -2.9666
 4559SOL     OW25135   4.480   1.537   6.062  0.6694 -0.6201 -0.2470
 4559SOL    HW125136   4.415   1.558   5.995 -1.2744  1.8699  2.4246
 4559SOL    HW225137   4.506   1.450   6.032  0.1418 -1.6309  2.2470
 4560SOL     OW25138   0.756   3.834  11.447  0.2143  0.0062  0.0335
 4560SOL    HW125139   0.844   3.801  11.466  0.3906  0.1944 -0.4713
 4560SOL    HW225140   0.750   3.909  11.507  2.5700  0.7316 -0.6607
 4561SOL     OW25141   1.585   3.563   3.379  0.5189 -0.6031 -0.2585
 4561SOL    HW125142   1.521   3.633   3.385 -0.1753 -1.2768  0.1566
 4561SOL    HW225143   1.638   3.588   3.455  1.5316 -0.1677 -1.0995
 4562SOL     OW25144   1.100   3.575   4.718 -0.6378 -0.2761  0.2238
 4562SOL    HW125145   1.173   3.611   4.768 -0.7271  0.4987 -0.2100
 4562SOL    HW225146   1.041   3.650   4.712  0.7277  0.9199  1.6825
 4563SOL     OW25147   0.760   0.846   5.728  0.5362  0.3713 -0.1118
 4563SOL    HW125148   0.687   0.905   5.748 -0.0528 -1.1322  2.1770
 4563SOL    HW225149   0.748   0.823   5.636  0.9216 -0.4104  0.0423
 4564SOL     OW25150   4.063   4.708   2.358  0.4278  0.0486  0.2532
 4564SOL    HW125151   4.012   0.048   2.405  1.3108  0.2516  0.9208
 4564SOL    HW225152   4.150   0.017   2.379  0.9803 -1.1957  0.0237
 4565SOL     OW25153   0.531   3.343   3.981  0.3697  0.3651  0.0579
 4565SOL    HW125154   0.584   3.276   3.937 -0.4183 -0.3291  0.1682
 4565SOL    HW225155   0.542   3.428   3.937 -0.1424  0.3347 -0.1270
 4566SOL     OW25156   1.146   1.556   2.942  0.1894  0.3786  0.3757
 4566SOL    HW125157   1.155   1.636   2.994 -3.2708  0.1087  1.3298
 4566SOL    HW225158   1.231   1.543   2.898 -1.6708 -1.6500 -2.5789
 4567SOL     OW25159   3.508   1.779   4.068  0.3231 -0.7676 -0.3979
 4567SOL    HW125160   3.591   1.735   4.045 -0.7488 -1.6509 -2.6362
 4567SOL    HW225161   3.471   1.720   4.133  0.3233  0.2187  0.4908
 4568SOL     OW25162   1.930   2.091   9.240 -0.5357 -0.2390 -0.1747
 4568SOL    HW125163   2.018   2.058   9.258 -0.5511  0.1482  0.6216
 4568SOL    HW225164   1.937   2.082   9.145  3.5359  1.3490 -0.0153
 4569SOL     OW25165   1.118   2.955   4.414  0.0865 -0.2737 -0.0121
 4569SOL    HW125166   1.182   2.971   4.483  0.5184 -0.6814 -0.3236
 4569SOL    HW225167   1.047   3.014   4.442  1.1161  0.5875  0.7777
 4570SOL     OW25168   4.271   1.797   6.763  0.2269  0.6189  0.8107
 4570SOL    HW125169   4.246   1.705   6.774  0.8310  0.0402 -2.7561
 4570SOL    HW225170   4.204   1.823   6.700  2.2201  1.1679 -1.0596
 4571SOL     OW25171   3.990   3.586   1.885 -0.0379  0.3625 -0.0348
 4571SOL    HW125172   3.922   3.597   1.951  0.9118  0.4832  0.9297
 4571SOL    HW225173   4.028   3.504   1.917  0.1486  0.5177  0.1392
 4572SOL     OW25174   4.391   3.273  10.552  0.6669  0.5022 -0.5595
 4572SOL    HW125175   4.440   3.203  10.595  0.2235 -0.5346 -1.7432
 4572SOL    HW225176   4.309   3.267  10.600 -0.1500  0.4725 -1.9634
 4573SOL     OW25177   3.686   4.122   7.179 -0.3420  0.0300 -0.1940
 4573SOL    HW125178   3.696   4.035   7.140  0.5941  0.1496 -0.2085
 4573SOL    HW225179   3.685   4.095   7.271 -0.2291  0.8254  0.0427
 4574SOL     OW25180   3.853   3.374  17.653  0.3587  0.3899  0.4541
 4574SOL    HW125181   3.824   3.366  17.562 -1.0426 -1.2041  1.0426
 4574SOL    HW225182   3.811   3.453  17.684 -1.5680 -0.4188 -0.0784
 4575SOL     OW25183   4.181   2.835   3.334  0.3519  0.1289  0.2443
 4575SOL    HW125184   4.271   2.814   3.360  0.5300  1.0605  0.3700
 4575SOL    HW225185   4.128   2.825   3.413 -0.6069 -1.6235 -0.6132
 4576SOL     OW25186   0.074   3.671   7.598  0.0240  0.5890  0.4697
 4576SOL    HW125187   0.003   3.715   7.551  0.1267  0.7657  0.4799
 4576SOL    HW225188   0.044   3.583   7.622  1.4838 -0.4760 -1.6765
 4577SOL     OW25189   1.221   1.647   4.224 -0.2733 -0.2775 -0.1769
 4577SOL    HW125190   1.258   1.713   4.283 -0.9965 -1.8780  2.0808
 4577SOL    HW225191   1.207   1.696   4.144 -0.8905  1.7940  1.2049
 4578SOL     OW25192   0.959   1.988  17.705 -0.1942  0.6669 -0.0059
 4578SOL    HW125193   1.050   1.996   0.028 -0.4975  0.3565  1.0448
 4578SOL    HW225194   0.920   2.009   0.084  0.4413  1.3944  0.1096
 4579SOL     OW25195   4.247   0.116  11.301 -0.4624  0.7300  0.5767
 4579SOL    HW125196   4.205   0.122  11.215 -0.3990 -0.1051  0.4887
 4579SOL    HW225197   4.184   0.170  11.349 -0.4787 -0.4152  1.8454
 4580SOL     OW25198   3.601   2.379   7.859 -0.1945 -0.1631 -0.0465
 4580SOL    HW125199   3.677   2.424   7.896 -1.3661  0.4180  1.6705
 4580SOL    HW225200   3.579   2.443   7.792  1.0554 -0.7721 -1.0333
 4581SOL     OW25201   4.455   4.388   4.281  0.1616 -0.1242  0.6316
 4581SOL    HW125202   4.370   4.385   4.236  0.1889 -0.4616  0.6021
 4581SOL    HW225203   4.471   4.479   4.303 -1.9117  0.1127  1.1793
 4582SOL     OW25204   1.192   4.042   5.786 -0.3940  0.3209  0.2186
 4582SOL    HW125205   1.208   4.000   5.701 -2.6426 -0.9816  0.4442
 4582SOL    HW225206   1.100   4.029   5.805  0.0033  0.3647  2.1818
 4583SOL     OW25207   2.442   1.294  10.677  0.0862 -0.5876  0.0584
 4583SOL    HW125208   2.472   1.271  10.765  2.3156  1.0675 -0.2781
 4583SOL    HW225209   2.498   1.369  10.659  3.0449 -2.8181 -0.0716
 4584SOL     OW25210   0.521   0.880   1.751 -0.2183  0.5714 -0.7965
 4584SOL    HW125211   0.592   0.941   1.773 -0.8767  1.1395 -0.2393
 4584SOL    HW225212   0.501   0.907   1.661 -0.9155  1.2681 -0.4276
 4585SOL     OW25213   2.567   3.726  12.809 -0.3628  0.5675 -0.1169
 4585SOL    HW125214   2.507   3.787  12.851 -1.4323 -1.5159  1.3787
 4585SOL    HW225215   2.506   3.672  12.759 -0.2303 -0.8314  1.2265
 4586SOL     OW25216   2.367   2.465  17.428 -0.5745 -0.1219 -0.2389
 4586SOL    HW125217   2.363   2.558  17.447 -0.6747 -0.1118 -0.3065
 4586SOL    HW225218   2.426   2.461  17.353  0.9261  1.4698  0.8601
 4587SOL     OW25219   3.101   2.994  13.511 -0.0134  0.5650 -0.2447
 4587SOL    HW125220   3.157   3.071  13.511  0.1218  0.4815  1.7366
 4587SOL    HW225221   3.135   2.938  13.581 -2.3268  0.6274  0.9529
 4588SOL     OW25222   2.170   1.667  10.149  0.3055 -0.0413 -0.0875
 4588SOL    HW125223   2.145   1.640  10.061  0.4780  0.6572 -0.3473
 4588SOL    HW225224   2.100   1.632  10.205  0.7634 -0.1970  0.3880
 4589SOL     OW25225   3.387   2.265   4.949  0.2892 -0.3000  0.4088
 4589SOL    HW125226   3.378   2.189   4.890 -0.3804 -1.7036  2.3194
 4589SOL    HW225227   3.475   2.295   4.926  0.1020  0.2882  0.4610
 4590SOL     OW25228   1.677   4.318   5.733 -0.7315  0.7891  0.1580
 4590SOL    HW125229   1.725   4.333   5.652 -3.4283 -0.3271 -1.6402
 4590SOL    HW225230   1.591   4.348   5.704 -2.3009 -1.5584  2.3859
 4591SOL     OW25231   4.396   4.246   0.366 -0.0484  0.2878 -0.7526
 4591SOL    HW125232   4.424   4.192   0.440 -2.8592  0.0716  0.1308
 4591SOL    HW225233   4.430   4.190   0.296 -2.0011  0.5878 -1.9449
 4592SOL     OW25234   4.441   4.325   2.605  0.4712 -0.8119 -0.4543
 4592SOL    HW125235   4.462   4.296   2.516 -0.8251  0.5347 -1.1904
 4592SOL    HW225236   4.372   4.261   2.621 -0.1324  0.0116  0.1897
 4593SOL     OW25237   0.482   3.063   2.594 -0.3912 -0.1121  0.4479
 4593SOL    HW125238   0.484   2.981   2.544  0.7187  0.5568 -0.5997
 4593SOL    HW225239   0.503   3.036   2.683  0.9201  2.6974  0.9935
 4594SOL     OW25240   1.139   0.820  11.913 -0.0550  0.7922 -0.2559
 4594SOL    HW125241   1.204   0.855  11.852  0.9133 -2.3805 -1.0091
 4594SOL    HW225242   1.113   0.742  11.865 -1.5908  1.4573 -0.5117
 4595SOL     OW25243   3.327   2.753   1.764  0.3809 -0.1013 -0.1290
 4595SOL    HW125244   3.418   2.761   1.734 -0.1591  1.4206 -1.3596
 4595SOL    HW225245   3.294   2.787   1.681 -1.2726 -0.4268  0.3889
 4596SOL     OW25246   1.557   4.718  11.856 -0.2466 -0.6472 -1.1198
 4596SOL    HW125247   1.585   4.690  11.943  1.3490  2.4379 -0.6351
 4596SOL    HW225248   1.473   4.675  11.846  0.5218 -2.0286 -1.5503
 4597SOL     OW25249   0.281   3.652   1.101 -0.4532 -0.3372 -0.0644
 4597SOL    HW125250   0.331   3.633   1.021  1.2767  1.6733  0.5253
 4597SOL    HW225251   0.199   3.610   1.079 -0.5900 -0.6883  1.1306
 4598SOL     OW25252   3.165   0.866  17.380 -0.3906  0.3382 -0.2881
 4598SOL    HW125253   3.242   0.840  17.431 -0.1607  0.2968 -0.6542
 4598SOL    HW225254   3.125   0.784  17.353  1.4370 -0.0833 -1.7408
 4599SOL     OW25255   0.268   2.695   4.891  0.0557 -0.0105  0.1450
 4599SOL    HW125256   0.308   2.657   4.969 -2.4333 -0.1087  1.3882
 4599SOL    HW225257   0.297   2.786   4.903 -0.2584 -0.0155  0.9319
 4600SOL     OW25258   4.501   4.227   6.710  0.0039 -0.3994 -0.0005
 4600SOL    HW125259   4.534   4.316   6.698  0.0460 -0.4538 -0.2984
 4600SOL    HW225260   4.409   4.254   6.714  0.0083 -0.3218 -0.4280
 4601SOL     OW25261   2.651   2.636  12.794  0.2312 -0.6529  0.5606
 4601SOL    HW125262   2.652   2.728  12.769 -0.0716 -0.4405  1.3209
 4601SOL    HW225263   2.671   2.592  12.712  0.6473  0.4313  0.0906
 4602SOL     OW25264   2.147   1.917   4.571 -0.0928  0.2325  0.2108
 4602SOL    HW125265   2.136   1.867   4.652 -2.2514 -0.9724 -0.8131
 4602SOL    HW225266   2.104   2.000   4.593  0.6881  0.6650  0.0788
 4603SOL     OW25267   2.334   3.391  11.848  0.4819  0.1932 -0.2816
 4603SOL    HW125268   2.253   3.386  11.899  0.0710 -0.9840 -1.0349
 4603SOL    HW225269   2.365   3.481  11.852 -1.4348  0.9111 -1.7669
 4604SOL     OW25270   1.485   4.203   5.180  0.3698 -0.4297 -0.3027
 4604SOL    HW125271   1.484   4.192   5.085  1.6329 -0.0523 -0.3644
 4604SOL    HW225272   1.458   4.116   5.210  0.3673  0.1625  1.4170
 4605SOL     OW25273   3.042   3.942   3.798  0.1535  0.6162  0.4120
 4605SOL    HW125274   2.995   4.024   3.780  1.5557  1.2297 -0.4053
 4605SOL    HW225275   2.969   3.886   3.823  1.6057 -1.1839  0.5883
 4606SOL     OW25276   0.638   1.634   9.872 -0.0132 -0.2967 -0.6928
 4606SOL    HW125277   0.571   1.566   9.882 -0.8949  0.5182 -1.1336
 4606SOL    HW225278   0.589   1.716   9.869  0.6026  0.0179 -2.0768
 4607SOL     OW25279   3.163   1.267   8.084  0.4288 -0.0053  0.7429
 4607SOL    HW125280   3.076   1.228   8.080 -1.1460  3.7112 -0.5033
 4607SOL    HW225281   3.212   1.202   8.135  0.4264  1.3972  2.5478
 4608SOL     OW25282   3.993   1.344   3.449  0.4786 -0.8878 -0.1541
 4608SOL    HW125283   3.985   1.382   3.362  0.3087 -0.3855  0.0816
 4608SOL    HW225284   3.963   1.254   3.433 -2.2286  0.1290 -0.7851
 4609SOL     OW25285   0.772   3.623   0.973 -0.2691  0.4256  0.7190
 4609SOL    HW125286   0.687   3.608   0.930  0.8481  0.9940 -1.6940
 4609SOL    HW225287   0.828   3.651   0.900 -0.2634 -0.9027  0.2221
 4610SOL     OW25288   0.649   4.688   5.504 -0.6146  0.4071  0.0705
 4610SOL    HW125289   0.610   4.619   5.557 -1.3265  1.5484  1.0264
 4610SOL    HW225290   0.645   4.664   5.411  0.7729  0.5705 -0.0378
 4611SOL     OW25291   3.717   0.171  11.369  0.3181 -0.3503  0.1001
 4611SOL    HW125292   3.742   0.211  11.452  0.7567 -0.2341 -0.0893
 4611SOL    HW225293   3.624   0.192  11.363  0.9110  1.5382 -2.3923
 4612SOL     OW25294   4.180   4.088   2.217 -0.0419 -0.5809  0.6042
 4612SOL    HW125295   4.180   4.080   2.122 -0.3333 -3.3408  0.8350
 4612SOL    HW225296   4.201   4.001   2.250  0.3729 -0.8688 -0.4364
 4613SOL     OW25297   1.866   1.665  12.057 -0.0456 -0.0508  0.3598
 4613SOL    HW125298   1.809   1.681  11.981 -1.0044 -1.2700  0.8266
 4613SOL    HW225299   1.812   1.634  12.129 -0.4237  0.1622  0.1738
 4614SOL     OW25300   3.796   0.217   5.375  0.3732  0.7024  0.3362
 4614SOL    HW125301   3.799   0.127   5.344  0.3029  0.7202  0.2793
 4614SOL    HW225302   3.811   0.206   5.469 -1.4882 -0.9386  0.4375
 4615SOL     OW25303   2.512   0.433   3.042 -0.8253 -0.3455 -0.4080
 4615SOL    HW125304   2.451   0.455   2.972  0.4986 -0.0462 -1.4629
 4615SOL    HW225305   2.573   0.378   2.994 -0.8202 -0.6776 -0.0223
 4616SOL     OW25306   2.861   0.645  16.531  0.6180 -0.4507 -0.1224
 4616SOL    HW125307   2.895   0.721  16.578  1.0636 -1.4074  1.0913
 4616SOL    HW225308   2.948   0.609  16.511 -1.2664 -3.2618 -3.2001
 4617SOL     OW25309   4.026   3.561   2.884 -0.0039  0.1674 -0.0881
 4617SOL    HW125310   3.981   3.491   2.932  0.6472 -1.5480 -1.9513
 4617SOL    HW225311   3.992   3.555   2.794 -0.1224  1.6779 -0.1382
 4618SOL     OW25312   2.781   4.020  12.450 -0.2528 -0.2653 -0.0665
 4618SOL    HW125313   2.712   4.086  12.460  0.4857  0.3688  0.8495
 4618SOL    HW225314   2.797   3.992  12.541 -2.6034  0.3259  0.5347
 4619SOL     OW25315   2.774   4.269   4.706 -0.5612 -0.0854  0.1342
 4619SOL    HW125316   2.733   4.323   4.774 -2.2088 -0.4085 -0.6256
 4619SOL    HW225317   2.865   4.287   4.730 -0.5672 -2.2660  1.8573
 4620SOL     OW25318   0.984   0.577   2.700  0.3424  0.4970  0.0726
 4620SOL    HW125319   0.945   0.563   2.786 -0.2483 -0.8612 -0.4253
 4620SOL    HW225320   0.928   0.642   2.657 -0.6833 -1.3310 -1.3113
 4621SOL     OW25321   4.641   4.599   6.025 -0.2538 -0.1532  0.7459
 4621SOL    HW125322   4.705   4.580   6.094  0.9841  0.7078 -0.1662
 4621SOL    HW225323   4.643   4.695   6.018 -0.2607 -0.2958 -1.1652
 4622SOL     OW25324   0.373   1.319   3.793  0.2004  0.2408 -0.3503
 4622SOL    HW125325   0.441   1.385   3.792 -1.0268  1.5180  0.1241
 4622SOL    HW225326   0.323   1.327   3.712 -0.3980 -0.5517 -0.0604
 4623SOL     OW25327   3.332   0.052   0.414 -0.2911 -0.9776 -0.5524
 4623SOL    HW125328   3.380   0.057   0.497  0.2850 -3.1843 -0.7548
 4623SOL    HW225329   3.372   4.696   0.387 -0.8449 -1.3315 -0.2750
 4624SOL     OW25330   0.465   4.089  16.446 -0.1905  0.4695 -0.1512
 4624SOL    HW125331   0.443   4.000  16.473 -0.5343  0.2808 -1.0521
 4624SOL    HW225332   0.553   4.085  16.408 -0.4316  1.0115 -0.7678
 4625SOL     OW25333   3.203   4.009   4.017  0.2421 -0.4787  0.1193
 4625SOL    HW125334   3.159   3.984   3.935  0.8186  0.2394 -0.4110
 4625SOL    HW225335   3.296   3.994   4.000 -0.0276 -2.3917  0.3541
 4626SOL     OW25336   2.893   1.172   5.122 -0.5023 -0.3577  0.0031
 4626SOL    HW125337   2.929   1.259   5.137  0.6758 -0.9280  0.5091
 4626SOL    HW225338   2.811   1.200   5.081  0.9045  2.1428 -1.0540
 4627SOL     OW25339   2.843   0.139   6.193  0.1792  0.1060 -0.4238
 4627SOL    HW125340   2.775   0.073   6.207  1.9096 -1.6143 -0.1107
 4627SOL    HW225341   2.832   0.179   6.280  2.2034  1.1337 -0.6321
 4628SOL     OW25342   4.639   3.105   4.068 -0.2385 -0.2334 -0.4143
 4628SOL    HW125343   4.607   3.050   3.997  0.4819  0.4762 -1.2745
 4628SOL    HW225344   4.560   3.126   4.119  0.0366 -0.0790 -0.0494
 4629SOL     OW25345   2.810   4.326   5.702  0.0300  0.4042 -0.2952
 4629SOL    HW125346   2.723   4.353   5.673 -1.0171  0.1012  2.5906
 4629SOL    HW225347   2.793   4.285   5.787  2.5770 -0.7979 -0.3696
 4630SOL     OW25348   0.960   3.415   6.959 -0.3435  0.2095 -0.3437
 4630SOL    HW125349   1.026   3.440   7.024  1.3901  0.8345 -2.3248
 4630SOL    HW225350   0.936   3.328   6.991  0.9336 -0.5578 -1.4629
 4631SOL     OW25351   4.691   0.762   5.936 -0.2599  0.3482 -0.3016
 4631SOL    HW125352   0.013   0.830   5.983  0.5381  0.2975 -1.0654
 4631SOL    HW225353   0.027   0.749   5.865 -0.5739 -2.0049 -0.1500
 4632SOL     OW25354   2.505   2.121   8.852 -0.1733 -0.4260 -0.2515
 4632SOL    HW125355   2.599   2.140   8.847  0.2495 -2.7524 -0.8757
 4632SOL    HW225356   2.488   2.036   8.891 -0.7922 -0.4660 -0.6219
 4633SOL     OW25357   2.638   4.426   7.901  0.1406 -0.4233  0.0393
 4633SOL    HW125358   2.607   4.338   7.878 -0.0457 -0.1253 -0.8572
 4633SOL    HW225359   2.653   4.455   7.811 -2.0381  1.6973  0.3540
 4634SOL     OW25360   2.195   3.477   3.251 -0.5289 -0.3044 -0.2734
 4634SOL    HW125361   2.104   3.470   3.221  0.1249 -0.6432 -2.1818
 4634SOL    HW225362   2.226   3.543   3.189 -0.1915 -0.8409 -0.6756
 4635SOL     OW25363   3.672   1.901   7.285 -0.7396 -0.4176 -0.3017
 4635SOL    HW125364   3.641   1.937   7.201 -0.7690 -0.0817 -0.1494
 4635SOL    HW225365   3.767   1.899   7.274 -0.7294 -0.6155 -0.1787
 4636SOL     OW25366   2.965   3.888   4.511 -0.7053 -0.6822 -0.4416
 4636SOL    HW125367   2.984   3.979   4.489  1.7073 -1.1171 -0.2140
 4636SOL    HW225368   2.901   3.909   4.579  0.8080  1.1425  0.3993
 4637SOL     OW25369   1.864   3.639   1.988 -0.2076 -0.4085 -0.4753
 4637SOL    HW125370   1.815   3.674   2.062 -1.5831 -1.8477 -0.7212
 4637SOL    HW225371   1.953   3.640   2.025  0.1882 -0.4555 -1.4255
 4638SOL     OW25372   3.287   1.094  15.637  0.0700 -0.1589 -0.0448
 4638SOL    HW125373   3.272   1.069  15.729  0.1490 -1.0862 -0.2825
 4638SOL    HW225374   3.381   1.106  15.645  0.3381 -1.9225 -0.4904
 4639SOL     OW25375   1.044   2.898   3.934  0.3458  0.1374 -0.2607
 4639SOL    HW125376   1.083   2.887   4.020  1.4853  3.5712 -0.3574
 4639SOL    HW225377   1.099   2.846   3.875 -2.5977 -0.8633 -2.1114
 4640SOL     OW25378   3.747   4.446   3.417  0.4426  0.0696  0.0075
 4640SOL    HW125379   3.778   4.426   3.505  1.1597  0.1575 -0.2255
 4640SOL    HW225380   3.815   4.502   3.381 -1.8501  1.0528 -2.8213
 4641SOL     OW25381   3.755   3.253   1.788 -0.4706 -0.2000  0.0219
 4641SOL    HW125382   3.785   3.324   1.731 -0.8880 -1.0138 -1.2233
 4641SOL    HW225383   3.716   3.299   1.862  1.2034 -1.0863  1.4720
 4642SOL     OW25384   2.158   1.291  12.256  0.3644  0.7058 -0.3219
 4642SOL    HW125385   2.228   1.275  12.318 -0.2812  0.0329  0.2264
 4642SOL    HW225386   2.108   1.214  12.283  1.0016  0.8581  1.2957
 4643SOL     OW25387   3.093   0.538   8.063 -0.2307 -0.5435 -0.3973
 4643SOL    HW125388   3.079   0.629   8.087  1.7659 -1.0863  2.7828
 4643SOL    HW225389   3.131   0.558   7.977 -1.8805  3.4749 -0.1994
 4644SOL     OW25390   3.118   3.529   1.307  0.3947 -0.0649  0.3983
 4644SOL    HW125391   3.121   3.621   1.334 -2.2578  0.1488 -0.0198
 4644SOL    HW225392   3.070   3.487   1.379  1.4925 -2.4690 -0.2716
 4645SOL     OW25393   2.143   2.512   8.581 -0.4506 -0.0401  0.5442
 4645SOL    HW125394   2.095   2.514   8.498  1.5259 -0.3278 -0.6097
 4645SOL    HW225395   2.074   2.506   8.647 -0.0819 -0.5900  0.8803
 4646SOL     OW25396   4.619   3.608  17.631 -0.4539 -0.2341  0.2514
 4646SOL    HW125397   4.524   3.616  17.626 -0.3710  1.6122  1.3704
 4646SOL    HW225398   4.650   3.665  17.560  1.5167 -0.2826  1.0468
 4647SOL     OW25399   4.546   0.187  14.108  0.2244  0.2206 -0.1779
 4647SOL    HW125400   4.514   0.244  14.178  1.3649  1.8982 -1.0179
 4647SOL    HW225401   4.505   0.106  14.137 -1.3002  0.5102 -1.5306
 4648SOL     OW25402   1.897   4.635  11.645 -0.5810  0.0069  0.0225
 4648SOL    HW125403   1.931   4.643  11.734 -0.8529 -0.0527  0.1345
 4648SOL    HW225404   1.929   4.547  11.623  0.4810  0.2716  0.5492
 4649SOL     OW25405   0.366   4.534   3.811  0.3331 -0.3111 -0.6544
 4649SOL    HW125406   0.379   4.566   3.900 -1.2133 -1.7450  0.1058
 4649SOL    HW225407   0.459   4.532   3.789  0.4641 -1.4958 -0.0141
 4650SOL     OW25408   1.905   1.574   5.201 -0.5178 -0.4105  0.0904
 4650SOL    HW125409   1.842   1.532   5.260 -0.6254  0.7196  0.7871
 4650SOL    HW225410   1.933   1.655   5.244 -0.7204 -1.0597  1.4508
 4651SOL     OW25411   4.028   1.130  14.707 -0.1694  0.0647  0.4187
 4651SOL    HW125412   4.042   1.054  14.650  1.2216  1.3685 -0.9936
 4651SOL    HW225413   4.107   1.144  14.758 -1.0904  1.0956  1.5636
 4652SOL     OW25414   4.379   2.752  11.629 -0.3612 -0.1304 -0.0326
 4652SOL    HW125415   4.318   2.825  11.623 -2.1038 -1.8258 -2.5251
 4652SOL    HW225416   4.401   2.743  11.536 -2.9097  1.1126 -0.7440
 4653SOL     OW25417   3.727   2.560   2.399  0.6803  0.2732 -0.0263
 4653SOL    HW125418   3.750   2.633   2.342  1.9796  0.5364  0.8422
 4653SOL    HW225419   3.691   2.506   2.329  1.4202 -0.0838 -0.1361
 4654SOL     OW25420   0.963   3.525   2.689 -0.7249 -0.2136 -0.0158
 4654SOL    HW125421   1.002   3.610   2.669  2.4908 -1.5069  0.6268
 4654SOL    HW225422   1.034   3.471   2.655 -0.5471  0.4063 -0.6265
 4655SOL     OW25423   4.146   0.476   5.234  0.0679 -0.2312 -0.6252
 4655SOL    HW125424   4.100   0.392   5.230  2.0113 -1.3416  0.3449
 4655SOL    HW225425   4.089   0.532   5.183  0.7277  0.3172 -0.7611
 4656SOL     OW25426   0.417   0.698  10.048  0.1320  0.3570 -0.6417
 4656SOL    HW125427   0.463   0.677  10.129 -0.2628 -1.9215 -1.0018
 4656SOL    HW225428   0.454   0.783  10.024 -0.7376  1.4333  1.8964
 4657SOL     OW25429   1.672   0.739  14.409 -0.3030  0.4298  0.5226
 4657SOL    HW125430   1.657   0.662  14.464 -2.4063  0.3577 -0.1218
 4657SOL    HW225431   1.619   0.797  14.464  0.2246 -0.5675  2.0742
 4658SOL     OW25432   0.004   0.536   5.574  0.3743 -0.3440  0.6396
 4658SOL    HW125433   4.654   0.570   5.526 -0.5100  0.2482  2.4543
 4658SOL    HW225434   4.723   0.446   5.542  0.9322  1.3368 -4.3162
 4659SOL     OW25435   2.157   3.289  15.698 -0.0298 -0.1354 -0.1229
 4659SOL    HW125436   2.089   3.294  15.631 -0.0015 -2.2908 -0.3210
 4659SOL    HW225437   2.144   3.371  15.746 -0.0090 -0.9886  1.3487
 4660SOL     OW25438   0.327   1.864   3.104  0.0410 -0.2827  0.6620
 4660SOL    HW125439   0.422   1.855   3.092  0.3853  2.5250  1.3008
 4660SOL    HW225440   0.301   1.808   3.031 -1.2272 -0.1101  0.9872
 4661SOL     OW25441   1.687   1.892   8.266 -0.1092  0.1849 -0.3695
 4661SOL    HW125442   1.729   1.947   8.200  1.4827  1.3534  1.6522
 4661SOL    HW225443   1.604   1.901   8.220 -0.9006 -2.2398  0.5763
 4662SOL     OW25444   2.929   2.502   8.170 -0.1322  0.4845  0.2012
 4662SOL    HW125445   2.920   2.571   8.236  0.5807 -0.2654  1.0887
 4662SOL    HW225446   2.880   2.546   8.101 -0.9586 -0.0244  0.4597
 4663SOL     OW25447   0.304   2.635   9.251  0.0154  0.1637  0.4455
 4663SOL    HW125448   0.292   2.729   9.260 -1.4264  0.0066  0.1348
 4663SOL    HW225449   0.399   2.633   9.235  0.3593 -0.8387  2.6567
 4664SOL     OW25450   2.426   1.140  15.672  0.1793  0.7277  0.7534
 4664SOL    HW125451   2.391   1.227  15.653  1.2491  1.4062  1.9402
 4664SOL    HW225452   2.375   1.073  15.625  0.0383  1.4503 -0.1251
 4665SOL     OW25453   2.735   3.033   4.875  0.1546 -0.3250  0.3581
 4665SOL    HW125454   2.800   3.050   4.943 -1.0770 -0.1611  1.4999
 4665SOL    HW225455   2.708   2.951   4.915 -1.0186 -1.3247 -2.4893
 4666SOL     OW25456   1.783   3.814   6.820  0.0757 -0.3064 -0.4679
 4666SOL    HW125457   1.866   3.850   6.790 -0.8422  1.9430 -0.3214
 4666SOL    HW225458   1.745   3.892   6.859  2.2734  0.3057  0.4122
 4667SOL     OW25459   0.724   4.194   7.720 -0.3135 -0.3259 -0.1134
 4667SOL    HW125460   0.635   4.225   7.735 -0.4796 -0.4178 -0.8822
 4667SOL    HW225461   0.720   4.118   7.779 -0.3167 -1.6439 -1.7982
 4668SOL     OW25462   1.115   4.557   0.132 -0.0310 -0.2765 -0.6429
 4668SOL    HW125463   1.207   4.558   0.157 -0.6464  1.8678  1.5466
 4668SOL    HW225464   1.118   4.520   0.044  0.4146  0.4678 -0.9387
 4669SOL     OW25465   4.196   2.243  13.479  0.7273  0.3405  0.0732
 4669SOL    HW125466   4.114   2.203  13.510 -0.0447  2.6625  1.0443
 4669SOL    HW225467   4.249   2.167  13.459  0.4110 -0.7740  3.4919
 4670SOL     OW25468   3.621   0.087  17.565 -0.5760 -0.8484 -0.4549
 4670SOL    HW125469   3.680   0.139  17.511  0.8285 -0.4887  1.4510
 4670SOL    HW225470   3.681   0.016  17.586 -0.8566 -0.6814  0.9020
 4671SOL     OW25471   3.978   1.673  10.093  0.2964 -0.0554 -0.1559
 4671SOL    HW125472   4.000   1.661  10.185 -1.9209  0.4951  0.4291
 4671SOL    HW225473   3.912   1.741  10.098 -0.0442 -0.3924 -0.0273
 4672SOL     OW25474   1.251   2.794  17.264  0.1320 -0.2495 -0.7280
 4672SOL    HW125475   1.314   2.725  17.280 -1.2056 -0.8701  1.8463
 4672SOL    HW225476   1.204   2.755  17.191  1.7654  0.8160 -2.3412
 4673SOL     OW25477   3.233   3.709   8.592 -0.5778  0.3627 -0.1071
 4673SOL    HW125478   3.219   3.784   8.533  1.0973  0.9319  0.2072
 4673SOL    HW225479   3.252   3.747   8.678  3.5560  1.7337 -1.6233
 4674SOL     OW25480   1.714   1.693   4.840 -0.0139 -0.0703 -0.1658
 4674SOL    HW125481   1.807   1.692   4.817 -0.4435 -0.7616 -1.8823
 4674SOL    HW225482   1.702   1.612   4.889 -2.8986  0.8318  0.5807
 4675SOL     OW25483   0.191   0.816   6.674 -0.4841  0.1340 -0.6762
 4675SOL    HW125484   0.111   0.765   6.663 -1.4421  1.6467 -0.6248
 4675SOL    HW225485   0.214   0.842   6.585 -1.9316  0.7884 -0.8452
 4676SOL     OW25486   1.394   2.236   0.869  0.5479 -0.0069 -0.3985
 4676SOL    HW125487   1.310   2.234   0.915 -0.1316  0.8408 -1.6142
 4676SOL    HW225488   1.405   2.142   0.863  1.3781  0.0913 -0.4006
 4677SOL     OW25489   1.906   3.306   8.398  0.5205 -0.9381 -0.2699
 4677SOL    HW125490   1.995   3.334   8.419 -0.2282  2.7368 -2.0806
 4677SOL    HW225491   1.842   3.361   8.443  0.2636  0.1147 -1.9349
 4678SOL     OW25492   2.321   2.990   0.722 -0.0356 -0.1017  0.1735
 4678SOL    HW125493   2.376   2.998   0.799 -0.7554 -0.0834  0.6844
 4678SOL    HW225494   2.338   2.900   0.693 -0.3478  0.0937 -0.6138
 4679SOL     OW25495   4.165   0.438  10.426  0.3560 -0.0208  0.6934
 4679SOL    HW125496   4.235   0.374  10.443  1.9314  1.5297  0.0621
 4679SOL    HW225497   4.099   0.375  10.397 -0.8812  0.6671  2.0174
 4680SOL     OW25498   4.164   0.932  17.644 -0.0368  0.0267  0.1106
 4680SOL    HW125499   4.072   0.950  17.658 -0.2922 -0.7057 -0.6322
 4680SOL    HW225500   4.176   0.840  17.621  1.3720 -0.0289  1.0519
 4681SOL     OW25501   4.044   2.393   3.684  0.3364 -0.0031 -0.4489
 4681SOL    HW125502   4.123   2.363   3.637  0.9439 -0.9453  1.1740
 4681SOL    HW225503   3.970   2.375   3.627 -0.2262 -0.0091  0.2909
 4682SOL     OW25504   3.255   3.344   7.625 -0.5505 -0.0631 -0.4235
 4682SOL    HW125505   3.240   3.357   7.718  1.2569 -2.7106  0.2158
 4682SOL    HW225506   3.195   3.270   7.618 -0.8159  0.1160 -0.0111
 4683SOL     OW25507   1.464   0.345   5.512  0.1960 -0.3735 -0.2038
 4683SOL    HW125508   1.443   0.268   5.564  0.7520 -0.4407 -0.0736
 4683SOL    HW225509   1.558   0.335   5.532 -0.2797  2.3765  3.4398
 4684SOL     OW25510   2.895   3.145  13.600 -0.2991  0.2941  0.0062
 4684SOL    HW125511   2.911   3.051  13.605  1.5579  0.6717  0.9989
 4684SOL    HW225512   2.883   3.153  13.506  0.6434 -0.1267 -0.1448
 4685SOL     OW25513   3.397   3.693   2.505 -0.8194  0.6716  0.2547
 4685SOL    HW125514   3.488   3.664   2.496 -1.0534  0.2553 -0.7644
 4685SOL    HW225515   3.362   3.680   2.417  1.6146 -2.2945 -0.2909
 4686SOL     OW25516   1.395   0.597   4.419 -0.1388 -0.1717  0.4976
 4686SOL    HW125517   1.350   0.657   4.479 -0.1896 -1.2041  1.4933
 4686SOL    HW225518   1.478   0.600   4.466  0.1744  1.0032 -0.1381
 4687SOL     OW25519   1.303   0.938   8.505 -0.0520 -0.0950 -0.0973
 4687SOL    HW125520   1.325   1.015   8.558  1.1306 -0.3303 -0.2404
 4687SOL    HW225521   1.314   0.976   8.417  1.8284 -0.4020 -0.0141
 4688SOL     OW25522   3.991   3.059   5.184 -0.6131  0.0610 -0.2001
 4688SOL    HW125523   3.899   3.045   5.207 -0.8498 -0.6358 -1.6439
 4688SOL    HW225524   3.988   3.072   5.090 -3.5925  0.4658 -0.0331
 4689SOL     OW25525   2.979   4.041   8.835  0.2623 -0.0350  0.1377
 4689SOL    HW125526   2.903   4.083   8.795 -0.2591 -1.8694 -0.8210
 4689SOL    HW225527   2.942   4.037   8.923  0.3490 -0.8909  0.1407
 4690SOL     OW25528   4.610   3.839   3.452  0.0871 -0.1875 -0.1769
 4690SOL    HW125529   4.666   3.820   3.527 -2.3982 -1.4947  1.3675
 4690SOL    HW225530   4.670   3.802   3.387  0.6279 -1.4563  1.0246
 4691SOL     OW25531   2.546   3.788   5.841  0.1544  0.0931 -0.2235
 4691SOL    HW125532   2.584   3.800   5.928  0.4776  0.6884 -0.4446
 4691SOL    HW225533   2.594   3.851   5.787 -0.2393  0.6952  0.1199
 4692SOL     OW25534   3.749   1.508   7.997  0.1505  0.0919 -0.1718
 4692SOL    HW125535   3.756   1.414   7.985  2.2732  0.3864 -1.2036
 4692SOL    HW225536   3.749   1.545   7.909 -1.3885 -0.4390 -0.4048
 4693SOL     OW25537   3.516   1.454   3.529  0.2651 -0.4100 -0.0771
 4693SOL    HW125538   3.503   1.359   3.532 -0.1997 -0.3153  1.0296
 4693SOL    HW225539   3.426   1.481   3.548  0.1578 -0.9088  0.1239
 4694SOL     OW25540   2.204   2.636  15.357 -0.4143  0.6588  0.4458
 4694SOL    HW125541   2.130   2.630  15.295 -0.4328 -0.9141  0.6269
 4694SOL    HW225542   2.264   2.628  15.283 -0.2700  0.0385  0.6342
 4695SOL     OW25543   4.082   2.761   5.146  0.2605  0.1097  0.3578
 4695SOL    HW125544   4.041   2.716   5.220  3.1527 -0.9734  1.2771
 4695SOL    HW225545   4.087   2.852   5.176 -0.3646  0.2639  0.0030
 4696SOL     OW25546   0.144   1.220   0.000 -0.7582  0.0455 -0.3673
 4696SOL    HW125547   0.218   1.164   0.025 -0.2192  2.2660  3.0332
 4696SOL    HW225548   0.106   1.232   0.087  1.0978 -1.9059  0.7248
 4697SOL     OW25549   1.515   2.316   7.880 -0.2097  0.0856  0.2880
 4697SOL    HW125550   1.479   2.336   7.966 -1.3624 -2.4273  0.3625
 4697SOL    HW225551   1.579   2.388   7.872 -0.8702  0.5558 -0.7831
 4698SOL     OW25552   0.453   2.340   3.040 -0.0929  0.0977  0.1236
 4698SOL    HW125553   0.510   2.317   2.967  0.9931  0.0156  0.9843
 4698SOL    HW225554   0.372   2.372   3.000  0.3747 -2.3350 -2.7290
 4699SOL     OW25555   1.756   1.476   0.791  0.3167 -0.3824  0.2113
 4699SOL    HW125556   1.685   1.436   0.741 -2.5699  1.9224  2.4270
 4699SOL    HW225557   1.734   1.430   0.872 -0.5600  0.5464  0.4944
 4700SOL     OW25558   4.570   2.403   8.489 -0.8698  0.5053 -0.0861
 4700SOL    HW125559   4.600   2.321   8.529 -0.4877  0.1584 -1.0909
 4700SOL    HW225560   4.504   2.364   8.433  0.0707 -1.4455  0.1787
 4701SOL     OW25561   3.537   4.109   2.505 -0.7289  0.5764  0.3150
 4701SOL    HW125562   3.522   4.138   2.415  2.2016  0.4135 -0.2359
 4701SOL    HW225563   3.469   4.043   2.515  0.0938 -0.2603  0.4370
 4702SOL     OW25564   0.230   1.597   5.237  0.0573  0.1773  0.0110
 4702SOL    HW125565   0.139   1.569   5.220  0.2296  0.5863 -1.6560
 4702SOL    HW225566   0.244   1.585   5.330 -0.8736 -0.7344  0.0413
 4703SOL     OW25567   2.424   3.861   8.268  0.1847 -0.0053  0.0412
 4703SOL    HW125568   2.399   3.772   8.290 -0.7336  0.5871  1.3973
 4703SOL    HW225569   2.516   3.861   8.294 -0.0101 -1.8842  0.6780
 4704SOL     OW25570   2.863   1.334   9.766  0.0347  0.1034 -0.3591
 4704SOL    HW125571   2.938   1.390   9.789 -0.9086  0.4854  1.8158
 4704SOL    HW225572   2.883   1.246   9.797 -0.4962  0.1633  0.1689
 4705SOL     OW25573   0.658   4.483   0.805  0.8107  0.4049 -0.5937
 4705SOL    HW125574   0.666   4.388   0.813  2.9928  0.4081 -2.7272
 4705SOL    HW225575   0.567   4.486   0.774  0.9336  2.9045 -0.6832
 4706SOL     OW25576   2.960   0.050  15.916  0.4684 -0.4271 -0.3201
 4706SOL    HW125577   2.960   4.717  15.841 -1.7128  0.5646 -1.0941
 4706SOL    HW225578   2.936   4.720  15.989  2.2722  3.2689  3.1643
 4707SOL     OW25579   3.862   3.055   9.080 -0.1900  0.1956  0.3538
 4707SOL    HW125580   3.793   3.052   9.146  0.4904  2.2183  1.1566
 4707SOL    HW225581   3.864   2.960   9.070  0.5165 -0.2222  4.2530
 4708SOL     OW25582   2.589   3.508   6.697 -0.2856  0.5293 -0.1099
 4708SOL    HW125583   2.563   3.568   6.767  1.7598  2.8144 -1.2998
 4708SOL    HW225584   2.609   3.574   6.630 -1.3275  1.7169  0.7441
 4709SOL     OW25585   3.951   3.136  11.344 -0.7739  0.0064  0.6852
 4709SOL    HW125586   4.028   3.163  11.295 -1.4380 -1.9818 -1.4487
 4709SOL    HW225587   3.881   3.197  11.318  0.2070  1.0667  0.5313
 4710SOL     OW25588   3.858   2.757   8.711 -0.2374  0.4223  0.5326
 4710SOL    HW125589   3.864   2.662   8.697 -0.3331  0.4809  0.0907
 4710SOL    HW225590   3.873   2.786   8.621  0.0705  2.1578  1.1421
 4711SOL     OW25591   1.664   2.149   0.445  0.3763  0.2202  0.2381
 4711SOL    HW125592   1.724   2.074   0.448 -1.0089 -1.0005 -1.7776
 4711SOL    HW225593   1.615   2.127   0.365 -0.5592 -1.9154  1.3936
 4712SOL     OW25594   1.701   3.412  14.634 -0.3287 -0.0025 -0.1670
 4712SOL    HW125595   1.724   3.437  14.545 -1.0082 -0.5055 -0.4810
 4712SOL    HW225596   1.781   3.374  14.671  1.1439  1.0492 -2.2827
 4713SOL     OW25597   2.738   3.071   4.612 -0.1023 -0.4003 -0.0004
 4713SOL    HW125598   2.740   3.077   4.707  0.4929 -1.4032  0.0568
 4713SOL    HW225599   2.819   3.120   4.598  0.6144 -1.5271  0.2286
 4714SOL     OW25600   0.969   4.362   7.084  0.3829 -0.2187 -0.3739
 4714SOL    HW125601   0.999   4.321   7.165 -1.6243 -3.1070 -1.0696
 4714SOL    HW225602   0.912   4.432   7.115  2.0752  0.1708  1.7887
 4715SOL     OW25603   3.994   2.274   8.882  0.0399  0.7792  0.0538
 4715SOL    HW125604   4.000   2.239   8.971 -0.4824 -1.3355 -0.7383
 4715SOL    HW225605   4.087   2.270   8.860  0.5307  2.0932  1.8957
 4716SOL     OW25606   0.664   2.893  13.043  0.4921 -0.0865 -0.1443
 4716SOL    HW125607   0.711   2.816  13.010  1.4239  1.4333 -2.4356
 4716SOL    HW225608   0.607   2.908  12.967  1.3384  0.4554 -0.6799
 4717SOL     OW25609   3.607   1.500  12.471  0.0127  0.0897 -0.5512
 4717SOL    HW125610   3.541   1.488  12.539 -1.0995  2.2783 -1.2481
 4717SOL    HW225611   3.631   1.592  12.485  0.7903 -0.4402  1.6548
 4718SOL     OW25612   1.784   0.415   4.517  0.1920  0.2181  0.4677
 4718SOL    HW125613   1.717   0.471   4.557 -1.3086  0.3545 -2.2466
 4718SOL    HW225614   1.858   0.475   4.513  0.3765 -0.0251  0.2647
 4719SOL     OW25615   2.581   0.054  14.296 -0.0855 -0.0645 -0.6485
 4719SOL    HW125616   2.665   0.045  14.251  1.0141  3.0110  0.7661
 4719SOL    HW225617   2.615   0.105  14.369  1.5803 -3.2278  0.8162
 4720SOL     OW25618   0.749   4.274   4.529  0.0417 -0.3098  0.1740
 4720SOL    HW125619   0.684   4.323   4.578  0.7532  0.5473  0.2537
 4720SOL    HW225620   0.825   4.285   4.585  2.0680 -0.5108 -2.5012
 4721SOL     OW25621   2.369   3.972   7.921 -0.2634 -0.4311  0.3453
 4721SOL    HW125622   2.330   3.917   7.989 -0.4048 -0.7097  0.0436
 4721SOL    HW225623   2.462   3.958   7.935 -0.1590  0.7383  0.7908
 4722SOL     OW25624   1.333   1.795  14.268 -0.2694  0.2950 -0.0687
 4722SOL    HW125625   1.264   1.833  14.213 -1.5467 -1.8757  0.0213
 4722SOL    HW225626   1.323   1.701  14.250  1.7279  0.4888 -2.2011
 4723SOL     OW25627   0.876   0.536   7.390  0.2124 -0.1691 -0.1115
 4723SOL    HW125628   0.888   0.625   7.358 -1.2389  0.1841  0.3451
 4723SOL    HW225629   0.817   0.493   7.328  2.1182  2.3861 -3.6429
 4724SOL     OW25630   4.059   2.371   4.297  0.6984 -0.2100  0.2131
 4724SOL    HW125631   4.140   2.419   4.278  1.2774 -0.9239  0.8736
 4724SOL    HW225632   4.049   2.395   4.389 -1.0182  1.5340 -0.4268
 4725SOL     OW25633   2.096   3.496  14.570  0.3662  0.2039 -0.4921
 4725SOL    HW125634   2.124   3.567  14.513  2.2421  0.5825  0.9099
 4725SOL    HW225635   2.172   3.438  14.562 -0.6359 -1.1169 -0.6356
 4726SOL     OW25636   1.254   0.499   0.396 -0.4761  1.0769 -0.1604
 4726SOL    HW125637   1.228   0.482   0.487 -0.4241 -0.3704 -0.4153
 4726SOL    HW225638   1.237   0.409   0.366 -0.0427  0.9992 -0.1697
 4727SOL     OW25639   0.300   2.604   4.424 -0.2485  0.5577  0.9073
 4727SOL    HW125640   0.349   2.684   4.405 -1.5008  1.4379  1.3806
 4727SOL    HW225641   0.316   2.542   4.353 -1.0727  4.6334 -2.7636
 4728SOL     OW25642   1.150   4.697   5.929 -0.0179 -0.2762 -0.0849
 4728SOL    HW125643   1.067   0.016   5.912  0.2073 -0.3985 -1.4625
 4728SOL    HW225644   1.135   4.673   6.021  2.7843 -0.9836  0.2046
 4729SOL     OW25645   0.975   1.638   5.994 -0.3028 -0.2387 -0.1748
 4729SOL    HW125646   1.045   1.586   6.035  0.1905  0.5813  0.0378
 4729SOL    HW225647   1.019   1.669   5.915  0.5427 -2.2739 -0.5007
 4730SOL     OW25648   4.463   1.237   3.662  0.1379  0.1025 -0.2959
 4730SOL    HW125649   4.415   1.228   3.580  1.4884 -0.1756 -1.0511
 4730SOL    HW225650   4.542   1.186   3.646 -1.2218 -1.3896 -2.3005
 4731SOL     OW25651   3.077   0.065   6.275  0.2074  0.0595  0.6241
 4731SOL    HW125652   3.033   0.001   6.330  0.1131 -1.1926 -0.9254
 4731SOL    HW225653   3.014   0.093   6.208  1.8140  1.6388 -0.2227
 4732SOL     OW25654   3.258   0.395   3.938  0.4390  0.2964  0.1164
 4732SOL    HW125655   3.256   0.386   3.842  0.8719 -1.6954  0.3029
 4732SOL    HW225656   3.311   0.474   3.941  3.5995 -1.7993 -0.2105
 4733SOL     OW25657   0.002   1.032   7.221 -0.4872  0.1226 -0.5169
 4733SOL    HW125658   0.036   1.077   7.298 -0.8417  1.6352 -1.2420
 4733SOL    HW225659   4.702   0.951   7.264 -0.5865  1.0074  1.0659
 4734SOL     OW25660   4.485   4.600  10.969  0.2434 -0.7465 -0.4766
 4734SOL    HW125661   4.504   4.539  11.041 -0.3337  0.0279  0.3317
 4734SOL    HW225662   4.409   4.568  10.919 -0.0098  0.3463 -0.7802
 4735SOL     OW25663   3.650   4.324   2.653  0.4516 -0.5674 -0.4859
 4735SOL    HW125664   3.578   4.369   2.609 -0.3234 -2.3661 -1.0910
 4735SOL    HW225665   3.620   4.234   2.634 -1.0940 -0.4230  1.2971
 4736SOL     OW25666   1.834   0.513   2.360 -0.5256 -0.1686 -0.5014
 4736SOL    HW125667   1.875   0.593   2.393  1.6117 -1.7340  0.6910
 4736SOL    HW225668   1.811   0.540   2.271  2.5610  1.4893 -0.7938
 4737SOL     OW25669   1.572   4.353   6.203 -0.1372  0.0186 -0.2995
 4737SOL    HW125670   1.595   4.302   6.125  0.3267 -0.0607 -0.1114
 4737SOL    HW225671   1.546   4.277   6.254 -0.7751 -0.6465 -1.6096
 4738SOL     OW25672   3.581   3.065   8.505 -0.3592  0.5114  0.6219
 4738SOL    HW125673   3.543   3.082   8.591 -1.0282 -0.8771  0.6018
 4738SOL    HW225674   3.549   2.979   8.478  2.7390 -1.4051  3.1708
 4739SOL     OW25675   1.162   3.560  15.448 -0.1481  0.7317 -0.2299
 4739SOL    HW125676   1.246   3.523  15.420 -0.6989 -0.3789 -0.3985
 4739SOL    HW225677   1.104   3.561  15.372 -0.0844  1.7847 -0.2584
 4740SOL     OW25678   0.017   0.784  12.556  0.0265  0.3498 -0.3657
 4740SOL    HW125679   0.065   0.842  12.615 -1.8491  1.0254  0.4940
 4740SOL    HW225680   0.038   0.700  12.598 -3.3030  0.0022  0.5556
 4741SOL     OW25681   3.283   2.295   8.252  0.0043  0.0016 -0.0844
 4741SOL    HW125682   3.249   2.305   8.163  0.4004 -0.3731 -0.2793
 4741SOL    HW225683   3.377   2.290   8.240 -0.0188  4.6127 -2.0297
 4742SOL     OW25684   1.466   1.330   5.604  0.0660 -0.1750  0.3911
 4742SOL    HW125685   1.430   1.282   5.678 -0.8305 -1.9626 -1.2225
 4742SOL    HW225686   1.490   1.261   5.543  0.0963  0.1778  0.0031
 4743SOL     OW25687   4.464   2.831   1.279  0.0648  0.8131 -0.5127
 4743SOL    HW125688   4.434   2.902   1.223  1.8519  1.5962 -0.4993
 4743SOL    HW225689   4.492   2.766   1.214  0.5456  1.5058 -0.9991
 4744SOL     OW25690   3.986   1.502   1.267 -0.4398 -0.1109 -0.1813
 4744SOL    HW125691   3.964   1.545   1.184 -0.3764 -0.6938 -0.5058
 4744SOL    HW225692   3.950   1.416   1.244 -0.8604 -0.6488  2.5486
 4745SOL     OW25693   3.253   4.090   7.235 -0.9312  0.1970  0.3476
 4745SOL    HW125694   3.272   4.021   7.171 -0.9587  1.1236 -0.6567
 4745SOL    HW225695   3.265   4.171   7.187  1.8734 -1.4070 -1.6333
 4746SOL     OW25696   4.129   0.124   4.353  0.3956  0.3696  0.2890
 4746SOL    HW125697   4.179   0.196   4.390  0.4147  0.3453  0.3103
 4746SOL    HW225698   4.051   0.173   4.330  1.2851  2.8555  2.6667
 4747SOL     OW25699   3.321   4.309   8.244  0.0725 -1.0597  1.0280
 4747SOL    HW125700   3.369   4.239   8.200 -1.7654 -0.9649 -1.1061
 4747SOL    HW225701   3.266   4.334   8.170  0.7986 -1.2149  0.4348
 4748SOL     OW25702   0.825   4.391  12.133  0.0528  0.4747 -0.2222
 4748SOL    HW125703   0.796   4.470  12.179 -2.1904 -1.0356  0.9768
 4748SOL    HW225704   0.860   4.342  12.208 -0.5446 -0.8288 -0.8004
 4749SOL     OW25705   4.242   0.542   2.828 -0.4541  0.2486  0.0161
 4749SOL    HW125706   4.255   0.483   2.902  1.0303 -1.0768 -1.2927
 4749SOL    HW225707   4.293   0.619   2.850 -1.4356  1.2297 -1.0858
 4750SOL     OW25708   3.332   3.001   7.460  0.1377  0.2983 -0.2094
 4750SOL    HW125709   3.360   3.090   7.481  0.3993  0.4228 -1.0731
 4750SOL    HW225710   3.365   2.985   7.371  0.4238 -2.0867  0.3101
 4751SOL     OW25711   0.939   4.040   8.835 -0.5322 -0.9395 -0.3467
 4751SOL    HW125712   0.860   4.000   8.873 -0.5712 -1.7855 -1.3198
 4751SOL    HW225713   0.922   4.020   8.743  1.0710 -1.1703 -0.5953
 4752SOL     OW25714   3.251   2.213   0.148 -0.2308  0.1184 -0.7553
 4752SOL    HW125715   3.249   2.118   0.154 -0.1921  0.1206 -0.6972
 4752SOL    HW225716   3.160   2.233   0.126 -0.8258  0.9912  2.4664
 4753SOL     OW25717   4.295   4.073   2.515  0.6684  0.0430 -0.2601
 4753SOL    HW125718   4.300   3.981   2.540 -1.8303  0.2861  1.1049
 4753SOL    HW225719   4.215   4.080   2.463  1.2869 -0.4737 -1.2851
 4754SOL     OW25720   1.184   4.019   2.617 -0.4191  0.4857  0.4904
 4754SOL    HW125721   1.135   4.100   2.605 -1.3147 -0.2659 -0.9361
 4754SOL    HW225722   1.256   4.039   2.557 -0.6494  0.6289  0.2591
 4755SOL     OW25723   3.981   4.213   7.300 -0.0114  0.1100  0.1290
 4755SOL    HW125724   4.051   4.265   7.262 -0.9032  0.7510 -0.6246
 4755SOL    HW225725   3.911   4.233   7.238 -0.5154 -0.8776  0.3610
 4756SOL     OW25726   3.579   2.221   8.840  0.3930 -0.2595 -0.7822
 4756SOL    HW125727   3.542   2.138   8.871  1.7906  0.5578  3.0212
 4756SOL    HW225728   3.506   2.271   8.804 -1.7650 -2.0173  1.1418
 4757SOL     OW25729   2.083   1.973   9.852  0.5461 -0.0500 -0.0289
 4757SOL    HW125730   2.083   1.939   9.763  0.3656  0.2171 -0.1308
 4757SOL    HW225731   2.012   1.923   9.890  0.3791  0.3388  0.1689
 4758SOL     OW25732   3.546   0.003   4.801  0.5033  0.2181 -0.1533
 4758SOL    HW125733   3.617   4.676   4.837 -0.8667 -1.1931  0.4306
 4758SOL    HW225734   3.552   0.080   4.857  1.4650  2.4749 -3.3280
 4759SOL     OW25735   1.701   2.117   1.919  0.0188  0.5619  0.5055
 4759SOL    HW125736   1.783   2.165   1.933 -0.5218  1.3832  0.8681
 4759SOL    HW225737   1.673   2.137   2.008  0.8886 -1.9265  1.3115
 4760SOL     OW25738   3.546   2.700  17.606 -0.8504 -0.5931  0.0714
 4760SOL    HW125739   3.453   2.722  17.605 -0.5969  0.4354 -0.5147
 4760SOL    HW225740   3.562   2.643  17.531  3.4186  0.4883  0.2073
 4761SOL     OW25741   0.729   1.036   1.906  0.0885 -0.3109  0.2219
 4761SOL    HW125742   0.802   1.097   1.915 -1.4510  1.7257 -1.4291
 4761SOL    HW225743   0.763   0.952   1.938  1.6050 -0.9680 -3.1053
 4762SOL     OW25744   0.251   2.392   7.930 -0.3709  0.4083 -0.2622
 4762SOL    HW125745   0.165   2.413   7.965 -0.8881 -0.9027 -0.7733
 4762SOL    HW225746   0.260   2.303   7.962 -2.0769  1.0584  2.0228
 4763SOL     OW25747   1.751   0.560  11.192  0.2053 -0.5905 -0.0072
 4763SOL    HW125748   1.729   0.467  11.184 -0.0745 -0.3516 -1.9032
 4763SOL    HW225749   1.775   0.583  11.103  1.5305 -1.5142  0.1217
 4764SOL     OW25750   2.750   4.506   2.259 -0.1020  0.1137 -0.0327
 4764SOL    HW125751   2.843   4.502   2.278 -0.1656 -3.2328 -0.5246
 4764SOL    HW225752   2.713   4.484   2.344 -1.2042 -1.2041 -0.8334
 4765SOL     OW25753   4.366   2.121  16.144 -0.3547  0.3125 -0.2853
 4765SOL    HW125754   4.370   2.034  16.104  2.4436  1.0708 -1.6650
 4765SOL    HW225755   4.455   2.152  16.159 -0.1800 -0.4792  0.3087
 4766SOL     OW25756   3.379   0.315   1.573 -0.0470  0.0849 -0.2669
 4766SOL    HW125757   3.434   0.393   1.576  1.1893 -0.7927 -0.5163
 4766SOL    HW225758   3.424   0.261   1.508 -1.0328 -0.9622 -0.0855
 4767SOL     OW25759   1.848   3.994   8.976  0.3936 -0.9244 -0.0402
 4767SOL    HW125760   1.754   4.008   8.965  0.6274  0.9699  0.2421
 4767SOL    HW225761   1.877   4.014   8.887  1.5717  0.0234  0.5580
 4768SOL     OW25762   4.607   2.055   6.263 -0.4126  0.0611  0.1807
 4768SOL    HW125763   4.553   2.112   6.209  0.2096  1.3016  0.8846
 4768SOL    HW225764   4.533   1.996   6.282 -1.2525  0.5880 -1.5071
 4769SOL     OW25765   1.235   0.522   3.685  0.8815  0.8604 -0.5776
 4769SOL    HW125766   1.177   0.582   3.732  1.4531  0.3706  0.7636
 4769SOL    HW225767   1.279   0.487   3.763 -1.9484 -1.0974  0.1378
 4770SOL     OW25768   0.146   2.887   8.517  0.1900  0.3272 -0.0458
 4770SOL    HW125769   0.121   2.979   8.520  0.2347  0.3279  0.2825
 4770SOL    HW225770   0.064   2.840   8.503  1.7204 -1.5795 -2.6865
 4771SOL     OW25771   0.669   1.874   7.515 -0.6418  0.3079 -0.3559
 4771SOL    HW125772   0.592   1.853   7.463  0.4275 -0.1815 -1.7433
 4771SOL    HW225773   0.712   1.946   7.468 -2.0556  0.0798 -1.9939
 4772SOL     OW25774   0.205   0.308  10.142 -0.1826  0.6572  0.2746
 4772SOL    HW125775   0.273   0.376  10.145  3.0689 -2.6440  1.6246
 4772SOL    HW225776   0.160   0.334  10.222  1.9221 -0.6586  1.8899
 4773SOL     OW25777   0.764   4.280  17.495 -0.4231 -0.2372  0.6864
 4773SOL    HW125778   0.836   4.258  17.554 -0.7540  0.1970  1.2533
 4773SOL    HW225779   0.792   4.232  17.417 -1.4458 -0.9694  0.7639
 4774SOL     OW25780   4.350   1.481   8.069 -0.4803 -0.1680 -0.5129
 4774SOL    HW125781   4.370   1.556   8.124 -0.5057 -0.8705  0.4536
 4774SOL    HW225782   4.421   1.498   8.006  0.1553  0.4418  0.3762
 4775SOL     OW25783   3.052   2.991   2.320  0.3548  0.2388 -0.5626
 4775SOL    HW125784   3.130   2.940   2.299 -0.8308 -2.3001  1.2020
 4775SOL    HW225785   3.026   2.954   2.405  0.7325  0.9519 -0.1411
 4776SOL     OW25786   2.843   4.682  14.141 -0.0026  0.6064 -0.5110
 4776SOL    HW125787   2.837   4.589  14.116  0.3733  0.4749 -0.0981
 4776SOL    HW225788   2.874   4.722  14.060  0.0866  1.9784  0.2086
 4777SOL     OW25789   4.395   2.054   5.259 -0.6963 -0.1915  0.3276
 4777SOL    HW125790   4.409   2.147   5.275 -1.9926 -0.2673  1.9031
 4777SOL    HW225791   4.482   2.035   5.223 -0.7620  0.8684 -0.3869
 4778SOL     OW25792   2.805   0.734   5.547 -0.5019  0.2349 -0.3317
 4778SOL    HW125793   2.859   0.799   5.502  0.8956  0.6448  1.8943
 4778SOL    HW225794   2.815   0.771   5.635  0.7460  0.3205 -0.5186
 4779SOL     OW25795   3.149   0.094   5.711 -0.1032  0.3067 -0.2488
 4779SOL    HW125796   3.140   0.081   5.805 -2.0883 -0.4276 -0.5303
 4779SOL    HW225797   3.242   0.095   5.688  0.3961 -1.8116  1.6515
 4780SOL     OW25798   0.117   2.336  15.073 -0.0161 -0.1867 -0.0257
 4780SOL    HW125799   0.155   2.407  15.020  0.2349 -0.0714  0.3084
 4780SOL    HW225800   0.177   2.334  15.147 -0.3419  4.0051  0.3505
 4781SOL     OW25801   1.060   0.263   4.553  0.7333  0.2322  0.4898
 4781SOL    HW125802   0.986   0.313   4.519 -0.0898 -1.3424 -0.0310
 4781SOL    HW225803   1.115   0.336   4.580  2.6067 -2.2610  3.3625
 4782SOL     OW25804   1.530   0.772   7.609 -0.0743  0.5032 -0.3514
 4782SOL    HW125805   1.546   0.857   7.567 -0.4917  1.6074  1.7198
 4782SOL    HW225806   1.597   0.779   7.677  1.1536 -1.4951 -1.3810
 4783SOL     OW25807   2.456   2.595  15.794  0.2401 -0.1226  0.1490
 4783SOL    HW125808   2.494   2.611  15.707  1.0279  0.9826  0.7023
 4783SOL    HW225809   2.515   2.633  15.859  0.0129  0.6811 -0.1199
 4784SOL     OW25810   3.316   2.546  11.193  0.7824  0.2090  0.1695
 4784SOL    HW125811   3.327   2.453  11.175  1.8561  0.3924 -0.0910
 4784SOL    HW225812   3.327   2.559  11.287 -0.3766  1.1688  0.1719
 4785SOL     OW25813   2.775   3.112   1.913  0.7108 -0.1322  0.6906
 4785SOL    HW125814   2.724   3.033   1.931  1.1641 -0.4272  0.6718
 4785SOL    HW225815   2.863   3.076   1.912  1.9497  2.9598 -1.3340
 4786SOL     OW25816   1.572   2.031   7.157 -0.1466  0.1523 -0.9049
 4786SOL    HW125817   1.593   1.961   7.220  1.2547 -0.5254 -2.1174
 4786SOL    HW225818   1.605   1.994   7.075  0.2858 -2.0106  0.2372
 4787SOL     OW25819   0.917   0.805   8.691  0.2563  0.0864  0.0875
 4787SOL    HW125820   0.858   0.840   8.758  2.1412  0.0540  1.7676
 4787SOL    HW225821   0.863   0.737   8.651  0.3943 -0.5025  0.9214
 4788SOL     OW25822   3.564   4.337   0.456  0.2325 -0.4354  0.3215
 4788SOL    HW125823   3.637   4.278   0.437 -0.2379 -0.3602 -1.6822
 4788SOL    HW225824   3.495   4.279   0.489  0.8299 -1.6470 -0.5436
 4789SOL     OW25825   0.473   1.453  10.691 -0.1374 -0.0934 -0.5413
 4789SOL    HW125826   0.526   1.392  10.742  0.3888  1.7388  1.1163
 4789SOL    HW225827   0.396   1.430  10.744 -0.9322 -1.7429 -2.4201
 4790SOL     OW25828   0.323   2.881  16.386 -0.1967  0.5256  0.2804
 4790SOL    HW125829   0.315   2.790  16.359 -0.2566  0.7258 -0.3654
 4790SOL    HW225830   0.234   2.906  16.412 -1.3865 -0.0177 -3.2733
 4791SOL     OW25831   0.141   4.377   6.536 -0.1552  0.0497  0.9013
 4791SOL    HW125832   0.154   4.368   6.442 -0.9973 -1.7041  0.9578
 4791SOL    HW225833   0.106   4.465   6.545 -0.5962 -0.1400  1.0330
 4792SOL     OW25834   1.283   0.869   7.683 -0.1716 -0.4636 -0.2187
 4792SOL    HW125835   1.361   0.821   7.709  0.0100 -0.2777 -0.4229
 4792SOL    HW225836   1.286   0.864   7.587  1.3057  0.0227 -0.2068
 4793SOL     OW25837   2.951   2.738   8.295  0.4591  0.2297 -0.4619
 4793SOL    HW125838   2.888   2.808   8.277  0.0319  0.1310  0.6502
 4793SOL    HW225839   3.021   2.796   8.325 -1.3892  3.0508 -1.5556
 4794SOL     OW25840   0.499   4.075   2.324  0.0695  0.1323  0.1934
 4794SOL    HW125841   0.422   4.020   2.336 -0.3037  1.0656  2.1029
 4794SOL    HW225842   0.579   4.028   2.298 -0.5543 -1.2805  0.8714
 4795SOL     OW25843   0.248   4.387   1.266  0.5109  0.2584 -0.0575
 4795SOL    HW125844   0.320   4.358   1.321  0.5193 -1.4591 -0.9720
 4795SOL    HW225845   0.174   4.382   1.327  0.4271 -0.4988 -0.2159
 4796SOL     OW25846   1.860   1.797  11.204 -0.3304 -0.1373  0.4451
 4796SOL    HW125847   1.840   1.716  11.250 -0.6719 -0.2980  0.0112
 4796SOL    HW225848   1.786   1.855  11.222  0.3024  0.6576  0.5021
 4797SOL     OW25849   0.961   3.830   2.281  0.5334  0.0708 -0.7292
 4797SOL    HW125850   1.052   3.800   2.274 -0.6160 -3.8798  1.4353
 4797SOL    HW225851   0.919   3.750   2.251  2.4014 -1.5450  0.9708
 4798SOL     OW25852   2.137   0.731   8.157 -0.4896 -0.0659 -0.3516
 4798SOL    HW125853   2.128   0.646   8.201 -3.0094 -0.2020 -1.1339
 4798SOL    HW225854   2.220   0.767   8.190 -0.7987 -0.4863  0.9106
 4799SOL     OW25855   4.441   4.662   4.251  0.3298  0.1005  0.4325
 4799SOL    HW125856   4.488   0.000   4.198 -0.1441  0.0543 -0.0465
 4799SOL    HW225857   4.448   4.704   4.336  1.8377 -1.9564  1.2990
 4800SOL     OW25858   0.350   3.226   6.028  0.4311 -0.1257  0.0461
 4800SOL    HW125859   0.266   3.256   6.064  1.0349  0.7713  0.7289
 4800SOL    HW225860   0.330   3.150   5.975  0.9531 -0.3497  0.1657
 4801SOL     OW25861   0.538   4.534   9.974  0.2968  0.0089  0.0343
 4801SOL    HW125862   0.576   4.621   9.961  0.9109 -0.3794 -0.8188
 4801SOL    HW225863   0.588   4.503  10.049  0.1775  0.9233  0.4914
 4802SOL     OW25864   4.720   4.013   3.039 -0.1886  0.5558  0.2994
 4802SOL    HW125865   0.059   4.079   3.063  1.4611 -0.0030 -2.6518
 4802SOL    HW225866   4.696   3.984   3.127  0.4215  0.8398  0.5653
 4803SOL     OW25867   3.639   0.807  15.119 -0.1882 -0.0719 -0.2232
 4803SOL    HW125868   3.645   0.714  15.140  2.0268  0.2054  0.4032
 4803SOL    HW225869   3.634   0.799  15.024  0.0750 -0.6320 -0.1864
 4804SOL     OW25870   1.475   3.306   6.131  0.3757 -0.0242 -0.5175
 4804SOL    HW125871   1.569   3.322   6.142  0.3640 -0.8206  0.7826
 4804SOL    HW225872   1.453   3.246   6.202  0.4023  0.2479 -0.2824
 4805SOL     OW25873   4.006   4.559   0.969  0.1022 -0.3326 -0.3727
 4805SOL    HW125874   3.999   4.536   0.876  0.3835 -0.6238 -0.3199
 4805SOL    HW225875   4.100   4.577   0.978  0.5511 -2.0191 -1.5031
 4806SOL     OW25876   2.466   2.061   6.066  0.2336  0.1451 -0.1791
 4806SOL    HW125877   2.515   2.143   6.061  0.3345  0.2157  1.8175
 4806SOL    HW225878   2.389   2.092   6.115  0.4274 -0.0430  0.2475
 4807SOL     OW25879   3.656   4.537   4.159 -0.2369 -0.2725 -0.2295
 4807SOL    HW125880   3.590   4.606   4.155  1.0758  1.0203  0.3694
 4807SOL    HW225881   3.644   4.506   4.249 -0.4287 -0.9749 -0.5042
 4808SOL     OW25882   2.142   0.543   7.098  0.0314  0.2440 -1.0994
 4808SOL    HW125883   2.177   0.633   7.093  1.6366 -0.3259 -0.0243
 4808SOL    HW225884   2.048   0.554   7.113  0.4514 -0.8492  2.1169
 4809SOL     OW25885   2.640   2.933   2.229  0.4887  0.9780 -0.9677
 4809SOL    HW125886   2.700   3.007   2.243  3.5338 -1.5043 -0.8849
 4809SOL    HW225887   2.635   2.924   2.134 -1.7534 -1.8686 -0.5743
 4810SOL     OW25888   2.942   2.930   5.137 -0.1080 -0.2925  0.1632
 4810SOL    HW125889   3.020   2.985   5.137 -1.1058  1.1381  0.1776
 4810SOL    HW225890   2.871   2.993   5.150 -1.7709 -2.2353  0.5542
 4811SOL     OW25891   2.531   3.552   0.498 -0.1372 -0.6375 -0.2169
 4811SOL    HW125892   2.588   3.627   0.512 -2.2885  1.3470 -2.1735
 4811SOL    HW225893   2.552   3.536   0.406  0.2429  0.4383 -0.3086
 4812SOL     OW25894   2.491   4.129   3.911  0.1086 -0.5657  0.4098
 4812SOL    HW125895   2.555   4.135   3.982  1.8080  2.4027 -1.3914
 4812SOL    HW225896   2.510   4.041   3.879  2.3673 -0.0880  0.4263
 4813SOL     OW25897   2.128   3.635   1.215 -0.4096  0.1196 -0.3966
 4813SOL    HW125898   2.146   3.557   1.162 -0.2250  0.7547 -1.2636
 4813SOL    HW225899   2.113   3.602   1.304 -2.4725  1.7349 -0.1358
 4814SOL     OW25900   4.370   2.238   7.476  0.3799  0.7558  1.0388
 4814SOL    HW125901   4.419   2.229   7.394  0.4802 -0.5585  1.2417
 4814SOL    HW225902   4.360   2.333   7.481 -2.4212  0.5224 -0.1652
 4815SOL     OW25903   2.842   0.766  10.190 -0.2290  0.4387  0.4731
 4815SOL    HW125904   2.762   0.715  10.204 -0.7513  1.3242  0.6918
 4815SOL    HW225905   2.911   0.723  10.241  0.1004 -1.5119 -1.5989
 4816SOL     OW25906   3.533   4.722   8.808  0.1024  0.4461  0.1623
 4816SOL    HW125907   3.506   0.085   8.785 -0.2140 -0.0747 -1.4585
 4816SOL    HW225908   3.611   0.018   8.859 -2.3197  1.5131  3.3965
 4817SOL     OW25909   2.265   3.404   2.116 -0.0095 -0.1242 -0.0152
 4817SOL    HW125910   2.355   3.384   2.090 -0.0723 -0.6238  0.1398
 4817SOL    HW225911   2.283   3.409   2.210  1.4755  0.5037 -0.3344
 4818SOL     OW25912   0.570   3.318   6.522 -0.2985 -0.5576 -0.4230
 4818SOL    HW125913   0.592   3.231   6.489  0.6957  0.1826 -1.7416
 4818SOL    HW225914   0.547   3.308   6.614 -2.1016  1.4988 -0.6543
 4819SOL     OW25915   3.308   1.735   7.091 -0.2494  0.4415  0.3530
 4819SOL    HW125916   3.279   1.801   7.154  2.2611  1.3509  0.5687
 4819SOL    HW225917   3.291   1.776   7.007 -1.4453  0.2210  0.4770
 4820SOL     OW25918   3.762   0.769   1.553  0.1779  0.4276  0.0369
 4820SOL    HW125919   3.678   0.802   1.521  1.3993  2.4203 -1.0529
 4820SOL    HW225920   3.821   0.757   1.478  1.1505 -1.9061  1.1688
 4821SOL     OW25921   3.424   3.044   7.172 -0.3054 -0.0049 -0.1114
 4821SOL    HW125922   3.516   3.057   7.150 -0.1791  0.6481  0.8386
 4821SOL    HW225923   3.379   3.025   7.090 -0.7200 -2.5262  0.7168
 4822SOL     OW25924   0.824   0.626   5.147 -0.5958  0.3249  0.4490
 4822SOL    HW125925   0.765   0.558   5.116  1.3723  0.3954 -3.4998
 4822SOL    HW225926   0.821   0.690   5.076  1.3755  1.6787  1.5752
 4823SOL     OW25927   4.238   0.165  16.487  0.1657  0.3071 -0.5391
 4823SOL    HW125928   4.313   0.215  16.456  0.3725  0.8791  0.9135
 4823SOL    HW225929   4.258   0.091  16.429 -0.4609  0.2164 -0.6367
 4824SOL     OW25930   0.475   4.399  11.831 -0.2371 -0.0912  0.0212
 4824SOL    HW125931   0.562   4.408  11.868 -0.7817 -0.6301  1.4080
 4824SOL    HW225932   0.430   4.422  11.912  1.4211 -0.8850  1.1417
 4825SOL     OW25933   3.245   1.970   5.614  0.8173  0.2606 -0.7003
 4825SOL    HW125934   3.155   1.970   5.583  0.1487 -0.0315  1.1950
 4825SOL    HW225935   3.277   2.059   5.600  1.7615  0.1723  0.9057
 4826SOL     OW25936   2.387   2.205  14.927 -0.0824  0.4368 -0.2454
 4826SOL    HW125937   2.358   2.199  15.018 -1.1563  0.7400 -0.5663
 4826SOL    HW225938   2.308   2.246  14.891 -1.2671  0.4219  2.3447
 4827SOL     OW25939   1.346   0.298   6.117  0.0543  0.0158  0.0037
 4827SOL    HW125940   1.415   0.361   6.095 -0.5803  1.1480  1.2171
 4827SOL    HW225941   1.297   0.351   6.180  0.0255  0.3142 -0.2699
 4828SOL     OW25942   0.405   1.269  13.917 -0.2234  0.4002  0.5056
 4828SOL    HW125943   0.327   1.280  13.862 -0.8156  0.1273  1.2886
 4828SOL    HW225944   0.460   1.335  13.873 -1.4168 -0.4154 -2.2196
 4829SOL     OW25945   4.444   0.381   6.013 -0.8719 -0.1121  0.2956
 4829SOL    HW125946   4.521   0.367   5.958 -2.4077 -0.9239 -1.6502
 4829SOL    HW225947   4.445   0.476   6.022  1.8412 -0.0577 -0.4380
 4830SOL     OW25948   0.458   4.271  14.588 -0.4818 -0.2102  0.2553
 4830SOL    HW125949   0.418   4.192  14.626  0.5879 -0.4966  0.8145
 4830SOL    HW225950   0.383   4.330  14.585 -0.2283  0.0390 -0.8273
 4831SOL     OW25951   2.853   3.352   2.852  0.2496 -0.0393  0.0979
 4831SOL    HW125952   2.944   3.380   2.855  0.1055  0.5113 -0.5263
 4831SOL    HW225953   2.814   3.381   2.769 -0.0975 -1.0234 -0.0811
 4832SOL     OW25954   0.033   2.118   0.273 -0.1552  0.1445  0.2543
 4832SOL    HW125955   0.065   2.208   0.279 -0.6963  0.4852 -1.8740
 4832SOL    HW225956   0.101   2.067   0.317  0.8250  1.2133 -0.0338
 4833SOL     OW25957   4.042   0.324  17.469 -0.0529  0.8546 -0.0546
 4833SOL    HW125958   4.099   0.362  17.402 -0.7109  0.9378 -0.5699
 4833SOL    HW225959   4.073   0.372  17.546  0.1884  2.0769 -0.9031
 4834SOL     OW25960   0.863   1.385  15.980 -0.1048  0.5499  0.2184
 4834SOL    HW125961   0.795   1.426  16.034  1.2619  3.5150 -0.2989
 4834SOL    HW225962   0.944   1.424  16.013 -2.3476  3.6122  2.1509
 4835SOL     OW25963   3.004   0.810   8.836 -0.8328  0.1238  0.2827
 4835SOL    HW125964   3.018   0.718   8.814 -0.8587 -0.5876  3.2065
 4835SOL    HW225965   2.914   0.815   8.869 -0.9342 -4.5974  0.6409
 4836SOL     OW25966   2.772   3.508   5.409 -0.4198 -0.4074  0.0389
 4836SOL    HW125967   2.730   3.423   5.403  2.4314 -1.6976 -1.2962
 4836SOL    HW225968   2.859   3.493   5.445 -0.7965 -2.6225  0.0074
 4837SOL     OW25969   3.607   4.049   6.758 -0.0191 -0.4894  0.4135
 4837SOL    HW125970   3.653   4.129   6.731 -0.1122 -0.2062  1.1088
 4837SOL    HW225971   3.524   4.076   6.718  0.6773  2.5814  1.0200
 4838SOL     OW25972   1.780   0.207   2.548 -0.2036 -0.0825  0.3111
 4838SOL    HW125973   1.819   0.240   2.628  0.5767  1.2024 -0.6039
 4838SOL    HW225974   1.861   0.181   2.504 -0.9133 -2.5930  0.4701
 4839SOL     OW25975   1.745   3.077   4.008 -0.1685 -0.5843  0.7480
 4839SOL    HW125976   1.798   3.099   4.085  1.5298  0.3494 -0.6994
 4839SOL    HW225977   1.665   3.130   4.019  0.9660  1.1952  0.4221
 4840SOL     OW25978   2.723   2.208  16.388 -0.4591  0.3102 -0.4608
 4840SOL    HW125979   2.716   2.176  16.298 -0.9039  2.3226 -1.1615
 4840SOL    HW225980   2.708   2.303  16.385  4.1050  1.1267  2.0940
 4841SOL     OW25981   4.630   0.961   1.233 -0.0236 -0.4402  0.2985
 4841SOL    HW125982   4.544   0.965   1.191  1.4466  0.9578 -2.6339
 4841SOL    HW225983   4.630   0.871   1.266  1.8641  0.4046  2.6366
 4842SOL     OW25984   1.275   0.912  16.491  0.2270 -0.5068 -0.1772
 4842SOL    HW125985   1.242   0.954  16.411 -0.9697  2.5380  1.8922
 4842SOL    HW225986   1.301   0.827  16.456  1.2139 -0.7594  1.1666
 4843SOL     OW25987   4.648   1.365  16.178  0.6422 -0.0173  0.0865
 4843SOL    HW125988   4.587   1.392  16.109 -0.2128  0.5321  1.0660
 4843SOL    HW225989   4.676   1.283  16.138  0.8830  0.1733 -0.1388
 4844SOL     OW25990   3.401   4.344   6.834 -0.2220  0.1095 -0.3415
 4844SOL    HW125991   3.319   4.390   6.813 -0.2831  0.3240  0.3848
 4844SOL    HW225992   3.471   4.387   6.784 -0.8370 -0.6309 -1.8550
 4845SOL     OW25993   2.583   2.570  13.878  0.6508  0.0646 -0.2393
 4845SOL    HW125994   2.640   2.492  13.877 -0.8694 -1.0176 -2.7108
 4845SOL    HW225995   2.588   2.605  13.790 -4.4937 -0.8395 -0.8356
 4846SOL     OW25996   2.619   0.555   6.472 -0.1588  0.2207 -0.3911
 4846SOL    HW125997   2.591   0.607   6.397 -1.2864  2.0357  1.2562
 4846SOL    HW225998   2.610   0.616   6.546 -1.2227  1.4128 -1.5010
 4847SOL     OW25999   3.935   1.979   7.670  0.1852 -0.9791  0.2925
 4847SOL    HW126000   3.933   1.889   7.702  2.4079 -0.5047  1.7493
 4847SOL    HW226001   4.021   1.986   7.629  0.0868 -0.0564  0.2527
 4848SOL     OW26002   1.027   2.298   4.571  0.1231 -0.1418  0.1203
 4848SOL    HW126003   0.977   2.222   4.541  0.2714  0.2029 -0.9898
 4848SOL    HW226004   0.982   2.380   4.550 -1.5875 -1.2610 -0.6231
 4849SOL     OW26005   1.892   0.010   5.648  0.1645 -0.6842  0.7470
 4849SOL    HW126006   1.798   4.722   5.659  0.1093 -2.1591 -1.4471
 4849SOL    HW226007   1.923   0.031   5.736 -1.2606 -0.3571  1.1752
 4850SOL     OW26008   3.627   3.515   2.849  0.1631 -0.0719  0.0671
 4850SOL    HW126009   3.669   3.601   2.837 -1.6626  0.9637  1.0666
 4850SOL    HW226010   3.637   3.474   2.763 -0.5913 -1.5778  0.6932
 4851SOL     OW26011   4.092   0.483   4.093  0.3663 -0.0340  0.2077
 4851SOL    HW126012   4.182   0.461   4.117  0.7786 -2.0149 -3.1762
 4851SOL    HW226013   4.065   0.396   4.065  1.0876 -0.1432 -0.1699
 4852SOL     OW26014   2.395   4.705   0.361  0.6111 -0.0523 -0.3104
 4852SOL    HW126015   2.401   0.057   0.414 -1.9453  0.1961 -0.3746
 4852SOL    HW226016   2.393   0.017   0.273  0.8810 -2.2487 -1.2928
 4853SOL     OW26017   3.942   0.605   5.074 -0.1809 -0.1505 -0.3423
 4853SOL    HW126018   3.905   0.598   4.986 -0.7896  0.8193 -0.1638
 4853SOL    HW226019   3.879   0.550   5.120 -0.6711  1.7928  1.3071
 4854SOL     OW26020   4.189   2.490   5.712  0.0129  0.1916  0.1204
 4854SOL    HW126021   4.284   2.480   5.720  0.2009  0.6960 -1.4371
 4854SOL    HW226022   4.169   2.447   5.629  1.7728  0.1285 -0.2627
 4855SOL     OW26023   1.702   4.405   6.501  0.4371 -0.1155  0.6839
 4855SOL    HW126024   1.628   4.412   6.562 -0.3687  0.4169 -0.3518
 4855SOL    HW226025   1.663   4.361   6.425 -2.7459 -0.0277  2.2552
 4856SOL     OW26026   3.852   2.009   9.020 -0.5410 -0.7017 -0.2085
 4856SOL    HW126027   3.892   2.089   9.055  2.0477 -2.2630  0.3602
 4856SOL    HW226028   3.810   1.973   9.098  1.8192 -0.8789  0.9833
 4857SOL     OW26029   2.134   2.577  12.416 -0.3261 -0.5063  0.5914
 4857SOL    HW126030   2.095   2.505  12.368  0.2154 -0.1790 -0.3432
 4857SOL    HW226031   2.057   2.607  12.465  1.0905  0.2380  2.3939
 4858SOL     OW26032   2.415   1.470  11.935  0.2223  0.3610 -0.0011
 4858SOL    HW126033   2.437   1.471  12.028  0.1412 -2.9867  0.0683
 4858SOL    HW226034   2.329   1.428  11.933 -0.7768  2.5246 -2.4157
 4859SOL     OW26035   2.456   3.609   1.495  0.0488  0.2342 -0.4954
 4859SOL    HW126036   2.471   3.675   1.427 -0.2942  0.5599 -0.2540
 4859SOL    HW226037   2.482   3.528   1.451  2.7470 -0.1124  1.7367
 4860SOL     OW26038   1.476   1.079   6.885 -0.0655  0.2807 -0.2474
 4860SOL    HW126039   1.456   1.161   6.839 -1.1554  1.0674  1.6575
 4860SOL    HW226040   1.554   1.107   6.933  0.8348 -1.9125 -0.4296
 4861SOL     OW26041   4.378   3.489   9.156 -0.3794  0.0327  0.1877
 4861SOL    HW126042   4.416   3.558   9.210  2.0587 -0.1389 -1.2921
 4861SOL    HW226043   4.293   3.482   9.199 -0.8148 -0.1388 -0.7049
 4862SOL     OW26044   1.762   3.784  14.517  0.0096 -0.0642  0.5504
 4862SOL    HW126045   1.823   3.753  14.583  0.1247  0.7751  0.8407
 4862SOL    HW226046   1.804   3.787  14.431 -0.7993 -1.7578  0.1020
 4863SOL     OW26047   4.585   4.697   1.889 -0.0618  0.7439 -0.2858
 4863SOL    HW126048   4.495   4.707   1.857 -0.1661 -0.8859 -0.5009
 4863SOL    HW226049   4.597   4.602   1.885  0.5852  0.7765  1.0261
 4864SOL     OW26050   2.550   3.886   4.496  0.1754 -0.6774  0.4299
 4864SOL    HW126051   2.625   3.885   4.437  0.4304  0.9178  0.7230
 4864SOL    HW226052   2.486   3.912   4.429 -0.3954  0.7997  1.5658
 4865SOL     OW26053   2.533   3.262  13.768 -0.1112 -0.4445  0.1185
 4865SOL    HW126054   2.568   3.263  13.857  1.2939  0.8442 -0.4321
 4865SOL    HW226055   2.605   3.231  13.712 -0.0223  1.0271 -0.5848
 4866SOL     OW26056   0.401   0.389   7.185  0.1338  0.3159  0.1485
 4866SOL    HW126057   0.460   0.456   7.151  1.0731 -0.1047  0.9604
 4866SOL    HW226058   0.317   0.434   7.176  0.0835  0.3433  0.7302
 4867SOL     OW26059   4.118   2.179   8.602 -0.1700 -0.3792 -0.8330
 4867SOL    HW126060   4.056   2.241   8.640  0.9159  0.8265 -1.0418
 4867SOL    HW226061   4.106   2.114   8.672 -0.6854  0.5313 -0.0759
 4868SOL     OW26062   4.632   2.433   2.697 -0.8683  0.1463  0.3405
 4868SOL    HW126063   4.619   2.489   2.621 -1.4049  0.2029  0.4796
 4868SOL    HW226064   4.560   2.447   2.757  0.1239  1.0479  1.3096
 4869SOL     OW26065   0.625   3.873  10.495 -0.3443 -0.2063  0.3312
 4869SOL    HW126066   0.644   3.844  10.406 -2.5138 -1.7643  0.3592
 4869SOL    HW226067   0.711   3.910  10.511 -0.7541  1.8337 -2.2223
 4870SOL     OW26068   3.650   4.660   2.787  0.7822  0.0042 -0.2047
 4870SOL    HW126069   3.729   4.614   2.814  0.7439  0.5406  0.8085
 4870SOL    HW226070   3.580   4.627   2.843  1.7148  2.7733  2.5808
 4871SOL     OW26071   2.414   3.180   2.415  0.3978  0.5043 -0.5759
 4871SOL    HW126072   2.399   3.239   2.342  0.8340 -0.9748 -1.8699
 4871SOL    HW226073   2.367   3.101   2.386  0.0493  0.2902  0.5725
 4872SOL     OW26074   1.133   2.069   3.079  0.4965  0.3698  0.2279
 4872SOL    HW126075   1.062   2.112   3.031  1.4603 -1.4029 -2.7699
 4872SOL    HW226076   1.207   2.122   3.050 -1.4394  2.4803 -0.9150
 4873SOL     OW26077   1.030   0.618   8.870  0.0820  0.5387 -0.0458
 4873SOL    HW126078   0.998   0.704   8.898  2.3146  1.6132 -0.7030
 4873SOL    HW226079   1.065   0.642   8.784  0.4716  1.5337  0.3792
 4874SOL     OW26080   1.667   4.035   3.078 -0.2774  0.1594 -0.9592
 4874SOL    HW126081   1.739   3.972   3.068 -0.7634 -0.6123  0.3973
 4874SOL    HW226082   1.676   4.092   3.002 -1.7479 -2.3452 -3.0046
 4875SOL     OW26083   4.437   1.333   4.994  0.4948 -0.0698 -0.1629
 4875SOL    HW126084   4.370   1.386   5.036  1.1676  0.4787  0.2277
 4875SOL    HW226085   4.510   1.393   5.007 -0.4457  1.4092 -1.7975
 4876SOL     OW26086   2.682   4.467   6.647  0.1162 -0.0370 -0.3181
 4876SOL    HW126087   2.758   4.423   6.609  1.8382  1.6588  1.1204
 4876SOL    HW226088   2.610   4.416   6.613  0.3193  0.3234 -1.2914
 4877SOL     OW26089   0.063   4.173  12.019  0.2664 -0.4755 -0.2031
 4877SOL    HW126090   0.019   4.223  11.950  2.3036  2.0936  0.3945
 4877SOL    HW226091   4.726   4.104  12.042 -1.9105  1.2839 -0.9127
 4878SOL     OW26092   4.459   2.690   5.593  0.1811  0.3281  0.1522
 4878SOL    HW126093   4.446   2.727   5.681  2.2526 -1.9098  1.4045
 4878SOL    HW226094   4.389   2.723   5.537 -1.5326  0.0212  2.0981
 4879SOL     OW26095   2.135   4.418   8.494  0.0762  0.0602 -0.2304
 4879SOL    HW126096   2.116   4.471   8.572 -0.4040 -0.3207 -0.0876
 4879SOL    HW226097   2.122   4.487   8.429 -0.8669 -1.3533 -1.5421
 4880SOL     OW26098   1.162   3.371   1.788  0.3316  0.0426  0.8795
 4880SOL    HW126099   1.165   3.276   1.774  0.3875  0.0817  0.6163
 4880SOL    HW226100   1.107   3.362   1.866  0.0044  0.8828  0.7493
 4881SOL     OW26101   4.708   3.093  10.336 -0.1807  0.0188  0.3025
 4881SOL    HW126102   0.022   3.123  10.417 -0.1046  0.4776  0.0958
 4881SOL    HW226103   4.679   3.179  10.305 -2.1461 -1.3688 -1.6667
 4882SOL     OW26104   1.920   1.576   3.007  0.3123 -0.2030  0.2704
 4882SOL    HW126105   1.867   1.645   2.967 -0.8780 -2.1447 -1.5151
 4882SOL    HW226106   1.886   1.581   3.096 -0.9048 -2.2334 -0.0803
 4883SOL     OW26107   2.153   0.487  13.547  0.1982 -0.3240 -0.6076
 4883SOL    HW126108   2.187   0.450  13.628 -3.5654  0.1441  1.1968
 4883SOL    HW226109   2.186   0.428  13.479  3.2772  0.0752  0.5342
 4884SOL     OW26110   2.570   2.799   7.088 -0.5022  0.4941  0.5530
 4884SOL    HW126111   2.631   2.798   7.162 -0.6493 -0.5909  0.6436
 4884SOL    HW226112   2.602   2.855   7.016 -2.0508  2.1809  1.1801
 4885SOL     OW26113   1.968   0.390  17.373 -0.2552 -0.2073 -0.3730
 4885SOL    HW126114   1.884   0.355  17.343 -0.0988 -0.3025 -0.6940
 4885SOL    HW226115   1.962   0.352  17.461 -2.6115 -0.1798 -0.5050
 4886SOL     OW26116   0.533   0.097   2.448 -0.6172  0.6413 -0.4388
 4886SOL    HW126117   0.537   0.002   2.442  2.1675  0.7789 -0.4431
 4886SOL    HW226118   0.591   0.112   2.523 -1.4861  0.3895  0.2901
 4887SOL     OW26119   2.446   3.266   2.890 -0.3541 -0.0955  0.4533
 4887SOL    HW126120   2.375   3.248   2.951  1.1895  0.5185  2.4045
 4887SOL    HW226121   2.520   3.211   2.917  0.4675  0.5383 -0.4767
 4888SOL     OW26122   2.131   1.117   5.942  0.1752  0.4281 -0.0878
 4888SOL    HW126123   2.203   1.179   5.950  1.2658 -1.1311  2.5350
 4888SOL    HW226124   2.173   1.041   5.983 -1.4628  0.6642  2.0695
 4889SOL     OW26125   4.199   3.107  15.639  0.2874 -0.2846 -0.4329
 4889SOL    HW126126   4.198   3.072  15.728  0.2059  1.6785  0.3287
 4889SOL    HW226127   4.294   3.109  15.627  0.0852  0.8509 -1.7342
 4890SOL     OW26128   1.471   0.173   0.580  0.2543  0.1401 -0.0014
 4890SOL    HW126129   1.501   0.195   0.492 -0.4437 -0.3745 -0.3689
 4890SOL    HW226130   1.541   0.202   0.638  0.4706 -0.4784  0.0541
 4891SOL     OW26131   3.646   2.375  15.124  0.5870  0.0979  0.0921
 4891SOL    HW126132   3.730   2.329  15.110 -0.6308 -1.4811 -1.9433
 4891SOL    HW226133   3.605   2.372  15.038 -0.1917  2.2458  0.3870
 4892SOL     OW26134   2.742   1.361   9.014 -0.2439  0.2119 -0.5734
 4892SOL    HW126135   2.784   1.393   9.094  2.0067  0.4199 -1.8412
 4892SOL    HW226136   2.651   1.341   9.036 -0.4354  0.4292 -1.1650
 4893SOL     OW26137   1.736   3.733   7.246 -0.1849 -0.1593 -0.2235
 4893SOL    HW126138   1.766   3.691   7.327  0.0400 -1.5530 -1.0251
 4893SOL    HW226139   1.669   3.789   7.285  1.2706  0.7217  0.9981
 4894SOL     OW26140   4.557   0.990   2.429 -0.1101  0.0821 -0.0537
 4894SOL    HW126141   4.606   0.945   2.360 -0.7495  0.4191 -0.7244
 4894SOL    HW226142   4.484   1.019   2.374 -2.1731 -1.3448  1.9075
 4895SOL     OW26143   1.619   3.432   3.156  0.0669 -0.1065  0.1418
 4895SOL    HW126144   1.612   3.474   3.241 -1.2204  0.1671 -0.0921
 4895SOL    HW226145   1.699   3.382   3.172 -1.3351 -1.8399  1.8575
 4896SOL     OW26146   2.311   2.812   5.963  0.2037  0.5948  0.2429
 4896SOL    HW126147   2.371   2.860   5.906  2.0209 -1.8778  0.0519
 4896SOL    HW226148   2.223   2.845   5.951  0.1139  0.4976  0.6312
 4897SOL     OW26149   4.294   0.054   5.272 -0.5730 -1.0617  0.3584
 4897SOL    HW126150   4.349   0.131   5.284  0.4958 -1.7086 -0.4442
 4897SOL    HW226151   4.304   0.026   5.181 -1.0769 -0.7038  0.1887
 4898SOL     OW26152   2.824   1.733   1.724  0.0312  0.3532  0.1557
 4898SOL    HW126153   2.733   1.757   1.711  0.4163  0.6860 -1.9346
 4898SOL    HW226154   2.870   1.772   1.650  1.4299  0.9719  1.3672
 4899SOL     OW26155   1.343   4.510   6.813  0.4579  0.1726  0.2741
 4899SOL    HW126156   1.304   4.586   6.857 -1.5939 -0.6018 -0.2034
 4899SOL    HW226157   1.272   4.446   6.814 -0.1881  0.8457 -2.1501
 4900SOL     OW26158   4.136   1.687   5.678  0.6869 -1.0385 -0.0224
 4900SOL    HW126159   4.188   1.719   5.604  0.2961 -1.2513 -0.3930
 4900SOL    HW226160   4.054   1.664   5.634  0.4486 -0.5627  0.1663
 4901SOL     OW26161   1.687   1.957   6.927 -0.1282 -0.0409  0.7379
 4901SOL    HW126162   1.644   1.884   6.881 -1.8580  0.2827  1.8985
 4901SOL    HW226163   1.780   1.931   6.929 -0.6628 -1.9664  0.8033
 4902SOL     OW26164   4.148   0.079   3.045  0.0956 -0.5096  0.1180
 4902SOL    HW126165   4.104   0.026   2.979  0.1915 -1.3948  0.7789
 4902SOL    HW226166   4.167   4.726   3.094  0.6778 -0.9771 -0.8712
 4903SOL     OW26167   3.195   0.168   5.368  0.4212 -0.3067  0.3774
 4903SOL    HW126168   3.112   0.180   5.415  1.2334 -2.5019  2.3904
 4903SOL    HW226169   3.151   0.197   5.288  1.3367 -0.4603 -0.1676
 4904SOL     OW26170   4.406   3.462   4.408 -0.1827  0.2162  0.0588
 4904SOL    HW126171   4.469   3.529   4.379  1.4196 -1.6660 -0.8140
 4904SOL    HW226172   4.466   3.415   4.467 -1.9604 -0.7626  1.0707
 4905SOL     OW26173   4.135   1.060   4.580  0.1346 -0.4988  0.0757
 4905SOL    HW126174   4.177   1.024   4.501  0.7007  1.9655 -0.7296
 4905SOL    HW226175   4.208   1.076   4.640  0.8101 -1.9019 -0.3597
 4906SOL     OW26176   1.936   4.461   6.614 -0.3802  0.3106  0.4592
 4906SOL    HW126177   1.976   4.376   6.632  0.5795  0.3588 -1.3923
 4906SOL    HW226178   1.851   4.434   6.580 -0.6182  0.9431  0.5589
 4907SOL     OW26179   2.896   0.149   4.742  0.4821  0.6997  1.2266
 4907SOL    HW126180   2.814   0.111   4.713  1.1815 -0.2058  0.4120
 4907SOL    HW226181   2.863   0.237   4.759  2.9674  1.5429  1.7205
 4908SOL     OW26182   3.039   0.278   7.230 -0.1734  0.3532 -0.1918
 4908SOL    HW126183   3.004   0.299   7.316  0.2079  3.0388 -0.6658
 4908SOL    HW226184   2.961   0.254   7.181  1.6660  0.1159 -2.9948
 4909SOL     OW26185   1.894   4.125   8.273 -0.8652 -0.1231 -0.4668
 4909SOL    HW126186   1.964   4.163   8.219  1.4959 -2.7729  0.7683
 4909SOL    HW226187   1.827   4.192   8.260 -0.8866 -0.3842 -1.6981
 4910SOL     OW26188   4.083   0.178   6.174  0.0324 -0.1950  0.2417
 4910SOL    HW126189   4.005   0.169   6.229 -2.5693  0.9202 -3.2419
 4910SOL    HW226190   4.158   0.147   6.224 -1.0539 -3.5539 -0.2474
 4911SOL     OW26191   3.871   3.985   8.807  0.0336  0.7469  0.7590
 4911SOL    HW126192   3.793   3.945   8.769  0.2909 -0.2249  1.2577
 4911SOL    HW226193   3.840   4.074   8.821  2.0473  1.2575  1.9722
 4912SOL     OW26194   0.964   0.997   7.795 -0.7983 -0.0508 -0.8701
 4912SOL    HW126195   0.912   1.010   7.715 -3.1556  0.2507  0.7045
 4912SOL    HW226196   0.893   0.982   7.857 -0.9260 -3.2011 -1.8050
 4913SOL     OW26197   2.442   4.618   1.910  0.0554 -0.2666  0.3682
 4913SOL    HW126198   2.428   4.565   1.988 -0.3964 -0.5324  0.1044
 4913SOL    HW226199   2.532   4.601   1.881 -0.2707 -2.3188  0.5524
 4914SOL     OW26200   4.049   0.646  12.937  0.0695  0.7331  0.1051
 4914SOL    HW126201   4.129   0.638  12.989 -1.0901 -0.8133  1.6727
 4914SOL    HW226202   4.031   0.552  12.927  0.1669  0.5761  1.3810
 4915SOL     OW26203   0.156   3.966   2.762  0.4157 -0.2367  0.7036
 4915SOL    HW126204   0.252   3.961   2.765  0.2901 -3.0234  0.6215
 4915SOL    HW226205   0.123   3.969   2.852 -0.5111  3.0069  0.2458
 4916SOL     OW26206   1.144   4.386   2.507  0.1496  0.1834  0.5684
 4916SOL    HW126207   1.224   4.334   2.493  1.6557  2.7468 -0.3787
 4916SOL    HW226208   1.085   4.318   2.538 -1.0648  0.4617 -1.0931
 4917SOL     OW26209   0.876   2.315   1.320 -0.2822  0.6253  0.3996
 4917SOL    HW126210   0.947   2.317   1.383  0.4326 -0.1711 -0.3703
 4917SOL    HW226211   0.815   2.254   1.363 -2.3920  0.8214 -2.3137
 4918SOL     OW26212   3.803   4.297   1.350  0.5125 -0.4925  0.1635
 4918SOL    HW126213   3.714   4.329   1.360  1.1901  1.0592  1.1833
 4918SOL    HW226214   3.843   4.337   1.273 -0.6234  2.3085  1.0413
 4919SOL     OW26215   2.707   3.013   0.672 -0.1185  0.0042  0.3954
 4919SOL    HW126216   2.773   3.052   0.729  0.9831  1.2197 -1.7119
 4919SOL    HW226217   2.687   3.082   0.609 -1.2556 -0.5175  0.1800
 4920SOL     OW26218   4.478   2.541   7.148 -0.4217  0.1539 -0.4790
 4920SOL    HW126219   4.500   2.634   7.144 -0.5021  0.1865 -0.2086
 4920SOL    HW226220   4.561   2.506   7.180 -0.7581  2.8204  3.2839
 4921SOL     OW26221   0.185   1.184   8.948  0.0103 -0.1713 -0.0180
 4921SOL    HW126222   0.103   1.232   8.938 -0.9415 -1.7187  0.4092
 4921SOL    HW226223   0.246   1.250   8.915  1.3345 -0.7365  1.3115
 4922SOL     OW26224   4.294   3.127   6.782  0.4225 -0.9273  0.1221
 4922SOL    HW126225   4.314   3.036   6.759 -0.1352 -0.6335 -1.5445
 4922SOL    HW226226   4.325   3.162   6.698 -2.0509  0.1391 -0.3480
 4923SOL     OW26227   1.100   2.968   8.550  0.2437 -0.4161  0.2861
 4923SOL    HW126228   1.177   2.914   8.569  1.2181  0.1258 -2.1605
 4923SOL    HW226229   1.100   2.957   8.455 -1.9237  3.5518 -0.1624
 4924SOL     OW26230   3.125   1.510   7.067  0.1017  0.2416 -0.6528
 4924SOL    HW126231   3.196   1.574   7.060  0.3864 -0.0016  0.0228
 4924SOL    HW226232   3.126   1.494   7.161  0.5566  1.8778 -0.3677
 4925SOL     OW26233   1.260   3.730  12.120 -0.0697  0.1255 -0.7458
 4925SOL    HW126234   1.274   3.640  12.148  0.3935 -0.4473 -2.7663
 4925SOL    HW226235   1.165   3.722  12.119 -0.0892  0.2884  0.0979
 4926SOL     OW26236   3.497   0.839   8.889  0.0385  0.0372  0.4748
 4926SOL    HW126237   3.443   0.899   8.941  1.2957  1.0569  0.6213
 4926SOL    HW226238   3.466   0.864   8.802  0.5601 -1.2572 -0.0775
 4927SOL     OW26239   2.467   4.240   7.177  0.6890 -0.3025  0.3749
 4927SOL    HW126240   2.525   4.313   7.198  0.3768 -0.0415  0.3214
 4927SOL    HW226241   2.380   4.263   7.210  0.3589 -0.9916 -0.0047
 4928SOL     OW26242   1.240   2.303   6.319  0.2686  0.2122 -0.0600
 4928SOL    HW126243   1.321   2.311   6.267  0.1460 -0.8106 -0.4083
 4928SOL    HW226244   1.168   2.330   6.262  1.0671 -0.2652 -1.2797
 4929SOL     OW26245   2.663   0.974  15.659  0.2059  0.0217  0.3610
 4929SOL    HW126246   2.591   1.036  15.673  1.5335  1.0520  2.4718
 4929SOL    HW226247   2.679   0.953  15.750 -1.5365 -0.9121  0.4625
 4930SOL     OW26248   3.261   3.326   7.063 -0.4435 -0.5627  0.2167
 4930SOL    HW126249   3.241   3.287   6.978 -2.1216 -0.2541  0.4796
 4930SOL    HW226250   3.185   3.300   7.114 -1.7745  1.4255 -0.7562
 4931SOL     OW26251   0.657   4.560   9.091 -0.4826 -0.0133  0.1209
 4931SOL    HW126252   0.639   4.523   9.178  2.5322 -2.5973 -0.3433
 4931SOL    HW226253   0.717   4.629   9.121 -0.5297  0.7318 -1.5324
 4932SOL     OW26254   0.037   3.534  10.489  0.8306  0.6105 -0.3277
 4932SOL    HW126255   0.020   3.491  10.572  2.3503 -0.9041 -0.8242
 4932SOL    HW226256   4.677   3.531  10.446 -0.1363  0.9540  1.5847
 4933SOL     OW26257   0.867   0.928  16.946  0.3103 -0.0022  0.2956
 4933SOL    HW126258   0.797   0.912  17.009 -1.3160  0.8598 -1.3134
 4933SOL    HW226259   0.891   1.019  16.967  1.8387  0.1625 -2.1564
 4934SOL     OW26260   2.220   2.091   6.280 -0.0012  0.4013  0.4539
 4934SOL    HW126261   2.176   2.007   6.269 -0.2397  0.4683  0.8844
 4934SOL    HW226262   2.196   2.123   6.193 -1.0123 -2.8679 -0.4762
 4935SOL     OW26263   1.899   3.394   9.050  0.2327  0.3328 -0.0143
 4935SOL    HW126264   1.946   3.474   9.074  0.3611 -0.0180  0.8851
 4935SOL    HW226265   1.910   3.347   9.132 -2.4191 -0.7123 -0.2771
 4936SOL     OW26266   2.172   2.119  15.760  0.5576 -0.7136  0.3910
 4936SOL    HW126267   2.104   2.083  15.703  1.1073 -1.6261  0.3201
 4936SOL    HW226268   2.241   2.053  15.758  1.3731  0.1618 -0.4945
 4937SOL     OW26269   4.115   2.440   4.539  0.8528  0.5575  0.1204
 4937SOL    HW126270   4.206   2.469   4.531 -0.2301  3.6937 -1.0852
 4937SOL    HW226271   4.110   2.421   4.633  1.9550 -0.9774 -0.1335
 4938SOL     OW26272   3.311   2.299   2.638 -0.6582 -0.2078  0.1590
 4938SOL    HW126273   3.343   2.332   2.554 -0.5675 -1.3355 -0.2497
 4938SOL    HW226274   3.370   2.344   2.699 -0.6909 -0.0944  0.1070
 4939SOL     OW26275   2.942   4.539   8.648 -0.0426 -0.7972  0.3674
 4939SOL    HW126276   3.019   4.504   8.692 -0.7478 -0.2154  2.0347
 4939SOL    HW226277   2.874   4.536   8.715 -0.4946  0.3444 -0.0348
 4940SOL     OW26278   2.004   1.722   7.872  0.4220  0.1330 -0.3286
 4940SOL    HW126279   2.069   1.676   7.926  0.2485  1.0118  0.6158
 4940SOL    HW226280   2.015   1.807   7.914  1.2890  1.0183 -2.3565
 4941SOL     OW26281   0.845   4.725   7.397 -0.4026 -0.0173  0.0781
 4941SOL    HW126282   0.805   0.078   7.433  1.0394  1.7818 -2.3099
 4941SOL    HW226283   0.837   4.667   7.473 -1.4262 -0.3317 -0.2577
 4942SOL     OW26284   1.340   4.599  15.662 -0.3031 -0.0265  0.6787
 4942SOL    HW126285   1.352   4.587  15.568 -0.0531 -0.6066  0.7828
 4942SOL    HW226286   1.381   4.523  15.704  1.6603 -1.1957 -3.3603
 4943SOL     OW26287   2.008   0.057   8.136 -0.0154  0.4786 -0.5443
 4943SOL    HW126288   2.080   0.088   8.083  1.7302 -0.9782  0.9677
 4943SOL    HW226289   1.945   0.122   8.105 -2.1383 -0.5785  1.5233
 4944SOL     OW26290   0.998   0.961   7.101  0.3805 -0.3511  0.0801
 4944SOL    HW126291   1.082   0.997   7.074  0.3898 -0.5322 -0.1389
 4944SOL    HW226292   0.981   0.881   7.051 -0.5333  0.5284 -0.9972
 4945SOL     OW26293   1.350   4.223   2.439  0.7140  0.5339 -0.1812
 4945SOL    HW126294   1.420   4.287   2.441  0.4317  0.8505 -0.7163
 4945SOL    HW226295   1.407   4.147   2.454 -0.1692  0.1376  1.1959
 4946SOL     OW26296   1.097   1.888  12.315  0.2082  0.0760 -0.0731
 4946SOL    HW126297   1.144   1.902  12.233  0.6896 -1.9525 -0.1464
 4946SOL    HW226298   1.146   1.943  12.376  1.1927 -0.7217 -0.1523
 4947SOL     OW26299   1.211   1.826   9.101  0.1366  0.4847  0.0120
 4947SOL    HW126300   1.298   1.858   9.077  0.4522 -0.5120 -0.1514
 4947SOL    HW226301   1.194   1.847   9.193  2.8564 -3.0946  1.3393
 4948SOL     OW26302   2.182   1.633   5.532 -0.4956 -0.2973 -0.6551
 4948SOL    HW126303   2.271   1.667   5.539  0.3183 -2.6386  0.5760
 4948SOL    HW226304   2.197   1.538   5.532 -0.3453 -0.2843  1.5750
 4949SOL     OW26305   2.623   0.793   2.599 -0.2652 -0.1669  0.7727
 4949SOL    HW126306   2.610   0.756   2.512 -1.4318  1.9194  0.0657
 4949SOL    HW226307   2.546   0.755   2.643 -0.0504 -2.6340 -0.9845
 4950SOL     OW26308   2.794   1.710   2.237  1.0278  0.0668  0.1126
 4950SOL    HW126309   2.732   1.649   2.276 -0.9802  1.1070 -1.4393
 4950SOL    HW226310   2.809   1.674   2.150 -2.5110  0.4209 -0.6430
 4951SOL     OW26311   3.088   1.065   4.270  0.3699 -0.2517  0.0679
 4951SOL    HW126312   3.046   1.070   4.184 -0.4135 -0.1910  0.4569
 4951SOL    HW226313   3.024   1.121   4.313  1.0896 -0.0616  0.8834
 4952SOL     OW26314   3.527   4.010   6.404  0.5585  0.3110 -0.2610
 4952SOL    HW126315   3.499   4.096   6.372  1.8079  0.3569 -1.1827
 4952SOL    HW226316   3.475   4.007   6.485 -0.4581 -2.3037 -1.0006
 4953SOL     OW26317   3.402   3.144  15.435  0.5063  0.0500 -0.2792
 4953SOL    HW126318   3.347   3.214  15.470  1.4169  0.7152 -0.1758
 4953SOL    HW226319   3.364   3.070  15.482 -0.4312  0.3903 -0.4906
 4954SOL     OW26320   1.235   3.036   0.061 -0.0629  0.5012 -0.3006
 4954SOL    HW126321   1.252   2.999  17.681  0.7030 -0.5131  0.2838
 4954SOL    HW226322   1.226   2.955   0.112  1.7750 -0.2429 -1.1407
 4955SOL     OW26323   1.137   3.389   8.772 -0.2513  0.1140  0.4639
 4955SOL    HW126324   1.097   3.311   8.733  0.6684  0.2168 -0.6587
 4955SOL    HW226325   1.101   3.398   8.861 -2.2617  0.6388 -0.3922
 4956SOL     OW26326   2.337   1.755   9.183 -0.3468 -0.2262  0.5576
 4956SOL    HW126327   2.319   1.760   9.277  1.5875  1.9039  0.7995
 4956SOL    HW226328   2.251   1.782   9.152 -0.2761  0.0758  0.6286
 4957SOL     OW26329   3.895   0.544   8.452 -0.4808 -0.3190 -0.2652
 4957SOL    HW126330   3.827   0.571   8.389  1.7307 -0.0876 -2.5429
 4957SOL    HW226331   3.940   0.477   8.401  0.3066  0.2390 -0.2853
 4958SOL     OW26332   1.739   1.491   5.668  0.9720  0.0064  0.1786
 4958SOL    HW126333   1.656   1.450   5.694  1.0515 -0.9906 -1.2012
 4958SOL    HW226334   1.753   1.560   5.733 -0.7226 -0.8760  1.4731
 4959SOL     OW26335   0.074   0.182   3.271 -0.1624 -0.1453 -0.2463
 4959SOL    HW126336   0.075   0.114   3.338  0.2110 -0.8635 -0.9866
 4959SOL    HW226337   0.071   0.262   3.324  1.1293 -0.7135  0.6842
 4960SOL     OW26338   3.294   1.881  16.511 -0.6210 -0.6006 -0.2124
 4960SOL    HW126339   3.307   1.941  16.584 -4.2686 -0.2795  0.1431
 4960SOL    HW226340   3.289   1.794  16.551  3.1155 -0.7068  0.1072
 4961SOL     OW26341   4.376   2.572  16.558 -0.1860  1.0577  0.3409
 4961SOL    HW126342   4.354   2.514  16.485 -2.5441  0.1695  1.7453
 4961SOL    HW226343   4.351   2.651  16.511 -0.3153  0.0356 -1.2955
 4962SOL     OW26344   4.398   0.611  13.332  0.1738  0.0400  0.1866
 4962SOL    HW126345   4.364   0.604  13.243 -1.9230 -0.1214  1.0130
 4962SOL    HW226346   4.418   0.521  13.357  1.6981  0.5160  0.6773
 4963SOL     OW26347   3.053   3.187  17.478 -0.3814 -0.7899 -0.8894
 4963SOL    HW126348   3.079   3.265  17.429  0.4963 -0.5125  0.0152
 4963SOL    HW226349   2.961   3.207  17.498 -0.2249 -0.2178 -0.7473
 4964SOL     OW26350   2.043   0.859   4.952  0.0361  0.3121 -0.5656
 4964SOL    HW126351   2.102   0.917   4.905 -0.0687 -0.5035 -1.7154
 4964SOL    HW226352   2.111   0.802   4.989  0.1362  1.2950  0.7748
 4965SOL     OW26353   1.027   1.992   3.661  0.2033  0.0606 -0.1224
 4965SOL    HW126354   1.049   2.062   3.722 -0.7400  1.0595 -0.9258
 4965SOL    HW226355   1.067   2.019   3.579  2.4974 -1.3931  0.5359
 4966SOL     OW26356   3.207   2.249  16.921  0.3071  0.2085  0.3741
 4966SOL    HW126357   3.160   2.331  16.905  4.2572  2.3589 -0.2206
 4966SOL    HW226358   3.292   2.292  16.930  0.1663  0.2730  1.4628
 4967SOL     OW26359   4.185   3.211   6.433 -0.2353 -0.1219 -0.0446
 4967SOL    HW126360   4.189   3.199   6.338 -1.2455  2.3718 -0.3827
 4967SOL    HW226361   4.277   3.220   6.459 -0.1411  1.2734 -0.8881
 4968SOL     OW26362   3.087   0.252   4.083  0.0934 -0.2739  0.2574
 4968SOL    HW126363   3.006   0.262   4.034 -0.4958  0.4157  1.3688
 4968SOL    HW226364   3.149   0.283   4.017 -0.6728  1.1334  0.2029
 4969SOL     OW26365   2.907   4.051   7.457 -0.0091  0.0856  0.0657
 4969SOL    HW126366   2.991   4.087   7.485 -0.3477 -0.2454  1.4773
 4969SOL    HW226367   2.855   4.125   7.427  1.3693  2.7094  4.1966
 4970SOL     OW26368   1.779   4.342  14.732  0.3110  0.8377 -0.0817
 4970SOL    HW126369   1.800   4.267  14.676 -1.9775  0.4649 -0.4532
 4970SOL    HW226370   1.752   4.309  14.818  3.1439  1.3190  0.9792
 4971SOL     OW26371   2.397   1.156   7.568 -0.6334 -0.4994  0.9988
 4971SOL    HW126372   2.373   1.247   7.584 -0.6158 -0.0795 -1.3800
 4971SOL    HW226373   2.490   1.161   7.545 -0.8345 -1.6316 -0.0408
 4972SOL     OW26374   2.756   4.542   4.579 -0.0377  0.1319  0.0028
 4972SOL    HW126375   2.731   4.454   4.607 -0.0651  0.6978  1.7160
 4972SOL    HW226376   2.720   4.599   4.647  0.6631  0.5027  0.0632
 4973SOL     OW26377   0.976   1.240   1.046  0.2794 -0.1479  0.0671
 4973SOL    HW126378   0.936   1.320   1.082  2.3399  0.7425  0.3586
 4973SOL    HW226379   0.917   1.225   0.972  0.3995  0.3169 -0.1225
 4974SOL     OW26380   0.140   0.800   2.577 -0.1192 -0.7430  0.1989
 4974SOL    HW126381   0.170   0.819   2.489  2.2108 -1.4426  0.8471
 4974SOL    HW226382   0.056   0.760   2.553 -0.8757  0.3193  1.0747
 4975SOL     OW26383   1.255   4.331   3.737 -0.4503  0.1247  0.0556
 4975SOL    HW126384   1.257   4.375   3.822  3.8301  0.4670 -0.2201
 4975SOL    HW226385   1.210   4.248   3.749 -1.2405  0.3232 -1.5374
 4976SOL     OW26386   2.742   3.441  13.210  0.2554  0.2638 -0.3145
 4976SOL    HW126387   2.811   3.430  13.145 -1.4121 -2.8539 -1.5459
 4976SOL    HW226388   2.703   3.528  13.198  2.8043  1.6418  1.4712
 4977SOL     OW26389   4.350   3.727   2.105 -0.3672  0.7886 -0.1750
 4977SOL    HW126390   4.328   3.796   2.168  1.4355 -0.9827  2.3902
 4977SOL    HW226391   4.394   3.779   2.038  1.4421  2.5298  2.3648
 4978SOL     OW26392   1.656   4.014   8.072 -0.7393 -0.5605  0.0634
 4978SOL    HW126393   1.684   4.028   7.981 -2.4654 -1.2183 -0.5635
 4978SOL    HW226394   1.661   4.101   8.110  0.9816 -0.8200  0.4613
 4979SOL     OW26395   0.617   0.724   3.853 -0.0920  0.1851  0.6105
 4979SOL    HW126396   0.580   0.802   3.894  0.1541  1.2613 -1.1935
 4979SOL    HW226397   0.547   0.685   3.801  0.9575 -2.1765  0.9502
 4980SOL     OW26398   2.014   2.595   8.070  0.2596 -0.2761  0.6051
 4980SOL    HW126399   2.090   2.572   8.016  0.5935  1.0917  0.5026
 4980SOL    HW226400   1.976   2.664   8.016  0.9868 -1.3480 -1.2744
 4981SOL     OW26401   0.756   4.025   5.625  0.4774 -0.1813  0.4198
 4981SOL    HW126402   0.823   3.982   5.678  1.6752  2.0469  0.7189
 4981SOL    HW226403   0.675   3.979   5.645  0.3378 -0.5087 -0.8881
 4982SOL     OW26404   0.135   3.382   8.272 -0.3087  0.1535 -0.1672
 4982SOL    HW126405   0.154   3.295   8.307 -0.1738 -0.2468 -1.2332
 4982SOL    HW226406   0.193   3.441   8.321  1.1876 -1.7717  0.3573
 4983SOL     OW26407   1.952   4.335  10.774 -0.0701 -0.4716 -0.1847
 4983SOL    HW126408   1.940   4.327  10.680  1.6874  0.0822 -0.4452
 4983SOL    HW226409   2.042   4.368  10.780  0.3467 -1.6187 -0.1896
 4984SOL     OW26410   2.245   1.097  10.317 -0.1479 -0.0258 -0.0146
 4984SOL    HW126411   2.239   1.008  10.283 -0.6272  0.4127 -1.0788
 4984SOL    HW226412   2.186   1.151  10.263  0.5823  0.4871 -0.2991
 4985SOL     OW26413   0.579   3.769   6.886  0.1933  0.0409  0.0883
 4985SOL    HW126414   0.630   3.846   6.913 -0.1220  0.1639  0.3432
 4985SOL    HW226415   0.646   3.712   6.924  0.6029  0.0926 -0.5701
 4986SOL     OW26416   2.305   3.388  11.360  0.0610  0.3303 -0.5838
 4986SOL    HW126417   2.385   3.439  11.375 -0.7998  1.7000 -0.6529
 4986SOL    HW226418   2.323   3.341  11.278 -0.1010 -1.0722  0.1848
 4987SOL     OW26419   1.791   3.378   4.405 -0.2950  0.7412  0.1769
 4987SOL    HW126420   1.832   3.464   4.396  2.1764 -0.3349  1.3153
 4987SOL    HW226421   1.805   3.382   4.499 -2.6917  1.5269  0.5132
 4988SOL     OW26422   1.120   4.043  11.508  0.2212  0.6571 -0.0297
 4988SOL    HW126423   1.179   4.105  11.465  0.0360 -0.5618 -2.0605
 4988SOL    HW226424   1.173   4.004  11.578  0.3626  2.7274  0.9936
 4989SOL     OW26425   4.132   1.934   9.210  0.2753 -0.0094  0.1968
 4989SOL    HW126426   4.211   1.902   9.167  1.6055 -0.2611  2.7932
 4989SOL    HW226427   4.101   1.875   9.279 -1.1670  0.1384 -0.3338
 4990SOL     OW26428   1.782   2.074   9.491  0.4935 -0.1601 -0.2047
 4990SOL    HW126429   1.822   2.068   9.404 -0.7707 -1.9989 -0.6629
 4990SOL    HW226430   1.811   2.158   9.526  0.2146 -0.2558  0.2380
 4991SOL     OW26431   3.620   0.885   0.127 -0.2798 -0.4641 -0.1445
 4991SOL    HW126432   3.712   0.904   0.109 -0.0093 -1.6881 -0.0578
 4991SOL    HW226433   3.593   0.827   0.055  3.5639 -1.0908 -1.0757
 4992SOL     OW26434   1.076   4.116  16.236 -0.1776  0.1791  0.5342
 4992SOL    HW126435   1.115   4.202  16.251 -0.1650 -0.7770  5.7544
 4992SOL    HW226436   1.021   4.106  16.313 -0.9067 -0.8017 -0.1155
 4993SOL     OW26437   3.833   3.491   6.056 -0.4774 -0.1268  0.1229
 4993SOL    HW126438   3.741   3.470   6.038 -0.4083  0.2775 -0.7190
 4993SOL    HW226439   3.829   3.579   6.094 -3.4102  0.8201 -2.3034
 4994SOL     OW26440   2.900   3.749  17.010 -0.7000 -0.5801 -0.0951
 4994SOL    HW126441   2.843   3.777  16.939  0.0920  0.4456 -0.3302
 4994SOL    HW226442   2.835   3.770  17.078  0.6099 -0.5092  1.1204
 4995SOL     OW26443   3.450   1.850   9.108  0.0724  0.1179  0.3073
 4995SOL    HW126444   3.382   1.789   9.138  0.7139  0.1010  1.7389
 4995SOL    HW226445   3.523   1.823   9.163 -1.3483 -0.1695  2.0620
 4996SOL     OW26446   4.438   2.430   4.865 -0.7978  0.1933  0.4627
 4996SOL    HW126447   4.466   2.424   4.774 -0.1039 -1.8304  0.8090
 4996SOL    HW226448   4.514   2.486   4.882  0.1536 -0.6946 -0.8464
 4997SOL     OW26449   0.087   4.713   1.512 -0.0505  0.2482  0.1750
 4997SOL    HW126450   0.104   4.712   1.606  0.7375 -0.1183  0.0331
 4997SOL    HW226451   4.718   4.712   1.508 -0.0547 -1.0423  0.4702
 4998SOL     OW26452   4.282   2.284  15.061  0.2458  0.0552  0.5102
 4998SOL    HW126453   4.376   2.298  15.077  0.3411  0.4843 -0.4265
 4998SOL    HW226454   4.271   2.195  15.094 -1.5284  0.4652  0.9885
 4999SOL     OW26455   2.707   2.314   6.883  0.2132  0.0315  0.1273
 4999SOL    HW126456   2.618   2.278   6.890  0.0805  0.3544  0.0882
 4999SOL    HW226457   2.729   2.355   6.966 -1.5639  2.6302 -0.6939
 5000SOL     OW26458   3.230   4.019   9.869  0.1613 -0.0351  0.5269
 5000SOL    HW126459   3.304   4.027   9.929 -0.5865  0.7580  1.3411
 5000SOL    HW226460   3.265   4.050   9.786 -2.0717 -0.8434 -0.6961
 5001SOL     OW26461   3.328   4.612   4.683  0.1184  0.1829 -0.4575
 5001SOL    HW126462   3.282   4.695   4.684 -0.2480 -0.0075 -1.5586
 5001SOL    HW226463   3.407   4.629   4.733  0.4936 -2.1614 -0.2320
 5002SOL     OW26464   1.733   0.711  11.658 -0.2358 -0.1253  0.2381
 5002SOL    HW126465   1.788   0.737  11.584 -0.9105  2.1612  0.5564
 5002SOL    HW226466   1.705   0.629  11.618  2.5943 -1.8373  1.7565
 5003SOL     OW26467   1.700   0.293   5.641 -0.6765  0.4500 -0.3895
 5003SOL    HW126468   1.669   0.311   5.730 -1.1396 -1.6131 -0.1217
 5003SOL    HW226469   1.787   0.332   5.648 -0.5771  0.2315 -0.4045
 5004SOL     OW26470   1.444   0.867   4.962  0.0943  0.3366  0.4551
 5004SOL    HW126471   1.358   0.893   4.929 -0.1194  1.5557  1.9743
 5004SOL    HW226472   1.421   0.775   4.975  0.5402 -0.0183 -1.3216
 5005SOL     OW26473   2.182   2.960   0.183 -0.5257 -0.3744 -0.7370
 5005SOL    HW126474   2.114   3.004   0.235  0.0686  1.4293 -1.4676
 5005SOL    HW226475   2.245   3.032   0.175  0.7456 -1.2611  1.2046
 5006SOL     OW26476   2.899   0.948   7.184 -0.1039 -0.0403  0.3431
 5006SOL    HW126477   2.911   0.960   7.090 -1.1160 -1.3622  0.0531
 5006SOL    HW226478   2.991   0.940   7.211  0.1843 -2.4394 -1.3619
 5007SOL     OW26479   0.908   4.369  10.495 -0.2041 -0.0205 -0.2026
 5007SOL    HW126480   0.957   4.312  10.554 -0.8626  0.3179  0.6667
 5007SOL    HW226481   0.816   4.358  10.516 -0.0607 -1.4654 -0.3502
 5008SOL     OW26482   3.243   4.301   3.786 -0.8124  0.2262 -1.0994
 5008SOL    HW126483   3.170   4.291   3.847 -1.2466 -1.7672 -1.9471
 5008SOL    HW226484   3.197   4.339   3.710  0.3521  0.4426 -1.6942
 5009SOL     OW26485   2.446   1.841  10.330 -0.5172  0.6001  0.3994
 5009SOL    HW126486   2.411   1.752  10.341  0.8894  0.0454  0.3590
 5009SOL    HW226487   2.389   1.894  10.386  0.4052  0.0435  1.8671
 5010SOL     OW26488   3.982   1.402   6.066 -0.2020 -0.6109 -0.6302
 5010SOL    HW126489   3.932   1.341   6.012  1.2370 -0.4605 -2.1138
 5010SOL    HW226490   4.068   1.361   6.069 -0.2985 -0.9164 -2.0940
 5011SOL     OW26491   0.748   1.470  10.959 -0.1241 -0.7136  0.3828
 5011SOL    HW126492   0.839   1.445  10.946 -0.0972 -0.2417 -0.3350
 5011SOL    HW226493   0.703   1.403  10.909 -1.0812  0.0699  0.1964
 5012SOL     OW26494   3.386   2.597   5.265  0.9318 -0.2203  0.5490
 5012SOL    HW126495   3.474   2.615   5.233  1.1122 -1.9885  0.0307
 5012SOL    HW226496   3.378   2.502   5.266  1.5308 -0.2537  1.7837
 5013SOL     OW26497   3.539   4.620   5.364  0.4654  0.6609  0.7399
 5013SOL    HW126498   3.559   4.527   5.358  0.2476  0.7979 -1.7700
 5013SOL    HW226499   3.461   4.616   5.420  0.7761 -0.2482  1.1138
 5014SOL     OW26500   0.932   4.618   4.617  0.6017  0.1738  0.6777
 5014SOL    HW126501   0.996   4.689   4.619  2.4458 -1.4821  0.4084
 5014SOL    HW226502   0.935   4.573   4.701  2.8154 -0.6922  0.1286
 5015SOL     OW26503   1.656   3.012   3.588 -0.2198  0.4438 -0.0225
 5015SOL    HW126504   1.668   3.093   3.538 -0.8032  0.1666 -0.6046
 5015SOL    HW226505   1.690   2.948   3.526 -1.3570 -0.1115 -0.0604
 5016SOL     OW26506   1.164   2.010  17.151  0.0254  0.1141 -0.1031
 5016SOL    HW126507   1.143   1.922  17.181 -0.9196 -0.2634 -1.8981
 5016SOL    HW226508   1.194   1.992  17.062 -0.3658 -2.0419  0.2089
 5017SOL     OW26509   1.220   3.770  14.404  1.0765  0.6556 -0.1943
 5017SOL    HW126510   1.219   3.823  14.324  0.5955  0.6940 -0.1575
 5017SOL    HW226511   1.290   3.711  14.375  0.0006 -0.9120  0.3494
 5018SOL     OW26512   4.090   1.630   4.877 -0.2717 -0.0274 -0.4107
 5018SOL    HW126513   4.074   1.611   4.970 -3.8936 -0.2708 -1.0678
 5018SOL    HW226514   4.046   1.715   4.871  0.6346  0.4817  0.2056
 5019SOL     OW26515   2.343   2.315  16.192 -0.4021 -0.6209 -0.0027
 5019SOL    HW126516   2.365   2.233  16.237 -0.7916 -0.3637  0.6620
 5019SOL    HW226517   2.409   2.319  16.123  0.1261  0.3257  0.5757
 5020SOL     OW26518   4.152   3.011  10.742 -0.1262  0.0416 -0.2423
 5020SOL    HW126519   4.154   3.097  10.702  0.3563  0.3553  0.4616
 5020SOL    HW226520   4.178   3.035  10.831 -1.1549  1.1907 -0.2529
 5021SOL     OW26521   2.301   2.373  14.020  0.4900  0.3307 -0.2116
 5021SOL    HW126522   2.264   2.289  13.993 -2.2311  0.3380  3.4304
 5021SOL    HW226523   2.382   2.367  13.970  0.1755  0.4499 -0.7274
 5022SOL     OW26524   3.504   2.983   2.179 -0.3586  0.0778  0.4548
 5022SOL    HW126525   3.552   2.906   2.146  0.9208  1.1398 -0.1655
 5022SOL    HW226526   3.421   2.942   2.204 -0.8888  0.1431 -1.2324
 5023SOL     OW26527   2.873   0.402   3.944  0.7208  0.3569 -0.6623
 5023SOL    HW126528   2.818   0.477   3.922  3.6763  2.2404 -1.6013
 5023SOL    HW226529   2.819   0.335   3.902 -2.2438  3.2168 -1.4075
 5024SOL     OW26530   0.512   3.044  12.833 -0.2432  0.3078  0.4183
 5024SOL    HW126531   0.421   3.063  12.856 -0.4079  1.9312 -1.6156
 5024SOL    HW226532   0.546   3.115  12.888 -1.1494  0.6443  0.5503
 5025SOL     OW26533   0.741   4.698  13.517  0.1962 -0.4917 -0.8339
 5025SOL    HW126534   0.732   0.014  13.431 -1.8388 -1.4546 -1.0970
 5025SOL    HW226535   0.813   0.022  13.557 -0.6344  0.7579 -0.9060
 5026SOL     OW26536   2.792   4.230  15.198 -0.3021  0.5650 -0.1954
 5026SOL    HW126537   2.870   4.283  15.214 -0.0926 -0.0786  0.9095
 5026SOL    HW226538   2.805   4.218  15.103 -0.3195  0.6766 -0.2128
 5027SOL     OW26539   0.571   4.193  13.393  0.0275  0.4022  0.0196
 5027SOL    HW126540   0.534   4.281  13.403 -0.0010  0.4953 -0.9724
 5027SOL    HW226541   0.512   4.130  13.435 -0.1780  0.9055  0.4835
 5028SOL     OW26542   4.100   4.018   3.108 -0.0993  0.0675 -0.1817
 5028SOL    HW126543   4.043   4.079   3.154  0.6234  0.5485  0.0769
 5028SOL    HW226544   4.147   3.966   3.173  1.5459  2.8826  0.8634
 5029SOL     OW26545   3.737   1.367   2.554 -0.8505 -0.1788 -0.2623
 5029SOL    HW126546   3.731   1.384   2.648 -1.2599 -2.8794  0.2135
 5029SOL    HW226547   3.818   1.415   2.540 -1.1620  0.3338 -0.3050
 5030SOL     OW26548   2.894   0.641  14.437 -0.1698  0.2252  0.1049
 5030SOL    HW126549   2.988   0.625  14.426 -0.7489 -2.7750 -0.6171
 5030SOL    HW226550   2.870   0.548  14.434 -0.5538  0.3810 -1.6620
 5031SOL     OW26551   3.322   0.450  15.700  0.2295 -0.1698 -0.5172
 5031SOL    HW126552   3.328   0.545  15.701  2.6314 -0.3343  0.2107
 5031SOL    HW226553   3.288   0.433  15.788  1.6598 -1.4314 -0.2046
 5032SOL     OW26554   2.528   1.412   9.276 -0.1847 -0.0322 -0.0280
 5032SOL    HW126555   2.606   1.426   9.329  0.7703 -0.9232 -1.2159
 5032SOL    HW226556   2.460   1.422   9.343  0.9696  1.4422  0.9234
 5033SOL     OW26557   3.307   1.969  10.045  0.1557  0.4826 -0.2667
 5033SOL    HW126558   3.302   1.969   9.949  2.2052  0.0731 -0.3769
 5033SOL    HW226559   3.324   2.061  10.065  1.6145  0.3034 -0.6741
 5034SOL     OW26560   3.988   0.402   8.227  0.0373  0.7105  0.3218
 5034SOL    HW126561   3.953   0.395   8.138  1.3897 -0.5441 -0.1047
 5034SOL    HW226562   3.973   0.316   8.265 -1.4651  1.1685  0.7564
 5035SOL     OW26563   4.282   1.307   3.467  0.0788 -0.7698  0.7524
 5035SOL    HW126564   4.268   1.371   3.536  0.8895  2.2246 -1.8589
 5035SOL    HW226565   4.190   1.300   3.442  0.9472  0.9335 -2.9831
 5036SOL     OW26566   0.624   3.960   1.704 -0.0637 -0.0435 -0.2805
 5036SOL    HW126567   0.602   3.943   1.796  1.2042  0.8740  0.1862
 5036SOL    HW226568   0.570   4.036   1.681 -0.1139 -0.0744 -0.2645
 5037SOL     OW26569   0.351   0.772  12.645  0.0195  0.4006 -0.0971
 5037SOL    HW126570   0.301   0.771  12.726 -0.2349  0.0549 -0.2577
 5037SOL    HW226571   0.305   0.837  12.592  1.5302  1.0947 -0.5644
 5038SOL     OW26572   1.410   1.338  11.516  0.4024 -0.0114  0.0453
 5038SOL    HW126573   1.459   1.376  11.589  1.9473 -0.3982 -0.7884
 5038SOL    HW226574   1.470   1.364  11.446 -1.0774  1.3462 -0.7300
 5039SOL     OW26575   1.794   2.468  13.108  0.3765  0.1511  0.4632
 5039SOL    HW126576   1.875   2.504  13.143  0.4198 -1.8528  2.4342
 5039SOL    HW226577   1.743   2.547  13.092 -2.4947 -1.1083  3.5155
 5040SOL     OW26578   0.617   2.556   4.750  0.1479 -0.3948 -0.7329
 5040SOL    HW126579   0.670   2.496   4.802  0.2368 -1.0442 -1.5773
 5040SOL    HW226580   0.542   2.504   4.722  0.1104 -2.5341  3.2377
 5041SOL     OW26581   3.112   2.735   9.491  0.3249  0.1722  0.2480
 5041SOL    HW126582   3.203   2.704   9.483 -0.2334 -1.2166 -0.8780
 5041SOL    HW226583   3.136   2.827   9.493  0.3621  0.1359  1.2581
 5042SOL     OW26584   3.977   0.379   9.069 -0.0579  0.2835  0.3690
 5042SOL    HW126585   3.969   0.471   9.043  1.5033  0.8280  1.8109
 5042SOL    HW226586   3.889   0.344   9.056  0.4322 -0.3951 -1.1385
 5043SOL     OW26587   4.529   0.687   4.580  0.1512  0.4803 -0.3469
 5043SOL    HW126588   4.552   0.605   4.624  0.3297  0.9395  0.4128
 5043SOL    HW226589   4.590   0.755   4.608  0.1574  1.7781 -3.4875
 5044SOL     OW26590   3.489   3.317  11.268  0.7774  0.0564  0.1818
 5044SOL    HW126591   3.410   3.283  11.310  1.3588 -0.3563  0.9524
 5044SOL    HW226592   3.471   3.304  11.175  1.4843 -2.0717  0.3428
 5045SOL     OW26593   4.432   4.661   0.238  0.5387 -0.3255  0.0893
 5045SOL    HW126594   4.408   0.027   0.234  1.3149 -0.1348 -0.1989
 5045SOL    HW226595   4.489   4.651   0.314  1.2874  1.5588 -0.2253
 5046SOL     OW26596   4.389   4.147  13.749 -0.0519 -0.0357  0.5306
 5046SOL    HW126597   4.332   4.221  13.729 -1.0361 -1.5096 -2.1068
 5046SOL    HW226598   4.372   4.133  13.842  2.8900 -1.4763  0.8276
 5047SOL     OW26599   1.623   3.105   8.063 -0.5600 -0.3671 -0.1760
 5047SOL    HW126600   1.634   3.150   8.147 -0.2479  1.3244 -1.1259
 5047SOL    HW226601   1.710   3.070   8.046 -0.7034 -0.8176  0.0319
 5048SOL     OW26602   4.209   0.963   3.568 -0.3792 -0.2515  0.3644
 5048SOL    HW126603   4.158   0.979   3.648  1.5347 -0.2154  1.5948
 5048SOL    HW226604   4.153   1.002   3.502  0.0543  0.6565  0.5276
 5049SOL     OW26605   0.271   1.275   4.699  0.4984  0.3154 -0.7906
 5049SOL    HW126606   0.272   1.368   4.721  0.1166 -0.4401  2.3993
 5049SOL    HW226607   0.359   1.247   4.723  0.8513  1.8323 -0.2838
 5050SOL     OW26608   3.646   1.041   3.105 -0.2009  0.4095  0.5330
 5050SOL    HW126609   3.568   1.061   3.053  0.3435  1.7439  0.2315
 5050SOL    HW226610   3.716   1.086   3.058  0.3872  0.0619  1.0722
 5051SOL     OW26611   4.312   1.156   4.146  0.3152 -0.4731  0.5793
 5051SOL    HW126612   4.389   1.133   4.094  0.4818  1.4156 -0.0020
 5051SOL    HW226613   4.328   1.250   4.141  0.5802 -0.5970 -0.9646
 5052SOL     OW26614   2.236   0.380   6.550  0.0941  0.4055 -0.5156
 5052SOL    HW126615   2.224   0.447   6.483  0.9776 -2.2537 -3.3733
 5052SOL    HW226616   2.284   0.425   6.620  1.7751 -0.8830 -0.8251
 5053SOL     OW26617   1.078   4.722   8.160  0.0872  0.0623  0.3489
 5053SOL    HW126618   1.060   0.022   8.070 -0.1561 -0.1507  0.3381
 5053SOL    HW226619   1.074   4.627   8.146  2.7451  0.0671 -0.4574
 5054SOL     OW26620   2.767   4.461   6.906  0.5516  0.6336  0.6986
 5054SOL    HW126621   2.728   4.468   6.818 -2.6719  3.7002  2.4014
 5054SOL    HW226622   2.806   4.374   6.907  0.0661  0.3605 -2.0925
 5055SOL     OW26623   4.494   2.927   6.710  0.0927 -0.1092 -0.1632
 5055SOL    HW126624   4.517   2.846   6.663 -0.1052 -1.1756  1.5719
 5055SOL    HW226625   4.581   2.957   6.735 -0.1368  1.3412 -1.1412
 5056SOL     OW26626   1.172   2.963  13.591  0.3661  0.3747 -0.0231
 5056SOL    HW126627   1.256   3.009  13.588 -0.0360  1.1943  1.6473
 5056SOL    HW226628   1.114   3.029  13.628  1.6506  1.8397 -0.5909
 5057SOL     OW26629   4.632   4.052   2.181  0.1940 -0.5148  0.0601
 5057SOL    HW126630   4.569   4.091   2.120  0.3169 -0.7475 -0.2205
 5057SOL    HW226631   4.699   4.118   2.195 -0.7699 -0.0232  2.2956
 5058SOL     OW26632   2.584   0.005   6.723 -0.3130  0.0546  0.0375
 5058SOL    HW126633   2.640   4.657   6.702 -1.5315 -1.6189  2.6665
 5058SOL    HW226634   2.502   4.682   6.723  0.5628 -1.4137 -1.1478
 5059SOL     OW26635   0.308   1.843  13.971  0.2241 -0.0616 -0.3550
 5059SOL    HW126636   0.329   1.754  13.943 -0.9375 -0.8598  1.3068
 5059SOL    HW226637   0.276   1.824  14.060 -2.2357  1.5402 -0.8911
 5060SOL     OW26638   1.108   2.333   3.737  0.4449  0.0110 -0.6398
 5060SOL    HW126639   1.099   2.346   3.832 -1.1075 -0.5478 -0.7135
 5060SOL    HW226640   1.202   2.349   3.730  0.3087  1.1290  0.1620
 5061SOL     OW26641   0.891   0.620   4.765  0.3844  0.0256  0.1035
 5061SOL    HW126642   0.851   0.701   4.798  0.0631 -0.6271  1.3111
 5061SOL    HW226643   0.985   0.639   4.774  0.4132  0.3524 -0.8908
 5062SOL     OW26644   2.633   1.275   4.411 -0.1548 -0.2819  0.1096
 5062SOL    HW126645   2.636   1.319   4.496 -1.5737 -0.5998  0.3266
 5062SOL    HW226646   2.539   1.260   4.409 -0.2088  0.3800 -2.3599
 5063SOL     OW26647   2.952   4.004   5.246  0.1278  0.0644  0.3384
 5063SOL    HW126648   2.918   3.970   5.163  0.3550 -0.0997  0.3122
 5063SOL    HW226649   2.873   4.028   5.294  0.3958 -0.2286  0.9158
 5064SOL     OW26650   0.985   3.554   6.716 -0.1248  0.2075  0.4519
 5064SOL    HW126651   0.896   3.547   6.681  0.0226  0.4297  0.0321
 5064SOL    HW226652   0.985   3.501   6.796  1.0050 -1.3444 -0.6068
 5065SOL     OW26653   2.364   1.553   7.152  0.2004  0.0249 -0.0683
 5065SOL    HW126654   2.313   1.473   7.135 -0.4667  1.0210 -2.6027
 5065SOL    HW226655   2.296   1.620   7.147  0.4400  0.2470 -0.2548
 5066SOL     OW26656   1.437   3.054   6.659  0.2257 -0.6985 -0.6452
 5066SOL    HW126657   1.438   3.099   6.744  0.3065 -0.9840 -0.4939
 5066SOL    HW226658   1.399   2.969   6.680  0.5388 -0.6451  0.1342
 5067SOL     OW26659   1.273   0.799   4.607  0.0361  0.4976  0.0079
 5067SOL    HW126660   1.254   0.737   4.677 -0.8595 -1.0840 -1.6467
 5067SOL    HW226661   1.191   0.848   4.601  0.2573  0.9094  0.3609
 5068SOL     OW26662   0.931   0.797   7.298 -0.1411  0.8195  0.0466
 5068SOL    HW126663   0.840   0.810   7.322 -0.6342  0.4487 -1.6130
 5068SOL    HW226664   0.956   0.876   7.250 -0.1202  0.1173 -1.1023
 5069SOL     OW26665   2.974   2.631   9.170 -0.1993  0.3928 -0.0608
 5069SOL    HW126666   2.997   2.540   9.186 -2.1223  0.2411  1.8008
 5069SOL    HW226667   3.048   2.660   9.116  0.8845  1.7196  2.1011
 5070SOL     OW26668   1.330   4.685   8.746  0.3762  0.5706 -0.6260
 5070SOL    HW126669   1.271   0.029   8.719 -3.1288 -2.5027 -0.9470
 5070SOL    HW226670   1.326   4.641   8.661  2.5410 -0.8764 -0.0014
 5071SOL     OW26671   1.087   1.122   5.914  0.4599  0.0942 -0.4466
 5071SOL    HW126672   1.162   1.107   5.856  0.2983 -0.8671 -0.4064
 5071SOL    HW226673   1.118   1.205   5.951 -0.8734  0.7269 -0.7614
 5072SOL     OW26674   3.517   0.125  11.783  0.2247 -0.1184  0.1374
 5072SOL    HW126675   3.533   0.185  11.711 -0.5413 -0.6566 -0.4835
 5072SOL    HW226676   3.511   0.183  11.859  1.8639  1.3197 -0.8201
 5073SOL     OW26677   4.161   0.573   7.448 -0.0499 -0.7127 -0.6318
 5073SOL    HW126678   4.146   0.603   7.537  1.8718  1.3313 -1.0061
 5073SOL    HW226679   4.160   0.477   7.448 -0.9119 -0.7171 -1.7871
 5074SOL     OW26680   3.199   4.647   8.448  0.4818  0.4295 -0.0283
 5074SOL    HW126681   3.220   4.682   8.535 -0.2838  2.4059 -0.6417
 5074SOL    HW226682   3.271   4.680   8.394 -0.4826  1.6312 -0.5660
 5075SOL     OW26683   0.876   1.673   2.347  0.5326 -0.3591  0.1348
 5075SOL    HW126684   0.886   1.600   2.285 -0.0615  1.3418 -1.9662
 5075SOL    HW226685   0.920   1.636   2.423 -0.0387  0.8830  1.0515
 5076SOL     OW26686   3.519   3.871  12.466 -0.0272 -0.0395  0.4279
 5076SOL    HW126687   3.558   3.896  12.382  2.3396 -3.1538  0.5823
 5076SOL    HW226688   3.493   3.960  12.489  0.5511  0.0041  0.9119
 5077SOL     OW26689   0.165   3.770  17.690 -0.1172  0.0115  0.1006
 5077SOL    HW126690   0.117   3.840  17.646  1.4719 -0.1378 -1.8669
 5077SOL    HW226691   0.245   3.763  17.638  0.0701  0.7305  0.2871
 5078SOL     OW26692   3.160   2.166   4.094 -0.2344  0.5223 -0.1291
 5078SOL    HW126693   3.232   2.128   4.143  1.0184  1.1641 -1.4761
 5078SOL    HW226694   3.153   2.252   4.136  2.6990  0.8030 -0.2119
 5079SOL     OW26695   4.185   4.454   7.807  0.2277  0.0966  0.2195
 5079SOL    HW126696   4.248   4.525   7.822  0.3153  0.0881 -0.1155
 5079SOL    HW226697   4.238   4.379   7.836  1.4234 -0.6386 -3.9100
 5080SOL     OW26698   1.929   2.351  12.812  0.0623 -0.8225  0.3678
 5080SOL    HW126699   1.903   2.365  12.721  1.9405  0.5925  0.0310
 5080SOL    HW226700   1.868   2.401  12.866 -2.4333 -1.0274 -2.2897
 5081SOL     OW26701   1.488   4.711   9.894 -0.2659 -0.4626  0.0580
 5081SOL    HW126702   1.577   4.697   9.925 -0.2134  0.1028  0.1748
 5081SOL    HW226703   1.450   0.030   9.969 -0.0924  0.1214 -0.1985
 5082SOL     OW26704   3.591   3.504  13.480 -0.4035  0.1853  0.2906
 5082SOL    HW126705   3.633   3.535  13.400 -0.7239  0.4214  0.2146
 5082SOL    HW226706   3.509   3.553  13.492  0.2240  1.1873  0.4275
 5083SOL     OW26707   0.701   3.516  12.509  0.4352  0.3427 -0.3302
 5083SOL    HW126708   0.650   3.556  12.579  1.4517 -1.6253  1.5403
 5083SOL    HW226709   0.696   3.422  12.526  0.7115  0.4443  0.2923
 5084SOL     OW26710   4.030   1.487   4.236 -0.3356 -0.1062 -0.3191
 5084SOL    HW126711   4.072   1.493   4.322 -0.0491  1.2449 -0.5643
 5084SOL    HW226712   4.071   1.415   4.188  3.2761  2.2937 -0.8030
 5085SOL     OW26713   1.847   1.220   6.763 -0.0098 -0.2485  0.4877
 5085SOL    HW126714   1.779   1.157   6.738 -0.6162  0.3610  0.5938
 5085SOL    HW226715   1.930   1.173   6.764 -0.2860 -0.7834 -1.5308
 5086SOL     OW26716   0.588   0.915   8.119 -0.0222  0.2541 -0.0667
 5086SOL    HW126717   0.660   0.930   8.180 -0.6634 -1.0018  1.0172
 5086SOL    HW226718   0.515   0.940   8.177 -0.2010  1.7090 -0.9147
 5087SOL     OW26719   0.924   0.447  11.028 -0.1195  0.2368  0.0020
 5087SOL    HW126720   0.848   0.410  10.983  1.2215 -1.1496 -1.1497
 5087SOL    HW226721   0.902   0.540  11.025 -2.6646 -0.3799 -0.2395
 5088SOL     OW26722   0.646   2.467   6.975 -0.0238 -0.2492 -0.2346
 5088SOL    HW126723   0.636   2.373   6.960  0.5477 -0.4516  0.6680
 5088SOL    HW226724   0.647   2.465   7.071  2.3910 -0.9921 -0.2774
 5089SOL     OW26725   0.787   3.752   1.251 -0.2402  0.1073 -0.4025
 5089SOL    HW126726   0.849   3.683   1.275 -0.1746  0.9024  1.7621
 5089SOL    HW226727   0.745   3.707   1.178 -0.8178 -2.6687  1.6270
 5090SOL     OW26728   4.336   2.608  15.757 -0.4364 -0.1240 -0.5479
 5090SOL    HW126729   4.313   2.698  15.780 -0.3352 -0.2310 -0.0362
 5090SOL    HW226730   4.257   2.582  15.710 -0.8338 -0.3165  0.2307
 5091SOL     OW26731   1.025   3.775   8.948 -0.4004 -0.1372 -0.5919
 5091SOL    HW126732   1.024   3.870   8.936 -1.6147 -0.1803 -0.8592
 5091SOL    HW226733   1.109   3.748   8.913 -1.6171 -1.1268 -2.7049
 5092SOL     OW26734   2.086   1.547   9.922 -0.0660  0.2421 -0.2921
 5092SOL    HW126735   2.136   1.571   9.844  0.0477  0.3218 -0.1949
 5092SOL    HW226736   2.035   1.467   9.909  1.1188 -0.9033  2.1344
 5093SOL     OW26737   0.981   4.504  14.642  0.3735  0.0666 -0.0148
 5093SOL    HW126738   1.066   4.523  14.682  0.0667 -0.0911  0.7132
 5093SOL    HW226739   1.016   4.440  14.580  2.4579  0.2205  0.9803
 5094SOL     OW26740   0.285   2.179   7.199  0.0726 -0.1991 -0.0714
 5094SOL    HW126741   0.276   2.159   7.292 -0.3954  0.6500  0.0703
 5094SOL    HW226742   0.380   2.184   7.203  0.0347  1.0320 -0.5417
 5095SOL     OW26743   1.762   0.753   7.807 -0.1154  0.4595  0.0321
 5095SOL    HW126744   1.814   0.796   7.876 -3.0409  0.0292  2.5184
 5095SOL    HW226745   1.832   0.729   7.747 -0.6412 -0.6073 -0.1637
 5096SOL     OW26746   4.195   0.713  17.242  0.3337  0.0072 -0.6407
 5096SOL    HW126747   4.227   0.706  17.152  1.7346  0.7440 -0.1959
 5096SOL    HW226748   4.192   0.808  17.252 -0.6396  0.0371 -1.1785
 5097SOL     OW26749   4.114   1.777   6.347 -0.1833  0.1404  0.5892
 5097SOL    HW126750   4.077   1.835   6.414 -0.6937 -0.7186  1.0445
 5097SOL    HW226751   4.151   1.704   6.396 -3.0037  1.0124  3.9856
 5098SOL     OW26752   0.645   4.092   4.926 -0.1769  0.1644 -0.0738
 5098SOL    HW126753   0.564   4.115   4.881  0.4439 -0.9510 -1.7361
 5098SOL    HW226754   0.618   4.020   4.983  0.0189 -0.7575 -1.1678
 5099SOL     OW26755   0.790   1.503   3.586 -0.0729  0.2281  0.3931
 5099SOL    HW126756   0.857   1.568   3.567  0.2515 -0.3863 -0.5838
 5099SOL    HW226757   0.798   1.446   3.509 -0.0756  0.7468  0.0156
 5100SOL     OW26758   2.736   1.864   4.630 -0.0244 -0.6785 -0.0254
 5100SOL    HW126759   2.801   1.921   4.670  0.3571 -1.6199  0.6854
 5100SOL    HW226760   2.733   1.888   4.537  0.5142 -1.2054 -0.1781
 5101SOL     OW26761   1.936   1.880   7.595 -0.4499  0.1549  0.4887
 5101SOL    HW126762   1.960   1.964   7.634 -1.1244 -0.6486  2.6207
 5101SOL    HW226763   1.997   1.822   7.641 -2.6682 -3.3646 -1.0021
 5102SOL     OW26764   4.313   2.401   1.725  0.0023  0.3022  0.3983
 5102SOL    HW126765   4.282   2.481   1.682  0.7840 -0.5743 -1.7906
 5102SOL    HW226766   4.331   2.436   1.813  0.4875  1.7628 -0.2851
 5103SOL     OW26767   3.952   1.971   2.308 -0.4223 -0.3979  0.0160
 5103SOL    HW126768   3.891   1.899   2.292  1.5768 -2.1858  0.4044
 5103SOL    HW226769   4.027   1.922   2.275  0.5774  0.8245  0.4723
 5104SOL     OW26770   4.233   2.942  12.244  0.8055 -0.3673  0.1649
 5104SOL    HW126771   4.285   2.915  12.319 -2.5600  0.3887  2.7857
 5104SOL    HW226772   4.282   3.015  12.206  0.1581 -0.6623 -1.2228
 5105SOL     OW26773   1.740   3.345   5.211 -0.2602  0.3546 -0.3228
 5105SOL    HW126774   1.723   3.252   5.223  0.6818  0.4493  1.9174
 5105SOL    HW226775   1.809   3.357   5.277 -1.4320 -4.0620  1.6890
 5106SOL     OW26776   2.472   4.331   6.924  0.6980  0.5213  0.1459
 5106SOL    HW126777   2.562   4.360   6.910  0.7367  0.1047 -0.4801
 5106SOL    HW226778   2.481   4.277   7.002 -0.4366 -1.4641 -1.0808
 5107SOL     OW26779   3.608   4.505   6.804  0.1380  0.1694  0.4971
 5107SOL    HW126780   3.691   4.543   6.832  0.4846  0.8560 -1.4722
 5107SOL    HW226781   3.544   4.553   6.856  0.1929 -1.3191  1.9374
 5108SOL     OW26782   3.075   1.192   7.125  0.4485  0.6207 -0.5155
 5108SOL    HW126783   3.054   1.228   7.211 -0.6765 -2.3708  0.4749
 5108SOL    HW226784   3.166   1.220   7.111 -0.3536  1.8727 -3.1604
 5109SOL     OW26785   0.444   0.394   3.280  0.1632  0.9929 -0.3618
 5109SOL    HW126786   0.532   0.371   3.249  0.6902 -0.7287  2.4368
 5109SOL    HW226787   0.423   0.312   3.325  0.1787  1.4386  0.4563
 5110SOL     OW26788   1.099   1.595   9.035 -0.0358  0.1289  0.0800
 5110SOL    HW126789   1.136   1.683   9.037  0.0268  0.1120 -0.3289
 5110SOL    HW226790   1.007   1.617   9.021 -0.1423 -0.9462 -0.9344
 5111SOL     OW26791   2.198   0.841  16.597  0.1354 -0.0587 -0.0725
 5111SOL    HW126792   2.277   0.874  16.640 -0.4526  2.9563 -1.3264
 5111SOL    HW226793   2.125   0.889  16.638  0.1704  1.4284 -1.7895
 5112SOL     OW26794   4.025   3.160   1.464  0.0210  0.4724  0.1356
 5112SOL    HW126795   4.111   3.172   1.504 -1.1742  2.8023  2.0167
 5112SOL    HW226796   4.047   3.107   1.388 -0.0947 -1.4864  1.4678
 5113SOL     OW26797   0.095   4.104   0.837 -0.0120 -0.6910  0.1863
 5113SOL    HW126798   0.086   4.010   0.822 -0.6576 -0.7489  0.9692
 5113SOL    HW226799   0.010   4.116   0.878 -0.0483 -1.7544  0.4193
 5114SOL     OW26800   1.309   2.031   6.533  0.0286  0.3210 -0.4494
 5114SOL    HW126801   1.351   1.945   6.534  0.2645  0.4614  2.9030
 5114SOL    HW226802   1.230   1.998   6.576 -1.9055  3.1647 -1.7954
 5115SOL     OW26803   0.900   2.556   3.257  0.0939 -0.1226 -0.1895
 5115SOL    HW126804   0.829   2.493   3.265 -1.1610  1.3332  0.2302
 5115SOL    HW226805   0.863   2.619   3.195 -1.4415 -2.1316 -1.2724
 5116SOL     OW26806   2.291   4.315   5.873 -0.1085 -0.0440  0.6365
 5116SOL    HW126807   2.209   4.364   5.863 -1.3319 -1.8598  1.7175
 5116SOL    HW226808   2.316   4.350   5.958 -0.8699  0.7792  0.5175
 5117SOL     OW26809   2.942   3.799   7.232 -0.2424 -0.3542 -0.8565
 5117SOL    HW126810   2.987   3.837   7.307  0.4140  0.1680 -1.5137
 5117SOL    HW226811   2.986   3.721   7.199 -0.3232 -1.0173  0.6254
 5118SOL     OW26812   3.799   4.673   0.012  0.0573 -0.3762 -0.6846
 5118SOL    HW126813   3.861   4.683  17.646  3.0376 -1.1025  1.7786
 5118SOL    HW226814   3.860   4.690   0.083  0.5125  1.6461 -1.5637
 5119SOL     OW26815   3.504   0.434   8.089 -0.3625 -0.2297  0.4244
 5119SOL    HW126816   3.446   0.455   8.016  2.5609  1.7027 -1.3782
 5119SOL    HW226817   3.517   0.340   8.077  1.9552  0.1397  0.0451
 5120SOL     OW26818   1.947   3.372  14.735 -0.1819  0.1429  0.1611
 5120SOL    HW126819   1.974   3.400  14.823  2.5284 -1.7401 -0.0537
 5120SOL    HW226820   2.002   3.427  14.680 -0.8196  0.0325 -0.5809
 5121SOL     OW26821   3.157   1.092   4.541 -0.4655  0.0939  0.2501
 5121SOL    HW126822   3.132   1.085   4.449 -0.8161  0.2133  0.3360
 5121SOL    HW226823   3.078   1.055   4.581  0.7954 -2.3601  0.4436
 5122SOL     OW26824   3.850   3.499  13.635  0.6653 -0.2066  0.5145
 5122SOL    HW126825   3.832   3.411  13.668 -1.0435  0.8902  2.5534
 5122SOL    HW226826   3.761   3.528  13.613  0.9931  0.5736  0.2088
 5123SOL     OW26827   2.567   2.340   2.456 -0.7959 -0.4387 -0.2966
 5123SOL    HW126828   2.611   2.425   2.459 -1.8728 -0.0601  4.5268
 5123SOL    HW226829   2.514   2.346   2.535  0.8223 -0.1942  0.7655
 5124SOL     OW26830   1.407   3.558  16.461  0.3002  0.5815  0.0784
 5124SOL    HW126831   1.380   3.538  16.551 -1.7387  0.6811 -0.5022
 5124SOL    HW226832   1.322   3.565  16.417 -0.4541 -1.3929  1.2080
 5125SOL     OW26833   2.764   2.849   4.035  0.3659 -0.0599 -0.5327
 5125SOL    HW126834   2.694   2.903   4.072 -0.7316 -0.5635 -1.8855
 5125SOL    HW226835   2.786   2.796   4.111 -2.5648 -0.0730  0.3056
 5126SOL     OW26836   0.880   4.589   2.281  0.0514 -0.0165 -0.3637
 5126SOL    HW126837   0.876   4.555   2.371 -1.3546  1.5784  0.1794
 5126SOL    HW226838   0.968   4.613   2.252  0.8385 -1.9385  0.3858
 5127SOL     OW26839   2.315   0.363   8.075 -0.3253 -0.0690  0.2909
 5127SOL    HW126840   2.284   0.413   7.999  1.8071 -0.7475 -1.0045
 5127SOL    HW226841   2.249   0.293   8.073 -2.4901  1.9316  1.8302
 5128SOL     OW26842   4.267   0.222   3.858 -0.7213 -0.4698  0.7274
 5128SOL    HW126843   4.247   0.167   3.934 -0.6574 -0.2232  0.9238
 5128SOL    HW226844   4.342   0.268   3.896 -0.9642 -0.0123  0.6607
 5129SOL     OW26845   2.677   0.009   7.227  0.3278 -0.1475 -0.8405
 5129SOL    HW126846   2.747   0.048   7.175  0.5845  2.0273  1.1374
 5129SOL    HW226847   2.639   0.085   7.271 -0.9372 -1.7024  0.7565
 5130SOL     OW26848   2.039   2.521   0.765  0.3901 -0.6606 -0.5553
 5130SOL    HW126849   2.133   2.526   0.746  0.4329  2.6027  0.5509
 5130SOL    HW226850   2.027   2.428   0.786  2.9280 -1.1377 -1.2179
 5131SOL     OW26851   1.691   1.517   5.404 -0.5186  0.2171 -0.1214
 5131SOL    HW126852   1.643   1.437   5.383 -1.0241 -0.1070  2.2922
 5131SOL    HW226853   1.717   1.493   5.493  2.1979  4.5841  0.2475
 5132SOL     OW26854   0.560   1.042   0.067  0.1482 -0.0416 -0.5634
 5132SOL    HW126855   0.570   1.017   0.159  2.0231 -0.7414 -0.9538
 5132SOL    HW226856   0.584   1.135   0.062 -0.0538  0.0456  0.0128
 5133SOL     OW26857   4.366   1.011   8.781  0.0311 -0.1512 -0.2474
 5133SOL    HW126858   4.447   1.017   8.832  0.0395  1.2676 -0.4206
 5133SOL    HW226859   4.308   1.065   8.834 -0.2223  0.1487 -0.8349
 5134SOL     OW26860   3.123   0.026   5.973 -0.1405  0.4012 -0.0585
 5134SOL    HW126861   3.118   4.656   5.972 -0.7572  0.4142  1.2638
 5134SOL    HW226862   3.185   0.033   6.046  1.3363 -0.1892 -1.2681
 5135SOL     OW26863   3.819   1.331   5.227 -0.0048  0.3435 -0.1966
 5135SOL    HW126864   3.814   1.409   5.283  0.3599  0.6706 -0.6164
 5135SOL    HW226865   3.809   1.376   5.142  0.9086 -0.3706 -0.6737
 5136SOL     OW26866   3.407   2.346   1.318 -0.0460  0.1451 -0.1444
 5136SOL    HW126867   3.451   2.326   1.401  0.2764 -1.5139 -0.7198
 5136SOL    HW226868   3.400   2.440   1.333 -1.1053  0.0785 -0.2406
 5137SOL     OW26869   0.645   2.912  11.669  0.4245 -0.0863  0.5471
 5137SOL    HW126870   0.736   2.895  11.647 -0.2825 -3.3247  0.1271
 5137SOL    HW226871   0.663   2.990  11.721  1.3508  1.3765 -1.9324
 5138SOL     OW26872   3.262   2.591   8.109 -0.7846  0.1555  0.1842
 5138SOL    HW126873   3.229   2.651   8.042 -1.3378 -1.1811 -0.7447
 5138SOL    HW226874   3.187   2.535   8.129 -1.2935  1.4803  1.9819
 5139SOL     OW26875   2.034   1.707   7.391  0.2005 -0.1025 -0.2140
 5139SOL    HW126876   1.970   1.777   7.402 -0.3425 -0.8601  1.3729
 5139SOL    HW226877   2.089   1.750   7.324  0.2602 -1.6765 -1.1819
 5140SOL     OW26878   4.654   0.029   6.940 -0.4739 -0.4324  0.2038
 5140SOL    HW126879   4.623   4.689   6.878  0.5148 -1.5604  0.8893
 5140SOL    HW226880   4.574   0.021   6.992 -0.2973  0.1633  0.5660
 5141SOL     OW26881   3.585   3.215   3.737  0.0958  0.1381 -0.5286
 5141SOL    HW126882   3.556   3.299   3.702  0.5560  0.4260 -0.2339
 5141SOL    HW226883   3.520   3.205   3.806  1.4909 -0.5609  0.6890
 5142SOL     OW26884   0.874   0.555   0.513 -0.2714  0.0424  0.0082
 5142SOL    HW126885   0.806   0.564   0.580 -1.1747  2.6712 -1.2406
 5142SOL    HW226886   0.875   0.638   0.466  0.3898  0.4715  0.7783
 5143SOL     OW26887   2.047   2.110   2.252 -0.2034  0.2294 -0.5178
 5143SOL    HW126888   2.010   2.117   2.163  0.4716  0.4706 -0.7759
 5143SOL    HW226889   2.060   2.204   2.265 -0.5590  0.0928  0.8344
 5144SOL     OW26890   0.574   4.088   6.042 -0.2321 -0.1961  0.2366
 5144SOL    HW126891   0.649   4.125   6.089  1.9934 -3.3135 -0.8486
 5144SOL    HW226892   0.500   4.085   6.104 -0.7109  0.1462 -0.3210
 5145SOL     OW26893   3.601   0.828   5.766  0.1474 -0.1458  0.1624
 5145SOL    HW126894   3.691   0.849   5.743  1.0057 -1.4887  2.3168
 5145SOL    HW226895   3.592   0.826   5.861 -0.4331 -1.9863  0.0724
 5146SOL     OW26896   1.353   4.369   0.200 -0.1103 -0.0681 -0.4100
 5146SOL    HW126897   1.419   4.399   0.263  1.2967 -3.5925 -0.2394
 5146SOL    HW226898   1.413   4.341   0.131  0.1457 -2.7440  0.9254
 5147SOL     OW26899   2.953   3.419   6.062 -0.6917  0.5450  0.1843
 5147SOL    HW126900   2.972   3.336   6.019  1.3215  0.0975  1.9285
 5147SOL    HW226901   2.863   3.428   6.032 -1.1789 -0.4733  1.3590
 5148SOL     OW26902   3.683   3.193   8.910  0.7342  0.0053  0.0238
 5148SOL    HW126903   3.645   3.220   8.994 -0.6401 -0.8331 -0.3267
 5148SOL    HW226904   3.765   3.162   8.949  1.3199  2.6678  0.9270
 5149SOL     OW26905   2.506   1.633   3.047  0.5544  0.1741 -0.2867
 5149SOL    HW126906   2.583   1.610   2.995  1.3709  0.2442  0.8893
 5149SOL    HW226907   2.502   1.563   3.111  1.2621  0.5272  0.1339
 5150SOL     OW26908   2.757   3.679   2.734  0.1707  0.0623  0.1654
 5150SOL    HW126909   2.837   3.647   2.694 -1.5570 -1.4211 -2.0941
 5150SOL    HW226910   2.708   3.597   2.738 -1.3267  1.0208  1.5745
 5151SOL     OW26911   3.831   0.813  12.917 -0.4471 -0.0984  0.2130
 5151SOL    HW126912   3.802   0.751  12.850 -0.1325  0.2529 -0.2463
 5151SOL    HW226913   3.918   0.775  12.934  1.0414  3.2052  0.0191
 5152SOL     OW26914   1.766   0.233   2.262 -0.4044 -0.3215  0.1767
 5152SOL    HW126915   1.783   0.308   2.318  0.4936 -0.6258  0.3219
 5152SOL    HW226916   1.692   0.196   2.310  0.2202 -0.6621  0.8808
 5153SOL     OW26917   4.140   0.685  17.552  0.4135 -0.3060  0.1565
 5153SOL    HW126918   4.076   0.643  17.609  2.1960  0.2557  2.5788
 5153SOL    HW226919   4.116   0.651  17.466  2.0603  1.8625 -1.1684
 5154SOL     OW26920   2.886   4.431  13.994  0.1636  0.4265 -0.3477
 5154SOL    HW126921   2.832   4.354  13.976 -1.0610  0.8983  1.2682
 5154SOL    HW226922   2.949   4.429  13.922 -2.2238 -0.0390 -2.4305
 5155SOL     OW26923   2.671   1.311   7.961 -0.1330  0.1294  0.2609
 5155SOL    HW126924   2.690   1.343   8.049  0.9123  0.2688 -0.0106
 5155SOL    HW226925   2.635   1.389   7.918 -1.2811  0.0196  1.0295
 5156SOL     OW26926   1.272   2.439   6.764  0.2411 -0.8006  0.1131
 5156SOL    HW126927   1.330   2.403   6.697 -1.2246 -1.6906 -0.6827
 5156SOL    HW226928   1.193   2.455   6.712  0.4135 -0.7556 -0.1354
 5157SOL     OW26929   4.170   0.456   3.482  0.2754 -0.1423  0.0333
 5157SOL    HW126930   4.178   0.447   3.577  1.3522 -0.9238 -0.1377
 5157SOL    HW226931   4.251   0.416   3.451 -0.1624  0.3953 -1.7600
 5158SOL     OW26932   0.979   1.932   4.679 -0.1248  0.0695  0.2382
 5158SOL    HW126933   0.905   1.887   4.638 -1.4453  0.3860  2.2421
 5158SOL    HW226934   1.002   1.863   4.741 -3.9151 -2.1300 -0.8024
 5159SOL     OW26935   4.536   0.621   3.328  0.2458  0.3294  0.1267
 5159SOL    HW126936   4.498   0.697   3.371 -0.2727 -0.4348  1.0172
 5159SOL    HW226937   4.527   0.548   3.390  1.0696 -0.5070 -0.7270
 5160SOL     OW26938   2.788   3.137   6.670  0.1598 -0.0680 -0.4869
 5160SOL    HW126939   2.721   3.072   6.650 -0.0527  0.4815 -1.5498
 5160SOL    HW226940   2.775   3.195   6.595 -1.5474  0.6314  0.3453
 5161SOL     OW26941   2.934   0.249   5.388  0.1647  0.3184  0.9580
 5161SOL    HW126942   2.844   0.217   5.389  0.1861  0.2724  1.5971
 5161SOL    HW226943   2.920   0.342   5.402 -1.6003  0.3569 -1.2172
 5162SOL     OW26944   1.956   1.292  14.425 -0.2507 -0.4302 -0.1442
 5162SOL    HW126945   2.028   1.351  14.447 -2.4505  2.3851 -0.4562
 5162SOL    HW226946   1.881   1.329  14.471  0.6106 -0.3249  1.1799
 5163SOL     OW26947   0.609   1.769   3.776  0.5282  0.2192  0.1086
 5163SOL    HW126948   0.546   1.821   3.826 -1.4821 -1.2677 -0.8768
 5163SOL    HW226949   0.651   1.838   3.723  3.3836  0.2982  2.4553
 5164SOL     OW26950   2.515   2.011  15.186  0.3571 -0.1753 -0.0538
 5164SOL    HW126951   2.471   2.095  15.197 -1.8992 -1.4282  0.3840
 5164SOL    HW226952   2.532   1.989  15.278 -2.1316 -0.7792  0.2636
 5165SOL     OW26953   1.743   4.316   4.831 -0.1586  0.0121  0.9716
 5165SOL    HW126954   1.825   4.317   4.781 -1.0296 -0.5892 -0.4586
 5165SOL    HW226955   1.778   4.268   4.906 -0.8480  1.5597  2.2886
 5166SOL     OW26956   1.209   0.187  14.833 -0.2701 -0.2982  0.0365
 5166SOL    HW126957   1.287   0.172  14.886 -0.1986  0.0784  0.0355
 5166SOL    HW226958   1.247   0.190  14.745 -1.6031  3.5807 -0.4106
 5167SOL     OW26959   2.049   1.245   5.307 -0.0001 -0.1568  0.1024
 5167SOL    HW126960   1.955   1.239   5.324 -0.1714 -1.3798 -1.2848
 5167SOL    HW226961   2.063   1.156   5.276 -0.0932 -0.5123  1.0703
 5168SOL     OW26962   1.885   2.001  12.229  0.1146 -0.2984  0.6865
 5168SOL    HW126963   1.860   1.986  12.138  0.1872  1.6604  0.3613
 5168SOL    HW226964   1.958   1.939  12.237 -1.3728 -2.1622 -0.2745
 5169SOL     OW26965   4.336   0.459  11.227 -0.1393  0.1702  0.4090
 5169SOL    HW126966   4.366   0.370  11.208 -0.3601  0.1889 -0.0396
 5169SOL    HW226967   4.391   0.508  11.165  0.7838 -3.0412 -1.3262
 5170SOL     OW26968   2.379   1.943   6.455 -0.2878  0.1979  0.1162
 5170SOL    HW126969   2.356   2.027   6.413  0.4046 -0.9091 -2.4732
 5170SOL    HW226970   2.428   1.899   6.386 -4.1738 -2.8469 -0.6983
 5171SOL     OW26971   2.097   2.178   7.426  0.8612  0.3353 -0.5731
 5171SOL    HW126972   2.187   2.208   7.441  0.3025  0.8862  1.5307
 5171SOL    HW226973   2.120   2.086   7.418 -0.1039  0.0471  0.0497
 5172SOL     OW26974   2.879   4.180   2.563  0.5088 -0.0047  0.2366
 5172SOL    HW126975   2.975   4.177   2.558  0.3798 -0.7322 -1.8464
 5172SOL    HW226976   2.844   4.094   2.584  0.4287 -0.6136 -2.3192
 5173SOL     OW26977   2.406   0.758  11.737 -0.2261 -0.1437 -0.1871
 5173SOL    HW126978   2.411   0.664  11.724 -0.3069 -0.1945  0.1363
 5173SOL    HW226979   2.493   0.772  11.773 -1.0329  1.1395  1.2964
 5174SOL     OW26980   1.251   3.496  16.664 -0.0404 -0.1381 -0.2630
 5174SOL    HW126981   1.233   3.403  16.668  0.2054 -0.1768 -0.0340
 5174SOL    HW226982   1.299   3.503  16.746  2.8034  1.9448 -2.0895
 5175SOL     OW26983   3.858   3.709   0.843  0.1440  0.0091  0.1665
 5175SOL    HW126984   3.815   3.707   0.929  0.2056  0.6952  0.2173
 5175SOL    HW226985   3.779   3.719   0.791  0.2257 -2.0852 -0.3408
 5176SOL     OW26986   1.591   3.923   8.738  0.2200 -0.1838  0.1666
 5176SOL    HW126987   1.505   3.965   8.739 -0.7917 -2.2748  0.9222
 5176SOL    HW226988   1.639   4.006   8.737 -1.1097  0.5848  0.3956
 5177SOL     OW26989   4.677   0.917   8.225  0.4116 -0.3945  0.3679
 5177SOL    HW126990   4.603   0.887   8.278  0.7847 -4.3190 -1.3397
 5177SOL    HW226991   4.690   1.007   8.254 -1.9786  0.5248 -1.4359
 5178SOL     OW26992   1.775   3.741   2.952 -0.0386  0.2363 -0.0640
 5178SOL    HW126993   1.696   3.688   2.941 -0.1985  1.0731 -3.0394
 5178SOL    HW226994   1.800   3.742   2.859  0.1935  0.8993  0.0028
 5179SOL     OW26995   3.562   2.798   6.809 -0.2458 -0.2141  0.0598
 5179SOL    HW126996   3.618   2.791   6.886 -1.2907  0.3714  0.8736
 5179SOL    HW226997   3.591   2.719   6.763 -0.1882 -0.7745  1.0539
 5180SOL     OW26998   4.271   0.432   2.024 -0.1609  0.7728 -0.0808
 5180SOL    HW126999   4.280   0.432   1.928  1.0677 -0.5198  0.0285
 5180SOL    HW227000   4.334   0.499   2.050  0.8739 -0.7576  1.3745
 5181SOL     OW27001   2.669   1.324   5.032 -0.4067  0.3842  0.0026
 5181SOL    HW127002   2.625   1.378   4.965 -0.2821 -0.1573 -0.5130
 5181SOL    HW227003   2.591   1.277   5.063  0.1291 -1.5185 -1.5838
 5182SOL     OW27004   4.672   0.953  17.443 -0.1076  0.1063  0.3562
 5182SOL    HW127005   4.666   0.879  17.383  0.2782  0.2001  0.2057
 5182SOL    HW227006   4.620   0.916  17.515  2.7539 -0.5814  2.0434
 5183SOL     OW27007   3.611   1.612   4.890 -0.6115  0.0462 -0.0454
 5183SOL    HW127008   3.633   1.662   4.811 -0.8592 -1.3993 -1.0484
 5183SOL    HW227009   3.664   1.649   4.960 -0.0620 -2.8749  1.0596
 5184SOL     OW27010   3.318   1.271   2.626 -0.6167  0.0759  0.5924
 5184SOL    HW127011   3.313   1.186   2.582  1.1263 -1.6943  3.7804
 5184SOL    HW227012   3.242   1.308   2.581 -1.4299 -1.3241  0.7962
 5185SOL     OW27013   2.226   1.771   1.189  0.4475  0.1050 -0.2321
 5185SOL    HW127014   2.211   1.815   1.272  0.5199  1.2813 -0.8431
 5185SOL    HW227015   2.203   1.829   1.116 -3.3643 -1.6122 -0.4043
 5186SOL     OW27016   0.109   2.999   7.690 -0.1496  0.2137 -0.0334
 5186SOL    HW127017   0.058   3.013   7.610  0.0611  0.6536 -0.0951
 5186SOL    HW227018   0.101   2.906   7.710 -1.8757  0.4704  0.4472
 5187SOL     OW27019   3.464   0.161   2.236  0.0145 -0.9256  0.3991
 5187SOL    HW127020   3.369   0.161   2.245  0.1020  0.7698  1.2113
 5187SOL    HW227021   3.487   0.071   2.212  1.3954  0.1386 -2.2040
 5188SOL     OW27022   1.440   0.972  12.156  0.0325  0.1412 -0.6100
 5188SOL    HW127023   1.348   0.954  12.174  0.3249  0.3328  1.1051
 5188SOL    HW227024   1.431   1.015  12.071 -2.0725 -0.1234 -0.5107
 5189SOL     OW27025   2.683   3.049   5.169 -0.3355  0.7143  0.0434
 5189SOL    HW127026   2.613   2.986   5.152 -1.2848  1.4659  1.1544
 5189SOL    HW227027   2.632   3.114   5.218  1.6915  0.9626  1.8371
 5190SOL     OW27028   2.453   0.837  12.753 -0.1414  0.4086 -0.7909
 5190SOL    HW127029   2.489   0.753  12.780 -0.4915  0.2255 -0.8953
 5190SOL    HW227030   2.498   0.862  12.672 -0.2550 -0.4829 -1.1359
 5191SOL     OW27031   4.040   2.781   7.365  0.2620  0.3319  0.0698
 5191SOL    HW127032   4.090   2.747   7.439  0.0600  1.0556  0.5325
 5191SOL    HW227033   4.040   2.871   7.396  1.6809  0.5248 -0.4982
 5192SOL     OW27034   3.775   3.167   3.930 -0.2580  0.1098 -0.0863
 5192SOL    HW127035   3.703   3.182   3.869  0.3047  1.2001 -0.4702
 5192SOL    HW227036   3.809   3.084   3.895  0.4451  0.7363 -0.8942
 5193SOL     OW27037   4.399   2.587  11.142  0.7687 -0.2672  0.0919
 5193SOL    HW127038   4.304   2.572  11.142  0.6128  0.7091  0.2452
 5193SOL    HW227039   4.424   2.586  11.049  1.3170 -0.1942  0.2410
 5194SOL     OW27040   3.325   0.234   6.017  0.4651  0.1888 -0.0333
 5194SOL    HW127041   3.354   0.238   5.926  0.0806  0.0586 -0.1618
 5194SOL    HW227042   3.409   0.261   6.053  0.5270 -1.0541  0.7725
 5195SOL     OW27043   2.119   1.361   6.853  0.1341  0.1358 -0.0881
 5195SOL    HW127044   2.077   1.432   6.902 -0.2675 -0.7310  0.8377
 5195SOL    HW227045   2.139   1.299   6.924  0.5214  2.1044  1.5376
 5196SOL     OW27046   0.171   2.744   2.383 -0.0964 -0.3350 -0.5067
 5196SOL    HW127047   0.204   2.778   2.300 -0.2129  0.1499 -0.3578
 5196SOL    HW227048   0.203   2.654   2.380 -0.6584 -0.6034  1.4242
 5197SOL     OW27049   3.102   3.687   2.386 -0.2053 -0.3113 -0.7109
 5197SOL    HW127050   3.109   3.623   2.457  0.6368 -0.8368 -1.2831
 5197SOL    HW227051   3.184   3.680   2.338  0.0507 -0.2520 -0.2850
 5198SOL     OW27052   0.036   4.055   2.545  0.2051 -0.5023  0.3875
 5198SOL    HW127053   0.082   4.049   2.629  1.0952 -0.2794 -0.0815
 5198SOL    HW227054   4.705   3.979   2.561 -1.4246  1.1772  2.4873
 5199SOL     OW27055   2.661   3.126  15.086  0.7123 -0.9179  0.4133
 5199SOL    HW127056   2.685   3.121  15.178 -3.0171  1.9426  1.5065
 5199SOL    HW227057   2.658   3.030  15.083 -0.3571 -0.7957 -2.9457
 5200SOL     OW27058   2.167   2.251   9.773  0.0757 -0.4333  0.0513
 5200SOL    HW127059   2.135   2.161   9.778 -0.6899 -0.1927 -0.4612
 5200SOL    HW227060   2.232   2.250   9.843 -0.1562  0.1334  0.2751
 5201SOL     OW27061   3.926   0.012   5.532  0.8181 -0.2957  0.2865
 5201SOL    HW127062   3.854   4.680   5.558 -1.5326  1.0239 -3.3049
 5201SOL    HW227063   3.990   4.673   5.504  1.0862  1.4956 -3.2391
 5202SOL     OW27064   2.545   0.990   3.027 -0.3522 -0.2456  0.3216
 5202SOL    HW127065   2.610   0.928   2.994  2.1659  2.3631  0.4036
 5202SOL    HW227066   2.474   0.928   3.043 -0.6004 -0.8742 -3.4065
 5203SOL     OW27067   0.195   4.533   2.883  0.0260 -0.1298 -0.2784
 5203SOL    HW127068   0.145   4.574   2.814  1.7312  2.0254 -0.2204
 5203SOL    HW227069   0.170   4.596   2.950  1.6202  2.7609 -2.4401
 5204SOL     OW27070   2.718   2.650   3.845  0.4156 -0.2408  0.0544
 5204SOL    HW127071   2.715   2.720   3.910  2.3157 -1.7675  1.7584
 5204SOL    HW227072   2.672   2.682   3.767 -0.2795  1.7305  1.2558
 5205SOL     OW27073   3.720   3.398  15.960  0.3711 -0.1851 -0.8747
 5205SOL    HW127074   3.775   3.407  15.882 -0.0749 -1.7839 -1.3689
 5205SOL    HW227075   3.784   3.379  16.029  0.5152  0.0694 -0.9360
 5206SOL     OW27076   0.227   3.460   2.296 -0.1178  0.0102  0.2539
 5206SOL    HW127077   0.252   3.544   2.335  0.1253 -0.4592  1.1126
 5206SOL    HW227078   0.297   3.410   2.338 -0.0309 -1.5965 -1.8430
 5207SOL     OW27079   3.885   3.046  17.551  0.8641  0.8860 -0.0886
 5207SOL    HW127080   3.896   3.132  17.593 -3.0291  1.4782 -0.3286
 5207SOL    HW227081   3.965   3.000  17.577  0.2329  1.3446  2.6513
 5208SOL     OW27082   0.243   1.337   8.282  0.1215  0.0688 -0.5713
 5208SOL    HW127083   0.198   1.270   8.230  0.3992 -0.9005  0.4361
 5208SOL    HW227084   0.181   1.408   8.264  0.2941  0.2864 -0.3057
 5209SOL     OW27085   1.161   3.773   8.269 -0.6480 -0.0286 -0.1074
 5209SOL    HW127086   1.185   3.806   8.356  1.5549  0.2192 -0.8316
 5209SOL    HW227087   1.180   3.679   8.273  1.6564  0.4164 -1.0449
 5210SOL     OW27088   3.532   3.487  13.014 -1.1045 -0.1716 -0.0469
 5210SOL    HW127089   3.608   3.505  12.957 -0.9503 -0.6419  0.0128
 5210SOL    HW227090   3.563   3.534  13.091 -1.0941 -0.4794  0.1383
 5211SOL     OW27091   4.029   1.861   6.097 -0.1639 -0.0180  0.4089
 5211SOL    HW127092   4.079   1.837   6.175  1.1513 -1.6916 -0.9439
 5211SOL    HW227093   3.972   1.785   6.095  0.3986 -0.4794  2.0046
 5212SOL     OW27094   3.287   1.478   1.203  0.1034  0.3151 -0.5464
 5212SOL    HW127095   3.355   1.494   1.138 -0.8230  1.2085 -1.2967
 5212SOL    HW227096   3.278   1.382   1.202  1.4607  0.1875  0.0185
 5213SOL     OW27097   1.053   4.476  15.465  0.1585  0.1076 -0.1438
 5213SOL    HW127098   1.064   4.552  15.521  0.4249  0.5185 -0.7498
 5213SOL    HW227099   1.139   4.490  15.426 -0.8737  1.4216 -1.9548
 5214SOL     OW27100   1.239   1.373   5.146 -0.4154  0.0869 -0.1716
 5214SOL    HW127101   1.209   1.429   5.216  0.2326  1.0766 -0.6883
 5214SOL    HW227102   1.181   1.406   5.078 -0.5601  1.7350  0.7593
 5215SOL     OW27103   0.439   3.761   6.656  0.4577 -0.0251  0.3940
 5215SOL    HW127104   0.507   3.746   6.590  0.6411 -1.0216  0.8045
 5215SOL    HW227105   0.500   3.773   6.729 -0.6763  1.1845  1.1309
 5216SOL     OW27106   2.957   0.818   8.010  0.2142 -0.5286  0.3621
 5216SOL    HW127107   2.907   0.866   8.075  2.2868  1.4334  0.5154
 5216SOL    HW227108   2.891   0.752   7.990  0.2232 -0.9308  1.6481
 5217SOL     OW27109   2.029   3.231   8.825 -0.9457  0.0580  0.1932
 5217SOL    HW127110   2.088   3.285   8.771 -2.6819  2.0602  0.2846
 5217SOL    HW227111   1.975   3.301   8.862  0.7595  0.8930  1.0988
 5218SOL     OW27112   0.214   0.758  17.525  0.5583 -0.6377  0.5915
 5218SOL    HW127113   0.167   0.763  17.442  2.9856  2.0648 -0.6261
 5218SOL    HW227114   0.218   0.668  17.558  0.9444 -0.4062  1.1809
 5219SOL     OW27115   4.556   0.111  17.592 -0.6790  0.7288  0.4121
 5219SOL    HW127116   4.520   0.023  17.600 -0.7532  0.5917 -1.3539
 5219SOL    HW227117   4.629   0.100  17.531 -0.4829 -1.5109  1.0644
 5220SOL     OW27118   0.005   3.787   8.395  0.0619  0.0358  0.4277
 5220SOL    HW127119   4.665   3.719   8.408 -0.0133  0.3780  1.7480
 5220SOL    HW227120   0.021   3.829   8.479 -0.9175 -0.6083  0.9338
 5221SOL     OW27121   1.194   3.296   3.834 -0.0247  0.2045 -0.3998
 5221SOL    HW127122   1.269   3.237   3.837 -0.5729 -0.4642  0.1246
 5221SOL    HW227123   1.157   3.280   3.747 -1.1051  0.0433  0.0993
 5222SOL     OW27124   0.948   0.317  16.828 -0.1423 -0.6511 -0.1570
 5222SOL    HW127125   0.996   0.390  16.789  0.5628 -0.6305  0.7659
 5222SOL    HW227126   0.902   0.357  16.902  1.7463 -0.3110  0.8324
 5223SOL     OW27127   4.405   3.828   2.690 -0.8793  0.2059 -0.1369
 5223SOL    HW127128   4.353   3.749   2.708  0.9950 -1.0593 -0.2946
 5223SOL    HW227129   4.371   3.895   2.749  1.0965  1.1186 -0.0631
 5224SOL     OW27130   0.217   2.447   2.977 -0.6455 -0.1301  0.2584
 5224SOL    HW127131   0.170   2.529   2.963  0.9395  0.7534  0.1950
 5224SOL    HW227132   0.174   2.412   3.056  2.1396 -0.3432  1.6820
 5225SOL     OW27133   1.943   2.800   3.677  0.3398 -0.3653 -0.1979
 5225SOL    HW127134   1.981   2.877   3.719  0.1313  0.6838 -1.9534
 5225SOL    HW227135   1.887   2.846   3.615  0.5351 -0.8744 -0.7591
 5226SOL     OW27136   0.325   1.228   3.110  0.0135  0.4069 -0.4324
 5226SOL    HW127137   0.412   1.219   3.150 -0.4545  0.3985  0.5769
 5226SOL    HW227138   0.298   1.294   3.174 -1.0668  0.2721 -0.7580
 5227SOL     OW27139   3.629   1.044   6.160 -0.1074  0.2768  0.7492
 5227SOL    HW127140   3.616   1.001   6.244 -0.9928  2.9735  1.9731
 5227SOL    HW227141   3.703   0.991   6.132 -0.0974  0.0592  1.1885
 5228SOL     OW27142   1.342   0.136   1.860  0.4641  0.0368  0.1029
 5228SOL    HW127143   1.331   0.049   1.898 -0.4185  1.1942  2.5569
 5228SOL    HW227144   1.308   0.190   1.932  0.9898 -0.6410  0.8559
 5229SOL     OW27145   2.642   3.851   3.220  0.2516 -0.0870 -0.5026
 5229SOL    HW127146   2.651   3.946   3.229  1.0168 -0.2615  0.6065
 5229SOL    HW227147   2.645   3.835   3.126  0.5775 -0.6763 -0.3898
 5230SOL     OW27148   2.390   1.042   2.521 -0.7479  0.7035 -0.1332
 5230SOL    HW127149   2.373   1.039   2.616 -0.5179  3.3571  0.0052
 5230SOL    HW227150   2.318   0.992   2.482 -1.1427  0.7772  0.4859
 5231SOL     OW27151   2.356   4.154  16.690  0.0282  0.1096  0.3149
 5231SOL    HW127152   2.334   4.239  16.653 -2.6762 -0.7768 -0.0927
 5231SOL    HW227153   2.306   4.091  16.640  0.2441 -0.0460  0.2958
 5232SOL     OW27154   0.466   2.563  10.310 -0.2529 -0.0555 -0.7611
 5232SOL    HW127155   0.379   2.562  10.268  0.0666  0.9335 -1.4497
 5232SOL    HW227156   0.526   2.532  10.243  0.8581 -1.2714  0.8114
 5233SOL     OW27157   2.055   4.450   9.517  0.3417 -0.5083  0.8347
 5233SOL    HW127158   2.072   4.501   9.596  0.4825  0.8210 -0.0511
 5233SOL    HW227159   2.111   4.495   9.454 -1.3816  2.4119  1.4097
 5234SOL     OW27160   0.827   1.846   5.140  0.2730  0.6763  0.4258
 5234SOL    HW127161   0.864   1.897   5.211  1.4193 -0.0250  0.3449
 5234SOL    HW227162   0.754   1.904   5.121  0.8735  1.0457 -0.7334
 5235SOL     OW27163   1.141   1.300   2.227  0.0902  0.4462  0.0476
 5235SOL    HW127164   1.161   1.394   2.232 -2.2619  0.7910  2.9575
 5235SOL    HW227165   1.142   1.287   2.321  0.3245  0.2746  0.0220
 5236SOL     OW27166   3.493   0.405  10.655  0.4046 -0.3843 -0.1071
 5236SOL    HW127167   3.406   0.365  10.656 -0.2169  0.9327 -1.0360
 5236SOL    HW227168   3.517   0.369  10.570 -0.8758 -0.5094 -0.4248
 5237SOL     OW27169   2.178   0.990   5.275  0.5764  1.0313  0.0813
 5237SOL    HW127170   2.258   0.940   5.257 -0.0113 -0.0841  0.5711
 5237SOL    HW227171   2.134   0.931   5.337  2.3335 -0.0971  0.2725
 5238SOL     OW27172   4.255   3.482   8.616  0.2185 -0.3995  0.5618
 5238SOL    HW127173   4.288   3.565   8.582 -0.5012 -0.4028 -0.1441
 5238SOL    HW227174   4.268   3.492   8.711 -2.2744  2.3316  0.6347
 5239SOL     OW27175   2.234   3.828  11.470 -0.7581  0.3269 -0.4436
 5239SOL    HW127176   2.313   3.804  11.520 -0.7444 -1.8765 -1.5219
 5239SOL    HW227177   2.216   3.741  11.434 -1.3892 -0.6597  2.2235
 5240SOL     OW27178   1.711   0.174   4.916 -0.3621  0.2965  0.5859
 5240SOL    HW127179   1.622   0.192   4.946 -0.2976 -3.1011  2.8558
 5240SOL    HW227180   1.736   0.165   5.008 -0.9835 -0.8765  0.6455
 5241SOL     OW27181   4.629   3.335   0.367  0.2712 -0.3110 -0.1735
 5241SOL    HW127182   4.714   3.367   0.397 -0.0782 -0.6095  1.1287
 5241SOL    HW227183   4.582   3.317   0.448 -0.8565  2.5516 -0.1639
 5242SOL     OW27184   0.881   0.888  15.357 -0.4577  0.6679 -0.2557
 5242SOL    HW127185   0.805   0.849  15.314 -0.5081  0.8862 -0.3645
 5242SOL    HW227186   0.908   0.957  15.296 -0.4596  0.0764 -0.9208
 5243SOL     OW27187   3.549   3.707   6.993 -0.1084 -0.7061  0.2028
 5243SOL    HW127188   3.489   3.653   7.046 -1.2093  0.4033  0.0929
 5243SOL    HW227189   3.600   3.631   6.964  2.3381  0.5056  1.3304
 5244SOL     OW27190   0.489   3.637   4.009  0.3368 -0.0864  0.2328
 5244SOL    HW127191   0.451   3.631   4.096 -2.5931 -2.6131 -1.2269
 5244SOL    HW227192   0.411   3.632   3.953  1.3065  2.4733 -1.3380
 5245SOL     OW27193   3.326   0.652  10.368 -0.4380 -0.2980 -0.5870
 5245SOL    HW127194   3.305   0.723  10.307 -0.6544 -0.3603 -0.5863
 5245SOL    HW227195   3.418   0.677  10.369 -0.7363  0.7660 -0.0375
 5246SOL     OW27196   2.053   1.578   8.560 -0.0140  0.8422  0.3015
 5246SOL    HW127197   1.960   1.598   8.548 -0.4775  0.4338  3.3683
 5246SOL    HW227198   2.100   1.658   8.540 -1.6670  1.1476 -2.3906
 5247SOL     OW27199   4.108   0.126   3.360 -0.1387  0.0154 -0.3007
 5247SOL    HW127200   4.028   0.078   3.338 -0.4522  0.2070  0.4325
 5247SOL    HW227201   4.128   0.174   3.279  2.9916  2.2716  1.8149
 5248SOL     OW27202   1.607   4.247  16.808  0.6238 -0.3889  0.0128
 5248SOL    HW127203   1.625   4.159  16.841  1.0920 -0.4804 -0.4822
 5248SOL    HW227204   1.695   4.280  16.790  0.4362 -0.1447 -0.4544
 5249SOL     OW27205   1.700   4.568   5.393 -0.1708  0.0795 -0.3061
 5249SOL    HW127206   1.716   4.576   5.299  1.6512 -0.6841 -0.0535
 5249SOL    HW227207   1.606   4.575   5.379 -0.4818  0.1600  1.8628
 5250SOL     OW27208   3.286   4.706  11.680  0.5835  0.5842  0.2040
 5250SOL    HW127209   3.375   0.006  11.704  0.3200  1.5322  0.1608
 5250SOL    HW227210   3.278   0.057  11.622  0.3337  0.9630  0.7453
 5251SOL     OW27211   1.550   3.915   1.271 -0.4766 -0.6093  0.5226
 5251SOL    HW127212   1.541   3.872   1.186  3.2717 -1.5187  0.5972
 5251SOL    HW227213   1.546   3.839   1.329  0.2774 -0.0505  1.3106
 5252SOL     OW27214   4.064   3.613   1.516  0.2503 -0.4184  0.1956
 5252SOL    HW127215   3.987   3.569   1.553  0.5538  1.1571  2.6725
 5252SOL    HW227216   4.071   3.563   1.435 -1.3410  1.8424 -1.3181
 5253SOL     OW27217   4.156   2.272   5.077 -0.0537  0.2017 -0.6853
 5253SOL    HW127218   4.070   2.302   5.107 -0.7563 -3.5513  1.0144
 5253SOL    HW227219   4.154   2.305   4.987  0.3273 -0.1478 -0.8212
 5254SOL     OW27220   0.333   3.735   5.644  0.0458  0.8186  0.3854
 5254SOL    HW127221   0.309   3.643   5.651 -2.6574  1.6056  1.6214
 5254SOL    HW227222   0.266   3.768   5.583 -0.4849  0.7247  0.9179
 5255SOL     OW27223   1.422   1.653   3.987 -0.3897 -0.4222  0.4418
 5255SOL    HW127224   1.386   1.583   3.933 -2.1389 -0.1983  1.3359
 5255SOL    HW227225   1.365   1.728   3.973  2.5826  1.3703 -2.2260
 5256SOL     OW27226   3.133   4.061   4.822  0.4848 -0.0541  0.2499
 5256SOL    HW127227   3.143   3.996   4.753  0.0871 -1.3721  1.4328
 5256SOL    HW227228   3.121   4.145   4.778  0.8856 -0.5928 -0.8689
 5257SOL     OW27229   1.298   3.729   7.878  0.3549  0.0335  0.0589
 5257SOL    HW127230   1.348   3.743   7.959 -1.9035  1.3328  1.2366
 5257SOL    HW227231   1.264   3.816   7.859  0.9295 -0.4977 -3.3140
 5258SOL     OW27232   2.664   2.532   8.870 -0.3864  0.1104 -0.2278
 5258SOL    HW127233   2.645   2.531   8.964 -0.1096 -2.8793 -0.2046
 5258SOL    HW227234   2.575   2.557   8.846 -0.1818  0.2853 -0.8033
 5259SOL     OW27235   2.334   0.805   7.512  0.4742 -0.3898  0.0885
 5259SOL    HW127236   2.296   0.834   7.429 -0.4863 -0.5283  0.4786
 5259SOL    HW227237   2.393   0.737   7.481  2.0538  0.4841  1.1539
 5260SOL     OW27238   2.806   1.637   9.423  0.6185  0.4172 -0.0791
 5260SOL    HW127239   2.876   1.636   9.488 -0.4618  0.1774  1.0908
 5260SOL    HW227240   2.792   1.542   9.415 -1.3331  0.7521 -0.7403
 5261SOL     OW27241   0.976   1.966   2.721 -0.0691  0.0007  0.1291
 5261SOL    HW127242   0.925   2.014   2.655 -1.4455  0.0469  1.2231
 5261SOL    HW227243   1.062   1.946   2.683  0.5705  1.3610  0.8784
 5262SOL     OW27244   0.498   1.710  10.760 -0.2661  0.2327  0.5904
 5262SOL    HW127245   0.507   1.696  10.854  0.0620 -0.6812  0.4259
 5262SOL    HW227246   0.471   1.625  10.724 -0.5816 -0.7315  3.0890
 5263SOL     OW27247   1.889   0.631   3.121  0.2848  0.1444 -0.4019
 5263SOL    HW127248   1.959   0.695   3.111  0.4944  0.0637  0.5682
 5263SOL    HW227249   1.920   0.604   3.207 -0.6127 -3.1223 -1.1141
 5264SOL     OW27250   0.167   4.204  17.370 -0.7590 -0.4478 -0.1238
 5264SOL    HW127251   0.201   4.234  17.454  2.4405 -1.8359 -0.9224
 5264SOL    HW227252   0.185   4.277  17.310  0.2119  0.2902  1.0720
 5265SOL     OW27253   0.029   1.608   2.726  0.3011 -0.6322 -0.2151
 5265SOL    HW127254   0.121   1.585   2.715  0.4179 -0.6701  0.8123
 5265SOL    HW227255   4.723   1.553   2.655 -1.9213 -1.0843  1.1499
 5266SOL     OW27256   0.644   4.569  12.566 -0.3118 -0.3033  0.0124
 5266SOL    HW127257   0.682   4.537  12.484 -0.5590 -1.2730  0.2817
 5266SOL    HW227258   0.611   4.657  12.546  2.4068  0.6650 -0.2378
 5267SOL     OW27259   1.000   2.265   5.449 -0.4075  0.0051  0.3820
 5267SOL    HW127260   0.959   2.250   5.534  0.3236  1.8876  1.0496
 5267SOL    HW227261   0.954   2.347   5.435 -2.5200 -1.0630  1.0447
 5268SOL     OW27262   3.510   1.320   2.424  0.6043 -0.0290 -0.0858
 5268SOL    HW127263   3.599   1.322   2.459  0.7229  0.1034 -0.3915
 5268SOL    HW227264   3.457   1.310   2.503  3.0537 -1.0980  1.3954
 5269SOL     OW27265   1.794   3.445   9.837  0.1990  0.0756  0.5621
 5269SOL    HW127266   1.815   3.538   9.842  1.7320 -0.2047 -0.8038
 5269SOL    HW227267   1.824   3.417   9.924  0.4445 -0.2315  0.3759
 5270SOL     OW27268   3.989   4.016   3.890 -0.8267 -0.6479  0.2013
 5270SOL    HW127269   3.963   4.086   3.830  0.1543  0.3389  0.9221
 5270SOL    HW227270   4.040   4.074   3.946 -2.5457  1.1084 -0.0521
 5271SOL     OW27271   3.705   3.632   3.954 -0.5344  0.1839  0.0865
 5271SOL    HW127272   3.718   3.635   3.859  0.5193 -0.9177  0.2031
 5271SOL    HW227273   3.612   3.651   3.966 -0.2614 -0.0892  2.5704
 5272SOL     OW27274   4.444   1.602   5.028  0.7268  0.3071 -0.2149
 5272SOL    HW127275   4.413   1.692   5.016 -1.1955 -0.0445  2.1298
 5272SOL    HW227276   4.391   1.572   5.102  1.7432 -0.8268  0.0418
 5273SOL     OW27277   2.150   2.528  15.606 -0.0539 -0.5182  0.8773
 5273SOL    HW127278   2.179   2.581  15.531 -1.5065 -2.5978 -1.1610
 5273SOL    HW227279   2.147   2.438  15.574  0.6571 -0.5899  1.0242
 5274SOL     OW27280   1.746   2.574   0.777  0.1917 -0.0373 -0.7333
 5274SOL    HW127281   1.666   2.560   0.827 -0.0295  2.3512 -0.4211
 5274SOL    HW227282   1.806   2.515   0.821  1.3365  0.3688 -1.7631
 5275SOL     OW27283   4.195   2.931   1.719  0.5172  0.4019  1.1939
 5275SOL    HW127284   4.224   2.963   1.633 -3.2175 -1.7483 -0.9023
 5275SOL    HW227285   4.278   2.894   1.749  0.0659  0.3574  2.3704
 5276SOL     OW27286   2.294   1.622   6.664 -0.2007  0.4569 -0.1507
 5276SOL    HW127287   2.199   1.620   6.679  0.0605 -0.5166  1.2380
 5276SOL    HW227288   2.299   1.593   6.573  1.1578  0.5662 -0.1026
 5277SOL     OW27289   1.372   3.741   2.766 -0.3643 -0.1302 -0.7883
 5277SOL    HW127290   1.394   3.681   2.695  2.1256  1.1152 -1.0850
 5277SOL    HW227291   1.372   3.684   2.843  0.5179  1.0682  0.1120
 5278SOL     OW27292   2.531   4.338   5.544 -0.2280 -0.9253  0.2092
 5278SOL    HW127293   2.529   4.289   5.463 -1.8629 -1.7985  0.7892
 5278SOL    HW227294   2.519   4.262   5.601 -2.3488 -0.9670 -0.3094
 5279SOL     OW27295   4.132   0.309  11.466 -0.1775  0.3394 -0.0095
 5279SOL    HW127296   4.086   0.352  11.538  0.4517  1.5557 -0.3355
 5279SOL    HW227297   4.208   0.273  11.511 -0.0435  0.1879 -0.3503
 5280SOL     OW27298   1.868   0.156  16.003 -0.1385 -0.4888  0.3925
 5280SOL    HW127299   1.880   0.133  15.911 -2.7532  0.4233 -0.1693
 5280SOL    HW227300   1.920   0.087  16.044 -0.1978 -0.5245  0.4086
 5281SOL     OW27301   0.258   3.814   2.123 -0.4252  0.0366 -0.2888
 5281SOL    HW127302   0.189   3.778   2.067 -1.1283 -0.6323  1.0161
 5281SOL    HW227303   0.283   3.888   2.068  1.1927 -0.6612 -0.5163
 5282SOL     OW27304   4.314   2.013  13.392 -0.6171  0.0001 -0.2776
 5282SOL    HW127305   4.335   1.990  13.483  1.1264  1.9129 -0.2077
 5282SOL    HW227306   4.294   1.927  13.356  0.9127 -0.0258 -1.0461
 5283SOL     OW27307   0.700   2.536  16.233 -0.3460  0.5202  0.2437
 5283SOL    HW127308   0.670   2.625  16.213 -0.0399  0.6319  0.2680
 5283SOL    HW227309   0.737   2.545  16.321 -1.6703  2.1931  0.6330
 5284SOL     OW27310   1.773   3.344  15.302  0.0394  0.2896 -0.4180
 5284SOL    HW127311   1.835   3.289  15.254 -0.1491 -0.1835 -0.1215
 5284SOL    HW227312   1.703   3.367  15.241  1.0168  2.4895 -0.7063
 5285SOL     OW27313   2.900   2.798   1.979  0.2175 -0.4148 -0.0620
 5285SOL    HW127314   2.815   2.814   2.021 -0.9218 -0.6025 -2.3129
 5285SOL    HW227315   2.921   2.716   2.023  2.7654  0.9122  1.1649
 5286SOL     OW27316   4.215   2.301   2.762  0.1522 -0.1241 -0.6312
 5286SOL    HW127317   4.161   2.224   2.781  0.1434  0.1469  0.4466
 5286SOL    HW227318   4.150   2.368   2.739 -0.5997 -0.0803  1.6284
 5287SOL     OW27319   1.995   4.168  17.140  0.4390 -0.1316  0.0136
 5287SOL    HW127320   2.012   4.178  17.233  0.3485  1.2694 -0.1293
 5287SOL    HW227321   2.071   4.201  17.091  0.8169 -0.2194  0.5497
 5288SOL     OW27322   1.347   0.488   9.056 -0.3847 -0.4548  0.4558
 5288SOL    HW127323   1.261   0.499   9.098 -2.3175 -0.4167 -3.4352
 5288SOL    HW227324   1.319   0.438   8.979 -0.1325  0.0679  0.0242
 5289SOL     OW27325   1.901   2.799   2.357 -0.4645  0.6605 -0.0602
 5289SOL    HW127326   1.989   2.828   2.380  0.0378 -0.7058 -0.3138
 5289SOL    HW227327   1.916   2.737   2.286 -2.0995 -0.0823  0.2301
 5290SOL     OW27328   0.848   0.597   6.174 -0.5070 -0.3021 -0.0824
 5290SOL    HW127329   0.813   0.548   6.249 -2.7190  2.7620  0.8920
 5290SOL    HW227330   0.911   0.654   6.219 -1.2287  0.4658 -0.0563
 5291SOL     OW27331   3.994   2.672   3.224  0.0896  0.1984 -0.3559
 5291SOL    HW127332   4.069   2.723   3.253 -0.3809 -0.0441  1.2459
 5291SOL    HW227333   3.924   2.711   3.277  0.8541  1.2255 -0.1184
 5292SOL     OW27334   3.792   2.774   6.450  0.6745  0.4815 -0.2168
 5292SOL    HW127335   3.779   2.836   6.521 -2.5836  0.1325 -0.5233
 5292SOL    HW227336   3.750   2.697   6.488  0.7693 -0.9643 -2.9792
 5293SOL     OW27337   3.080   1.451   7.882 -0.5721 -0.4139 -0.3525
 5293SOL    HW127338   3.112   1.416   7.965  1.7813  0.2284 -0.9974
 5293SOL    HW227339   3.123   1.401   7.813  0.5074  0.2142 -0.1312
 5294SOL     OW27340   2.868   2.434   2.344 -0.2059 -0.5179 -0.6645
 5294SOL    HW127341   2.826   2.349   2.358 -0.1618 -0.7649 -2.0421
 5294SOL    HW227342   2.919   2.442   2.425  0.7062  1.1716 -1.3978
 5295SOL     OW27343   2.091   3.743   4.240  0.1318 -0.0143 -0.2535
 5295SOL    HW127344   2.156   3.788   4.186 -1.0013  2.3625  0.3455
 5295SOL    HW227345   2.130   3.657   4.255  2.5712  0.9820 -0.8015
 5296SOL     OW27346   0.466   2.041   4.485 -0.1100 -0.0283  0.3836
 5296SOL    HW127347   0.389   1.990   4.459 -0.3439  0.0653  0.8904
 5296SOL    HW227348   0.476   2.023   4.579 -1.1332  0.1881  0.5280
 5297SOL     OW27349   1.703   2.683   6.080  0.3917 -0.2250 -0.0192
 5297SOL    HW127350   1.735   2.626   6.150  1.8181 -0.9378 -1.2566
 5297SOL    HW227351   1.662   2.750   6.134 -0.9205 -0.8174 -0.2786
 5298SOL     OW27352   4.644   0.902  15.743  0.3408  0.2751  0.1863
 5298SOL    HW127353   4.707   0.974  15.753 -0.4480  0.7778  1.5057
 5298SOL    HW227354   4.646   0.858  15.828  1.2432  0.7324  0.4062
 5299SOL     OW27355   2.425   4.228   4.951  0.3612 -0.2386  0.0182
 5299SOL    HW127356   2.439   4.316   4.917  0.0266  0.1817  0.9723
 5299SOL    HW227357   2.468   4.174   4.884  1.2089  0.5461 -0.0710
 5300SOL     OW27358   1.993   3.436   5.966  0.3595  0.1618 -0.2151
 5300SOL    HW127359   1.950   3.508   5.920  0.3140  0.2372 -0.0522
 5300SOL    HW227360   1.923   3.378   5.997  1.4124 -0.9656  0.0583
 5301SOL     OW27361   4.132   2.882  11.301 -0.4100  0.6127 -0.2709
 5301SOL    HW127362   4.164   2.923  11.382  3.0591 -0.9518 -0.8500
 5301SOL    HW227363   4.094   2.804  11.341 -0.2725  0.3847 -0.5838
 5302SOL     OW27364   0.729   1.121   5.558 -0.0274 -0.0909 -0.5688
 5302SOL    HW127365   0.701   1.108   5.649  2.0611  0.2338  0.1151
 5302SOL    HW227366   0.824   1.131   5.563 -0.1406  0.7738 -0.1200
 5303SOL     OW27367   1.148   1.680   3.736 -0.1603  0.5323  0.0441
 5303SOL    HW127368   1.142   1.770   3.702 -2.9244  0.3408  0.0259
 5303SOL    HW227369   1.200   1.638   3.668 -0.9342 -1.3780  0.6254
 5304SOL     OW27370   2.162   1.381  12.006 -0.8571 -0.2469  1.1683
 5304SOL    HW127371   2.145   1.302  11.955  1.5569  1.2130 -1.8945
 5304SOL    HW227372   2.158   1.336  12.091  0.6956 -0.0281  1.3641
 5305SOL     OW27373   2.064   1.407   8.299  0.1918 -0.1981 -0.2472
 5305SOL    HW127374   2.085   1.385   8.390  1.1213 -0.5774 -0.5571
 5305SOL    HW227375   1.986   1.462   8.308  0.4040  0.2135 -0.8549
 5306SOL     OW27376   3.640   1.876   2.048  0.6589  0.4055  0.9173
 5306SOL    HW127377   3.668   1.853   1.959 -0.6925  0.3799  0.5049
 5306SOL    HW227378   3.604   1.963   2.033  0.1611  0.0798  0.2080
 5307SOL     OW27379   2.274   1.522   4.277  0.0600 -0.3532  0.2161
 5307SOL    HW127380   2.205   1.582   4.249 -0.7035 -1.3800 -0.0750
 5307SOL    HW227381   2.339   1.588   4.302  0.4550 -1.9165  3.2704
 5308SOL     OW27382   4.111   1.085   1.120 -0.2258  0.7063 -0.4509
 5308SOL    HW127383   4.046   1.023   1.087 -0.4501  0.0508  1.2330
 5308SOL    HW227384   4.055   1.157   1.150  0.9483  1.9324 -1.2103
 5309SOL     OW27385   3.475   1.963  14.714 -0.1049 -0.4351  0.5989
 5309SOL    HW127386   3.496   2.042  14.664 -0.7966 -0.7338 -0.1651
 5309SOL    HW227387   3.532   1.906  14.663 -1.2487 -0.6896 -0.3935
 5310SOL     OW27388   2.356   1.077   4.211  0.4057  0.3687 -0.1669
 5310SOL    HW127389   2.421   1.103   4.145  2.1939 -1.2114  0.9974
 5310SOL    HW227390   2.335   1.162   4.251  1.5729  1.2243 -1.3624
 5311SOL     OW27391   0.090   2.693   2.843  0.2209 -0.4788 -0.9149
 5311SOL    HW127392   0.171   2.704   2.793  0.5854 -1.3555 -0.5256
 5311SOL    HW227393   0.020   2.697   2.778  1.1062  1.9479 -1.7202
 5312SOL     OW27394   4.183   2.913   3.643  0.4303  0.3616 -0.8349
 5312SOL    HW127395   4.153   2.822   3.647 -2.4517  1.4335  1.8167
 5312SOL    HW227396   4.204   2.938   3.733  2.5251 -2.5703 -0.4964
 5313SOL     OW27397   2.231   0.413   1.124  0.2536 -0.0559 -0.3487
 5313SOL    HW127398   2.319   0.432   1.155  0.0398 -0.0186  0.2313
 5313SOL    HW227399   2.253   0.361   1.047 -1.8164 -1.2574 -0.1321
 5314SOL     OW27400   1.857   2.131   6.747 -0.4475 -0.2133  0.1733
 5314SOL    HW127401   1.839   2.193   6.676  0.7490 -0.1396 -0.0598
 5314SOL    HW227402   1.769   2.130   6.785 -0.6083  1.5091 -0.1437
 5315SOL     OW27403   0.088   4.440   7.178  0.3994  0.1923  0.2282
 5315SOL    HW127404   0.037   4.385   7.238  1.5806 -0.3295  0.7484
 5315SOL    HW227405   0.044   4.430   7.094  2.4039 -3.5623 -0.3958
 5316SOL     OW27406   0.111   1.401  15.240 -0.5562  0.3590  0.3165
 5316SOL    HW127407   0.041   1.443  15.290 -0.4914  0.7237  0.1044
 5316SOL    HW227408   0.158   1.365  15.315 -1.9321 -0.9753  0.5348
 5317SOL     OW27409   2.622   2.638   8.256  0.6616  0.6937  0.4139
 5317SOL    HW127410   2.595   2.729   8.268  0.2842  0.7419 -0.7841
 5317SOL    HW227411   2.662   2.648   8.169  0.2827 -2.9699 -0.1721
 5318SOL     OW27412   0.128   0.101   2.268  0.3630 -0.4626  0.6045
 5318SOL    HW127413   0.176   0.147   2.337 -3.1593  2.8170  0.8740
 5318SOL    HW227414   0.099   0.017   2.304  0.3143 -0.8208 -0.2856
 5319SOL     OW27415   1.908   2.681   7.136 -0.0753 -0.5475  0.0783
 5319SOL    HW127416   1.877   2.629   7.209 -1.1194 -0.9406 -0.6439
 5319SOL    HW227417   1.833   2.684   7.076  1.7976  0.4601 -2.2456
 5320SOL     OW27418   2.118   2.655   7.775  0.1857 -0.5742  0.4517
 5320SOL    HW127419   2.042   2.611   7.738  1.3966 -1.5334 -0.9051
 5320SOL    HW227420   2.192   2.642   7.715  2.7773  1.5417  3.1595
 5321SOL     OW27421   4.668   0.233   2.985 -0.1853 -0.9677  0.1791
 5321SOL    HW127422   4.575   0.213   2.985 -0.2096 -0.8103 -0.8430
 5321SOL    HW227423   4.660   0.327   3.001  1.2609 -0.8451  0.1839
 5322SOL     OW27424   0.376   1.621  11.459 -0.1482 -0.7168  0.0150
 5322SOL    HW127425   0.292   1.631  11.503 -0.9807 -1.9718 -1.2713
 5322SOL    HW227426   0.370   1.695  11.398  1.3971 -0.3462  0.3267
 5323SOL     OW27427   1.653   3.590   5.643  0.3091 -0.6235 -0.0142
 5323SOL    HW127428   1.698   3.624   5.721  1.9652 -0.3617 -1.0899
 5323SOL    HW227429   1.713   3.527   5.604  1.4805  1.7144 -1.9469
 5324SOL     OW27430   0.428   1.797   7.402  0.4996  0.1851  0.0180
 5324SOL    HW127431   0.479   1.716   7.408  0.1260 -0.0903 -0.4958
 5324SOL    HW227432   0.340   1.760   7.395  0.8469 -0.1066 -2.7711
 5325SOL     OW27433   3.404   2.216   5.589 -0.2667 -0.1042 -0.2377
 5325SOL    HW127434   3.423   2.294   5.641 -1.1950  0.9668 -1.5034
 5325SOL    HW227435   3.443   2.248   5.507 -2.3148  1.2349 -0.7092
 5326SOL     OW27436   4.690   0.954   0.367 -0.1609 -0.2965  0.0908
 5326SOL    HW127437   4.607   0.972   0.323  0.0442  1.4873  0.4192
 5326SOL    HW227438   0.032   0.949   0.300  1.0628  0.3644  1.2717
 5327SOL     OW27439   2.588   0.093   6.100  0.6042 -0.7975 -0.1245
 5327SOL    HW127440   2.609   0.178   6.137 -1.3477 -0.4978  0.2770
 5327SOL    HW227441   2.583   0.115   6.007  1.7210  2.0260  0.4911
 5328SOL     OW27442   2.639   0.854   2.043  0.0155  0.5631  0.2414
 5328SOL    HW127443   2.567   0.801   2.076 -0.1627 -0.7337 -2.3141
 5328SOL    HW227444   2.607   0.942   2.064 -1.7391  0.5121 -2.2947
 5329SOL     OW27445   1.841   3.666   0.541  0.0209  0.1872  0.3558
 5329SOL    HW127446   1.763   3.630   0.584  1.6982 -0.4729  2.7673
 5329SOL    HW227447   1.873   3.726   0.607  0.5045 -0.4796  0.7234
 5330SOL     OW27448   2.498   4.600   6.204  0.5142  0.3631 -0.3192
 5330SOL    HW127449   2.580   4.560   6.232 -1.6405 -3.7763 -0.0020
 5330SOL    HW227450   2.530   4.687   6.179 -0.5391  0.8174 -0.0975
 5331SOL     OW27451   1.081   0.344   8.886 -0.2187 -0.5280  0.0717
 5331SOL    HW127452   0.991   0.323   8.859 -0.5894 -2.4051  2.7608
 5331SOL    HW227453   1.063   0.437   8.894  0.9258 -0.2048 -1.1453
 5332SOL     OW27454   0.457   2.846  10.349 -0.3507  0.5850 -0.3918
 5332SOL    HW127455   0.450   2.751  10.339 -0.7659  0.5031  0.7205
 5332SOL    HW227456   0.471   2.883  10.261  0.5577  1.9202  0.3181
 5333SOL     OW27457   0.432   1.778   8.001  0.2302 -0.3996  0.1165
 5333SOL    HW127458   0.436   1.689   8.038  2.1791  0.2260  1.3997
 5333SOL    HW227459   0.471   1.778   7.914  0.6452  0.7067  0.3051
 5334SOL     OW27460   4.558   3.429   0.900  0.0605  0.3058 -0.2401
 5334SOL    HW127461   4.463   3.438   0.895  0.0916  0.6234 -0.2783
 5334SOL    HW227462   4.585   3.520   0.910 -0.1249  0.3459 -0.1091
 5335SOL     OW27463   1.807   4.541   5.143 -0.0425  0.6303 -0.5284
 5335SOL    HW127464   1.873   4.493   5.192 -0.9433 -1.2170 -1.1200
 5335SOL    HW227465   1.858   4.593   5.081 -0.2684  1.5730  0.0792
 5336SOL     OW27466   0.900   0.608   8.341 -0.3344  0.3682  0.4307
 5336SOL    HW127467   0.828   0.546   8.330  0.4719 -0.4617 -0.1944
 5336SOL    HW227468   0.917   0.591   8.434 -1.3369  1.1509  0.7539
 5337SOL     OW27469   2.091   2.400   7.069 -0.7253  0.2960 -0.3959
 5337SOL    HW127470   2.001   2.429   7.080 -1.2284 -0.5031 -2.4864
 5337SOL    HW227471   2.089   2.314   7.111  1.0423 -0.1438 -1.2230
 5338SOL     OW27472   1.961   3.025   4.993 -0.1279 -0.0183  0.1679
 5338SOL    HW127473   1.881   3.065   5.027  1.3854  2.8058  0.4130
 5338SOL    HW227474   1.965   2.955   5.058 -0.2099 -1.2917 -1.1839
 5339SOL     OW27475   0.604   2.212   7.002  0.2679 -0.0868  0.2177
 5339SOL    HW127476   0.583   2.180   7.090  2.1115  0.5745  0.8919
 5339SOL    HW227477   0.698   2.194   6.998  0.4456  0.8889  0.1743
 5340SOL     OW27478   2.118   1.014   3.351 -0.4809 -0.2954  0.2123
 5340SOL    HW127479   2.111   1.059   3.436  0.5954  1.5061 -0.6366
 5340SOL    HW227480   2.201   1.046   3.315 -1.8141 -0.9566 -3.3782
 5341SOL     OW27481   2.654   2.280   7.224  0.1524  0.4376 -0.0241
 5341SOL    HW127482   2.745   2.302   7.204  0.4278  0.5747  1.3718
 5341SOL    HW227483   2.648   2.185   7.211 -1.9101  1.0136 -3.2962
 5342SOL     OW27484   2.008   2.709  15.019 -0.2088 -0.5128 -0.5547
 5342SOL    HW127485   2.061   2.635  14.989 -0.3088 -0.8675  0.1528
 5342SOL    HW227486   1.930   2.661  15.049 -1.0131  0.9419 -0.3487
 5343SOL     OW27487   3.678   0.361   4.596  0.4397  0.3874 -0.4299
 5343SOL    HW127488   3.620   0.347   4.671 -1.1710  0.3327 -1.7021
 5343SOL    HW227489   3.656   0.450   4.571 -0.0734  0.4343  0.1880
 5344SOL     OW27490   1.423   0.140   2.667  0.0563 -0.2365 -0.4032
 5344SOL    HW127491   1.337   0.102   2.651  1.1309 -2.5142 -0.8177
 5344SOL    HW227492   1.450   0.135   2.575  4.1296  0.5792  0.7319
 5345SOL     OW27493   3.489   1.252   1.749 -0.0911 -0.0581 -0.2314
 5345SOL    HW127494   3.517   1.312   1.680 -0.4897  0.0987 -0.2594
 5345SOL    HW227495   3.507   1.317   1.817  1.7709  0.3800 -1.1547
 5346SOL     OW27496   2.883   2.752   1.101 -0.2212  0.0362 -0.2104
 5346SOL    HW127497   2.959   2.695   1.088  0.8569  1.1995  0.9298
 5346SOL    HW227498   2.841   2.734   1.017 -1.1053  0.3609  0.1623
 5347SOL     OW27499   2.727   2.944   0.137  0.1637  0.1140 -0.3797
 5347SOL    HW127500   2.754   3.036   0.147  1.5059 -0.2215 -0.8614
 5347SOL    HW227501   2.682   2.910   0.214  0.2328  1.1618  0.1244
 5348SOL     OW27502   3.511   4.614   3.037 -0.1118 -0.3260  0.1252
 5348SOL    HW127503   3.479   4.679   3.100  1.7979  1.8727 -1.1895
 5348SOL    HW227504   3.429   4.565   3.031 -1.0346  1.1114  0.9613
 5349SOL     OW27505   2.359   2.576   8.851 -0.3504  0.6547  0.5252
 5349SOL    HW127506   2.349   2.495   8.900  0.1177  0.6342  0.5904
 5349SOL    HW227507   2.366   2.647   8.914  1.8711  0.8134  0.1044
 5350SOL     OW27508   2.084   4.193   6.688  0.0447 -0.1499 -0.9373
 5350SOL    HW127509   2.051   4.104   6.678 -0.1111 -0.1274 -0.6208
 5350SOL    HW227510   2.155   4.172   6.748  0.4909 -0.4892 -1.5751
 5351SOL     OW27511   4.028   2.867   9.568  0.1904  0.1709 -0.0075
 5351SOL    HW127512   4.004   2.956   9.543  1.5503  0.9201  1.3193
 5351SOL    HW227513   4.114   2.885   9.606 -0.1620 -0.9017  1.3033
 5352SOL     OW27514   1.308   3.628   3.817 -0.3580  0.1541  0.0290
 5352SOL    HW127515   1.299   3.546   3.767 -1.3866  0.6091 -0.5223
 5352SOL    HW227516   1.224   3.667   3.793 -0.5148 -0.6141 -0.6871
 5353SOL     OW27517   3.515   1.547   5.871 -0.0917  0.2329 -0.0405
 5353SOL    HW127518   3.534   1.531   5.963  1.0265 -1.3218 -0.5257
 5353SOL    HW227519   3.447   1.613   5.874 -0.8557 -0.5769  0.3725
 5354SOL     OW27520   1.600   3.952   1.987 -0.9746 -0.4991 -0.1600
 5354SOL    HW127521   1.549   4.019   2.033  1.5319  1.9633 -0.9741
 5354SOL    HW227522   1.688   3.965   2.020 -1.9500  4.4544  0.4482
 5355SOL     OW27523   4.533   1.229   1.340  0.1688  0.0608  0.5547
 5355SOL    HW127524   4.604   1.270   1.388  1.5839 -1.5176 -0.1779
 5355SOL    HW227525   4.565   1.139   1.344  2.3467  0.8863  1.4767
 5356SOL     OW27526   0.972   2.398   2.805 -0.2564 -0.3677 -0.3178
 5356SOL    HW127527   0.934   2.475   2.762  0.4690  0.8166  1.1451
 5356SOL    HW227528   1.063   2.418   2.784 -0.1596  0.9473  1.3744
 5357SOL     OW27529   0.758   0.383  16.519 -0.0141 -0.6764  0.9110
 5357SOL    HW127530   0.819   0.319  16.555  1.1226 -0.3568 -0.4733
 5357SOL    HW227531   0.675   0.338  16.534 -0.9943  0.0995 -2.0711
 5358SOL     OW27532   1.149   0.830   0.409 -0.4838 -0.4912  0.2739
 5358SOL    HW127533   1.062   0.792   0.421 -0.5904 -0.8107 -1.4941
 5358SOL    HW227534   1.146   0.849   0.315  1.6093  0.2451  0.3573
 5359SOL     OW27535   2.030   3.077   6.951 -0.6306  0.0520  0.1848
 5359SOL    HW127536   1.962   3.099   6.889 -0.3131 -1.0351 -0.5513
 5359SOL    HW227537   1.980   3.055   7.030 -1.1539  1.2512  0.1775
 5360SOL     OW27538   1.756   4.180  10.882 -0.4977 -0.1709 -0.0289
 5360SOL    HW127539   1.804   4.131  10.949 -2.3568  0.2409  1.5879
 5360SOL    HW227540   1.825   4.223  10.831  0.1226  0.5235  1.4013
 5361SOL     OW27541   4.272   0.408   3.092 -0.2030  0.6102 -0.7047
 5361SOL    HW127542   4.311   0.373   3.172 -1.1135  2.7839  0.6806
 5361SOL    HW227543   4.245   0.495   3.123  1.5657  0.3015  1.7417
 5362SOL     OW27544   2.547   4.694   4.054  0.4591 -0.4247 -0.3140
 5362SOL    HW127545   2.466   4.650   4.029  0.5605 -0.9439  0.2585
 5362SOL    HW227546   2.585   4.641   4.124  2.6580 -0.0824 -1.2220
 5363SOL     OW27547   1.992   2.696   5.618 -0.0144  0.1471 -0.0854
 5363SOL    HW127548   1.946   2.614   5.599  1.5934 -0.6028 -0.7657
 5363SOL    HW227549   2.066   2.690   5.558  1.0867 -0.5224  1.3315
 5364SOL     OW27550   3.297   1.358   8.492  0.2807 -0.0670 -0.5916
 5364SOL    HW127551   3.334   1.278   8.528  0.3274  0.2669  0.1042
 5364SOL    HW227552   3.377   1.403   8.466  0.4939 -0.4813 -0.6556
 5365SOL     OW27553   3.954   1.666   3.091  0.8364 -0.0640  0.3679
 5365SOL    HW127554   3.882   1.730   3.094  2.5831  1.9792 -1.4041
 5365SOL    HW227555   3.967   1.663   2.997 -0.4695  0.9622  0.1450
 5366SOL     OW27556   1.631   4.654   2.054  0.0878 -0.2652 -0.1178
 5366SOL    HW127557   1.625   0.010   2.005 -1.0096  1.3001  2.6857
 5366SOL    HW227558   1.623   4.690   2.142 -0.0847  1.9642 -1.0270
 5367SOL     OW27559   3.157   2.100   5.259 -0.1194  0.1952 -0.0640
 5367SOL    HW127560   3.131   2.048   5.334  1.4831 -0.3499  0.1213
 5367SOL    HW227561   3.070   2.127   5.232  0.1652 -1.1336 -2.3825
 5368SOL     OW27562   2.311   3.945   5.331 -0.2684  0.6426 -0.5909
 5368SOL    HW127563   2.233   3.894   5.309  0.3705  0.1468 -1.7309
 5368SOL    HW227564   2.379   3.882   5.307 -1.8166 -1.5287  0.8018
 5369SOL     OW27565   3.951   3.369   6.472  0.9816 -0.3676  0.2959
 5369SOL    HW127566   4.040   3.357   6.436  0.4472  2.5592 -2.0545
 5369SOL    HW227567   3.960   3.417   6.554  0.3806 -2.5009  1.5998
 5370SOL     OW27568   0.934   4.353   1.123  0.1597 -0.0744  0.2330
 5370SOL    HW127569   1.016   4.393   1.095  0.5975 -0.9539  0.2780
 5370SOL    HW227570   0.928   4.397   1.208 -3.4811  1.3435 -0.7289
 5371SOL     OW27571   2.026   0.392  16.474 -0.2608 -0.1289  0.2610
 5371SOL    HW127572   2.096   0.386  16.538  0.5439 -1.6788 -0.7612
 5371SOL    HW227573   1.953   0.370  16.533 -0.2583  0.2819  0.4152
 5372SOL     OW27574   4.279   0.475   4.975  0.6298 -0.1233 -0.0538
 5372SOL    HW127575   4.247   0.443   5.059 -0.1392  2.3771  0.6133
 5372SOL    HW227576   4.326   0.556   4.998  0.0886  0.4560 -1.0146
 5373SOL     OW27577   1.149   2.098   6.066 -0.2136  0.3141  0.1919
 5373SOL    HW127578   1.181   2.065   6.150  1.1786 -0.2580 -0.5709
 5373SOL    HW227579   1.232   2.121   6.026 -1.0469  1.4695 -0.8886
 5374SOL     OW27580   0.382   0.016   3.283 -0.0941  0.2364 -0.1926
 5374SOL    HW127581   0.442   0.064   3.340 -0.7289  0.6314  0.1412
 5374SOL    HW227582   0.334   4.699   3.353 -0.0130 -1.4805 -1.2032
 5375SOL     OW27583   3.843   4.527   1.878  1.0177 -0.2432 -0.4683
 5375SOL    HW127584   3.818   4.617   1.896  2.6091  0.1591 -0.2555
 5375SOL    HW227585   3.869   4.491   1.963  0.5094 -1.3938 -0.7887
 5376SOL     OW27586   4.470   2.728   5.114 -0.0667 -0.0380 -0.6247
 5376SOL    HW127587   4.520   2.668   5.059  0.3933  0.4894 -0.7815
 5376SOL    HW227588   4.419   2.671   5.172  1.5321 -1.8886 -1.0529
 5377SOL     OW27589   2.966   2.536   6.127 -0.2272  0.4253  0.3731
 5377SOL    HW127590   3.049   2.540   6.081  0.7455  2.7498  2.3463
 5377SOL    HW227591   3.000   2.551   6.216 -1.5682  3.2589  0.4072
 5378SOL     OW27592   1.592   3.052   6.434 -0.2309  0.0621 -0.1941
 5378SOL    HW127593   1.529   3.086   6.497 -2.7078  0.4503 -2.8671
 5378SOL    HW227594   1.653   3.014   6.497 -0.7088  0.8869  0.7585
 5379SOL     OW27595   0.278   4.513   8.885 -0.2448  0.2602 -0.2715
 5379SOL    HW127596   0.254   4.423   8.911 -1.5601  1.2644  2.0218
 5379SOL    HW227597   0.205   4.544   8.832 -0.5917  2.3614  1.4610
 5380SOL     OW27598   4.545   3.629   8.465 -0.3467  0.2828  0.0781
 5380SOL    HW127599   4.510   3.541   8.451  0.4444 -0.4231  2.4835
 5380SOL    HW227600   4.466   3.682   8.463  0.7733  1.8006 -2.5386
 5381SOL     OW27601   0.506   1.076   6.542  0.6017  0.2400 -0.0041
 5381SOL    HW127602   0.588   1.040   6.577  1.1387 -1.2022 -2.7483
 5381SOL    HW227603   0.465   1.105   6.623  0.3749  0.0388 -0.0500
 5382SOL     OW27604   1.318   0.644   0.669  0.3874  0.8928  0.1639
 5382SOL    HW127605   1.238   0.676   0.628  0.4290  2.5730  1.3917
 5382SOL    HW227606   1.285   0.594   0.744  2.6838  1.8784  1.8592
 5383SOL     OW27607   2.481   4.668   8.032  0.1889  0.1627  0.2349
 5383SOL    HW127608   2.543   4.610   7.988 -0.0686 -0.9684  1.3519
 5383SOL    HW227609   2.456   0.005   7.965  1.1974 -0.2489 -0.5265
 5384SOL     OW27610   2.117   2.573  13.989  0.2949 -0.3447  0.0255
 5384SOL    HW127611   2.181   2.509  14.019 -0.8682 -1.8517 -0.6625
 5384SOL    HW227612   2.116   2.554  13.895 -1.5003 -1.1684  0.2185
 5385SOL     OW27613   1.608   4.346  11.728 -0.6215 -0.6889  0.8946
 5385SOL    HW127614   1.516   4.354  11.755 -0.4047  1.8715  0.8393
 5385SOL    HW227615   1.647   4.337  11.815  0.6526 -2.3162  0.1643
 5386SOL     OW27616   4.699   2.786  11.313 -0.0757 -0.0496  0.5788
 5386SOL    HW127617   4.726   2.851  11.248  0.5239  0.5174  1.3816
 5386SOL    HW227618   0.061   2.766  11.346 -0.8828 -1.6802  1.7555
 5387SOL     OW27619   0.295   3.059   8.180  0.0334  0.2356 -0.2049
 5387SOL    HW127620   0.315   2.990   8.243  1.5141  0.4461 -0.4434
 5387SOL    HW227621   0.302   3.021   8.093 -1.6681 -0.3617 -0.0808
 5388SOL     OW27622   1.725   2.548  10.452  0.2482 -0.4613  0.2130
 5388SOL    HW127623   1.736   2.455  10.435 -1.0641 -0.9574  2.0099
 5388SOL    HW227624   1.805   2.564  10.502  0.0254 -0.1397  0.4747
 5389SOL     OW27625   1.844   3.381   2.925  0.3330 -0.1163  0.0024
 5389SOL    HW127626   1.840   3.321   2.851 -1.2369  0.4681 -0.4081
 5389SOL    HW227627   1.775   3.443   2.898 -0.9721 -0.6919  2.0439
 5390SOL     OW27628   4.499   2.830   2.453 -0.1353 -0.0556 -0.0622
 5390SOL    HW127629   4.411   2.841   2.419  0.3016 -0.6345 -1.3923
 5390SOL    HW227630   4.554   2.824   2.375 -0.6573 -0.4535 -0.3942
 5391SOL     OW27631   0.565   0.254   5.499  0.3719  0.2736  0.0818
 5391SOL    HW127632   0.470   0.252   5.513  0.3924  2.1418  0.5737
 5391SOL    HW227633   0.590   0.164   5.516  1.4665  0.7538  1.0078
 5392SOL     OW27634   2.000   1.514   4.407  0.6460 -0.3777 -0.2334
 5392SOL    HW127635   2.091   1.504   4.435  0.0557 -1.7067  1.2375
 5392SOL    HW227636   1.985   1.608   4.413 -1.4024 -0.6761 -0.5910
 5393SOL     OW27637   4.255   2.585   1.331  0.2395  0.7719  0.1035
 5393SOL    HW127638   4.169   2.589   1.374  0.9867  0.9586  1.5701
 5393SOL    HW227639   4.246   2.639   1.252  0.7185  0.0977 -0.4025
 5394SOL     OW27640   0.093   3.262   5.201  0.1199 -0.0793  0.4655
 5394SOL    HW127641   0.157   3.193   5.187  0.0118  0.1494 -1.1655
 5394SOL    HW227642   0.123   3.310   5.278  0.4443 -0.7678  0.7580
 5395SOL     OW27643   1.577   1.981  13.768  0.0687  0.1641  0.3388
 5395SOL    HW127644   1.541   2.000  13.854  1.3376 -1.2631  1.1926
 5395SOL    HW227645   1.601   1.891  13.790  0.0769  0.0284 -0.2364
 5396SOL     OW27646   4.408   0.935   6.216  0.2177 -0.5220 -0.1842
 5396SOL    HW127647   4.475   0.960   6.279  1.7334 -0.5279 -1.7949
 5396SOL    HW227648   4.445   0.985   6.143 -1.7463 -0.6059 -1.2554
 5397SOL     OW27649   2.006   3.435   0.564  0.1285  0.3021 -0.2706
 5397SOL    HW127650   2.068   3.474   0.626 -1.0585  1.1535  0.3797
 5397SOL    HW227651   1.949   3.510   0.552 -1.1352 -0.1763  2.7661
 5398SOL     OW27652   0.583   0.004   3.106 -0.1927  0.0908 -0.1391
 5398SOL    HW127653   0.621   0.011   3.193 -0.9974 -0.7364  0.2835
 5398SOL    HW227654   0.490   0.002   3.130  0.4847 -1.9327  2.3556
 5399SOL     OW27655   3.539   0.468   7.803  0.2045 -0.3998 -0.2872
 5399SOL    HW127656   3.606   0.534   7.785  2.6012 -2.7280  0.1077
 5399SOL    HW227657   3.482   0.470   7.726  0.0402 -0.3190 -0.1656
 5400SOL     OW27658   1.636   2.166   7.587  0.4417 -0.0144 -0.2156
 5400SOL    HW127659   1.586   2.241   7.619 -0.9745 -0.8645 -0.4117
 5400SOL    HW227660   1.725   2.202   7.590 -0.5474  2.3173  0.6783
 5401SOL     OW27661   3.785   3.107   6.829 -0.2177  0.0381  0.1627
 5401SOL    HW127662   3.878   3.126   6.844  0.3747 -1.8876 -0.9869
 5401SOL    HW227663   3.775   3.157   6.748  2.2046 -1.2628 -0.9424
 5402SOL     OW27664   0.388   2.521   6.068 -0.2029  0.1959 -0.3174
 5402SOL    HW127665   0.339   2.577   6.008 -0.2680  1.7278  1.1673
 5402SOL    HW227666   0.329   2.497   6.140 -0.6016  3.1677  0.3715
 5403SOL     OW27667   1.235   0.882  11.682  0.5598 -0.4128 -0.0970
 5403SOL    HW127668   1.299   0.939  11.639 -1.1159  2.0460  0.6770
 5403SOL    HW227669   1.158   0.926  11.647  2.1971  1.9012 -0.8318
 5404SOL     OW27670   3.119   4.539   1.557 -0.4696  0.4699 -0.2445
 5404SOL    HW127671   3.192   4.497   1.510  0.4316  1.1472  0.5584
 5404SOL    HW227672   3.066   4.461   1.573 -0.1518 -0.2032 -2.4009
 5405SOL     OW27673   2.215   1.873   5.844  0.1877 -0.3635  0.2692
 5405SOL    HW127674   2.192   1.928   5.769 -1.5808  0.1248  1.1687
 5405SOL    HW227675   2.152   1.801   5.856 -2.2395  1.6536 -0.4586
 5406SOL     OW27676   2.408   4.202  11.428 -0.7670 -0.1734  0.2140
 5406SOL    HW127677   2.380   4.143  11.498  1.9560 -0.8854  0.7211
 5406SOL    HW227678   2.333   4.227  11.374  0.4793  1.3615 -0.7927
 5407SOL     OW27679   1.729   2.706   7.358  0.3733 -0.5038  0.4056
 5407SOL    HW127680   1.733   2.743   7.446 -1.0999  1.1548 -0.2313
 5407SOL    HW227681   1.666   2.765   7.315 -1.3497 -2.7485 -0.1661
 5408SOL     OW27682   0.698   0.332  15.787  0.1020  0.4633  0.0262
 5408SOL    HW127683   0.767   0.336  15.721  1.7409 -1.2085  1.6397
 5408SOL    HW227684   0.746   0.296  15.862  1.4589  0.9020 -0.6347
 5409SOL     OW27685   2.815   3.216   5.457 -0.9393 -0.0143 -0.1409
 5409SOL    HW127686   2.811   3.171   5.372  0.2980  0.6361 -0.5452
 5409SOL    HW227687   2.733   3.203   5.504 -1.1095  0.1142 -0.3999
 5410SOL     OW27688   3.504   2.044   9.453 -0.1751  1.3919 -0.3733
 5410SOL    HW127689   3.498   1.952   9.479 -1.8139  1.4325 -0.6272
 5410SOL    HW227690   3.598   2.060   9.464 -0.2735  1.5752  0.1934
 5411SOL     OW27691   1.726   3.238  10.508  0.4243  0.9081  0.2463
 5411SOL    HW127692   1.818   3.238  10.484 -0.0556  2.4474 -1.5673
 5411SOL    HW227693   1.711   3.331  10.494  2.6444  1.1627 -0.2878
 5412SOL     OW27694   2.456   0.024   4.369 -0.2742 -0.3032  0.4275
 5412SOL    HW127695   2.529   4.714   4.319 -0.5037 -0.4545  0.2033
 5412SOL    HW227696   2.464   0.119   4.354 -0.0672 -0.4512 -0.4056
 5413SOL     OW27697   4.541   3.620   0.669  0.1653 -0.1730  0.4582
 5413SOL    HW127698   4.556   3.696   0.613  1.4814 -0.5189  0.3432
 5413SOL    HW227699   4.573   3.551   0.611  1.1178  1.0833 -0.5004
 5414SOL     OW27700   1.093   2.986  12.257 -0.0346 -0.2728  0.5626
 5414SOL    HW127701   1.128   2.985  12.346  0.2785 -0.2309  0.4399
 5414SOL    HW227702   1.004   2.958  12.280 -0.9927  1.3711 -1.1138
 5415SOL     OW27703   4.334   4.564   8.115 -0.6694  0.5082  0.6001
 5415SOL    HW127704   4.295   4.479   8.094 -0.4146  0.2298  1.2544
 5415SOL    HW227705   4.358   4.588   8.026 -1.2137 -0.9585  0.0553
 5416SOL     OW27706   2.649   0.122   5.334 -0.0853 -0.4386 -0.0728
 5416SOL    HW127707   2.634   0.027   5.338 -0.7123 -0.3421 -0.0306
 5416SOL    HW227708   2.598   0.148   5.258 -1.1542 -0.5149  0.6135
 5417SOL     OW27709   3.589   4.478   0.757 -0.0285 -0.3994 -0.0607
 5417SOL    HW127710   3.672   4.431   0.748  1.1660  1.9309 -1.0252
 5417SOL    HW227711   3.545   4.437   0.683 -2.0609  0.4851  0.6444
 5418SOL     OW27712   3.565   2.927  12.760 -0.1559  0.2508 -0.1597
 5418SOL    HW127713   3.514   2.849  12.737  0.1244  0.2024 -0.6229
 5418SOL    HW227714   3.487   2.980  12.778 -0.1550 -0.3153  1.5475
 5419SOL     OW27715   3.011   1.811   8.525  0.8705 -0.2412  0.3615
 5419SOL    HW127716   2.972   1.778   8.444 -0.7992  1.2696  0.5367
 5419SOL    HW227717   3.057   1.890   8.497  1.5854 -0.2840  1.4193
 5420SOL     OW27718   4.690   3.704  10.186 -0.0342 -0.0034 -0.0329
 5420SOL    HW127719   4.710   3.705  10.092  3.0579 -1.2220  0.6035
 5420SOL    HW227720   4.614   3.646  10.191  0.7320 -1.0979 -1.0603
 5421SOL     OW27721   1.947   4.316   7.508  0.5343 -0.1578  0.1696
 5421SOL    HW127722   1.923   4.228   7.539 -2.4603  1.1394  1.5096
 5421SOL    HW227723   1.964   4.354   7.593 -0.3657  1.2046 -0.2656
 5422SOL     OW27724   0.537   4.213   5.592  0.1461 -0.6062  0.1321
 5422SOL    HW127725   0.600   4.145   5.618 -0.2769 -1.0394  0.0335
 5422SOL    HW227726   0.488   4.223   5.674 -0.2823  1.2275 -0.3558
 5423SOL     OW27727   2.900   4.666   0.050 -0.0405 -0.3346  0.2275
 5423SOL    HW127728   2.820   4.661  17.703 -0.7868  1.3839  1.1884
 5423SOL    HW227729   2.960   4.696  17.688  0.8704 -2.6584  0.0222
 5424SOL     OW27730   2.936   0.235   5.944 -0.6479  0.6742  0.5698
 5424SOL    HW127731   3.014   0.184   5.921 -1.2964 -1.1399  2.4051
 5424SOL    HW227732   2.926   0.211   6.036 -2.7418  1.3282  0.5087
 5425SOL     OW27733   1.209   2.343   8.925 -0.1106  0.3442  0.5373
 5425SOL    HW127734   1.292   2.311   8.890 -1.2076 -2.6259  0.6867
 5425SOL    HW227735   1.230   2.434   8.903  0.2196 -0.3363 -1.9193
 5426SOL     OW27736   1.980   2.535  10.637  0.2170  0.0499  0.3554
 5426SOL    HW127737   1.959   2.584  10.716  1.0189  1.1369 -0.1097
 5426SOL    HW227738   2.075   2.541  10.628  0.1152 -1.0746 -1.5852
 5427SOL     OW27739   1.449   0.739  12.742  0.2710 -0.0770 -0.5902
 5427SOL    HW127740   1.531   0.787  12.756 -0.9780  1.1245  2.5378
 5427SOL    HW227741   1.463   0.713  12.651 -2.6029 -2.7251 -0.2627
 5428SOL     OW27742   0.851   0.249  17.397  0.4408  0.0789 -0.0798
 5428SOL    HW127743   0.879   0.158  17.388 -0.7693 -0.3768  0.7777
 5428SOL    HW227744   0.763   0.249  17.360 -0.1084 -3.5873  1.2407
 5429SOL     OW27745   3.079   2.157   1.153  0.6364  0.4089 -0.7910
 5429SOL    HW127746   3.051   2.249   1.156  0.7223  0.4354 -0.7996
 5429SOL    HW227747   3.077   2.137   1.059 -1.0510 -3.3433  0.0617
 5430SOL     OW27748   3.840   0.310   4.858  0.4413  0.3912 -0.7609
 5430SOL    HW127749   3.810   0.264   4.936  1.6112  1.4611  0.3289
 5430SOL    HW227750   3.807   0.400   4.862  2.1634  1.0719 -1.7726
 5431SOL     OW27751   2.217   3.495   2.697 -0.0742 -0.2094 -0.3569
 5431SOL    HW127752   2.222   3.585   2.667  4.0492 -0.2018  0.3329
 5431SOL    HW227753   2.165   3.505   2.777 -1.6203  1.8324 -1.6513
 5432SOL     OW27754   3.307   0.007   1.126 -0.1873  0.3163 -0.1871
 5432SOL    HW127755   3.343   4.696   1.045  2.6911  1.9935  0.3135
 5432SOL    HW227756   3.335   0.099   1.118 -0.9225  0.4463 -1.2865
 5433SOL     OW27757   1.260   0.588   0.956 -0.0594 -0.1381  0.2601
 5433SOL    HW127758   1.208   0.510   0.974 -1.7541  0.9902  0.2726
 5433SOL    HW227759   1.344   0.560   0.992  0.0061  0.6451  0.7445
 5434SOL     OW27760   1.881   3.973   4.177  0.1152 -0.8015 -0.2665
 5434SOL    HW127761   1.874   4.055   4.128  0.1754  0.2403  1.4688
 5434SOL    HW227762   1.807   3.976   4.237  1.8952 -4.1155  2.0611
 5435SOL     OW27763   4.197   0.683   5.777 -0.5326  0.3366  0.1091
 5435SOL    HW127764   4.173   0.595   5.750 -0.3494 -0.5136  2.7692
 5435SOL    HW227765   4.260   0.660   5.844 -1.4646 -0.6496  0.6472
 5436SOL     OW27766   2.556   2.369   2.093  0.4040  0.4239  0.3741
 5436SOL    HW127767   2.545   2.463   2.104 -0.0362  0.1924  1.9128
 5436SOL    HW227768   2.608   2.364   2.013 -0.3405  0.6222 -0.1198
 5437SOL     OW27769   2.548   1.820   4.809  0.1722 -0.1654  0.0744
 5437SOL    HW127770   2.582   1.793   4.894 -0.1152  4.1528  1.5479
 5437SOL    HW227771   2.629   1.835   4.760 -0.8203  0.1881 -1.4752
 5438SOL     OW27772   4.409   2.232   6.205 -0.4968 -0.5531 -0.0511
 5438SOL    HW127773   4.381   2.276   6.285 -0.6752  2.8416 -1.9914
 5438SOL    HW227774   4.417   2.311   6.151 -1.0498 -2.3566 -2.8148
 5439SOL     OW27775   2.476   0.713  16.222  0.1481  0.3374 -0.1634
 5439SOL    HW127776   2.490   0.669  16.139  0.4601  0.6848 -0.2927
 5439SOL    HW227777   2.393   0.761  16.218 -1.4185 -2.2089  1.4700
 5440SOL     OW27778   1.212   4.534   4.968  0.0390  0.6946  0.1583
 5440SOL    HW127779   1.210   4.600   5.037  0.0034 -0.6638  1.4535
 5440SOL    HW227780   1.275   4.568   4.904 -1.0353  0.5923 -0.9464
 5441SOL     OW27781   1.354   3.733  17.347  0.1622 -0.4087 -0.6979
 5441SOL    HW127782   1.437   3.772  17.371  1.0152 -1.7969 -1.3794
 5441SOL    HW227783   1.325   3.697  17.431 -0.5643  1.8108 -0.0006
 5442SOL     OW27784   1.000   4.708  11.934 -0.1225 -0.4378  0.6539
 5442SOL    HW127785   0.951   4.700  11.853 -0.5397  0.9538  0.7635
 5442SOL    HW227786   1.033   4.619  11.941  2.4641  0.6204  1.9290
 5443SOL     OW27787   1.375   3.454   5.593  0.1060 -0.4007  0.1019
 5443SOL    HW127788   1.398   3.392   5.662  0.5774 -0.4092 -0.0601
 5443SOL    HW227789   1.445   3.519   5.601 -0.2629 -0.1724  1.5027
 5444SOL     OW27790   4.142   1.734   1.749 -0.2653  0.3782 -0.0044
 5444SOL    HW127791   4.113   1.818   1.784  2.5444  0.8973  1.0929
 5444SOL    HW227792   4.072   1.697   1.696 -0.6134 -0.9559  1.3869
 5445SOL     OW27793   1.078   1.907   4.274 -0.0242 -0.2278  0.3677
 5445SOL    HW127794   1.041   1.846   4.210  2.5262  0.2133 -1.5206
 5445SOL    HW227795   1.100   1.976   4.212  0.2891 -1.1318 -0.5212
 5446SOL     OW27796   2.925   0.985   4.930 -0.2268  0.3878 -0.3493
 5446SOL    HW127797   2.838   0.953   4.956  0.2768 -0.9432 -0.3207
 5446SOL    HW227798   2.939   1.057   4.992 -0.0480 -0.4653  0.6155
 5447SOL     OW27799   1.207   2.613  14.038  0.0031  0.1368  0.4227
 5447SOL    HW127800   1.135   2.588  14.097  0.1836 -1.5549 -0.0660
 5447SOL    HW227801   1.261   2.665  14.098  2.3199 -0.6283 -0.9931
 5448SOL     OW27802   1.830   0.011   6.911  0.4198 -0.0158 -0.5828
 5448SOL    HW127803   1.743   4.697   6.907 -0.0294  0.7224  1.5904
 5448SOL    HW227804   1.813   0.077   6.844  0.9572 -1.6040 -2.2607
 5449SOL     OW27805   3.159   3.961   2.200  0.7235 -0.4923  0.1299
 5449SOL    HW127806   3.212   3.996   2.128  0.9270 -0.4172  0.3143
 5449SOL    HW227807   3.073   3.955   2.159  0.4977  0.6880  0.4463
 5450SOL     OW27808   2.323   0.600  16.505  0.2542  0.0496 -0.9810
 5450SOL    HW127809   2.293   0.528  16.560 -1.4314 -0.9527 -3.2547
 5450SOL    HW227810   2.268   0.675  16.529  0.3230  0.8167 -3.2501
 5451SOL     OW27811   4.061   4.284   9.732 -0.1923  0.0049 -0.2461
 5451SOL    HW127812   4.044   4.333   9.813  1.1732  0.3112 -0.1491
 5451SOL    HW227813   4.156   4.294   9.737  0.0498 -1.5635 -1.8467
 5452SOL     OW27814   2.745   4.699   2.537  0.1487  0.5427  0.6379
 5452SOL    HW127815   2.710   4.613   2.514 -0.2499  0.7376  0.5294
 5452SOL    HW227816   2.837   4.683   2.562  0.5159  1.2892 -0.2453
 5453SOL     OW27817   3.614   4.685  15.157 -0.3830  0.0356  0.3319
 5453SOL    HW127818   3.632   4.702  15.065  0.7771 -0.4694  0.4656
 5453SOL    HW227819   3.543   0.018  15.181 -0.6123 -0.7138  1.5030
 5454SOL     OW27820   1.628   2.117   3.645  0.3625 -0.1768  0.8217
 5454SOL    HW127821   1.583   2.040   3.682 -0.9293  0.2986  0.2316
 5454SOL    HW227822   1.629   2.176   3.721  1.7145 -0.8706  1.3527
 5455SOL     OW27823   3.994   0.683   9.746  0.3657 -0.1432 -0.2260
 5455SOL    HW127824   4.087   0.670   9.730  0.5539 -0.8414  1.4367
 5455SOL    HW227825   3.962   0.747   9.682 -0.5211 -0.9961 -0.6398
 5456SOL     OW27826   3.120   3.363  13.275 -0.4331  0.3351  0.8711
 5456SOL    HW127827   3.196   3.325  13.318 -0.2263 -0.5470 -0.2999
 5456SOL    HW227828   3.156   3.422  13.209  1.0001  0.0947  1.4354
 5457SOL     OW27829   2.587   2.633  16.678 -0.0175  0.2315 -0.7548
 5457SOL    HW127830   2.681   2.647  16.675  0.1532 -1.5711 -3.4053
 5457SOL    HW227831   2.580   2.688  16.756  0.6518 -0.4724 -0.1980
 5458SOL     OW27832   2.381   2.366   6.276  0.5604  0.4009 -0.3358
 5458SOL    HW127833   2.446   2.318   6.327  1.2424  1.4479 -0.2119
 5458SOL    HW227834   2.312   2.301   6.266  0.7188  0.2959 -0.7502
 5459SOL     OW27835   3.261   0.781   3.790 -0.5014  0.2920  0.3186
 5459SOL    HW127836   3.214   0.778   3.707 -1.4373 -0.5625  0.8894
 5459SOL    HW227837   3.224   0.854   3.839 -0.7447 -0.5872  1.4441
 5460SOL     OW27838   0.870   0.782   3.645 -0.0494  0.0760  0.1742
 5460SOL    HW127839   0.835   0.775   3.734 -2.4899  2.7795 -0.5971
 5460SOL    HW227840   0.905   0.871   3.648 -0.8358  0.3183  2.7735
 5461SOL     OW27841   2.738   2.449   6.263  0.0495  0.0186  0.0119
 5461SOL    HW127842   2.799   2.456   6.190 -1.4143  0.2159 -1.2107
 5461SOL    HW227843   2.663   2.398   6.231 -0.6242  1.0927 -0.1021
 5462SOL     OW27844   4.591   3.314   0.637  0.1351 -0.3237  0.1393
 5462SOL    HW127845   4.557   3.323   0.725  1.2863  1.1911  0.4384
 5462SOL    HW227846   4.668   3.264   0.664  1.3254  1.2805 -0.2813
 5463SOL     OW27847   3.087   4.200  11.445 -0.1788  0.1062  0.5500
 5463SOL    HW127848   3.154   4.267  11.441  1.3545 -1.4112  0.7260
 5463SOL    HW227849   3.013   4.260  11.435 -2.4608 -2.7362  0.0775
 5464SOL     OW27850   4.706   1.828   3.139  0.0337  0.0108 -0.1840
 5464SOL    HW127851   0.049   1.881   3.099 -1.1191  3.5759  2.4691
 5464SOL    HW227852   0.034   1.790   3.208  0.2485  1.1871  0.3097
 5465SOL     OW27853   2.172   1.087  17.005 -0.3539 -0.5017 -0.1794
 5465SOL    HW127854   2.104   1.032  16.967 -0.5626  0.4962 -1.2600
 5465SOL    HW227855   2.203   1.033  17.078 -0.1735  0.2802  0.3303
 5466SOL     OW27856   0.072   0.752   1.561  0.2087  0.6531  0.2205
 5466SOL    HW127857   0.060   0.841   1.593  0.7075 -0.0531  2.3888
 5466SOL    HW227858   0.056   0.763   1.468 -0.9108 -0.7116  0.2572
 5467SOL     OW27859   2.432   1.884   8.281  0.0728  0.3398 -0.0429
 5467SOL    HW127860   2.520   1.880   8.319  0.8272  0.5397 -1.7421
 5467SOL    HW227861   2.380   1.954   8.320 -0.1608 -1.3687  2.6949
 5468SOL     OW27862   1.206   1.977  12.066  0.0394 -0.1008  0.0492
 5468SOL    HW127863   1.219   1.934  11.981 -0.8305  1.7692 -1.0274
 5468SOL    HW227864   1.212   2.069  12.040  2.0624 -0.1492  0.2911
 5469SOL     OW27865   3.483   3.356   5.312 -0.1035  0.5554 -0.3207
 5469SOL    HW127866   3.401   3.312   5.335 -0.1290  0.8265  0.1060
 5469SOL    HW227867   3.525   3.270   5.313 -2.0284 -0.3505  1.4995
 5470SOL     OW27868   3.118   3.888   6.910 -0.3538 -0.1451 -0.2728
 5470SOL    HW127869   3.202   3.883   6.955 -0.4666  0.2372 -0.0237
 5470SOL    HW227870   3.092   3.798   6.929 -2.7519  0.4924 -0.6082
 5471SOL     OW27871   0.724   1.305  13.801  0.2914 -0.2449  0.5046
 5471SOL    HW127872   0.670   1.234  13.766  2.2426 -0.2947 -2.4290
 5471SOL    HW227873   0.668   1.377  13.775  0.0843 -1.0831 -1.3763
 5472SOL     OW27874   2.891   2.396   7.074 -0.0736 -0.1747  0.8571
 5472SOL    HW127875   2.889   2.489   7.050 -0.2991 -0.5898 -0.7430
 5472SOL    HW227876   2.965   2.387   7.135  0.3870 -0.1585  0.2958
 5473SOL     OW27877   0.186   1.089   3.460 -0.2767  0.1675 -0.4786
 5473SOL    HW127878   0.146   1.060   3.378  1.7031 -1.1045 -1.0083
 5473SOL    HW227879   0.265   1.039   3.437 -0.6996 -1.8309  2.4054
 5474SOL     OW27880   4.724   4.601   4.307 -0.0873  0.5137 -0.4156
 5474SOL    HW127881   0.037   4.589   4.221  0.3876 -0.0876 -0.1133
 5474SOL    HW227882   4.639   4.640   4.286 -0.3095 -0.1606 -0.7649
 5475SOL     OW27883   4.521   0.062  17.093  0.1462 -0.4106 -0.1686
 5475SOL    HW127884   4.488   4.701  17.073 -0.8253  0.0884 -0.7413
 5475SOL    HW227885   4.605   0.067  17.046  1.3505 -2.7305  1.7166
 5476SOL     OW27886   0.030   0.204   1.054  0.5776 -0.3476 -0.0665
 5476SOL    HW127887   0.030   0.128   0.996  2.7986  0.1383 -0.6946
 5476SOL    HW227888   0.081   0.183   1.133 -0.6366  1.8036  1.2994
 5477SOL     OW27889   3.457   1.973   2.919 -0.2735 -0.3440  0.0886
 5477SOL    HW127890   3.475   1.893   2.968  0.7855 -1.1520 -1.6228
 5477SOL    HW227891   3.404   2.025   2.980 -1.3169 -1.8100  0.4203
 5478SOL     OW27892   1.333   1.117  13.045  0.1175 -0.2800 -0.2844
 5478SOL    HW127893   1.387   1.171  13.102 -0.4512  0.6973 -0.6647
 5478SOL    HW227894   1.391   1.041  13.041 -0.7096 -0.9312  0.0309
 5479SOL     OW27895   2.600   1.930   5.270 -0.1445 -0.2684  0.0364
 5479SOL    HW127896   2.576   1.941   5.178  0.0911  1.1880  0.1416
 5479SOL    HW227897   2.627   2.020   5.291 -0.9643  0.0234 -0.1791
 5480SOL     OW27898   2.576   4.275   8.458  0.4535  0.3892  0.2605
 5480SOL    HW127899   2.660   4.301   8.497  0.4653  0.1013  0.4241
 5480SOL    HW227900   2.546   4.353   8.411 -0.1779 -0.7446 -1.1907
 5481SOL     OW27901   0.237   0.683   1.846  0.2517  0.5929 -0.5601
 5481SOL    HW127902   0.275   0.740   1.912  2.2932 -0.8334 -0.5032
 5481SOL    HW227903   0.269   0.713   1.761 -1.1057 -0.0230 -1.3044
 5482SOL     OW27904   1.913   2.540   7.516  0.1307 -0.0134  0.1051
 5482SOL    HW127905   1.950   2.615   7.469 -1.8897  0.3552 -0.8624
 5482SOL    HW227906   1.820   2.555   7.504  0.5160  0.7347 -1.9339
 5483SOL     OW27907   3.518   2.289   0.517  0.0738 -0.0164  0.5193
 5483SOL    HW127908   3.557   2.351   0.455  0.1048  0.5674  1.1246
 5483SOL    HW227909   3.489   2.217   0.462 -0.0569  0.1385  0.3884
 5484SOL     OW27910   1.765   2.996   2.727 -0.5081 -0.0126 -0.2579
 5484SOL    HW127911   1.833   2.965   2.787 -1.1531  2.3842  1.7357
 5484SOL    HW227912   1.792   3.088   2.722  2.0806 -0.6399  2.2414
 5485SOL     OW27913   2.323   2.041  16.073  0.1125 -0.3482 -0.1886
 5485SOL    HW127914   2.338   1.979  16.001  0.3306 -0.7134  0.1688
 5485SOL    HW227915   2.271   2.103  16.022  0.9416  0.9548  0.5600
 5486SOL     OW27916   1.582   3.636   3.704  0.1788  0.5671  0.2710
 5486SOL    HW127917   1.580   3.725   3.667  1.1924  0.2199 -0.6110
 5486SOL    HW227918   1.493   3.643   3.737 -0.0198  0.5550 -0.2600
 5487SOL     OW27919   2.092   3.672   2.103 -0.0459  0.1651  0.3251
 5487SOL    HW127920   2.107   3.615   2.179 -1.3773  1.3340  1.4709
 5487SOL    HW227921   2.172   3.724   2.113 -0.1245  0.5532 -1.1116
 5488SOL     OW27922   0.738   4.658  11.766  0.0443 -0.0853 -0.4943
 5488SOL    HW127923   0.720   4.611  11.685  2.4158 -0.4944 -0.7829
 5488SOL    HW227924   0.666   4.721  11.768  2.2264  2.3520  0.4109
 5489SOL     OW27925   0.180   0.399   0.775  0.1557  0.1194 -0.7756
 5489SOL    HW127926   0.263   0.415   0.820 -0.6569 -0.0828  0.8072
 5489SOL    HW227927   0.214   0.363   0.693  0.7809 -2.1124  0.4474
 5490SOL     OW27928   3.310   1.580   9.659 -0.3316 -0.2009  0.1433
 5490SOL    HW127929   3.404   1.573   9.672 -0.3881  1.8568  1.6479
 5490SOL    HW227930   3.281   1.565   9.749 -1.9619  0.3238 -0.2792
 5491SOL     OW27931   0.198   0.297   5.792  0.2138  0.4099 -0.1225
 5491SOL    HW127932   0.239   0.287   5.878 -1.1033  1.8114  0.6754
 5491SOL    HW227933   0.236   0.376   5.756  1.4973 -0.5291 -0.8322
 5492SOL     OW27934   0.860   4.480  15.154 -0.5544 -0.0304 -0.6240
 5492SOL    HW127935   0.860   4.399  15.205 -1.8649 -0.8159 -1.8682
 5492SOL    HW227936   0.913   4.458  15.077  0.3154  1.8893 -0.5686
 5493SOL     OW27937   0.264   4.618   8.227  0.0618  0.1613 -0.3019
 5493SOL    HW127938   0.330   4.673   8.268  0.2737  0.5013 -1.1066
 5493SOL    HW227939   0.323   4.553   8.188 -1.2536  0.0815 -2.2125
 5494SOL     OW27940   0.988   3.478   8.980  0.1037 -0.4207  0.5490
 5494SOL    HW127941   0.917   3.433   9.026  0.2151 -0.7532  0.3892
 5494SOL    HW227942   0.974   3.569   9.007 -2.2815 -0.4360 -0.6236
 5495SOL     OW27943   3.829   1.645   6.154 -0.1574 -0.1318 -0.0050
 5495SOL    HW127944   3.744   1.608   6.132  0.4172 -1.3011 -0.2267
 5495SOL    HW227945   3.889   1.574   6.132 -0.1164 -0.4624  1.1561
 5496SOL     OW27946   3.351   4.550   3.955  0.4642  0.0441 -0.4486
 5496SOL    HW127947   3.403   4.478   3.991 -1.3417  0.4242  2.8450
 5496SOL    HW227948   3.278   4.543   4.016 -0.4188  2.5725 -1.2342
 5497SOL     OW27949   1.562   2.937   8.610  0.0248 -0.3622  0.5778
 5497SOL    HW127950   1.528   3.015   8.567  1.3024 -0.1325 -0.0271
 5497SOL    HW227951   1.553   2.970   8.699 -1.3467  3.3583 -0.9392
 5498SOL     OW27952   1.901   2.281   7.892  0.6586  0.1620  0.0563
 5498SOL    HW127953   1.842   2.209   7.866 -0.8289  1.5794 -0.5085
 5498SOL    HW227954   1.929   2.311   7.806  0.2319  1.5589  0.4158
 5499SOL     OW27955   3.073   4.369   6.305 -0.7363  0.6570  0.4936
 5499SOL    HW127956   3.112   4.357   6.218 -1.4575 -1.0124  0.4032
 5499SOL    HW227957   3.128   4.307   6.352  0.6840  1.4799 -0.0824
 5500SOL     OW27958   4.143   3.640  16.661 -0.2110 -0.0496 -0.0846
 5500SOL    HW127959   4.119   3.611  16.573 -2.0796  1.1085  0.0434
 5500SOL    HW227960   4.113   3.730  16.670  0.2911  0.1817 -0.7492
 5501SOL     OW27961   0.622   2.105  16.103  0.2255 -0.4333  0.0100
 5501SOL    HW127962   0.636   2.198  16.085  3.1485 -0.8573  0.1113
 5501SOL    HW227963   0.661   2.111  16.190  1.9998 -2.5179 -0.6359
 5502SOL     OW27964   0.247   3.035  10.282 -0.4681  0.3045  0.2661
 5502SOL    HW127965   0.154   3.024  10.299 -0.3353 -1.2775 -0.0699
 5502SOL    HW227966   0.274   2.967  10.344 -0.6585  1.1052  1.2230
 5503SOL     OW27967   2.322   0.509   3.840  0.0286  0.8336  0.5812
 5503SOL    HW127968   2.304   0.417   3.857 -2.9077  1.4239  0.6796
 5503SOL    HW227969   2.240   0.547   3.873 -0.3199  1.4574 -0.9971
 5504SOL     OW27970   3.632   2.096   9.855  0.4653  0.0466 -0.5268
 5504SOL    HW127971   3.577   2.164   9.815 -0.4885 -0.1206  0.5013
 5504SOL    HW227972   3.615   2.101   9.949  0.7819  1.0061 -0.5194
 5505SOL     OW27973   1.075   1.800   8.378  0.5830 -0.4269  0.2763
 5505SOL    HW127974   1.072   1.733   8.311 -1.7709 -1.2415  1.1853
 5505SOL    HW227975   1.142   1.762   8.435  0.1133 -0.4231  0.8348
 5506SOL     OW27976   2.482   4.476  12.210 -0.1887 -0.0232  0.3031
 5506SOL    HW127977   2.560   4.486  12.265  0.3406  1.1029 -0.6512
 5506SOL    HW227978   2.478   4.569  12.188  2.2508 -0.3911 -1.7186
 5507SOL     OW27979   4.449   3.222  11.081 -0.8483 -0.1063  0.2616
 5507SOL    HW127980   4.434   3.257  11.168  0.0562  0.0481  0.3545
 5507SOL    HW227981   4.455   3.300  11.027  1.7935 -0.6966 -0.3042
 5508SOL     OW27982   3.886   3.795   9.870  0.0036 -0.6407 -0.0034
 5508SOL    HW127983   3.923   3.798   9.782  2.0407  0.1794  0.8708
 5508SOL    HW227984   3.805   3.753   9.842 -0.1230 -0.5057  0.1603
 5509SOL     OW27985   3.790   0.815   7.083 -0.1330 -0.4387  0.1660
 5509SOL    HW127986   3.860   0.859   7.132 -1.3478 -1.6256  2.9434
 5509SOL    HW227987   3.722   0.828   7.148 -0.6067  0.8493 -0.5770
 5510SOL     OW27988   1.852   3.643   4.335 -0.0154 -0.5427 -0.4140
 5510SOL    HW127989   1.781   3.707   4.327 -0.5257 -1.0992 -0.3388
 5510SOL    HW227990   1.927   3.681   4.290  0.3427 -1.4529 -0.5821
 5511SOL     OW27991   1.567   4.217  10.593  0.1248 -0.2152 -0.3179
 5511SOL    HW127992   1.545   4.212  10.686  1.4900 -0.4727 -0.0114
 5511SOL    HW227993   1.642   4.158  10.584 -0.3195 -0.9464  0.6944
 5512SOL     OW27994   1.306   3.249   4.733  0.5210 -0.4332 -0.4107
 5512SOL    HW127995   1.370   3.317   4.714 -0.5548  0.1201 -2.0571
 5512SOL    HW227996   1.237   3.304   4.770  1.1655 -1.1002  1.8196
 5513SOL     OW27997   0.172   3.285   4.850 -0.0747 -0.0995  0.2090
 5513SOL    HW127998   0.079   3.291   4.870 -0.2182 -1.0673 -0.1728
 5513SOL    HW227999   0.167   3.208   4.794 -1.9011  0.4791 -0.4173
 5514SOL     OW28000   2.920   0.531   2.484  0.4967 -0.4896  0.3375
 5514SOL    HW128001   2.946   0.592   2.414  1.2172  0.6300  1.6005
 5514SOL    HW228002   3.005   0.503   2.516  1.6307  1.1965 -1.1943
 5515SOL     OW28003   4.480   3.195   7.004 -0.1271 -0.1205 -0.0674
 5515SOL    HW128004   4.394   3.198   6.962 -0.8722 -1.6604  1.3198
 5515SOL    HW228005   4.526   3.249   6.941  2.2948 -2.8063 -0.5827
 5516SOL     OW28006   2.685   3.347   5.037  0.1437 -0.2679  0.1257
 5516SOL    HW128007   2.732   3.423   5.003 -1.7962  0.1706 -1.6095
 5516SOL    HW228008   2.685   3.277   4.972 -1.4651  0.9323 -1.1527
 5517SOL     OW28009   1.807   0.601   7.381  0.2265  0.4135 -0.0429
 5517SOL    HW128010   1.848   0.569   7.461  0.4806  1.7116  0.3434
 5517SOL    HW228011   1.740   0.535   7.365  0.8280 -0.7207  2.1015
 5518SOL     OW28012   4.709   0.751   1.911  0.0470  0.2070  0.1746
 5518SOL    HW128013   0.047   0.692   1.872 -1.0142 -1.7778  1.4527
 5518SOL    HW228014   0.038   0.818   1.952  1.7929 -0.0273 -1.8405
 5519SOL     OW28015   1.004   2.145   6.420 -0.9648 -0.2621  0.1435
 5519SOL    HW128016   1.005   2.098   6.503 -0.7928  0.1191  0.3590
 5519SOL    HW228017   1.097   2.169   6.420 -0.9243 -0.4147  2.2296
 5520SOL     OW28018   0.982   2.290   3.494 -0.1397 -0.3483  0.2810
 5520SOL    HW128019   1.045   2.271   3.424  1.9135  1.2400  1.7147
 5520SOL    HW228020   1.041   2.290   3.569  0.2263 -3.4885 -0.0078
 5521SOL     OW28021   4.714   0.024   8.458 -0.3273 -0.2020  0.3304
 5521SOL    HW128022   4.657   0.085   8.411 -1.0962 -1.0519  0.1457
 5521SOL    HW228023   4.652   4.677   8.455 -1.4588  0.8564 -1.9800
 5522SOL     OW28024   4.337   2.049   3.061 -0.1656 -0.0578 -0.7355
 5522SOL    HW128025   4.381   2.008   2.987 -0.8254  1.2754 -1.8905
 5522SOL    HW228026   4.405   2.049   3.128 -0.7322 -0.4416 -0.1592
 5523SOL     OW28027   3.508   3.599   3.207  0.5332  0.0463  0.4435
 5523SOL    HW128028   3.544   3.570   3.291  0.5442  0.0109  0.4266
 5523SOL    HW228029   3.575   3.558   3.152  3.5298  2.1318  2.4901
 5524SOL     OW28030   2.937   3.180   5.934  0.5335  0.0577  0.6063
 5524SOL    HW128031   2.951   3.086   5.948  0.3704 -0.3116 -1.6908
 5524SOL    HW228032   2.947   3.200   5.841 -1.3146  0.5428  0.5085
 5525SOL     OW28033   4.166   0.188   5.511 -0.0129 -0.1542  0.0352
 5525SOL    HW128034   4.136   0.186   5.420  0.1831 -4.9603  0.0501
 5525SOL    HW228035   4.086   0.171   5.560  1.0427  0.3815  1.9402
 5526SOL     OW28036   2.245   1.331   7.931  0.2561 -0.0666 -0.2904
 5526SOL    HW128037   2.327   1.374   7.955  0.1947 -0.4870  0.6513
 5526SOL    HW228038   2.183   1.400   7.956  0.7812  0.9317 -1.7195
 5527SOL     OW28039   0.092   0.171  11.398  0.0704  0.5981 -0.0382
 5527SOL    HW128040   0.174   0.186  11.444  0.3302  1.6132 -0.8187
 5527SOL    HW228041   0.117   0.115  11.324  1.8514  0.6144  0.5571
 5528SOL     OW28042   1.487   0.809   1.886  0.4684  0.8328  0.6684
 5528SOL    HW128043   1.408   0.842   1.929 -0.5084  0.0375 -0.4924
 5528SOL    HW228044   1.530   0.770   1.962  0.5512  0.6364  0.5214
 5529SOL     OW28045   1.561   1.426   4.134 -0.6309 -0.1271  0.6363
 5529SOL    HW128046   1.611   1.432   4.215  2.5104 -1.5034 -1.2175
 5529SOL    HW228047   1.536   1.516   4.113 -0.8413 -0.1261  0.8826
 5530SOL     OW28048   1.464   3.944   5.359 -0.3210 -0.1249 -0.3785
 5530SOL    HW128049   1.550   3.986   5.366  0.0230 -1.0131  0.7149
 5530SOL    HW228050   1.455   3.907   5.447  2.5725 -0.3626 -0.1783
 5531SOL     OW28051   0.123   3.029  13.275 -0.5144  0.4062  0.3593
 5531SOL    HW128052   0.106   3.114  13.233  0.1745 -0.3238 -1.3851
 5531SOL    HW228053   0.204   3.044  13.324 -0.5869  2.4904 -0.1446
 5532SOL     OW28054   1.007   3.747   3.259 -0.3552  0.2947  0.2315
 5532SOL    HW128055   1.053   3.829   3.245 -0.7399  0.3227 -0.8632
 5532SOL    HW228056   0.919   3.780   3.238  0.0915  1.5095  0.3279
 5533SOL     OW28057   4.052   2.595   8.316 -0.4498 -0.2472  0.2060
 5533SOL    HW128058   3.988   2.544   8.365 -1.4580 -0.3636 -1.2181
 5533SOL    HW228059   3.999   2.617   8.240  0.6694 -0.2577 -0.5918
 5534SOL     OW28060   2.701   3.464   9.320  0.0264  0.0072 -0.1715
 5534SOL    HW128061   2.727   3.379   9.286  0.9701 -0.3064  1.3163
 5534SOL    HW228062   2.726   3.451   9.412 -1.8773  1.4655  0.5733
 5535SOL     OW28063   3.092   1.140  11.105 -0.4120 -0.2815 -0.5095
 5535SOL    HW128064   3.058   1.227  11.087  2.7622  0.7488 -1.6078
 5535SOL    HW228065   3.167   1.139  11.045 -0.5562 -0.1879 -0.6910
 5536SOL     OW28066   0.579   1.099   2.579  0.0237  0.0870  0.5937
 5536SOL    HW128067   0.644   1.057   2.522  1.3806 -0.8284  2.8411
 5536SOL    HW228068   0.633   1.139   2.647  3.4116  2.0338 -3.2435
 5537SOL     OW28069   3.328   2.229   6.626 -0.6409 -0.0848 -0.4406
 5537SOL    HW128070   3.396   2.169   6.657 -1.5190 -0.7188  0.2404
 5537SOL    HW228071   3.379   2.258   6.550  0.2303  1.8732  0.8785
 5538SOL     OW28072   2.848   3.652   4.369  0.3606  0.1716  0.1731
 5538SOL    HW128073   2.880   3.580   4.423  1.7893  0.3576 -0.4350
 5538SOL    HW228074   2.904   3.726   4.394  0.7708 -1.0064  2.7191
 5539SOL     OW28075   3.052   4.352   6.619  0.6301 -0.2211 -0.3663
 5539SOL    HW128076   3.074   4.272   6.668  2.6028  1.0671  0.8623
 5539SOL    HW228077   2.977   4.318   6.571  0.5001 -1.7936  0.9501
 5540SOL     OW28078   1.417   4.229   3.148  0.3043  0.2611  0.4917
 5540SOL    HW128079   1.375   4.311   3.121  0.0838  0.2962  0.9357
 5540SOL    HW228080   1.428   4.171   3.072 -1.2852  1.9985 -1.0709
 5541SOL     OW28081   1.470   0.234   9.253  0.4246 -0.0304 -0.0290
 5541SOL    HW128082   1.525   0.312   9.264  1.3985 -0.8258  0.8177
 5541SOL    HW228083   1.387   0.278   9.234  0.9193  1.4777  1.2466
 5542SOL     OW28084   4.456   4.494   7.353 -0.2927 -0.4985 -0.3753
 5542SOL    HW128085   4.469   4.555   7.426 -0.7332  0.5277 -1.1432
 5542SOL    HW228086   4.399   4.548   7.298  0.6613  1.2746  0.3519
 5543SOL     OW28087   3.373   0.487   2.211  0.1041 -0.6599  0.4347
 5543SOL    HW128088   3.467   0.490   2.195  0.1412  0.1061  0.8105
 5543SOL    HW228089   3.370   0.510   2.304  0.7860  2.0317 -0.2254
 5544SOL     OW28090   2.840   3.941   1.162 -0.4445 -0.4358  0.0068
 5544SOL    HW128091   2.902   3.916   1.093 -1.0336  1.1512 -1.0829
 5544SOL    HW228092   2.833   3.858   1.210  0.0918  0.2527  1.2701
 5545SOL     OW28093   2.537   4.387  11.618  0.1191 -0.1468 -0.3066
 5545SOL    HW128094   2.448   4.421  11.627  0.6648  0.9551  1.0022
 5545SOL    HW228095   2.530   4.358  11.528  2.2042 -0.6129 -0.3160
 5546SOL     OW28096   1.780   3.033   8.298 -0.2186  0.0550 -0.1207
 5546SOL    HW128097   1.810   3.103   8.356  0.5629  0.8564 -1.5163
 5546SOL    HW228098   1.846   3.035   8.229 -1.3281  1.5294 -1.1339
 5547SOL     OW28099   0.444   1.992   8.172 -0.4646  0.0920 -0.7777
 5547SOL    HW128100   0.484   1.908   8.149  1.8461  0.4686  1.9454
 5547SOL    HW228101   0.388   2.006   8.095 -2.3934  0.2174  0.6298
 5548SOL     OW28102   3.443   0.808   3.391 -0.0465  0.2844 -0.0631
 5548SOL    HW128103   3.441   0.803   3.295 -0.1742 -0.5506 -0.0165
 5548SOL    HW228104   3.535   0.828   3.407  0.0059 -0.0929  0.1121
 5549SOL     OW28105   1.711   2.267   8.468  0.1760  0.2096 -1.0228
 5549SOL    HW128106   1.705   2.353   8.509  0.9241 -0.8558  1.3494
 5549SOL    HW228107   1.746   2.301   8.386  1.5886 -0.6473 -0.7702
 5550SOL     OW28108   0.843   3.113   2.330  0.1861 -0.7476  0.1542
 5550SOL    HW128109   0.919   3.093   2.275 -0.8678  1.1499 -1.9404
 5550SOL    HW228110   0.852   3.208   2.329 -0.3773 -0.7139 -1.3169
 5551SOL     OW28111   0.493   4.264  13.739  0.4799  0.8106  0.2418
 5551SOL    HW128112   0.436   4.280  13.815 -2.7213 -0.5791 -1.8608
 5551SOL    HW228113   0.442   4.302  13.667  0.7916  1.7155  0.4929
 5552SOL     OW28114   2.812   1.460  17.493  0.2838 -0.2147  0.5684
 5552SOL    HW128115   2.867   1.513  17.435 -0.5491 -0.6548 -0.6105
 5552SOL    HW228116   2.884   1.429  17.547 -2.0231 -2.6832  2.2001
 5553SOL     OW28117   0.202   4.193   4.910  0.2318 -0.0223  0.0050
 5553SOL    HW128118   0.218   4.210   5.003  1.7904 -1.3130 -0.0339
 5553SOL    HW228119   0.139   4.262   4.891  0.3972 -0.4605 -2.0744
 5554SOL     OW28120   4.162   3.129   3.472  0.3998 -0.0294  0.2514
 5554SOL    HW128121   4.212   3.180   3.536 -0.2387 -1.5131  1.9111
 5554SOL    HW228122   4.179   3.046   3.516  0.3643  0.2679  0.8136
 5555SOL     OW28123   2.183   4.591   9.721  0.0347 -0.3763  0.2903
 5555SOL    HW128124   2.159   4.682   9.737 -0.2336 -0.2957 -0.5625
 5555SOL    HW228125   2.270   4.576   9.759  0.8236 -0.3832 -1.5444
 5556SOL     OW28126   0.409   1.071  17.127  0.2242 -0.0828 -0.4563
 5556SOL    HW128127   0.386   1.158  17.160  1.8158  1.1983 -2.7697
 5556SOL    HW228128   0.373   1.068  17.039 -1.0880  0.8912  0.0478
 5557SOL     OW28129   3.809   3.783  14.027  0.1921 -0.3509  0.3343
 5557SOL    HW128130   3.855   3.841  14.087 -3.1790  0.4982  2.0831
 5557SOL    HW228131   3.730   3.778  14.080  2.2889  1.0359  3.5511
 5558SOL     OW28132   0.219   1.145   2.072 -0.5212 -0.2580 -0.2662
 5558SOL    HW128133   0.149   1.155   2.136  1.7752  2.0270  1.8694
 5558SOL    HW228134   0.161   1.139   1.996 -0.6336  0.3711 -0.2242
 5559SOL     OW28135   3.771   0.831   8.875 -0.5482  0.8205  0.2489
 5559SOL    HW128136   3.683   0.853   8.905 -1.0975 -0.1159 -0.6972
 5559SOL    HW228137   3.770   0.898   8.807 -0.6290 -1.9193 -2.4240
 5560SOL     OW28138   4.100   2.844   7.893  0.0369  0.2507 -0.7481
 5560SOL    HW128139   4.059   2.883   7.816  0.2790  1.9894 -0.0172
 5560SOL    HW228140   4.189   2.880   7.894  0.1034  0.0487  0.2584
 5561SOL     OW28141   0.297   3.439   1.469  0.1968  0.2005 -0.1143
 5561SOL    HW128142   0.305   3.503   1.398 -0.5085  1.3841  0.8871
 5561SOL    HW228143   0.282   3.354   1.427  0.9599  0.0039  0.0218
 5562SOL     OW28144   0.923   2.835   4.678  0.4184 -0.9359  0.1021
 5562SOL    HW128145   0.835   2.820   4.643  0.7244 -3.4670  0.3914
 5562SOL    HW228146   0.946   2.920   4.641  3.1377 -0.7899  2.1366
 5563SOL     OW28147   0.975   2.309   5.994  0.2599 -0.7565 -0.0878
 5563SOL    HW128148   0.995   2.364   6.069 -1.1633  0.0422 -0.2915
 5563SOL    HW228149   1.042   2.245   6.017 -0.0812 -0.1298  2.6604
 5564SOL     OW28150   0.733   3.144   5.831 -0.7232  0.1461 -0.3156
 5564SOL    HW128151   0.821   3.107   5.841 -0.2874  1.0123 -0.8487
 5564SOL    HW228152   0.736   3.229   5.877  1.1530 -0.7183  1.1962
 5565SOL     OW28153   3.761   4.340   4.778  0.2070 -0.4286 -0.3571
 5565SOL    HW128154   3.675   4.327   4.738 -0.2397  1.1530  0.1146
 5565SOL    HW228155   3.782   4.249   4.799  0.0507 -0.4047 -0.1028
 5566SOL     OW28156   1.880   0.252   8.030 -0.4483 -0.0894  0.3380
 5566SOL    HW128157   1.804   0.305   8.053 -0.9484 -0.5625 -0.2154
 5566SOL    HW228158   1.927   0.322   7.984  0.6869 -1.4556 -0.6237
 5567SOL     OW28159   3.194   0.079   1.536 -0.4741  0.1828 -0.0773
 5567SOL    HW128160   3.175   4.712   1.545 -0.6164  0.4067  1.9949
 5567SOL    HW228161   3.286   0.076   1.510 -0.8848 -4.1916 -1.0110
 5568SOL     OW28162   1.577   0.704   6.970  0.4547 -0.2137  0.6810
 5568SOL    HW128163   1.573   0.609   6.957  0.0509 -0.1785  0.5455
 5568SOL    HW228164   1.620   0.740   6.892  2.3636  0.2834  1.9645
 5569SOL     OW28165   1.344   2.507   1.175  0.4579  0.4922 -0.7964
 5569SOL    HW128166   1.279   2.569   1.209 -0.2501 -0.7856  0.1755
 5569SOL    HW228167   1.286   2.432   1.162  2.3492 -1.4145  1.7717
 5570SOL     OW28168   0.600   2.798  12.499  0.3299 -0.1317 -0.3767
 5570SOL    HW128169   0.592   2.704  12.482  1.5803 -0.4605  0.8930
 5570SOL    HW228170   0.546   2.829  12.426 -1.2099  3.9688  2.4868
 5571SOL     OW28171   3.450   4.305   4.077  0.0182 -0.5170 -0.3300
 5571SOL    HW128172   3.465   4.252   3.999 -0.6144 -3.3858  1.5353
 5571SOL    HW228173   3.522   4.282   4.135  1.1282  1.3252 -0.9651
 5572SOL     OW28174   0.665   2.542   6.479 -0.0214  0.2911  0.3577
 5572SOL    HW128175   0.730   2.474   6.459 -0.5420  0.2242 -1.0953
 5572SOL    HW228176   0.617   2.494   6.546  0.9945  0.2279  1.0405
 5573SOL     OW28177   0.731   1.952   3.621 -0.0795  0.2759 -0.2659
 5573SOL    HW128178   0.827   1.949   3.629 -0.1154 -1.6940 -0.3899
 5573SOL    HW228179   0.727   1.968   3.527  1.1997  1.7190 -0.0662
 5574SOL     OW28180   4.367   3.257  14.518  0.2779  0.1107 -0.3976
 5574SOL    HW128181   4.327   3.291  14.598 -0.2798 -1.7948  0.1454
 5574SOL    HW228182   4.425   3.190  14.554 -1.1254 -0.3466  0.9791
 5575SOL     OW28183   3.965   3.161  13.552 -0.0158 -0.0043 -0.4153
 5575SOL    HW128184   3.944   3.172  13.459 -0.2689 -0.4722 -0.4110
 5575SOL    HW228185   4.005   3.074  13.550 -0.3986 -0.2149  0.8981
 5576SOL     OW28186   0.637   4.398   4.760 -0.3773 -0.3647 -0.1650
 5576SOL    HW128187   0.668   4.415   4.849 -0.3241 -0.2228 -0.2101
 5576SOL    HW228188   0.593   4.313   4.762 -1.7565  0.3382 -0.5476
 5577SOL     OW28189   0.806   3.167  11.478 -0.6332  0.0834  0.3989
 5577SOL    HW128190   0.787   3.166  11.571 -0.7930 -0.2145  0.3637
 5577SOL    HW228191   0.725   3.199  11.439  0.8486  0.6037 -2.2769
 5578SOL     OW28192   0.503   4.710  13.651  0.4046 -0.3987 -0.6445
 5578SOL    HW128193   0.517   0.058  13.709 -0.7734  1.1736 -2.4143
 5578SOL    HW228194   0.588   4.702  13.608  0.7992  0.6193 -0.0495
 5579SOL     OW28195   4.519   4.375   0.702 -0.1492  0.6073  0.4357
 5579SOL    HW128196   4.478   4.394   0.787 -0.9027  0.1274  0.1718
 5579SOL    HW228197   4.610   4.403   0.711  0.0148  0.6126 -1.3538
 5580SOL     OW28198   0.550   1.963   2.346  0.3122 -0.5532 -0.6262
 5580SOL    HW128199   0.532   1.879   2.304  0.5009 -1.7911  1.7399
 5580SOL    HW228200   0.490   1.945   2.419  0.6117 -0.2478 -0.3033
 5581SOL     OW28201   4.239   0.145   5.931 -0.1677 -0.2592  0.1283
 5581SOL    HW128202   4.302   0.213   5.908  0.6785 -0.7845  0.8634
 5581SOL    HW228203   4.212   0.174   6.018  0.2045 -1.2916  0.5964
 5582SOL     OW28204   0.849   4.153   5.216 -0.2983 -0.1578  0.0819
 5582SOL    HW128205   0.793   4.224   5.246  2.6787  1.8233  0.9004
 5582SOL    HW228206   0.796   4.076   5.236 -0.9240  0.7192  1.7843
 5583SOL     OW28207   1.897   3.877   0.325  0.3145 -0.9486  0.1216
 5583SOL    HW128208   1.817   3.925   0.344 -0.2771 -1.8676 -0.0447
 5583SOL    HW228209   1.879   3.803   0.383 -0.7549 -0.9694 -0.2434
 5584SOL     OW28210   1.909   0.497  13.346  0.0195  0.6207 -0.4840
 5584SOL    HW128211   1.834   0.554  13.330  0.3864  0.6523 -2.0786
 5584SOL    HW228212   1.973   0.559  13.379  1.0058 -0.9254  0.4957
 5585SOL     OW28213   3.781   2.019   1.056  0.2958 -0.3361 -0.2265
 5585SOL    HW128214   3.869   2.051   1.035 -0.3530  1.7037  0.1697
 5585SOL    HW228215   3.731   2.100   1.056 -0.3867 -0.7633 -0.1633
 5586SOL     OW28216   0.136   4.642   8.676  0.0632  0.0397 -0.2861
 5586SOL    HW128217   0.095   4.710   8.622 -2.6924 -0.6721  0.8984
 5586SOL    HW228218   0.101   4.573   8.620 -0.1318  1.6934 -2.2107
 5587SOL     OW28219   4.025   3.380   8.064  0.5187 -0.5397  0.4257
 5587SOL    HW128220   4.012   3.441   7.991  1.7796 -1.3237 -0.4446
 5587SOL    HW228221   3.937   3.378   8.102  0.4857  1.8269  0.5108
 5588SOL     OW28222   4.503   1.475   6.719 -0.3761 -0.6325 -0.5953
 5588SOL    HW128223   4.562   1.434   6.655  1.8379  2.9965 -0.8613
 5588SOL    HW228224   4.424   1.465   6.667  0.8208  0.1826 -2.5675
 5589SOL     OW28225   3.691   3.571   4.568  0.2622  0.7748  0.2232
 5589SOL    HW128226   3.753   3.527   4.509 -0.7456 -0.3243 -0.0257
 5589SOL    HW228227   3.641   3.622   4.504  0.9493  0.4052 -0.6090
 5590SOL     OW28228   0.435   4.643   0.495 -0.0201 -0.1461  0.1360
 5590SOL    HW128229   0.375   4.690   0.437  1.2135  1.3805  0.0859
 5590SOL    HW228230   0.496   4.603   0.433  0.6439  1.3704 -0.1972
 5591SOL     OW28231   1.459   4.193   4.856 -0.2383  0.1447  0.0825
 5591SOL    HW128232   1.533   4.246   4.828  0.8245 -1.8141 -0.7931
 5591SOL    HW228233   1.479   4.099   4.857  0.5363  0.3193  0.5015
 5592SOL     OW28234   4.111   3.305   0.010 -0.1097 -0.6552  0.3724
 5592SOL    HW128235   4.170   3.290  17.642  0.3299  2.5274  0.1111
 5592SOL    HW228236   4.026   3.324  17.675 -0.4644 -1.5743  0.6815
 5593SOL     OW28237   4.547   2.362  16.307  0.8103  0.2638  0.2465
 5593SOL    HW128238   4.452   2.357  16.295  1.2562 -2.6712 -2.0572
 5593SOL    HW228239   4.562   2.283  16.358  0.7206  0.6257  0.8380
 5594SOL     OW28240   2.535   2.412   5.783 -0.7550  0.8242 -0.4822
 5594SOL    HW128241   2.445   2.436   5.760 -1.0383  0.3647  0.1548
 5594SOL    HW228242   2.585   2.493   5.777  1.3677 -0.2839  1.9677
 5595SOL     OW28243   0.447   0.378  14.785  0.2858 -0.0184  0.0842
 5595SOL    HW128244   0.467   0.466  14.753  0.7879 -0.3607 -0.5375
 5595SOL    HW228245   0.353   0.379  14.766  0.1446  2.2144  0.8911
 5596SOL     OW28246   1.079   0.513   5.913 -0.1871  0.0702 -0.2609
 5596SOL    HW128247   1.041   0.594   5.880 -1.6676  0.5633  2.6793
 5596SOL    HW228248   1.008   0.449   5.909 -0.8364  0.6541  1.9155
 5597SOL     OW28249   0.974   3.309  10.694 -0.1007 -0.1544  0.4346
 5597SOL    HW128250   1.020   3.250  10.754 -1.2770 -1.6887 -0.1526
 5597SOL    HW228251   0.933   3.245  10.635  2.1577 -0.8016 -0.4063
 5598SOL     OW28252   1.901   0.179   5.131 -0.0553 -0.3026  0.4807
 5598SOL    HW128253   1.883   0.267   5.099 -1.7041 -1.5978 -2.1515
 5598SOL    HW228254   1.866   0.169   5.220  1.3176 -1.2876  0.9119
 5599SOL     OW28255   4.491   1.867  12.237  0.1178  0.5752  0.2632
 5599SOL    HW128256   4.415   1.923  12.248  0.1372  0.6007  0.2677
 5599SOL    HW228257   4.463   1.808  12.307  1.0085  1.6938  1.5676
 5600SOL     OW28258   0.713   0.116   2.655 -0.5739  0.5609 -0.1373
 5600SOL    HW128259   0.716   0.070   2.739  1.2769 -0.2712 -0.6488
 5600SOL    HW228260   0.778   0.184   2.674 -1.5131  1.4583 -0.1515
 5601SOL     OW28261   4.013   3.284   8.830 -0.9906 -0.8521 -0.2921
 5601SOL    HW128262   4.005   3.347   8.901 -1.0668 -0.9939 -0.1758
 5601SOL    HW228263   4.094   3.242   8.859  0.9991  2.0068 -1.7130
 5602SOL     OW28264   1.970   4.641   7.142  0.5045 -0.3042  0.1687
 5602SOL    HW128265   1.910   4.669   7.074 -1.9085 -1.3545  1.8539
 5602SOL    HW228266   1.967   4.546   7.153  0.9168 -0.2200  1.0350
 5603SOL     OW28267   3.688   1.681   9.550  0.0771 -0.3315 -0.7348
 5603SOL    HW128268   3.729   1.638   9.625 -1.6008 -0.1420  0.2836
 5603SOL    HW228269   3.656   1.762   9.590 -0.8526  0.2891 -2.7358
 5604SOL     OW28270   0.763   2.695   6.879  0.0049 -0.2813  0.1730
 5604SOL    HW128271   0.841   2.737   6.915  0.5011 -1.1943  0.1643
 5604SOL    HW228272   0.746   2.623   6.940 -1.3013  1.4604  1.8693
 5605SOL     OW28273   4.474   3.274  17.561  0.3840  0.3284  0.2962
 5605SOL    HW128274   4.531   3.330  17.508  0.7817  0.5739  0.9884
 5605SOL    HW228275   4.490   3.303  17.650  1.5028 -1.1171  0.5684
 5606SOL     OW28276   0.173   0.394   5.125  0.1166  0.0206 -0.1132
 5606SOL    HW128277   0.218   0.350   5.197 -0.4723 -1.3836 -0.6119
 5606SOL    HW228278   0.087   0.355   5.136  0.6874 -1.6315 -1.5216
 5607SOL     OW28279   0.814   2.715   5.920 -0.2286 -0.9447 -0.2918
 5607SOL    HW128280   0.788   2.681   6.005 -0.3792  0.8008  0.3698
 5607SOL    HW228281   0.803   2.641   5.861  2.0990 -0.4404 -1.3951
 5608SOL     OW28282   3.191   4.531   6.755  0.1972 -0.4196 -0.4700
 5608SOL    HW128283   3.133   4.485   6.695 -2.0192  1.9432 -0.1392
 5608SOL    HW228284   3.247   4.570   6.688 -0.4583  0.4670 -0.5128
 5609SOL     OW28285   3.985   4.646   4.539  0.2708  0.0278 -0.1095
 5609SOL    HW128286   4.020   4.713   4.480  0.2584 -1.2794 -1.5709
 5609SOL    HW228287   3.919   4.699   4.585  1.5263  1.8658 -0.4318
 5610SOL     OW28288   1.403   3.768   9.632 -0.2364 -0.1031 -0.5080
 5610SOL    HW128289   1.498   3.770   9.647 -0.5386 -0.7263  1.4858
 5610SOL    HW228290   1.384   3.730   9.718 -1.0854 -0.7387 -0.9789
 5611SOL     OW28291   0.836   2.072   5.604 -0.3567 -0.0091  0.5088
 5611SOL    HW128292   0.765   2.042   5.660 -0.3987 -3.3261 -1.3022
 5611SOL    HW228293   0.886   2.122   5.669  1.0668 -0.3979 -0.2836
 5612SOL     OW28294   2.085   4.285   4.205  0.0236  0.1948 -0.6207
 5612SOL    HW128295   2.014   4.249   4.259  0.7651 -1.4860 -0.8064
 5612SOL    HW228296   2.106   4.198   4.172 -1.4212  0.1444 -1.4435
 5613SOL     OW28297   2.409   4.415   2.943 -0.1395 -0.2547 -0.0702
 5613SOL    HW128298   2.355   4.365   2.882 -0.1819 -0.2738 -0.0167
 5613SOL    HW228299   2.343   4.466   2.989 -1.0637 -3.1577  1.8522
 5614SOL     OW28300   2.750   1.594   2.910 -0.4691 -0.0734  0.3578
 5614SOL    HW128301   2.840   1.623   2.928 -0.6314  0.7784 -0.2162
 5614SOL    HW228302   2.772   1.510   2.870 -1.6218 -0.6040  0.8322
 5615SOL     OW28303   4.032   1.026   2.553 -0.3927 -0.6357  0.2179
 5615SOL    HW128304   4.034   0.969   2.629 -2.7913 -3.0218 -1.4618
 5615SOL    HW228305   4.084   1.100   2.585 -0.2596 -0.8130  0.4043
 5616SOL     OW28306   1.409   3.617  12.859 -0.5540 -0.0648 -0.3073
 5616SOL    HW128307   1.371   3.574  12.783  0.1267 -1.0330 -0.0995
 5616SOL    HW228308   1.351   3.689  12.882  0.0263  0.8154 -1.6156
 5617SOL     OW28309   3.091   0.468   0.175 -0.2219  0.3360  0.5916
 5617SOL    HW128310   3.070   0.430   0.261 -1.5867  1.1088  0.5946
 5617SOL    HW228311   3.003   0.474   0.138  1.0108  0.1359 -2.3674
 5618SOL     OW28312   3.088   1.345  11.595  0.0383  0.2163 -0.6662
 5618SOL    HW128313   3.072   1.336  11.689  0.6395 -1.6541 -0.7484
 5618SOL    HW228314   3.000   1.362  11.561 -0.2053 -0.9673 -0.6171
 5619SOL     OW28315   3.303   4.425  16.318  0.4025  0.2302  0.0576
 5619SOL    HW128316   3.234   4.472  16.270 -0.2713  2.1709  2.9373
 5619SOL    HW228317   3.354   4.385  16.247 -2.3735  2.4909 -3.2179
 5620SOL     OW28318   3.645   3.130   7.971 -0.5782  0.2465 -0.1149
 5620SOL    HW128319   3.638   3.127   8.066 -1.0362 -0.2608 -0.1661
 5620SOL    HW228320   3.715   3.195   7.956  1.8190 -1.9089  1.7833
 5621SOL     OW28321   3.546   0.858   0.880  0.4354 -0.5354 -0.3335
 5621SOL    HW128322   3.489   0.788   0.851 -0.4936 -0.0754  0.3856
 5621SOL    HW228323   3.585   0.799   0.946 -1.1237 -1.3067 -0.1150
 5622SOL     OW28324   4.511   1.991   9.024  0.0327  0.4771  0.3559
 5622SOL    HW128325   4.524   2.086   9.027  0.3905  0.3712  1.9055
 5622SOL    HW228326   4.597   1.957   9.048  1.1112  1.0272 -2.6971
 5623SOL     OW28327   0.175   1.849  15.396 -0.1310 -0.2152  0.0828
 5623SOL    HW128328   0.179   1.890  15.309 -2.4128 -1.5938 -0.6873
 5623SOL    HW228329   0.106   1.896  15.443 -0.4392  0.5889 -1.1765
 5624SOL     OW28330   3.083   2.473   8.474 -0.1873 -0.2244 -0.5395
 5624SOL    HW128331   3.029   2.550   8.458  0.4406  1.0344  3.2428
 5624SOL    HW228332   3.159   2.491   8.420  0.0227  0.1255 -0.1199
 5625SOL     OW28333   3.259   1.245   4.992 -0.2051 -0.1838 -0.3090
 5625SOL    HW128334   3.236   1.323   5.042 -1.0695 -0.5995 -0.0602
 5625SOL    HW228335   3.215   1.256   4.908 -1.6783 -0.6142  0.4229
 5626SOL     OW28336   1.459   0.911   2.650  0.1144 -0.2028  0.2165
 5626SOL    HW128337   1.390   0.876   2.594 -0.8082 -0.2508  1.3728
 5626SOL    HW228338   1.529   0.853   2.622  0.7327 -0.2901  1.9474
 5627SOL     OW28339   3.999   1.961   6.885 -0.1091 -0.6621  0.0747
 5627SOL    HW128340   3.964   2.038   6.931  0.3479 -0.6211  0.3597
 5627SOL    HW228341   4.091   1.976   6.909  0.1647  1.2751 -2.1144
 5628SOL     OW28342   2.267   4.302  17.175 -0.8823 -0.4257  0.0205
 5628SOL    HW128343   2.261   4.230  17.111  0.8607 -0.9249  0.4307
 5628SOL    HW228344   2.344   4.340  17.133 -2.0964 -0.4650 -2.2411
 5629SOL     OW28345   1.949   2.459   3.502  0.1967 -0.6376  0.0860
 5629SOL    HW128346   1.878   2.488   3.559  0.6362  0.6868 -0.0429
 5629SOL    HW228347   2.035   2.482   3.537  0.6055  0.2152 -1.5144
 5630SOL     OW28348   2.082   2.398   5.030 -0.4711  1.0004 -0.0396
 5630SOL    HW128349   2.090   2.361   5.119  0.0041 -0.0711 -0.5279
 5630SOL    HW228350   2.067   2.315   4.985  0.7987  0.5567  0.3625
 5631SOL     OW28351   0.876   2.237   8.059 -0.3082  0.5426  0.5901
 5631SOL    HW128352   0.786   2.236   8.091 -0.6787  2.7999 -0.4201
 5631SOL    HW228353   0.911   2.281   8.136  0.5734 -0.3111  0.6829
 5632SOL     OW28354   1.690   1.825   6.444 -0.1036  0.7665  0.1706
 5632SOL    HW128355   1.778   1.852   6.471  0.9058 -0.9143 -1.4241
 5632SOL    HW228356   1.659   1.798   6.531  2.1366 -2.2548  0.0253
 5633SOL     OW28357   0.146   0.436   3.397 -0.5218  0.1365 -0.3571
 5633SOL    HW128358   0.101   0.521   3.396 -1.3034 -0.2829 -0.8796
 5633SOL    HW228359   0.232   0.456   3.360 -0.5002  0.0752 -0.3392
 5634SOL     OW28360   1.514   2.743  17.434  0.0975  0.0533  0.0426
 5634SOL    HW128361   1.432   2.698  17.413 -0.8559 -0.6135  5.0599
 5634SOL    HW228362   1.536   2.776  17.347 -1.6697 -0.5942 -0.6462
 5635SOL     OW28363   1.034   0.993   3.774 -0.3640 -0.0858 -0.4317
 5635SOL    HW128364   0.949   1.020   3.809  0.4377 -0.2995  1.6699
 5635SOL    HW228365   1.090   1.036   3.838 -1.6652 -0.4143  0.9335
 5636SOL     OW28366   4.433   4.100   8.617 -0.1941  0.1024  0.6176
 5636SOL    HW128367   4.473   4.114   8.531 -2.0027  2.8398  0.2360
 5636SOL    HW228368   4.426   4.193   8.640 -2.0839  0.3901 -1.1901
 5637SOL     OW28369   1.150   4.285   2.216 -0.0264  0.6106  0.1551
 5637SOL    HW128370   1.201   4.360   2.185  4.2619 -1.0299  3.1076
 5637SOL    HW228371   1.200   4.267   2.296 -0.9396  0.8099  0.7668
 5638SOL     OW28372   3.899   2.361  10.412 -0.1769  0.6916  0.2836
 5638SOL    HW128373   3.946   2.433  10.370  1.2983  0.7952  2.1584
 5638SOL    HW228374   3.869   2.397  10.495 -1.3485 -1.1925  0.6687
 5639SOL     OW28375   2.414   3.401   9.599  0.0245  0.2371  0.1128
 5639SOL    HW128376   2.385   3.310   9.591 -1.2689  0.6155  0.3511
 5639SOL    HW228377   2.504   3.379   9.623 -0.0513  0.6822  0.8100
 5640SOL     OW28378   3.152   2.945   9.196 -0.0543 -0.0282 -0.3104
 5640SOL    HW128379   3.182   2.857   9.174  1.6424  0.7632 -1.2545
 5640SOL    HW228380   3.163   2.942   9.291 -1.1118  0.9737 -0.1581
 5641SOL     OW28381   1.965   0.686   7.655  0.1073  0.8435  0.3000
 5641SOL    HW128382   2.010   0.641   7.584 -0.8715  0.1189  0.1391
 5641SOL    HW228383   2.020   0.762   7.676  2.7316 -0.8653 -0.4002
 5642SOL     OW28384   1.917   1.269   3.272  0.1134 -0.2765  0.0736
 5642SOL    HW128385   1.912   1.246   3.365 -0.3146  1.9087  0.5910
 5642SOL    HW228386   1.896   1.362   3.267  2.9006  0.3258 -0.4280
 5643SOL     OW28387   1.249   1.664   8.521  0.7032  0.0193  0.4689
 5643SOL    HW128388   1.272   1.638   8.610  3.1577  3.2512  0.7689
 5643SOL    HW228389   1.305   1.600   8.476 -2.4797 -2.8094  0.5354
 5644SOL     OW28390   3.352   4.625   7.872  0.1112  0.3881  0.0296
 5644SOL    HW128391   3.287   4.642   7.940 -1.2796 -1.1934 -0.8858
 5644SOL    HW228392   3.428   4.606   7.927 -0.3172  0.1553  0.5412
 5645SOL     OW28393   1.516   0.422   2.039  0.0140 -0.1910 -0.1277
 5645SOL    HW128394   1.441   0.447   1.985 -0.7203 -0.5971  0.7081
 5645SOL    HW228395   1.535   0.510   2.074  0.3263 -0.3475  0.0996
 5646SOL     OW28396   3.940   4.467   3.183 -0.2685 -0.1884  0.1756
 5646SOL    HW128397   3.947   4.373   3.199  1.7954 -0.1310 -0.4700
 5646SOL    HW228398   4.032   4.487   3.169  0.0869  0.4141  3.2635
 5647SOL     OW28399   1.055   3.285  10.374 -0.0415  0.1464  0.2339
 5647SOL    HW128400   1.142   3.247  10.387 -0.2904 -1.2093 -1.9305
 5647SOL    HW228401   1.018   3.240  10.450 -0.2350 -1.2624 -0.7042
 5648SOL     OW28402   1.379   0.793   9.639 -0.1420 -0.7682  0.0075
 5648SOL    HW128403   1.284   0.804   9.632  0.1321  1.3385 -0.3097
 5648SOL    HW228404   1.403   0.867   9.584  1.7519 -0.5847  1.0855
 5649SOL     OW28405   0.220   0.136   2.854  0.7031  0.1686  0.3907
 5649SOL    HW128406   0.262   0.082   2.788 -1.1183 -0.0705 -0.5654
 5649SOL    HW228407   0.217   0.224   2.817  0.0710  0.9797  2.3350
 5650SOL     OW28408   4.199   0.435   5.634  0.0453 -0.3057 -1.0296
 5650SOL    HW128409   4.127   0.375   5.651  0.6427 -1.1054 -1.2918
 5650SOL    HW228410   4.250   0.367   5.590 -1.0861 -2.0479  0.3503
 5651SOL     OW28411   3.159   3.040   4.025 -0.7785 -0.5626  0.5072
 5651SOL    HW128412   3.075   3.079   4.000 -0.5208 -0.9013 -0.9099
 5651SOL    HW228413   3.146   3.045   4.119 -3.9967 -0.8652  0.0702
 5652SOL     OW28414   1.848   1.919   7.359  0.8195  0.0726  0.1816
 5652SOL    HW128415   1.854   1.915   7.455 -4.8428  0.5899  0.5570
 5652SOL    HW228416   1.776   1.858   7.339  0.8657 -0.5338  1.8512
 5653SOL     OW28417   4.285   0.038   4.682 -0.2280 -0.1180  0.3786
 5653SOL    HW128418   4.241   0.121   4.698  0.5912 -0.1530  2.7772
 5653SOL    HW228419   4.225   4.700   4.720  1.0912 -0.8946  1.1809
 5654SOL     OW28420   4.026   4.265   1.715 -0.0125 -0.0360 -0.0583
 5654SOL    HW128421   3.964   4.337   1.707  0.6444  0.5714  0.2122
 5654SOL    HW228422   4.101   4.323   1.731 -0.3767  0.7301 -1.1873
 5655SOL     OW28423   3.644   2.572  12.947  0.4147  0.1991  0.7503
 5655SOL    HW128424   3.728   2.608  12.918  0.7991 -2.0166 -0.8938
 5655SOL    HW228425   3.645   2.482  12.916  1.4299  0.5542 -0.2270
 5656SOL     OW28426   4.525   3.506   3.255  0.0748 -0.3846 -0.1839
 5656SOL    HW128427   4.519   3.463   3.170  1.8615 -1.5912  0.3114
 5656SOL    HW228428   4.528   3.599   3.231 -3.8530 -0.1513  0.1082
 5657SOL     OW28429   1.094   1.954  14.202 -0.7361 -0.0149 -0.2380
 5657SOL    HW128430   1.095   1.950  14.298  0.2926 -1.2644 -0.2885
 5657SOL    HW228431   0.999   1.950  14.195 -0.9748  1.0936  2.4046
 5658SOL     OW28432   1.070   3.715   9.813 -0.1653 -0.1427  0.1995
 5658SOL    HW128433   1.097   3.782   9.750 -0.2662 -0.0918  0.2093
 5658SOL    HW228434   1.157   3.688   9.841 -0.0599  2.5718  2.5322
 5659SOL     OW28435   3.576   4.648   4.503 -0.1420 -0.3618 -0.4408
 5659SOL    HW128436   3.502   4.669   4.446  1.5864  0.9920 -2.1737
 5659SOL    HW228437   3.521   4.667   4.579  0.6437 -0.3717  0.1306
 5660SOL     OW28438   2.329   4.099   2.299 -0.0282 -0.1988  0.0817
 5660SOL    HW128439   2.407   4.098   2.355  2.0758 -1.4834 -2.8437
 5660SOL    HW228440   2.364   4.090   2.210  0.7968  0.0873  0.3708
 5661SOL     OW28441   2.056   3.270  10.505  0.2153  0.7440 -0.5098
 5661SOL    HW128442   2.094   3.355  10.527 -1.0948  0.4726  2.9349
 5661SOL    HW228443   2.079   3.249  10.415 -0.7024  1.4514 -0.9015
 5662SOL     OW28444   0.740   2.687   3.646 -0.3707  0.4375 -0.2374
 5662SOL    HW128445   0.767   2.770   3.609  1.1098  0.4813  0.9608
 5662SOL    HW228446   0.743   2.634   3.566 -0.1261 -1.3777  0.9713
 5663SOL     OW28447   4.216   0.375   4.480  0.0221 -0.3839 -0.0761
 5663SOL    HW128448   4.134   0.420   4.500  0.5749  1.1138 -1.0923
 5663SOL    HW228449   4.268   0.379   4.560  0.8058 -2.1959 -0.4988
 5664SOL     OW28450   0.145   4.462   5.294 -0.1211 -0.5472 -0.1896
 5664SOL    HW128451   0.072   4.498   5.243 -1.7340 -1.8392  1.2349
 5664SOL    HW228452   0.188   4.542   5.325 -0.3611 -0.0609 -1.0803
 5665SOL     OW28453   4.028   3.341   2.026  0.4149  0.2692  0.7334
 5665SOL    HW128454   4.018   3.317   2.118  0.8645  1.3330  1.0525
 5665SOL    HW228455   4.123   3.342   2.014  0.4718 -0.6598  1.1075
 5666SOL     OW28456   4.631   1.161   7.940  0.0991  0.0156  0.4267
 5666SOL    HW128457   4.587   1.168   7.855 -0.3302  2.6525  0.8478
 5666SOL    HW228458   4.624   1.247   7.982  0.8288 -0.2326  1.0464
 5667SOL     OW28459   0.319   1.056   4.525 -0.0553  0.4086  0.3618
 5667SOL    HW128460   0.284   1.133   4.569 -0.4693  1.3041 -1.5592
 5667SOL    HW228461   0.269   1.063   4.444 -0.0321 -1.7412  0.1530
 5668SOL     OW28462   1.845   1.658  12.747 -0.0959 -0.2592  0.3176
 5668SOL    HW128463   1.895   1.734  12.775 -0.0734 -0.7132  1.4941
 5668SOL    HW228464   1.888   1.594  12.803 -0.4201 -1.6264 -0.9929
 5669SOL     OW28465   3.573   1.744  12.779 -0.4064 -0.1193  0.3125
 5669SOL    HW128466   3.599   1.726  12.870  1.1018  1.6999  0.2390
 5669SOL    HW228467   3.655   1.771  12.739  0.3407 -1.1740  1.1535
 5670SOL     OW28468   2.981   1.554   6.166 -0.2439 -0.0909 -0.3146
 5670SOL    HW128469   3.071   1.547   6.200 -1.0518 -0.1356  1.8115
 5670SOL    HW228470   2.939   1.593   6.242 -0.0917  1.3318 -0.9741
 5671SOL     OW28471   0.366   1.329   4.220 -0.3047 -0.1492  0.0989
 5671SOL    HW128472   0.305   1.274   4.270  0.5676 -0.9268  0.3053
 5671SOL    HW228473   0.438   1.338   4.282 -1.7891 -1.1494  1.9872
 5672SOL     OW28474   3.646   2.088  15.397  0.5704  0.3578 -0.5360
 5672SOL    HW128475   3.723   2.045  15.435 -0.9435 -0.1635  1.9232
 5672SOL    HW228476   3.625   2.027  15.326 -3.0365 -0.4994  1.2610
 5673SOL     OW28477   4.129   3.175  14.395  0.4807  0.3288  0.0827
 5673SOL    HW128478   4.116   3.104  14.457 -1.6036  1.4678  0.9380
 5673SOL    HW228479   4.212   3.213  14.425  0.9666 -1.2805  0.7369
 5674SOL     OW28480   3.190   0.907   0.105  0.0894  0.1110  0.1247
 5674SOL    HW128481   3.194   0.828   0.159  2.1031  1.0591  1.3546
 5674SOL    HW228482   3.173   0.962   0.182  0.3266  1.2876 -0.6702
 5675SOL     OW28483   3.150   4.099   1.268  0.1681 -0.3668  0.6216
 5675SOL    HW128484   3.101   4.129   1.345  1.8123  0.5263  1.3102
 5675SOL    HW228485   3.239   4.124   1.293  0.6518 -0.5394 -0.9619
 5676SOL     OW28486   4.444   4.653   5.453 -0.1715  0.3119  0.1670
 5676SOL    HW128487   4.387   4.693   5.387 -0.4177  0.0364  0.2128
 5676SOL    HW228488   4.384   4.581   5.473 -0.0648  0.3127  0.4875
 5677SOL     OW28489   1.016   2.890   3.308  0.2520  0.1428  0.0035
 5677SOL    HW128490   0.945   2.876   3.370  0.8390 -0.3649  0.5574
 5677SOL    HW228491   0.971   2.859   3.230  0.6225  1.2124 -0.6340
 5678SOL     OW28492   0.763   4.022   2.241 -0.2179 -0.1345 -0.0875
 5678SOL    HW128493   0.828   3.952   2.236  1.2583  1.3118 -1.5707
 5678SOL    HW228494   0.823   4.096   2.237  0.4852 -0.6971  0.0845
 5679SOL     OW28495   2.253   4.607   6.545 -0.4495  0.4696 -1.0230
 5679SOL    HW128496   2.308   4.675   6.506 -0.6168  0.6366 -0.9707
 5679SOL    HW228497   2.310   4.571   6.613 -0.7224 -1.1088 -1.6414
 5680SOL     OW28498   1.446   2.051   4.510  0.5681  0.0697  0.4818
 5680SOL    HW128499   1.457   2.002   4.428  0.5854  2.9343 -1.2051
 5680SOL    HW228500   1.366   2.009   4.543  0.4456 -0.2793 -0.2461
 5681SOL     OW28501   3.025   2.425   1.058  0.3342 -0.2261  0.4431
 5681SOL    HW128502   3.116   2.454   1.055  1.4081 -3.5831  0.6149
 5681SOL    HW228503   3.026   2.404   0.965 -0.5176  0.7544  0.2070
 5682SOL     OW28504   3.812   2.922   3.818 -0.1770 -0.6681 -0.5142
 5682SOL    HW128505   3.742   2.857   3.817  0.2206 -1.0833 -2.0851
 5682SOL    HW228506   3.869   2.883   3.884 -1.1013 -1.5027 -0.2059
 5683SOL     OW28507   2.848   3.908  12.682  0.0859 -0.0657  0.0568
 5683SOL    HW128508   2.847   3.900  12.778  0.4801 -0.5974  0.0158
 5683SOL    HW228509   2.908   3.838  12.657  1.3875  0.5179  1.4918
 5684SOL     OW28510   3.221   1.288   8.861 -0.0044  0.4295 -0.8334
 5684SOL    HW128511   3.206   1.276   8.954  0.2199  1.7088 -0.6361
 5684SOL    HW228512   3.306   1.245   8.855  0.1914  0.7729 -0.5077
 5685SOL     OW28513   0.412   1.923   1.802 -0.0771  0.2321 -0.2578
 5685SOL    HW128514   0.334   1.962   1.763  0.2150  2.6893  1.6228
 5685SOL    HW228515   0.367   1.844   1.829  0.5388  0.4011  1.3008
 5686SOL     OW28516   3.216   1.541   3.609  0.1515  0.1078  0.0267
 5686SOL    HW128517   3.195   1.491   3.688 -2.4798  0.6655 -0.3167
 5686SOL    HW228518   3.144   1.604   3.616 -1.1351 -1.7043  2.9721
 5687SOL     OW28519   0.142   0.692   6.942  0.4734 -0.0267 -0.4988
 5687SOL    HW128520   0.167   0.702   6.850  1.7219  0.7069 -0.0795
 5687SOL    HW228521   0.216   0.728   6.991  0.0408  1.6906 -1.0927
 5688SOL     OW28522   2.699   4.603   8.499  0.7026  0.1305  0.2528
 5688SOL    HW128523   2.604   4.599   8.488  0.7456  0.8743 -0.4043
 5688SOL    HW228524   2.711   4.565   8.586 -0.6481 -0.0570  0.3473
 5689SOL     OW28525   2.852   3.730   3.846  0.0970 -0.2257  0.0348
 5689SOL    HW128526   2.932   3.679   3.862  0.1987 -0.2835 -0.6600
 5689SOL    HW228527   2.816   3.720   3.934 -0.1608  3.1199  0.3302
 5690SOL     OW28528   1.060   3.551   4.244 -0.1568  0.4962 -0.3046
 5690SOL    HW128529   1.108   3.558   4.326 -0.9327 -0.1398  0.2112
 5690SOL    HW228530   1.127   3.533   4.178  1.9344 -0.6145  2.0989
 5691SOL     OW28531   1.199   2.119   5.020  0.2221 -0.1205  0.3682
 5691SOL    HW128532   1.220   2.211   5.004 -0.9975  0.1621  0.3415
 5691SOL    HW228533   1.223   2.109   5.112  1.6693 -0.3716 -0.0356
 5692SOL     OW28534   0.381   3.872  12.724 -0.4572  0.0660  0.7605
 5692SOL    HW128535   0.371   3.872  12.629  2.0960 -1.8735  0.5216
 5692SOL    HW228536   0.436   3.950  12.733 -2.4770  1.7300 -1.4295
 5693SOL     OW28537   1.520   1.879   3.737 -0.2663 -0.2823  0.0166
 5693SOL    HW128538   1.574   1.844   3.808 -0.1515 -1.5146 -0.6729
 5693SOL    HW228539   1.480   1.795   3.714  1.5463 -1.3785  0.8712
 5694SOL     OW28540   1.069   2.501  14.594 -0.0111  0.3499  0.1408
 5694SOL    HW128541   1.146   2.523  14.647 -0.8922  2.2182  0.6525
 5694SOL    HW228542   1.013   2.451  14.653 -1.3591 -0.9955 -2.3223
 5695SOL     OW28543   2.836   3.139  13.018 -0.6546 -0.0234 -0.3271
 5695SOL    HW128544   2.870   3.228  13.021 -3.0939  0.8450  1.1088
 5695SOL    HW228545   2.882   3.091  13.086  1.5463  2.1007 -0.3289
 5696SOL     OW28546   1.104   2.834   9.816 -0.1365  0.1142  0.1581
 5696SOL    HW128547   1.028   2.889   9.837 -0.0103  0.9316 -1.5092
 5696SOL    HW228548   1.066   2.766   9.760 -1.5852  1.3271 -0.3412
 5697SOL     OW28549   3.496   3.918   9.525 -0.1379 -0.0384 -0.1685
 5697SOL    HW128550   3.406   3.884   9.528  0.0588 -0.2953  2.8089
 5697SOL    HW228551   3.486   3.992   9.585 -1.7616  0.4305 -1.0132
 5698SOL     OW28552   2.113   4.685  10.204  0.5454  0.1554  0.3605
 5698SOL    HW128553   2.151   4.609  10.160 -2.6361 -1.7593  0.8729
 5698SOL    HW228554   2.152   0.025  10.148  2.0143  0.7338  2.0671
 5699SOL     OW28555   1.861   1.839  11.560  0.1868  0.1373 -0.3258
 5699SOL    HW128556   1.856   1.755  11.515 -0.1908 -0.5278  0.9620
 5699SOL    HW228557   1.946   1.871  11.528 -0.7007 -0.2028 -3.0302
 5700SOL     OW28558   2.336   2.876   0.466  0.1054  0.1802 -0.2683
 5700SOL    HW128559   2.375   2.964   0.462 -0.3357  0.4010  0.2138
 5700SOL    HW228560   2.367   2.844   0.382  0.3768 -0.0756 -0.0667
 5701SOL     OW28561   2.083   1.229   9.214  0.3355  0.6575  0.8760
 5701SOL    HW128562   2.159   1.177   9.240  2.2820  2.4681 -1.1797
 5701SOL    HW228563   2.079   1.244   9.120  0.4278 -1.5109  0.5309
 5702SOL     OW28564   1.745   3.682  13.172 -0.1619 -0.0657  0.1176
 5702SOL    HW128565   1.672   3.642  13.125  1.8565 -3.1698 -0.3922
 5702SOL    HW228566   1.720   3.775  13.172 -2.3591 -0.6545 -0.0419
 5703SOL     OW28567   0.230   3.924   5.426 -0.2883  0.5025 -0.3428
 5703SOL    HW128568   0.240   3.958   5.515 -1.2756  0.2234 -0.1310
 5703SOL    HW228569   0.303   3.962   5.378  0.8628  2.4494  2.8965
 5704SOL     OW28570   3.346   2.318   5.207 -0.2338 -0.1150  0.6575
 5704SOL    HW128571   3.267   2.267   5.222 -0.8548  0.8150  0.5294
 5704SOL    HW228572   3.368   2.275   5.124 -1.0776 -1.3393  1.0794
 5705SOL     OW28573   0.376   0.787  11.304 -0.3128  0.1463  0.1137
 5705SOL    HW128574   0.411   0.722  11.243  1.0856  0.5480  0.4721
 5705SOL    HW228575   0.446   0.783  11.369 -0.8565 -0.4517  0.6496
 5706SOL     OW28576   0.147   4.197  11.034 -0.2444 -0.0160  0.1539
 5706SOL    HW128577   0.103   4.177  10.952  1.4142 -0.0607 -0.7191
 5706SOL    HW228578   0.063   4.227  11.069  0.4586  1.0900  0.9426
 5707SOL     OW28579   0.695   3.516   5.184 -0.0317  0.0260 -0.4867
 5707SOL    HW128580   0.747   3.591   5.156 -1.9504  1.8810  0.8557
 5707SOL    HW228581   0.760   3.447   5.174 -0.1679 -0.0623 -0.7517
 5708SOL     OW28582   4.523   4.061   5.793  0.4805 -0.0276  0.5724
 5708SOL    HW128583   4.472   4.085   5.870 -0.5684  2.0191 -0.7647
 5708SOL    HW228584   4.477   4.122   5.734 -0.7658 -1.1057  0.4395
 5709SOL     OW28585   1.346   1.409   7.155 -0.7489 -0.0608 -0.3236
 5709SOL    HW128586   1.370   1.325   7.194 -0.7982 -0.7507 -1.7803
 5709SOL    HW228587   1.430   1.451   7.139 -0.7408 -0.5675 -1.6183
 5710SOL     OW28588   3.814   1.655   8.550 -0.1935 -0.2123  0.4299
 5710SOL    HW128589   3.908   1.661   8.531 -0.3142 -1.8035 -0.6981
 5710SOL    HW228590   3.790   1.748   8.547  0.3119 -0.0457  1.4943
 5711SOL     OW28591   3.713   2.323  12.185 -0.0153  0.4660 -0.6922
 5711SOL    HW128592   3.783   2.386  12.172  0.1046  0.2955 -0.8733
 5711SOL    HW228593   3.753   2.262  12.247  0.7695  2.3619  0.6702
 5712SOL     OW28594   3.571   4.513   7.365  0.6939 -0.2686  0.0403
 5712SOL    HW128595   3.524   4.458   7.303  0.7846  1.6099 -1.7060
 5712SOL    HW228596   3.615   4.445   7.415  0.8129 -0.3363 -0.1592
 5713SOL     OW28597   4.674   3.793   6.869  0.3775 -0.3787  0.3212
 5713SOL    HW128598   0.011   3.825   6.804 -0.6322  0.5475 -0.2157
 5713SOL    HW228599   4.595   3.830   6.829 -0.3303 -1.2588  0.9078
 5714SOL     OW28600   1.922   3.128   5.861 -0.2640  0.3176 -0.4931
 5714SOL    HW128601   2.011   3.147   5.891  0.2629 -1.2448 -1.1006
 5714SOL    HW228602   1.874   3.140   5.944  0.1801  0.7007 -0.2906
 5715SOL     OW28603   0.981   0.426   0.265 -0.2717 -0.3579 -0.0544
 5715SOL    HW128604   0.919   0.479   0.214 -1.4093 -0.1149  1.5899
 5715SOL    HW228605   0.947   0.455   0.350 -2.0151  0.1940 -0.9425
 5716SOL     OW28606   4.309   2.316   8.801 -0.3608  0.2095  0.1487
 5716SOL    HW128607   4.365   2.246   8.768 -0.0928  1.1096 -1.3181
 5716SOL    HW228608   4.341   2.320   8.890  0.6298  0.7848 -0.2392
 5717SOL     OW28609   0.153   3.866  10.353 -0.0438  0.2109 -0.2004
 5717SOL    HW128610   0.232   3.814  10.368  0.0935  0.9347  1.5685
 5717SOL    HW228611   0.171   3.947  10.400  0.7729 -0.6723  1.0185
 5718SOL     OW28612   3.737   0.585   5.935 -0.0042 -0.0459  0.1549
 5718SOL    HW128613   3.761   0.596   6.028 -1.2881 -0.1865  0.5038
 5718SOL    HW228614   3.818   0.609   5.890 -1.2224  0.3072 -1.8314
 5719SOL     OW28615   3.854   4.192   5.086  0.1241  0.1490 -0.3279
 5719SOL    HW128616   3.762   4.208   5.109  0.2062  0.3975 -0.1731
 5719SOL    HW228617   3.850   4.148   5.002 -0.8478  0.2890 -0.3548
 5720SOL     OW28618   3.934   1.350   3.798  0.2841  0.2855 -0.1754
 5720SOL    HW128619   3.968   1.340   3.887 -0.3487 -0.1600  0.0102
 5720SOL    HW228620   3.993   1.407   3.749 -0.0436  0.1156 -0.7712
 5721SOL     OW28621   2.217   0.391   9.445 -0.2788 -0.0831  0.0381
 5721SOL    HW128622   2.193   0.464   9.389  2.1217 -0.1158 -1.0229
 5721SOL    HW228623   2.180   0.311   9.408 -0.0676 -0.3970  0.5032
 5722SOL     OW28624   4.334   1.676   7.232  0.1274 -0.1414  0.3833
 5722SOL    HW128625   4.271   1.612   7.199  0.5327 -0.4306  0.1744
 5722SOL    HW228626   4.295   1.699   7.316  3.1452  1.8086  1.2489
 5723SOL     OW28627   4.539   2.049  11.557 -0.1788  0.0194 -0.4626
 5723SOL    HW128628   4.525   2.113  11.486 -3.2130  0.2394  0.3479
 5723SOL    HW228629   4.566   2.116  11.619 -0.2452  0.0807 -0.4992
 5724SOL     OW28630   1.705   3.904   3.935  0.1482  0.7183  0.0318
 5724SOL    HW128631   1.713   3.997   3.917  2.2619  0.3763 -0.7836
 5724SOL    HW228632   1.792   3.880   3.965  0.6751  1.4408 -0.9293
 5725SOL     OW28633   4.647   1.544  12.571  0.2656  0.2431 -0.4799
 5725SOL    HW128634   4.630   1.518  12.661  2.1810 -1.7705 -0.6861
 5725SOL    HW228635   4.676   1.470  12.517 -1.3076 -0.3680 -0.4777
 5726SOL     OW28636   1.548   0.074   8.539 -0.0934  0.0704  0.0428
 5726SOL    HW128637   1.640   0.067   8.514 -0.3077  0.0417 -0.7517
 5726SOL    HW228638   1.548   0.060   8.634 -2.3392  0.8597  0.1579
 5727SOL     OW28639   4.264   0.149   2.104  0.3268  0.2146  0.2173
 5727SOL    HW128640   4.289   0.156   2.197  0.1193 -0.5340  0.3256
 5727SOL    HW228641   4.279   0.241   2.082  2.2017  0.2962  1.8806
 5728SOL     OW28642   3.149   1.313   0.958 -0.1660 -0.0992  0.4347
 5728SOL    HW128643   3.203   1.383   0.921 -1.1130  0.4236  0.0508
 5728SOL    HW228644   3.060   1.346   0.947 -0.4577 -0.9546  0.2396
 5729SOL     OW28645   0.660   4.454   1.339  0.0173  0.0547  0.1019
 5729SOL    HW128646   0.606   4.498   1.273 -0.2692 -2.5049 -1.3911
 5729SOL    HW228647   0.702   4.524   1.388 -1.0548  0.6290  0.1921
 5730SOL     OW28648   0.889   0.077   7.012  0.3332 -0.2162 -0.1764
 5730SOL    HW128649   0.970   0.082   7.063 -1.5119  0.3887  2.6996
 5730SOL    HW228650   0.847   0.155   7.050 -1.0012 -1.7017  1.3882
 5731SOL     OW28651   3.546   3.575   9.609 -0.6147 -0.2283  0.2079
 5731SOL    HW128652   3.630   3.529   9.609  0.0614  0.9951  3.3680
 5731SOL    HW228653   3.493   3.528   9.545 -1.0559  0.0271  0.3885
 5732SOL     OW28654   0.890   2.301   7.493 -0.1827 -0.1560  0.2737
 5732SOL    HW128655   0.977   2.339   7.479  0.4788 -1.5170  0.6590
 5732SOL    HW228656   0.894   2.256   7.578 -0.1527 -1.3497 -0.3522
 5733SOL     OW28657   3.623   2.222   7.357 -0.1878 -0.0948 -0.3260
 5733SOL    HW128658   3.663   2.199   7.441  0.6619  1.5502 -0.2861
 5733SOL    HW228659   3.632   2.317   7.355  0.5696 -0.1578  0.1944
 5734SOL     OW28660   0.427   2.639   3.997  0.4663 -0.1277  0.2123
 5734SOL    HW128661   0.518   2.665   4.013 -0.2091  2.3984 -0.0497
 5734SOL    HW228662   0.416   2.673   3.908 -1.6163  0.2950  0.6303
 5735SOL     OW28663   2.717   2.091  13.451  0.3742 -0.3658  0.0621
 5735SOL    HW128664   2.767   2.062  13.375 -0.9803 -0.1922 -0.8995
 5735SOL    HW228665   2.724   2.186  13.449  1.9376 -0.4180  2.4408
 5736SOL     OW28666   3.502   4.672  13.708 -0.4577  0.3829  0.0425
 5736SOL    HW128667   3.446   4.692  13.783  2.5641  2.7969  1.6643
 5736SOL    HW228668   3.586   4.675  13.754  0.9745  0.5157 -2.5428
 5737SOL     OW28669   4.379   0.007  17.356 -0.1119 -0.0228  0.3288
 5737SOL    HW128670   4.426   0.090  17.364 -1.2529  0.6848 -0.4341
 5737SOL    HW228671   4.377   4.718  17.262  0.4398 -0.1835  0.3416
 5738SOL     OW28672   2.132   4.726  15.203  0.1079  0.4372 -0.1388
 5738SOL    HW128673   2.065   4.659  15.211  1.7688 -1.5315 -2.6970
 5738SOL    HW228674   2.134   0.018  15.109  0.4310  0.0502 -0.2084
 5739SOL     OW28675   2.772   1.432  10.884 -0.2388 -0.2060 -0.3204
 5739SOL    HW128676   2.774   1.433  10.789 -0.9755 -1.8008 -0.3588
 5739SOL    HW228677   2.707   1.363  10.900  0.3284 -0.4096  1.1095
 5740SOL     OW28678   3.730   1.070  10.891  0.0741  0.6746  0.0406
 5740SOL    HW128679   3.772   1.066  10.976 -0.0901  0.3380  0.1058
 5740SOL    HW228680   3.725   1.166  10.891 -0.2852  0.6608 -0.8434
 5741SOL     OW28681   2.223   3.408   1.092  0.2944 -0.4245  0.4092
 5741SOL    HW128682   2.233   3.338   1.156 -0.1416 -0.5217  0.3707
 5741SOL    HW228683   2.217   3.365   1.007  1.0658 -0.4272  0.3594
 5742SOL     OW28684   4.404   2.994   1.080  0.6260  0.0708 -0.2440
 5742SOL    HW128685   4.353   2.990   0.999 -1.3274 -0.5067  1.0338
 5742SOL    HW228686   4.482   3.035   1.042  1.5938 -0.5989  1.0457
 5743SOL     OW28687   2.034   0.090   4.326  0.2484 -0.2144  0.1465
 5743SOL    HW128688   2.039   0.008   4.375  1.5742 -0.0119  0.3521
 5743SOL    HW228689   2.065   0.065   4.239  2.1246  0.2792  0.6799
 5744SOL     OW28690   0.146   4.130  16.988 -0.2518 -0.0313 -0.0202
 5744SOL    HW128691   0.079   4.062  17.001 -0.9160  0.1772 -2.4609
 5744SOL    HW228692   0.192   4.106  16.908  1.6130 -1.2778  1.4101
 5745SOL     OW28693   0.528   1.030  12.640 -0.3160  0.1575  0.2704
 5745SOL    HW128694   0.605   0.993  12.598 -0.2861  1.1040 -0.5147
 5745SOL    HW228695   0.546   1.124  12.637 -1.3150  0.3600  0.6345
 5746SOL     OW28696   3.490   0.757   2.874 -0.5468  0.3549 -0.1629
 5746SOL    HW128697   3.565   0.699   2.883 -1.8720 -1.2779  0.4840
 5746SOL    HW228698   3.513   0.800   2.792  1.8045 -1.4028 -0.4313
 5747SOL     OW28699   1.443   2.750   1.273 -0.1511  0.3525 -0.4495
 5747SOL    HW128700   1.442   2.663   1.232 -1.5467  1.4328 -2.6711
 5747SOL    HW228701   1.520   2.795   1.238  1.7420 -0.1592  2.9405
 5748SOL     OW28702   0.310   1.569  13.973 -0.2711 -0.3905 -0.9985
 5748SOL    HW128703   0.231   1.522  14.000 -0.3188  0.4041  0.2502
 5748SOL    HW228704   0.382   1.546  14.032 -1.1803 -0.5424  0.0605
 5749SOL     OW28705   4.192   2.800   4.515 -0.3883 -0.4960  0.0611
 5749SOL    HW128706   4.198   2.796   4.610  0.6356  0.7664  0.0326
 5749SOL    HW228707   4.255   2.731   4.495  1.5843  1.7551 -1.4942
 5750SOL     OW28708   1.933   1.291  10.054 -0.3407  0.3764  0.3768
 5750SOL    HW128709   2.024   1.262  10.052 -0.8876 -1.1723 -1.7504
 5750SOL    HW228710   1.929   1.270  10.148 -1.0675  0.0644  0.2714
 5751SOL     OW28711   4.087   2.264  15.352 -0.0190 -0.6495 -0.2263
 5751SOL    HW128712   4.121   2.266  15.262 -0.7706 -1.1863 -0.5290
 5751SOL    HW228713   4.048   2.176  15.352 -2.1313  0.2863 -2.1231
 5752SOL     OW28714   0.918   3.502  12.302  0.3372 -0.1153  0.0041
 5752SOL    HW128715   0.975   3.500  12.379  1.5115  2.5316 -0.7716
 5752SOL    HW228716   0.831   3.516  12.340  0.5453  0.9869  0.0731
 5753SOL     OW28717   1.470   2.642   6.414 -0.9398 -0.2506  0.7159
 5753SOL    HW128718   1.417   2.630   6.334 -0.0826  1.2452 -0.0820
 5753SOL    HW228719   1.555   2.600   6.401 -1.0859 -0.1929 -0.4526
 5754SOL     OW28720   0.653   0.235   0.550 -0.1865  0.1256 -0.3659
 5754SOL    HW128721   0.586   0.167   0.539  0.8745 -1.1621  1.1757
 5754SOL    HW228722   0.667   0.232   0.644  2.7510  0.6210 -0.7701
 5755SOL     OW28723   0.377   4.097   0.354 -0.7451 -0.2355  0.6554
 5755SOL    HW128724   0.284   4.109   0.332  0.4612 -0.3410 -4.4733
 5755SOL    HW228725   0.408   4.040   0.283 -0.1128  0.3496  0.4640
 5756SOL     OW28726   1.144   0.778  12.707 -0.3829  0.3416 -0.1487
 5756SOL    HW128727   1.051   0.779  12.683 -0.6309 -0.8269  0.7721
 5756SOL    HW228728   1.192   0.777  12.624  0.8865  4.4280  0.5162
 5757SOL     OW28729   1.426   4.706   3.826  0.6403  0.0389 -0.4771
 5757SOL    HW128730   1.376   0.053   3.863  0.3973 -0.9801  1.2023
 5757SOL    HW228731   1.437   4.648   3.901 -0.0745  1.9145  1.0908
 5758SOL     OW28732   4.522   4.012  17.646  1.1335 -0.4318 -0.3300
 5758SOL    HW128733   4.450   3.957  17.676  1.3064  0.3662  1.5700
 5758SOL    HW228734   4.495   4.041  17.559 -0.5718 -1.3223 -0.1095
 5759SOL     OW28735   0.207   1.350   7.921 -0.2356  0.0847  0.2486
 5759SOL    HW128736   0.302   1.339   7.909  0.0868  0.8476  2.0996
 5759SOL    HW228737   0.173   1.307   7.842 -0.6597  0.0141  0.4710
 5760SOL     OW28738   4.260   3.136   4.847  0.5018  0.3001 -0.0917
 5760SOL    HW128739   4.268   3.105   4.937 -1.0207 -0.7988 -0.3345
 5760SOL    HW228740   4.331   3.199   4.831  1.8124 -0.8826  1.0286
 5761SOL     OW28741   4.133   4.299   8.324  0.5461 -0.1044 -0.4255
 5761SOL    HW128742   4.080   4.220   8.323  1.1384 -0.4929 -0.5270
 5761SOL    HW228743   4.107   4.339   8.408  1.7970 -0.7067  0.2482
 5762SOL     OW28744   3.887   3.527  15.013 -0.3719 -0.2679 -0.2493
 5762SOL    HW128745   3.915   3.448  15.058  0.9767 -1.2523 -2.7830
 5762SOL    HW228746   3.969   3.567  14.983  0.0220 -1.3721 -0.6203
 5763SOL     OW28747   1.419   1.291   6.317  0.0407  0.0946  0.5110
 5763SOL    HW128748   1.413   1.377   6.358  0.1833  0.1481  0.4160
 5763SOL    HW228749   1.482   1.318   6.251  0.7884  3.2006  2.4844
 5764SOL     OW28750   0.471   1.721  11.064  0.3540  0.5724  0.2689
 5764SOL    HW128751   0.460   1.767  11.147  0.9673  2.7924 -0.8803
 5764SOL    HW228752   0.414   1.644  11.057 -0.7648  1.4989 -0.9687
 5765SOL     OW28753   4.336   3.057   5.091 -0.1993 -0.2737  0.7089
 5765SOL    HW128754   4.430   3.067   5.081  0.1930 -2.2295  2.4198
 5765SOL    HW228755   4.343   2.978   5.145  0.0349  0.8288  2.2947
 5766SOL     OW28756   1.454   2.354   6.168  0.1430  0.0163 -0.3648
 5766SOL    HW128757   1.428   2.443   6.144  1.8197  0.6112  0.0616
 5766SOL    HW228758   1.549   2.347   6.159  0.2620  1.1435 -0.0257
 5767SOL     OW28759   4.678   0.193   8.050  0.4217 -0.1366  0.0220
 5767SOL    HW128760   4.721   0.194   7.964  0.1435 -0.3489 -0.1204
 5767SOL    HW228761   0.022   0.224   8.107  0.8444  1.0023 -1.1439
 5768SOL     OW28762   0.666   4.613  12.042  0.1666  0.3294  0.0811
 5768SOL    HW128763   0.690   4.619  11.949  3.2494  0.7370  0.9043
 5768SOL    HW228764   0.594   4.550  12.030 -0.9638  1.7022 -0.3575
 5769SOL     OW28765   4.378   1.863   4.965 -0.3396  0.6840 -0.2005
 5769SOL    HW128766   4.420   1.949   4.960 -1.3626  1.1913  0.0091
 5769SOL    HW228767   4.303   1.882   5.022 -0.2575 -0.7337  0.3962
 5770SOL     OW28768   3.550   2.420   4.414 -0.4359  0.9529 -0.6536
 5770SOL    HW128769   3.480   2.355   4.415 -1.4105  2.0186 -0.2580
 5770SOL    HW228770   3.617   2.391   4.351 -0.3177 -0.0307 -0.0682
 5771SOL     OW28771   3.323   2.859   6.200 -0.6722  0.0507  0.5620
 5771SOL    HW128772   3.249   2.852   6.260 -1.4072 -3.0556 -0.7271
 5771SOL    HW228773   3.392   2.873   6.266  0.7308  1.3201 -1.1624
 5772SOL     OW28774   0.566   3.964   7.868  0.4799 -0.4140 -0.1694
 5772SOL    HW128775   0.485   3.916   7.881 -0.6822  1.5474 -0.1676
 5772SOL    HW228776   0.594   3.981   7.958 -0.6295 -0.1007  0.1184
 5773SOL     OW28777   3.376   1.333  11.165 -0.7377 -0.6726 -0.1933
 5773SOL    HW128778   3.327   1.281  11.228 -1.9512  2.2722  1.3145
 5773SOL    HW228779   3.409   1.272  11.099  2.9378  0.5937  0.4264
 5774SOL     OW28780   0.608   2.900   1.459 -0.2511 -0.7348 -0.1636
 5774SOL    HW128781   0.585   2.811   1.430 -1.0132 -0.3667 -0.7085
 5774SOL    HW228782   0.623   2.891   1.553  0.3933  1.1822 -0.0905
 5775SOL     OW28783   2.767   3.931   2.588 -0.3630 -0.3245 -0.2149
 5775SOL    HW128784   2.676   3.933   2.615 -0.1744 -0.6717  0.4375
 5775SOL    HW228785   2.806   3.854   2.629  0.2534 -0.4773 -1.0826
 5776SOL     OW28786   2.952   1.511   4.589 -0.1714 -0.1264 -0.2855
 5776SOL    HW128787   2.873   1.522   4.640  1.6600 -0.2019  2.5558
 5776SOL    HW228788   2.925   1.470   4.506 -0.6434  2.6877 -1.5377
 5777SOL     OW28789   3.024   0.660   3.366  0.3567 -0.5953 -0.1532
 5777SOL    HW128790   3.071   0.609   3.300 -0.9858  1.1398 -2.3986
 5777SOL    HW228791   2.988   0.728   3.310 -0.3877  0.0937  1.1641
 5778SOL     OW28792   2.194   0.144   7.963 -0.1241  0.4273  0.3057
 5778SOL    HW128793   2.170   0.115   7.875 -0.6892  1.5791  0.0801
 5778SOL    HW228794   2.290   0.144   7.957 -0.1973 -0.2406 -0.9509
 5779SOL     OW28795   3.972   2.137   5.513 -0.1564 -0.3477 -0.1563
 5779SOL    HW128796   3.987   2.097   5.598  0.5804 -0.1537 -0.1932
 5779SOL    HW228797   3.964   2.056   5.462  0.4799  0.2599 -1.2458
 5780SOL     OW28798   4.294   0.339   2.659 -0.0387 -0.2846  0.3876
 5780SOL    HW128799   4.204   0.330   2.626  0.2241  0.9548 -0.6769
 5780SOL    HW228800   4.284   0.417   2.713  0.2844 -0.8175  1.2054
 5781SOL     OW28801   3.072   4.356   3.372 -0.8142 -0.2421  0.0988
 5781SOL    HW128802   2.989   4.397   3.395 -0.6290 -0.4098  1.0567
 5781SOL    HW228803   3.125   4.408   3.432 -2.0696 -1.1164  1.9736
 5782SOL     OW28804   0.572   0.261   6.326 -0.2778 -0.0850 -0.3612
 5782SOL    HW128805   0.571   0.202   6.250 -0.0658 -0.5952  0.0373
 5782SOL    HW228806   0.489   0.306   6.309 -1.0318 -0.8409  1.4056
 5783SOL     OW28807   1.539   1.062   5.143  0.3315 -0.5577 -0.4797
 5783SOL    HW128808   1.530   0.974   5.106 -1.6883 -0.7547  0.5068
 5783SOL    HW228809   1.584   1.110   5.073  0.9707 -2.4394 -1.3527
 5784SOL     OW28810   4.324   1.818   8.904 -0.1718  0.4839 -0.2259
 5784SOL    HW128811   4.342   1.834   8.812  0.6105  0.8897 -0.0076
 5784SOL    HW228812   4.387   1.881   8.939 -0.4468 -1.0539  3.1457
 5785SOL     OW28813   3.059   2.204   8.348 -0.0324  0.0490 -0.6453
 5785SOL    HW128814   2.992   2.268   8.371 -0.0805 -0.3708  0.4213
 5785SOL    HW228815   3.138   2.250   8.321  0.3849 -0.4383 -0.2599
 5786SOL     OW28816   1.303   4.058   0.209 -0.0967 -0.2255 -0.8317
 5786SOL    HW128817   1.280   4.070   0.117 -0.3509  1.0833 -0.5866
 5786SOL    HW228818   1.398   4.045   0.216  0.0677  1.1278 -0.6081
 5787SOL     OW28819   3.612   2.980   6.169 -0.2626 -0.5295 -0.5580
 5787SOL    HW128820   3.590   2.926   6.246  1.4977 -2.6815 -1.5508
 5787SOL    HW228821   3.580   3.066   6.193  0.7829  0.0386 -1.2229
 5788SOL     OW28822   2.021   1.652   8.835  0.0625  0.2440 -0.3475
 5788SOL    HW128823   2.042   1.637   8.742 -0.9975 -0.4929 -0.4636
 5788SOL    HW228824   2.100   1.613   8.873 -0.3293  1.2205  1.4370
 5789SOL     OW28825   2.852   3.610   2.263  0.3224 -0.0298  0.2443
 5789SOL    HW128826   2.939   3.638   2.292 -0.1012  0.9342  0.6054
 5789SOL    HW228827   2.803   3.659   2.330  1.1668  1.1154  0.0347
 5790SOL     OW28828   2.387   4.665   5.906  0.0525 -0.0909  0.7831
 5790SOL    HW128829   2.431   0.020   5.880 -0.6446 -0.2632 -0.9425
 5790SOL    HW228830   2.337   4.695   5.982 -1.0842 -0.3893  0.1588
 5791SOL     OW28831   1.855   0.062   8.631  0.0522  0.0478 -0.3226
 5791SOL    HW128832   1.939   0.016   8.628  0.2737  0.4784 -0.6978
 5791SOL    HW228833   1.863   0.105   8.547 -0.1778 -0.2204 -0.4854
 5792SOL     OW28834   2.680   0.172  15.902 -0.2453  0.1428 -0.5285
 5792SOL    HW128835   2.761   0.122  15.910 -0.9810 -1.0239 -0.3121
 5792SOL    HW228836   2.618   0.107  15.869  1.0080  0.0665 -2.7791
 5793SOL     OW28837   2.188   0.797  12.760  0.0062  0.3936  0.1931
 5793SOL    HW128838   2.172   0.715  12.714 -0.1908  0.6916 -0.2682
 5793SOL    HW228839   2.279   0.820  12.743  0.4616 -0.7239  1.1273
 5794SOL     OW28840   1.561   4.350   7.508 -0.0622 -0.2253 -0.2384
 5794SOL    HW128841   1.512   4.365   7.589 -1.4141  1.1118 -1.3270
 5794SOL    HW228842   1.508   4.281   7.468 -1.0713  0.5845 -0.2955
 5795SOL     OW28843   0.890   1.260   3.444 -0.3617 -0.0815  0.2038
 5795SOL    HW128844   0.934   1.229   3.365 -0.2160 -0.3305  0.3845
 5795SOL    HW228845   0.942   1.217   3.512  0.0283  1.4460  0.8531
 5796SOL     OW28846   1.146   0.675   7.364  0.1168  0.7739  0.3547
 5796SOL    HW128847   1.060   0.709   7.340  1.2704  3.1016 -0.4155
 5796SOL    HW228848   1.201   0.753   7.369 -0.3230  1.3112 -2.9693
 5797SOL     OW28849   0.057   4.689  17.010  0.9213  0.3584  0.2864
 5797SOL    HW128850   0.122   4.660  16.947  1.8616  0.4582  1.2113
 5797SOL    HW228851   0.094   4.651  17.090  1.2576  0.6538  0.2670
 5798SOL     OW28852   4.064   4.414   6.238 -0.1439  0.4637 -0.3065
 5798SOL    HW128853   4.003   4.357   6.283 -0.1520 -0.0698 -0.9961
 5798SOL    HW228854   4.016   4.421   6.155 -1.5179 -0.9597  0.3644
 5799SOL     OW28855   3.365   4.129   6.620  0.5896  0.4263  0.0614
 5799SOL    HW128856   3.269   4.134   6.624  0.6547  0.4869  1.5897
 5799SOL    HW228857   3.384   4.215   6.582 -2.3046  1.7985  1.6283
 5800SOL     OW28858   3.788   3.980   4.316 -0.0151 -0.3698 -0.4419
 5800SOL    HW128859   3.874   4.023   4.309  0.1518 -0.9604 -1.8582
 5800SOL    HW228860   3.799   3.895   4.274 -2.2335 -1.9652  2.2337
 5801SOL     OW28861   3.150   0.397  16.190 -0.0856 -0.3014 -0.2189
 5801SOL    HW128862   3.058   0.391  16.165 -0.4192  2.5221  0.3540
 5801SOL    HW228863   3.194   0.425  16.110 -0.5157 -0.1272 -0.3923
 5802SOL     OW28864   0.734   0.606   3.451 -0.2244  0.3017  0.1633
 5802SOL    HW128865   0.786   0.666   3.504  0.3845  2.4330 -2.8419
 5802SOL    HW228866   0.742   0.534   3.513 -0.2528  0.3822  0.2616
 5803SOL     OW28867   1.859   0.870   4.329 -0.4602 -0.1393  0.1861
 5803SOL    HW128868   1.784   0.878   4.270 -0.2559 -0.4028 -0.1059
 5803SOL    HW228869   1.868   0.777   4.346 -3.0987 -0.3479  0.5223
 5804SOL     OW28870   1.212   1.124   7.694  0.3504  0.3757  0.3268
 5804SOL    HW128871   1.119   1.117   7.714  0.2001 -0.8705 -0.8379
 5804SOL    HW228872   1.252   1.038   7.708 -0.3435 -0.1811 -1.1969
 5805SOL     OW28873   2.527   3.168  11.878  0.4607 -0.6876  0.3939
 5805SOL    HW128874   2.524   3.221  11.798 -2.0018 -0.8299  0.3917
 5805SOL    HW228875   2.484   3.227  11.940 -0.3300 -0.6535 -0.1803
 5806SOL     OW28876   1.799   0.427   5.199 -0.7539 -0.1449 -0.2360
 5806SOL    HW128877   1.743   0.505   5.197  1.5770  1.5367  0.1893
 5806SOL    HW228878   1.801   0.406   5.292 -0.8208  1.1625  0.0563
 5807SOL     OW28879   1.544   3.354   8.333  0.7317  0.1520  0.0898
 5807SOL    HW128880   1.631   3.351   8.293  0.8848 -0.9100  0.5015
 5807SOL    HW228881   1.577   3.397   8.412 -2.0254  2.3689  0.0353
 5808SOL     OW28882   0.275   1.082  16.889  0.3016 -0.0274 -0.8390
 5808SOL    HW128883   0.269   1.176  16.906  1.3415  0.1471 -1.4241
 5808SOL    HW228884   0.217   1.072  16.813 -0.0718  0.9816 -0.6914
 5809SOL     OW28885   0.199   2.461   1.709  0.3750  0.5340 -0.1675
 5809SOL    HW128886   0.110   2.429   1.720  0.2165  2.3370  3.7833
 5809SOL    HW228887   0.178   2.531   1.646 -0.2555  0.9711  0.5341
 5810SOL     OW28888   1.032   0.764   1.138 -0.5936  0.2171 -0.7430
 5810SOL    HW128889   1.098   0.804   1.194 -1.7243 -0.4936  1.0948
 5810SOL    HW228890   0.993   0.841   1.098 -1.5947  0.6898  1.2048
 5811SOL     OW28891   2.342   1.939   4.113  0.0944  0.6394 -0.4356
 5811SOL    HW128892   2.424   1.891   4.122 -0.1802  0.3582  0.6064
 5811SOL    HW228893   2.353   1.975   4.025 -0.3104  1.0353 -0.3254
 5812SOL     OW28894   1.548   1.983  12.234 -0.2096  1.2077  0.2379
 5812SOL    HW128895   1.495   2.050  12.191 -1.6679  1.0476  1.7622
 5812SOL    HW228896   1.634   2.022  12.220  0.6262 -0.6636  0.0938
 5813SOL     OW28897   1.362   3.506  16.899  0.9929  0.5099 -0.1236
 5813SOL    HW128898   1.404   3.420  16.902  2.0452  1.0499  0.6052
 5813SOL    HW228899   1.337   3.516  16.991  1.0323  1.2555 -0.1987
 5814SOL     OW28900   3.187   3.700  17.016  0.1569 -0.6190 -0.2925
 5814SOL    HW128901   3.209   3.616  17.056 -0.6456 -0.3306  0.7569
 5814SOL    HW228902   3.091   3.703  17.016  0.1425 -0.1560 -3.5295
 5815SOL     OW28903   1.092   4.607  14.249  0.1188 -0.2447 -0.6045
 5815SOL    HW128904   1.102   4.567  14.162  1.5438 -2.8297  0.7514
 5815SOL    HW228905   1.172   4.659  14.259 -0.9675  1.0524  1.2346
 5816SOL     OW28906   0.095   1.600   4.472  0.3018  0.0042 -0.2865
 5816SOL    HW128907   0.039   1.526   4.449  2.1423 -0.6103 -2.6902
 5816SOL    HW228908   0.103   1.639   4.385  1.5098 -2.3281 -1.2035
 5817SOL     OW28909   2.787   0.665   6.123  0.2540  0.4052  0.0420
 5817SOL    HW128910   2.871   0.685   6.164  1.2534  0.2368 -1.8884
 5817SOL    HW228911   2.797   0.574   6.096 -1.0187 -0.1841  1.5542
 5818SOL     OW28912   2.833   3.727   3.401  0.2405 -0.2955  0.1642
 5818SOL    HW128913   2.920   3.766   3.399  0.1045  0.0248  0.4591
 5818SOL    HW228914   2.793   3.798   3.351 -1.0563 -0.6820  0.6473
 5819SOL     OW28915   0.463   0.646  13.159  0.5113  0.1377  0.3001
 5819SOL    HW128916   0.558   0.638  13.146  0.3806 -0.5570 -0.2256
 5819SOL    HW228917   0.447   0.564  13.207  1.0727 -0.0107  0.2385
 5820SOL     OW28918   1.223   2.718   6.763 -0.0038 -0.4660  0.0295
 5820SOL    HW128919   1.308   2.754   6.787 -0.4418  1.5038 -1.3459
 5820SOL    HW228920   1.243   2.634   6.722  2.1452 -0.8877  2.0085
 5821SOL     OW28921   3.205   2.485   3.423  0.1796 -0.2378  0.0474
 5821SOL    HW128922   3.110   2.497   3.420  0.3333  0.9256 -0.4523
 5821SOL    HW228923   3.227   2.459   3.334 -1.1112 -0.5538 -0.1860
 5822SOL     OW28924   3.430   2.574   4.061  0.2450 -0.8043  0.2425
 5822SOL    HW128925   3.366   2.525   4.010  0.1661 -0.5949  0.1431
 5822SOL    HW228926   3.386   2.655   4.088  1.2380 -0.6402  1.3838
 5823SOL     OW28927   0.894   3.781   4.667 -0.1137  0.0896  0.3320
 5823SOL    HW128928   0.898   3.835   4.746 -0.0345  1.6485 -0.7580
 5823SOL    HW228929   0.809   3.789   4.623  0.3213  1.6955 -0.1842
 5824SOL     OW28930   3.381   3.261   2.565 -0.4410  0.6569 -0.3020
 5824SOL    HW128931   3.464   3.290   2.602  0.3266 -1.2230 -0.5904
 5824SOL    HW228932   3.415   3.225   2.483  1.8739 -0.6435  1.2308
 5825SOL     OW28933   2.944   3.931   5.694  0.3498 -0.0437 -0.7930
 5825SOL    HW128934   2.989   4.009   5.662  0.3936  0.6378  0.9015
 5825SOL    HW228935   2.852   3.951   5.674  0.4134 -0.4017 -1.4159
 5826SOL     OW28936   0.398   0.639   6.619 -0.4059  0.1639 -0.2457
 5826SOL    HW128937   0.339   0.713   6.636 -0.8409 -0.2928  0.2176
 5826SOL    HW228938   0.343   0.568   6.585 -0.6639  0.3277 -0.1734
 5827SOL     OW28939   3.864   4.400  14.998  0.7654  0.3005  0.2162
 5827SOL    HW128940   3.889   4.491  14.981 -1.3624  0.6602 -0.8984
 5827SOL    HW228941   3.792   4.417  15.058  1.1233  0.5516  0.5736
 5828SOL     OW28942   3.297   2.361  14.570  0.3342  0.2189  0.8157
 5828SOL    HW128943   3.265   2.284  14.616  1.5851  0.5034  2.1632
 5828SOL    HW228944   3.220   2.405  14.535  0.3093 -1.8556 -1.6839
 5829SOL     OW28945   0.875   1.452   2.155  0.1993  0.5839 -0.3801
 5829SOL    HW128946   0.817   1.381   2.183 -2.1609  1.6698 -2.4842
 5829SOL    HW228947   0.965   1.425   2.170 -0.4494 -0.3267  1.8485
 5830SOL     OW28948   3.566   2.729   4.374 -0.4248 -0.6034  0.5611
 5830SOL    HW128949   3.578   2.773   4.290  1.7982 -1.0604  0.6417
 5830SOL    HW228950   3.541   2.640   4.347 -0.4589 -0.5137  0.2965
 5831SOL     OW28951   2.626   2.720   4.867  0.0818 -0.2162 -0.0099
 5831SOL    HW128952   2.687   2.740   4.796 -1.9045 -0.6645 -1.8389
 5831SOL    HW228953   2.568   2.655   4.827 -0.5895 -1.1322  2.4070
 5832SOL     OW28954   2.247   2.169   3.084  0.1604 -0.3654 -0.3217
 5832SOL    HW128955   2.234   2.240   3.021 -1.1374 -0.7330 -0.4762
 5832SOL    HW228956   2.228   2.201   3.172 -1.6671  0.7359 -1.1085
 5833SOL     OW28957   0.907   1.019  15.582  1.0453 -0.2112  0.0699
 5833SOL    HW128958   0.908   0.965  15.503  1.3554  1.2755 -0.9545
 5833SOL    HW228959   0.819   1.056  15.588 -0.0165 -2.2470 -3.0992
 5834SOL     OW28960   4.480   4.055  14.362 -0.2787  0.1594 -0.1568
 5834SOL    HW128961   4.414   4.119  14.334 -0.9284 -1.3501 -2.0165
 5834SOL    HW228962   4.540   4.059  14.287  0.4331  0.2676  0.4283
 5835SOL     OW28963   0.030   4.680   3.561 -0.2165 -0.0258 -0.0760
 5835SOL    HW128964   4.720   4.698   3.648 -1.1262 -1.4647 -0.1709
 5835SOL    HW228965   0.122   4.704   3.572 -0.5267  1.4339 -0.5588
 5836SOL     OW28966   1.812   0.295   3.218 -0.1305  0.3331  0.2822
 5836SOL    HW128967   1.890   0.277   3.270  1.0735  1.7013 -1.0676
 5836SOL    HW228968   1.754   0.231   3.260  2.1729 -0.8136  1.7010
 5837SOL     OW28969   0.731   3.869   6.017  0.5408 -0.0289  0.0543
 5837SOL    HW128970   0.674   3.945   6.028  0.8125  0.2209 -0.2653
 5837SOL    HW228971   0.661   3.808   5.993  1.6926 -0.9776 -0.8879
 5838SOL     OW28972   0.066   4.674   3.090 -0.1977  0.1508 -0.3296
 5838SOL    HW128973   0.033   4.643   3.174  0.9498  1.4408  0.5928
 5838SOL    HW228974   4.709   4.669   3.044 -0.4900 -0.3393  0.2601
 5839SOL     OW28975   3.125   1.333   4.750 -0.0800 -0.1096 -0.1290
 5839SOL    HW128976   3.150   1.274   4.679 -0.3841  1.1038 -1.2365
 5839SOL    HW228977   3.076   1.401   4.704 -0.2436 -0.6002 -0.6784
 5840SOL     OW28978   0.842   2.893  12.328  0.0836 -0.4149  0.9054
 5840SOL    HW128979   0.830   2.805  12.364 -0.8933 -0.8576 -0.4691
 5840SOL    HW228980   0.760   2.940  12.344  0.7518  1.1770 -0.2567
 5841SOL     OW28981   3.628   3.877  16.592  0.4248  0.4369 -0.4536
 5841SOL    HW128982   3.663   3.953  16.638  0.2988  0.4135 -0.3200
 5841SOL    HW228983   3.542   3.905  16.561  2.0062  3.2768 -2.1994
 5842SOL     OW28984   1.344   3.123   2.534 -0.4192  0.2890 -0.0999
 5842SOL    HW128985   1.414   3.182   2.508  0.3956 -0.6140  0.0175
 5842SOL    HW228986   1.275   3.154   2.476  1.0239  1.5760 -1.1307
 5843SOL     OW28987   3.248   3.255   5.422 -0.0109 -0.8382  0.0108
 5843SOL    HW128988   3.198   3.278   5.500  0.8957  0.9914  0.0596
 5843SOL    HW228989   3.240   3.160   5.415  0.6201 -0.7469 -1.8705
 5844SOL     OW28990   2.076   0.574   5.848  0.5560  0.0818 -0.2970
 5844SOL    HW128991   2.045   0.663   5.863  1.1387  0.1654  0.3712
 5844SOL    HW228992   2.170   0.583   5.864  0.7943  0.1671 -1.7508
 5845SOL     OW28993   3.582   2.321   5.354  0.2905 -0.0917 -0.1097
 5845SOL    HW128994   3.626   2.238   5.338  1.1979  1.0899 -3.7839
 5845SOL    HW228995   3.532   2.345   5.276 -1.8790 -1.2003  0.9549
 5846SOL     OW28996   4.586   0.619   8.802  0.6544 -0.0000 -0.4718
 5846SOL    HW128997   4.594   0.686   8.870 -2.5827  1.3342 -1.4076
 5846SOL    HW228998   4.675   0.586   8.791  0.4386  0.1991 -2.9230
 5847SOL     OW28999   1.541   3.276  16.418 -0.5676  0.6646  0.2466
 5847SOL    HW129000   1.458   3.274  16.370 -1.2160  1.0157  1.3443
 5847SOL    HW229001   1.513   3.305  16.505  1.5174 -0.8965  1.4666
 5848SOL     OW29002   3.069   3.707  10.381 -0.3032 -0.5457  0.2122
 5848SOL    HW129003   3.052   3.761  10.458 -0.6872  0.6069 -0.6789
 5848SOL    HW229004   3.151   3.659  10.395 -0.9791 -1.7272  0.0271
 5849SOL     OW29005   2.165   2.058   3.843 -0.1129 -0.3815 -0.7800
 5849SOL    HW129006   2.203   1.991   3.787 -1.8622 -1.1003 -1.1036
 5849SOL    HW229007   2.093   2.082   3.784 -0.2092  1.8992  0.2424
 5850SOL     OW29008   3.638   1.891   2.440  0.3300 -0.0912 -0.0029
 5850SOL    HW129009   3.654   1.981   2.469 -1.0165 -0.3290  1.4635
 5850SOL    HW229010   3.694   1.853   2.507  2.9921  1.0009 -1.5869
 5851SOL     OW29011   0.231   0.444   6.506  0.3058  0.2454 -0.2933
 5851SOL    HW129012   0.258   0.437   6.415 -0.3119  0.4427 -0.4862
 5851SOL    HW229013   0.140   0.416   6.508 -0.3401  2.4084 -0.2073
 5852SOL     OW29014   0.829   3.746   5.113  0.5369 -0.3162  0.3195
 5852SOL    HW129015   0.906   3.755   5.169  0.4276 -1.6867  0.6855
 5852SOL    HW229016   0.862   3.770   5.026 -1.9321  0.3867 -0.4275
 5853SOL     OW29017   3.201   3.369  14.460  0.5829  0.4832  0.1947
 5853SOL    HW129018   3.146   3.365  14.381  2.1180 -0.5389 -0.8098
 5853SOL    HW229019   3.227   3.461  14.456  1.3825  0.3069  1.4892
 5854SOL     OW29020   3.780   0.410   0.438  0.2638 -0.0840  0.5910
 5854SOL    HW129021   3.844   0.431   0.370 -0.5936  0.0661 -0.1745
 5854SOL    HW229022   3.716   0.368   0.381  2.3192  0.2793 -2.0032
 5855SOL     OW29023   1.289   0.767  14.372  0.1777 -0.7379 -0.1161
 5855SOL    HW129024   1.328   0.769  14.285  0.5603 -1.3266  0.0453
 5855SOL    HW229025   1.359   0.810  14.421 -0.3040 -1.0256  0.8183
 5856SOL     OW29026   1.293   0.010  12.760  0.3415  0.5188 -0.2335
 5856SOL    HW129027   1.284   0.061  12.841 -0.5934 -1.4244  0.9035
 5856SOL    HW229028   1.379   4.696  12.775  0.1012 -0.4345 -1.4209
 5857SOL     OW29029   0.155   3.362  11.418  0.2167 -0.4932 -0.3473
 5857SOL    HW129030   0.248   3.356  11.442 -0.4690 -1.6501  1.9450
 5857SOL    HW229031   0.163   3.451  11.382  1.0100 -0.3462  0.1888
 5858SOL     OW29032   0.365   3.463   4.927 -0.1194  0.1816  0.0309
 5858SOL    HW129033   0.289   3.406   4.918 -0.2618  0.2335  0.8765
 5858SOL    HW229034   0.344   3.544   4.880  0.2112 -0.2079 -0.7838
 5859SOL     OW29035   1.230   1.780   5.104  0.1966  0.3138  0.6067
 5859SOL    HW129036   1.297   1.713   5.087 -0.0544  0.4511 -0.9007
 5859SOL    HW229037   1.181   1.751   5.181 -0.5170 -0.1648 -0.0326
 5860SOL     OW29038   2.979   0.258   8.781 -0.0852 -0.1801  0.4321
 5860SOL    HW129039   2.979   0.209   8.699 -0.2311  3.1561 -1.5383
 5860SOL    HW229040   2.961   0.190   8.846  0.8052 -0.5952  0.2413
 5861SOL     OW29041   4.137   2.301  10.219  0.1841  0.0726  0.8207
 5861SOL    HW129042   4.134   2.254  10.302 -0.7745  0.0208  0.7577
 5861SOL    HW229043   4.231   2.299  10.206  0.1440 -0.8622  0.7425
 5862SOL     OW29044   3.302   1.660   9.224 -0.5855  0.2567  0.7686
 5862SOL    HW129045   3.270   1.715   9.296 -2.5057 -0.1069  0.1821
 5862SOL    HW229046   3.223   1.608   9.209 -0.4220  0.7459 -1.6994
 5863SOL     OW29047   1.562   1.282   8.429 -0.1840  0.1432  0.1531
 5863SOL    HW129048   1.577   1.199   8.474  1.5880  0.9808  1.0984
 5863SOL    HW229049   1.606   1.269   8.345  1.9700 -0.4672  1.3832
 5864SOL     OW29050   0.462   2.544   5.085 -0.1243 -0.1585  0.3372
 5864SOL    HW129051   0.507   2.460   5.079 -0.3655 -0.0634 -2.5298
 5864SOL    HW229052   0.527   2.604   5.049  3.3361 -2.2664  3.1039
 5865SOL     OW29053   2.358   3.580  14.354 -0.2887  0.0589  0.3623
 5865SOL    HW129054   2.269   3.612  14.367  0.6579  2.1201  1.8168
 5865SOL    HW229055   2.347   3.501  14.407 -0.0385 -1.3884 -1.7502
 5866SOL     OW29056   1.518   2.495   8.279  0.3055  0.6819 -0.2674
 5866SOL    HW129057   1.470   2.456   8.206 -2.2281 -1.6107  2.6026
 5866SOL    HW229058   1.439   2.528   8.321 -0.0579 -4.2990  3.0078
 5867SOL     OW29059   0.175   0.302   0.476 -0.1387 -0.1846 -0.1443
 5867SOL    HW129060   0.224   0.226   0.445  0.4309  1.3804 -3.0663
 5867SOL    HW229061   0.089   0.281   0.440 -0.1907 -0.2646  0.0272
 5868SOL     OW29062   3.374   2.603   6.038  0.2106 -0.6478  0.5246
 5868SOL    HW129063   3.363   2.662   6.114  1.0291 -1.4798  1.2875
 5868SOL    HW229064   3.294   2.630   5.993  1.2998 -0.2308 -1.1400
 5869SOL     OW29065   4.574   2.244  11.365 -0.6545 -0.4972 -0.3621
 5869SOL    HW129066   4.600   2.323  11.411 -1.4626 -1.1537  1.2460
 5869SOL    HW229067   4.653   2.223  11.316  1.8275  0.6606  3.1643
 5870SOL     OW29068   1.158   0.100   3.484  0.5723  0.5062  0.1884
 5870SOL    HW129069   1.210   0.031   3.524  0.4525  0.2307 -0.1301
 5870SOL    HW229070   1.103   0.113   3.561 -1.6881 -0.3630 -1.2824
 5871SOL     OW29071   0.018   1.427  10.248 -0.0427  0.1156  0.1245
 5871SOL    HW129072   4.651   1.420  10.268 -0.1817 -2.2451 -1.3012
 5871SOL    HW229073   0.030   1.434  10.153  2.5262 -0.8732  0.3547
 5872SOL     OW29074   2.842   1.398  11.485 -0.3638  0.5144 -0.4281
 5872SOL    HW129075   2.808   1.364  11.402 -1.9618 -1.8658  1.2009
 5872SOL    HW229076   2.770   1.380  11.546  0.2240  0.4892  0.2612
 5873SOL     OW29077   1.373   0.167  15.450 -0.0192  0.1596  0.2195
 5873SOL    HW129078   1.394   0.205  15.365  0.6913  0.4689  0.5341
 5873SOL    HW229079   1.293   0.124  15.419 -0.5981  0.4061  1.3731
 5874SOL     OW29080   2.707   4.506   3.671  0.2906 -0.3755  0.2367
 5874SOL    HW129081   2.618   4.485   3.699 -0.4208  1.7852 -0.4709
 5874SOL    HW229082   2.735   4.551   3.751  0.1451 -0.7608  0.5034
 5875SOL     OW29083   4.084   1.746  14.393  0.3299  0.0851  0.1683
 5875SOL    HW129084   4.024   1.678  14.424  1.8552 -1.7644 -0.9756
 5875SOL    HW229085   4.031   1.825  14.384 -2.4364 -1.5635  1.7965
 5876SOL     OW29086   3.098   0.021   1.818 -0.0983  0.7457 -0.6695
 5876SOL    HW129087   3.005   0.032   1.839 -0.1305 -0.3864 -0.2504
 5876SOL    HW229088   3.097   0.057   1.729 -0.7298 -1.9280 -1.7458
 5877SOL     OW29089   4.495   1.463   4.425  0.2528  0.4501 -0.1295
 5877SOL    HW129090   4.496   1.371   4.450 -1.3844  0.2395 -0.8464
 5877SOL    HW229091   4.496   1.497   4.514 -1.7663  1.1393 -0.3877
 5878SOL     OW29092   2.296   2.468  16.401  0.4232 -0.0637 -0.4032
 5878SOL    HW129093   2.386   2.442  16.416  0.3906 -1.4842 -2.6329
 5878SOL    HW229094   2.292   2.443  16.308 -2.0235  1.1546 -0.6312
 5879SOL     OW29095   0.502   0.228  16.740 -0.3379 -0.3942 -0.7671
 5879SOL    HW129096   0.578   0.171  16.753  0.2984  0.2584 -1.6146
 5879SOL    HW229097   0.439   0.165  16.705 -0.0174 -1.5267  0.6859
 5880SOL     OW29098   0.726   3.063   8.711 -0.2066 -0.5300  0.2283
 5880SOL    HW129099   0.657   3.010   8.671  0.1009  0.3915 -1.4890
 5880SOL    HW229100   0.778   2.997   8.757 -0.2958  0.0875  1.2102
 5881SOL     OW29101   0.346   3.771   1.342  0.2785  0.2546 -0.0504
 5881SOL    HW129102   0.309   3.730   1.264  0.4155 -0.9424  0.5237
 5881SOL    HW229103   0.401   3.835   1.295  2.5626  0.3056  2.6893
 5882SOL     OW29104   3.977   2.607  15.758 -0.7422 -0.8848 -0.0715
 5882SOL    HW129105   4.034   2.566  15.693  0.2820  0.1274  0.1910
 5882SOL    HW229106   3.899   2.594  15.705  0.4708 -0.8234 -1.8686
 5883SOL     OW29107   0.383   4.525   0.733  0.4107  0.2312  0.1500
 5883SOL    HW129108   0.413   4.566   0.652  0.5445  0.5087  0.3418
 5883SOL    HW229109   0.353   4.436   0.712  2.2716 -0.6262  1.1352
 5884SOL     OW29110   1.011   0.840   5.222 -0.2653  0.4744 -0.1533
 5884SOL    HW129111   0.956   0.761   5.222  0.5549 -0.0887  1.4007
 5884SOL    HW229112   0.942   0.900   5.251  1.8555  2.3037  1.1440
 5885SOL     OW29113   4.617   2.812   2.698  0.0768 -0.4479  0.0182
 5885SOL    HW129114   4.696   2.817   2.644  0.4888 -0.9590  0.5821
 5885SOL    HW229115   4.553   2.812   2.626  1.7077 -0.5590 -1.4251
 5886SOL     OW29116   1.210   2.565   8.017 -0.5737 -0.0906 -0.3265
 5886SOL    HW129117   1.132   2.601   7.976 -1.1150 -0.2982  0.5488
 5886SOL    HW229118   1.262   2.645   8.020 -1.7579  0.6188  0.9520
 5887SOL     OW29119   4.038   1.078   5.538  0.3733  0.0684  0.0747
 5887SOL    HW129120   3.943   1.080   5.524  0.2470  0.5493  1.0492
 5887SOL    HW229121   4.053   1.107   5.448 -0.5015 -2.9653 -1.0483
 5888SOL     OW29122   3.305   1.114   8.263 -0.1267  0.5513 -0.2099
 5888SOL    HW129123   3.266   1.124   8.349  3.0702 -0.4637  1.3423
 5888SOL    HW229124   3.312   1.018   8.264  0.1369  0.5970  1.6727
 5889SOL     OW29125   2.457   3.604   9.426 -0.4187  0.0191  0.1914
 5889SOL    HW129126   2.543   3.589   9.387 -0.4118 -3.1972  1.4462
 5889SOL    HW229127   2.453   3.538   9.496  0.4490 -1.1959 -0.9203
 5890SOL     OW29128   3.228   2.434  15.385  0.3944  0.3464 -0.1378
 5890SOL    HW129129   3.218   2.484  15.304  0.2527  1.7578  0.7393
 5890SOL    HW229130   3.310   2.389  15.364 -0.7231 -2.5264  1.6997
 5891SOL     OW29131   2.045   1.445  11.443 -0.1069 -0.3966  0.3199
 5891SOL    HW129132   2.070   1.364  11.399 -2.5053 -0.9094 -0.1183
 5891SOL    HW229133   2.130   1.488  11.451  0.3900 -1.3800  0.4085
 5892SOL     OW29134   4.278   0.092   8.189 -0.0197 -0.1046 -0.4994
 5892SOL    HW129135   4.192   0.068   8.223  0.2816 -1.2874 -0.5913
 5892SOL    HW229136   4.303   0.003   8.163 -1.9613 -0.5446 -0.8544
 5893SOL     OW29137   1.172   1.989   4.507 -0.0240 -0.2462  0.0745
 5893SOL    HW129138   1.091   1.988   4.558 -0.4540  0.6457 -0.5822
 5893SOL    HW229139   1.139   1.963   4.421  2.6133 -0.9411 -0.7348
 5894SOL     OW29140   4.112   2.233   5.935 -0.3083  0.1901  0.9008
 5894SOL    HW129141   4.068   2.308   5.976 -2.2529 -0.6826  0.3901
 5894SOL    HW229142   4.197   2.255   5.973 -0.3615 -0.5494  1.4541
 5895SOL     OW29143   0.799   1.008   2.432 -0.4914  0.0338 -0.3751
 5895SOL    HW129144   0.856   1.084   2.424  0.7824 -0.8280  0.4382
 5895SOL    HW229145   0.802   0.972   2.343 -0.3041  0.1797 -0.4285
 5896SOL     OW29146   4.230   0.476  17.334  0.0293 -0.1847 -1.1072
 5896SOL    HW129147   4.219   0.564  17.298 -0.1796 -0.5807 -2.0057
 5896SOL    HW229148   4.311   0.451  17.289  1.1950  1.8828 -0.1878
 5897SOL     OW29149   2.284   1.177   8.601 -0.4448 -0.5703 -0.2169
 5897SOL    HW129150   2.323   1.187   8.688 -3.3196 -2.3754  1.2827
 5897SOL    HW229151   2.361   1.170   8.546  0.6741  3.6146  0.8327
 5898SOL     OW29152   4.583   0.123   6.529  0.7265  0.1217  0.0312
 5898SOL    HW129153   4.497   0.135   6.569  0.7228  1.2100 -0.2884
 5898SOL    HW229154   4.577   0.172   6.447 -0.1487  0.6699  0.4127
 5899SOL     OW29155   0.972   4.087  16.497 -0.1871  0.4295 -0.3647
 5899SOL    HW129156   0.908   4.046  16.555 -1.2242 -0.0553 -1.8470
 5899SOL    HW229157   1.025   4.138  16.559 -0.3816 -0.5096  0.5676
 5900SOL     OW29158   0.945   1.864   8.988  0.3652 -0.7834  0.2797
 5900SOL    HW129159   1.040   1.863   8.994  0.1682 -1.8677  3.1510
 5900SOL    HW229160   0.923   1.793   9.048 -2.2620 -0.6642 -0.5162
 5901SOL     OW29161   4.309   1.837  14.986 -0.1651 -0.2212 -0.2552
 5901SOL    HW129162   4.227   1.790  14.999 -0.5535  1.0861  2.2272
 5901SOL    HW229163   4.336   1.795  14.905  1.9878 -0.0296  0.3661
 5902SOL     OW29164   3.161   0.759  13.839 -0.3927  0.1132  0.5344
 5902SOL    HW129165   3.141   0.845  13.802  0.8402  0.0713 -0.2370
 5902SOL    HW229166   3.147   0.702  13.763 -4.0533  1.6756  0.0731
 5903SOL     OW29167   3.198   1.616   7.672  0.5477  0.1211 -0.2671
 5903SOL    HW129168   3.134   1.629   7.742  0.8936 -1.3123  0.3176
 5903SOL    HW229169   3.210   1.710   7.657  2.1435  0.4323  2.8064
 5904SOL     OW29170   1.913   0.368  11.509 -0.3816  0.5526 -0.4528
 5904SOL    HW129171   2.001   0.404  11.498 -0.1418  1.4210  3.9962
 5904SOL    HW229172   1.917   0.273  11.507  0.2398  0.4888  3.2011
 5905SOL     OW29173   4.030   0.406   5.981  0.4010  0.1833  0.0488
 5905SOL    HW129174   4.025   0.341   6.050 -0.9580 -2.0953 -2.2117
 5905SOL    HW229175   4.052   0.481   6.036  2.8575  0.1277 -0.8471
 5906SOL     OW29176   0.129   1.617  17.210  0.1139 -0.0823  0.3179
 5906SOL    HW129177   0.061   1.684  17.223 -1.2040 -1.1229 -1.1786
 5906SOL    HW229178   0.175   1.645  17.131 -1.3024 -2.0095 -1.1934
 5907SOL     OW29179   0.045   2.921  13.520  0.0390 -0.0921 -0.1543
 5907SOL    HW129180   0.001   3.003  13.541 -2.0218 -1.3994  0.5915
 5907SOL    HW229181   0.046   2.938  13.425  1.2751 -0.3161 -0.1892
 5908SOL     OW29182   1.037   1.540  13.687 -0.5669  0.0323 -0.0597
 5908SOL    HW129183   1.121   1.553  13.732  0.4760 -1.7257 -1.5147
 5908SOL    HW229184   1.069   1.549  13.597  1.5818  1.0810  0.7871
 5909SOL     OW29185   1.810   1.868  16.364  0.5462 -0.5533 -0.1201
 5909SOL    HW129186   1.789   1.911  16.446  0.2819 -0.1687 -0.3895
 5909SOL    HW229187   1.888   1.817  16.388  1.7137  0.3207 -1.9665
 5910SOL     OW29188   3.859   3.763   6.086 -0.3551  0.2347  0.7944
 5910SOL    HW129189   3.895   3.764   5.997  0.2809  1.7100  1.0772
 5910SOL    HW229190   3.941   3.773   6.134  0.8526 -0.1807 -1.1592
 5911SOL     OW29191   1.786   0.161   2.878  0.4013 -0.9696  0.0933
 5911SOL    HW129192   1.825   0.248   2.887  0.4515 -0.9196 -0.5407
 5911SOL    HW229193   1.756   0.140   2.966  0.2834 -0.8308  0.0861
 5912SOL     OW29194   1.658   0.135   7.899 -0.5495  0.0435 -0.3161
 5912SOL    HW129195   1.629   0.197   7.832  1.2902 -0.0399 -1.1932
 5912SOL    HW229196   1.746   0.170   7.917 -0.5705  0.4559 -1.0099
 5913SOL     OW29197   4.389   0.010   0.678 -0.0384 -0.1216  0.3582
 5913SOL    HW129198   4.478   0.008   0.642 -0.2601 -1.0294 -0.1431
 5913SOL    HW229199   4.353   0.067   0.611 -1.1744 -1.0244  0.1899
 5914SOL     OW29200   1.914   3.341  11.626 -0.6205 -0.4726 -0.3371
 5914SOL    HW129201   1.984   3.392  11.585  0.5128 -0.1540  1.9677
 5914SOL    HW229202   1.930   3.259  11.579  1.2979 -0.9973  1.2416
 5915SOL     OW29203   0.893   0.322   5.615  0.3928  0.6563  1.0101
 5915SOL    HW129204   0.908   0.406   5.573  0.7462  0.8798  1.5844
 5915SOL    HW229205   0.973   0.275   5.592  0.2605  0.3299  1.2141
 5916SOL     OW29206   0.173   1.709   7.613 -0.1198 -0.2316  0.3348
 5916SOL    HW129207   0.103   1.774   7.610 -1.0460 -1.2421  0.3878
 5916SOL    HW229208   0.117   1.643   7.653 -2.6759  1.1038 -1.0238
 5917SOL     OW29209   0.723   3.535   6.677  0.5206 -0.5350  0.0783
 5917SOL    HW129210   0.645   3.492   6.713  0.2870  1.5728  2.1134
 5917SOL    HW229211   0.682   3.592   6.612 -1.7603 -2.8271 -0.4955
 5918SOL     OW29212   3.907   0.996   4.039 -0.4696  0.2645  0.0546
 5918SOL    HW129213   3.932   0.946   4.117 -0.3872 -1.9924 -1.4212
 5918SOL    HW229214   3.813   1.000   4.056 -0.6316  0.2714 -0.8678
 5919SOL     OW29215   2.656   0.037   4.732  0.2449  0.0360  0.4690
 5919SOL    HW129216   2.562   0.035   4.717  0.2891  1.2798  0.0406
 5919SOL    HW229217   2.673   0.039   4.826 -1.1386 -1.4780  0.7464
 5920SOL     OW29218   0.812   4.659   1.021  0.4994 -0.1314  0.1893
 5920SOL    HW129219   0.861   4.648   1.102  0.1693 -0.2728  0.3713
 5920SOL    HW229220   0.747   4.589   1.020  0.6965 -0.2915 -1.8795
 5921SOL     OW29221   4.669   1.848   7.677 -0.1105  0.0060  0.6212
 5921SOL    HW129222   4.617   1.768   7.683  1.1180 -0.9231 -0.9070
 5921SOL    HW229223   4.608   1.922   7.675 -1.6430 -1.2474  1.0353
 5922SOL     OW29224   3.160   1.370   4.434 -0.5995  0.4524  1.0674
 5922SOL    HW129225   3.198   1.324   4.360  0.3972 -2.1339  3.2012
 5922SOL    HW229226   3.069   1.343   4.423 -0.7389  1.4659 -0.2560
 5923SOL     OW29227   2.488   3.506   8.666  0.3373 -0.2926  0.3143
 5923SOL    HW129228   2.565   3.474   8.713 -0.7257  1.0735  2.9976
 5923SOL    HW229229   2.498   3.601   8.677  0.0943 -0.0065 -1.9453
 5924SOL     OW29230   1.484   0.190   8.933 -0.2595  0.5141  0.6773
 5924SOL    HW129231   1.433   0.247   8.876  1.6236  0.3663 -1.1566
 5924SOL    HW229232   1.430   0.189   9.012  0.2353  0.1066  1.0028
 5925SOL     OW29233   4.336   1.064   7.990 -0.3611 -0.2191  0.1253
 5925SOL    HW129234   4.318   0.972   8.009 -0.4651 -0.2821 -0.2834
 5925SOL    HW229235   4.372   1.098   8.072 -0.8466  2.1181 -0.6042
 5926SOL     OW29236   2.260   3.377   4.627  0.8835  0.1798  0.5160
 5926SOL    HW129237   2.310   3.424   4.694  0.7006  1.1035  0.0035
 5926SOL    HW229238   2.196   3.328   4.680  0.2815  0.1797 -0.2165
 5927SOL     OW29239   0.034   3.775  10.915 -0.1227 -0.0893 -0.6067
 5927SOL    HW129240   4.682   3.721  10.916 -1.1145  1.4517  2.7802
 5927SOL    HW229241   0.104   3.709  10.916  0.6380  0.7543  1.1798
 5928SOL     OW29242   2.458   3.636   2.322  0.0535 -0.1104 -0.6491
 5928SOL    HW129243   2.458   3.618   2.228  0.6531  1.8404 -1.0169
 5928SOL    HW229244   2.543   3.679   2.332  0.8580 -1.8863  0.1733
 5929SOL     OW29245   2.014   3.120   4.535  0.0166 -0.6624  0.2388
 5929SOL    HW129246   1.950   3.074   4.589 -0.0057  0.8562  1.5216
 5929SOL    HW229247   2.071   3.143   4.609  0.7059 -4.0422  0.7641
 5930SOL     OW29248   0.320   3.824   5.106  0.3102  0.2849  0.4124
 5930SOL    HW129249   0.310   3.735   5.141 -2.5642  0.6642  0.5549
 5930SOL    HW229250   0.410   3.848   5.131  0.3880  1.5038 -1.0523
 5931SOL     OW29251   4.641   1.050   6.949  0.3318  0.7820 -0.2332
 5931SOL    HW129252   0.004   1.039   6.915  0.6523 -0.1782  0.9032
 5931SOL    HW229253   4.665   1.034   7.041 -0.6542  1.0285  0.0609
 5932SOL     OW29254   2.272   0.010   2.339 -0.4724 -0.0175 -0.1217
 5932SOL    HW129255   2.338   0.072   2.310 -1.3848  1.1404  0.2825
 5932SOL    HW229256   2.280   4.660   2.281 -1.4373 -0.6347  0.5433
 5933SOL     OW29257   4.667   1.408   3.424  0.7439  0.2950  0.1773
 5933SOL    HW129258   4.633   1.496   3.415 -1.6496 -0.4254  2.1154
 5933SOL    HW229259   4.631   1.385   3.510 -2.7881 -4.3313 -2.5246
 5934SOL     OW29260   3.483   0.823   1.537 -0.0960 -0.2776 -0.0399
 5934SOL    HW129261   3.489   0.843   1.631 -1.4593  0.3940 -0.0849
 5934SOL    HW229262   3.459   0.911   1.508 -2.5719 -0.4139  1.5893
 5935SOL     OW29263   1.951   2.128  10.789 -0.1290 -0.4807  0.0903
 5935SOL    HW129264   2.043   2.111  10.807 -0.1933 -2.1163 -1.0797
 5935SOL    HW229265   1.940   2.183  10.711 -0.6143 -0.4540  0.1782
 5936SOL     OW29266   0.559   3.657  12.720 -0.4189 -0.2874 -0.1012
 5936SOL    HW129267   0.480   3.703  12.750  0.7177  1.5236  0.1478
 5936SOL    HW229268   0.626   3.724  12.731 -0.0268 -0.7195  0.1291
 5937SOL     OW29269   3.819   0.543   7.691  0.3797  0.1824 -0.2239
 5937SOL    HW129270   3.910   0.513   7.684  0.0047 -1.1350  0.5697
 5937SOL    HW229271   3.825   0.607   7.762  1.1454  0.6217 -0.6797
 5938SOL     OW29272   0.556   0.013  12.848 -0.9935 -0.1990  0.0824
 5938SOL    HW129273   0.649   4.716  12.837 -0.6132  1.6471 -0.5558
 5938SOL    HW229274   0.554   0.101  12.810  0.4096  0.1305  0.7795
 5939SOL     OW29275   4.550   0.505   3.023 -0.1393  0.7304 -0.8021
 5939SOL    HW129276   4.528   0.508   3.116  5.4584 -0.2472  0.5738
 5939SOL    HW229277   4.493   0.575   2.990 -2.0901 -0.6232 -0.2594
 5940SOL     OW29278   0.500   3.394   3.228 -0.8755 -0.4970  0.2051
 5940SOL    HW129279   0.455   3.454   3.169  1.8051  1.3546  0.0462
 5940SOL    HW229280   0.428   3.397   3.291  0.6881  1.4429  1.8854
 5941SOL     OW29281   3.594   4.358   5.325  0.8874 -0.2307  0.4806
 5941SOL    HW129282   3.587   4.331   5.233  1.7709  4.0105 -0.8664
 5941SOL    HW229283   3.656   4.289   5.348  1.0759 -0.0604  0.4822
 5942SOL     OW29284   0.640   3.405   3.691  0.1928 -0.6356  0.9690
 5942SOL    HW129285   0.561   3.352   3.676 -1.2559  1.5086  1.0018
 5942SOL    HW229286   0.704   3.335   3.703  0.3521 -1.0366 -2.2298
 5943SOL     OW29287   0.976   2.028   9.875  0.5185 -0.2501 -0.0228
 5943SOL    HW129288   1.026   2.044   9.955  0.0052  0.8458  0.0694
 5943SOL    HW229289   0.929   1.948   9.899  0.3516 -0.2032 -0.1929
 5944SOL     OW29290   2.287   3.191   7.029  0.0629 -0.0653 -0.7658
 5944SOL    HW129291   2.228   3.265   7.041 -0.3990 -0.4822 -0.4305
 5944SOL    HW229292   2.223   3.120   7.038 -0.9303  0.9728  0.2040
 5945SOL     OW29293   4.243   1.695   7.711  0.3733  0.7602 -0.2520
 5945SOL    HW129294   4.195   1.612   7.700 -0.9629  1.2060  2.3025
 5945SOL    HW229295   4.192   1.734   7.782  0.3662 -0.1592  0.2464
 5946SOL     OW29296   3.181   1.558   3.237 -0.5463 -0.1318 -0.3063
 5946SOL    HW129297   3.266   1.532   3.203 -0.4998 -1.9210  1.2017
 5946SOL    HW229298   3.188   1.512   3.321  0.0172 -0.4758 -0.5426
 5947SOL     OW29299   3.192   0.981   6.597 -0.6388  0.3358 -0.0218
 5947SOL    HW129300   3.269   1.024   6.558  0.0956 -1.2465 -0.3374
 5947SOL    HW229301   3.222   0.891   6.603 -0.9104  0.2683  0.3012
 5948SOL     OW29302   0.857   1.284   5.877  0.3815  0.1525 -0.0138
 5948SOL    HW129303   0.933   1.225   5.884  0.0721 -0.2378  0.0229
 5948SOL    HW229304   0.800   1.237   5.937  0.3711  0.3753  0.1473
 5949SOL     OW29305   0.024   1.393   0.683 -0.2917 -0.0065  0.3684
 5949SOL    HW129306   4.724   1.484   0.670  0.9369 -0.0468 -2.3513
 5949SOL    HW229307   4.685   1.361   0.745 -0.6021  1.5907  0.8830
 5950SOL     OW29308   1.158   4.019   8.103 -0.0042 -0.5337  0.1218
 5950SOL    HW129309   1.244   4.040   8.140  0.1066  1.1629 -1.0733
 5950SOL    HW229310   1.144   3.934   8.143 -3.7662  0.9481  1.8935
 5951SOL     OW29311   0.083   4.325   3.044  0.4258  0.4788 -0.6571
 5951SOL    HW129312   0.143   4.386   3.002  3.7719 -1.7811  0.8560
 5951SOL    HW229313   0.034   4.297   2.966 -2.4567  0.0855  1.2896
 5952SOL     OW29314   3.677   1.426   3.290 -0.5186 -0.0630 -0.6482
 5952SOL    HW129315   3.622   1.462   3.359 -1.2479 -0.9676 -0.7593
 5952SOL    HW229316   3.668   1.331   3.300 -0.3760 -0.1169 -1.0001
 5953SOL     OW29317   1.903   2.287   3.100  0.3989  0.2967  0.1908
 5953SOL    HW129318   1.986   2.277   3.055  0.0921 -0.7973 -0.1253
 5953SOL    HW229319   1.915   2.235   3.179  4.1471 -0.8712 -1.1694
 5954SOL     OW29320   2.466   2.956  14.729  0.0423  0.3582  0.5407
 5954SOL    HW129321   2.552   2.920  14.749  1.0063  1.7105 -1.1187
 5954SOL    HW229322   2.410   2.925  14.800  1.0947 -1.7757  0.4561
 5955SOL     OW29323   3.791   0.542   1.745  0.0502  0.6866 -0.3334
 5955SOL    HW129324   3.762   0.610   1.684 -2.0477  0.1125  0.0363
 5955SOL    HW229325   3.885   0.536   1.730  0.3834 -1.1998  2.6209
 5956SOL     OW29326   1.929   0.739   6.515  0.8255 -0.1642 -0.0815
 5956SOL    HW129327   2.008   0.789   6.535 -0.4098  0.4311  3.2975
 5956SOL    HW229328   1.887   0.738   6.601 -3.2262  2.2103 -2.0069
 5957SOL     OW29329   1.019   2.777   2.234  0.1930  0.3112 -0.2488
 5957SOL    HW129330   1.035   2.772   2.329  0.0261 -0.5096 -0.2652
 5957SOL    HW229331   1.106   2.763   2.199 -0.1680 -2.7971  0.0460
 5958SOL     OW29332   2.757   2.434   6.647 -0.4626 -0.3603 -0.0468
 5958SOL    HW129333   2.741   2.373   6.719  2.2669 -1.8402 -0.7211
 5958SOL    HW229334   2.690   2.395   6.589  0.5553 -3.9748  1.1968
 5959SOL     OW29335   0.832   4.622   5.122 -0.2826  0.0125 -0.1719
 5959SOL    HW129336   0.839   4.566   5.044  0.3149 -2.4701  1.6676
 5959SOL    HW229337   0.763   4.681   5.093  1.7130  3.1581  1.6048
 5960SOL     OW29338   4.640   2.172   2.592 -0.3642 -0.4491  0.3690
 5960SOL    HW129339   4.655   2.255   2.637 -0.6130  1.1460 -2.5460
 5960SOL    HW229340   4.549   2.156   2.620 -0.8893 -0.6432 -1.4444
 5961SOL     OW29341   4.490   3.248   4.781  0.1219 -0.3542 -0.4666
 5961SOL    HW129342   4.561   3.280   4.836 -0.0618 -0.7177 -0.0152
 5961SOL    HW229343   4.516   3.297   4.703 -0.1011  1.8481  0.8706
 5962SOL     OW29344   2.327   2.001   4.782 -0.0395  0.1961 -0.6347
 5962SOL    HW129345   2.344   2.067   4.715 -1.5358  0.8501 -0.3902
 5962SOL    HW229346   2.402   1.945   4.765  0.6810  0.3961  1.8601
 5963SOL     OW29347   0.732   0.875   3.047  1.1532 -0.3555 -0.3063
 5963SOL    HW129348   0.722   0.886   3.141  1.2072 -0.6884 -0.2650
 5963SOL    HW229349   0.649   0.914   3.019  0.5606 -1.3220  0.1322
 5964SOL     OW29350   2.549   1.875   2.395 -0.1616  0.2017  0.6305
 5964SOL    HW129351   2.530   1.783   2.381  1.0617  0.2058 -1.1335
 5964SOL    HW229352   2.617   1.868   2.462  1.7794 -1.1489 -1.4654
 5965SOL     OW29353   0.477   3.107   7.585 -0.0722  0.6580 -0.7101
 5965SOL    HW129354   0.531   3.045   7.634 -0.0146  1.1129 -0.1973
 5965SOL    HW229355   0.402   3.132   7.638 -0.3747 -2.3766  0.2941
 5966SOL     OW29356   2.929   1.518   1.512 -0.3251 -0.0692  0.2371
 5966SOL    HW129357   2.874   1.531   1.589  1.6205  0.5973  1.5167
 5966SOL    HW229358   2.908   1.426   1.498  1.1123 -0.7208  2.5142
 5967SOL     OW29359   0.473   0.290   8.048  0.3757  0.4491 -0.3482
 5967SOL    HW129360   0.546   0.232   8.070 -1.3886 -0.8969  1.9774
 5967SOL    HW229361   0.439   0.247   7.970  1.0973 -0.6923 -0.0337
 5968SOL     OW29362   4.161   4.516   9.554 -0.1011 -0.3039 -0.0237
 5968SOL    HW129363   4.196   4.599   9.586 -0.7429 -0.0347 -0.0091
 5968SOL    HW229364   4.121   4.532   9.468 -0.2443 -2.1933 -0.3088
 5969SOL     OW29365   1.569   4.034   2.681  0.2849 -0.6659  0.1759
 5969SOL    HW129366   1.585   4.060   2.772 -2.8787 -1.0383  0.8387
 5969SOL    HW229367   1.645   4.075   2.639 -2.3791  2.0356 -1.9710
 5970SOL     OW29368   3.733   3.056   4.678  0.0161 -0.5995 -0.1054
 5970SOL    HW129369   3.683   2.981   4.645  0.5484 -0.8745 -0.2762
 5970SOL    HW229370   3.806   3.016   4.725 -1.0212 -0.3278  1.7571
 5971SOL     OW29371   1.781   3.976  16.554  0.0051 -0.2297 -0.3708
 5971SOL    HW129372   1.704   3.927  16.526  0.0429 -1.6126  1.9329
 5971SOL    HW229373   1.850   3.929  16.508  1.9847 -0.9655  3.3008
 5972SOL     OW29374   1.245   0.450   5.161 -0.3116  0.4498 -0.5311
 5972SOL    HW129375   1.230   0.359   5.136  0.7482  0.0840  0.1487
 5972SOL    HW229376   1.158   0.467   5.199  1.2003  3.8388  1.4524
 5973SOL     OW29377   2.998   0.268   2.396 -0.1353 -0.2686 -0.0497
 5973SOL    HW129378   2.949   0.340   2.435  1.8133  0.1211  1.6870
 5973SOL    HW229379   3.014   0.208   2.469 -1.7565  0.7921  1.1834
 5974SOL     OW29380   3.994   4.334   5.790 -0.7143 -0.3856  0.6058
 5974SOL    HW129381   3.972   4.386   5.713 -0.8464  1.0211  1.5820
 5974SOL    HW229382   3.962   4.248   5.765  0.3118 -0.9786  1.3607
 5975SOL     OW29383   1.032   1.160   8.409  0.4800 -0.5640  0.6031
 5975SOL    HW129384   1.003   1.121   8.492 -2.1674 -1.0660 -0.5615
 5975SOL    HW229385   1.122   1.185   8.430  0.7364 -1.8007  0.9486
 5976SOL     OW29386   4.599   1.270   6.046 -0.2841 -0.5331 -0.2722
 5976SOL    HW129387   4.674   1.252   6.103  0.9433  0.1613 -1.6804
 5976SOL    HW229388   4.576   1.182   6.017  2.2927 -0.4887 -2.5368
 5977SOL     OW29389   4.299   2.496   8.302  0.0298 -0.1825 -0.0729
 5977SOL    HW129390   4.210   2.532   8.303 -0.6716 -1.9250  2.7733
 5977SOL    HW229391   4.346   2.557   8.358 -2.0368  0.9413  0.4508
 5978SOL     OW29392   2.746   4.151   4.066 -0.0687  0.1277  0.0565
 5978SOL    HW129393   2.840   4.138   4.078  0.0532  2.3251  1.6032
 5978SOL    HW229394   2.755   4.193   3.980 -0.1186  0.2500  0.1104
 5979SOL     OW29395   2.107   1.847   9.039 -0.1095  0.0363  0.4680
 5979SOL    HW129396   2.077   1.783   8.975 -0.3223 -1.4807  2.0731
 5979SOL    HW229397   2.042   1.913   9.016 -2.3688 -1.8700  1.3810
 5980SOL     OW29398   2.931   0.913  11.143  0.7575 -0.5169 -0.8654
 5980SOL    HW129399   2.862   0.967  11.182 -0.5531 -2.0907 -0.9871
 5980SOL    HW229400   3.002   0.974  11.124  1.2589 -0.2625  1.8152
 5981SOL     OW29401   2.164   2.623   5.180  0.1790 -0.2849 -0.2004
 5981SOL    HW129402   2.100   2.693   5.192 -0.0537 -0.2613 -1.5430
 5981SOL    HW229403   2.126   2.573   5.107 -1.2453  1.5770 -0.7334
 5982SOL     OW29404   0.984   4.213   4.664  0.0982 -0.2226 -0.5565
 5982SOL    HW129405   0.950   4.200   4.753  0.2381  0.5832 -0.3853
 5982SOL    HW229406   1.079   4.201   4.668 -0.1881 -1.6668  2.2576
 5983SOL     OW29407   0.372   0.550   8.051  0.2963 -0.1168 -0.4877
 5983SOL    HW129408   0.314   0.574   7.978  1.4955  0.7383 -1.1688
 5983SOL    HW229409   0.374   0.455   8.042 -1.9891 -0.3880  2.0743
 5984SOL     OW29410   1.600   1.638   0.290 -0.0166  0.2591  0.0229
 5984SOL    HW129411   1.650   1.633   0.209 -0.4500 -0.0913 -0.2295
 5984SOL    HW229412   1.670   1.628   0.353  1.0308  0.8375 -1.0514
 5985SOL     OW29413   1.160   0.202   2.914 -0.0523  0.3144  0.0094
 5985SOL    HW129414   1.134   0.262   2.984 -1.7813 -1.0416  0.5430
 5985SOL    HW229415   1.088   0.139   2.903 -0.7535  0.9534  0.9105
 5986SOL     OW29416   0.751   0.905  12.195  0.0629 -0.0055  0.3422
 5986SOL    HW129417   0.768   0.827  12.142  0.0802 -2.1336  3.4441
 5986SOL    HW229418   0.824   0.963  12.174  1.3464 -1.9380 -0.4773
 5987SOL     OW29419   0.618   4.561  17.398  0.1654  0.3735  0.2094
 5987SOL    HW129420   0.689   4.504  17.369 -1.0474 -1.1057  0.1100
 5987SOL    HW229421   0.634   4.637  17.343 -0.5861 -0.4186 -1.1226
 5988SOL     OW29422   1.302   4.084   6.228  0.0162 -0.2356 -0.0555
 5988SOL    HW129423   1.348   4.073   6.145  3.8204 -2.5377  2.3680
 5988SOL    HW229424   1.252   4.003   6.220  0.2817 -0.5183  1.1149
 5989SOL     OW29425   2.762   3.375   1.769  0.4666 -0.5050  0.2041
 5989SOL    HW129426   2.728   3.287   1.786 -0.8848  0.0679  0.4473
 5989SOL    HW229427   2.822   3.393   1.842 -0.6824  0.5022  0.9114
 5990SOL     OW29428   0.114   1.796   6.242 -0.3986  0.0561 -0.2633
 5990SOL    HW129429   0.068   1.766   6.321  2.0011 -2.9745 -0.0192
 5990SOL    HW229430   0.123   1.889   6.264  0.0812  0.1685 -0.9432
 5991SOL     OW29431   0.883   3.239   8.201  0.1258 -0.3107  0.5023
 5991SOL    HW129432   0.810   3.195   8.243 -1.3534 -1.6673 -3.4722
 5991SOL    HW229433   0.914   3.304   8.264  1.2430  0.4146 -0.7990
 5992SOL     OW29434   1.650   0.495  12.990 -0.2715  0.0747  0.2913
 5992SOL    HW129435   1.564   0.461  12.968 -0.5784  1.2101 -0.2930
 5992SOL    HW229436   1.637   0.580  12.947  3.9857  0.5666 -0.0211
 5993SOL     OW29437   4.514   3.734   3.101 -0.5396  0.0514 -0.0172
 5993SOL    HW129438   4.545   3.732   3.011  1.6732  0.0925  0.7608
 5993SOL    HW229439   4.600   3.747   3.141 -0.0590  0.0387 -1.0518
 5994SOL     OW29440   0.134   4.499   4.068 -0.5990  0.1236 -0.0534
 5994SOL    HW129441   0.207   4.491   4.007  0.6644  0.0569  1.4648
 5994SOL    HW229442   0.065   4.543   4.018  0.1267  0.7770 -0.4808
 5995SOL     OW29443   3.987   4.208   2.561  0.0087  1.1141  0.0486
 5995SOL    HW129444   3.925   4.142   2.529 -1.2034  2.2840 -0.0158
 5995SOL    HW229445   3.978   4.282   2.500 -1.7361 -0.2100 -1.3054
 5996SOL     OW29446   3.796   0.602   9.971 -0.3705 -0.1421 -0.1132
 5996SOL    HW129447   3.865   0.613   9.906 -0.2392  1.8227  0.3332
 5996SOL    HW229448   3.776   0.692   9.998  0.7358  0.4157 -1.1624
 5997SOL     OW29449   0.299   0.967   0.035  0.4246  0.1873 -0.0982
 5997SOL    HW129450   0.389   0.994   0.017  0.5893  0.0351  0.4821
 5997SOL    HW229451   0.315   0.874   0.050  1.5983  0.3238 -0.5604
 5998SOL     OW29452   2.465   0.420   2.124 -0.2131  0.6029 -0.2364
 5998SOL    HW129453   2.556   0.399   2.142 -0.7857 -2.2593 -0.6818
 5998SOL    HW229454   2.451   0.350   2.060 -0.9186 -1.9895  2.7505
 5999SOL     OW29455   0.470   3.910   7.488 -0.3714 -0.9497 -0.1966
 5999SOL    HW129456   0.543   3.967   7.465  0.2661 -1.8066 -0.2774
 5999SOL    HW229457   0.419   3.964   7.548 -0.8922  0.7542 -2.1850
 6000SOL     OW29458   0.934   3.396   8.454  0.1399  0.1626  0.1201
 6000SOL    HW129459   0.953   3.320   8.510  0.8272  0.3035  0.0871
 6000SOL    HW229460   0.869   3.437   8.511  0.6247  1.7636 -0.4729
 6001SOL     OW29461   0.807   2.941   4.337 -0.0184 -0.3822 -0.4116
 6001SOL    HW129462   0.804   2.976   4.248  1.5148  3.1155  0.8753
 6001SOL    HW229463   0.836   3.021   4.381 -0.4632  0.1406 -1.0711
 6002SOL     OW29464   3.729   1.751   3.500 -0.0539 -0.5578 -0.1783
 6002SOL    HW129465   3.732   1.688   3.572 -0.5689  1.4996  1.6458
 6002SOL    HW229466   3.814   1.794   3.505  0.5844 -2.1730  2.7354
 6003SOL     OW29467   1.780   1.894  17.626  0.0537 -0.0056  0.2721
 6003SOL    HW129468   1.832   1.972  17.605  0.2422 -0.9687 -2.8510
 6003SOL    HW229469   1.811   1.837  17.556 -0.1394  2.7092 -2.0336
 6004SOL     OW29470   3.287   3.900   4.635 -0.1247 -0.2878 -0.3695
 6004SOL    HW129471   3.298   3.973   4.574  3.7667 -0.1082  0.5684
 6004SOL    HW229472   3.371   3.889   4.679 -0.9095  0.1338  1.2628
 6005SOL     OW29473   3.850   2.717  16.306  0.2367 -0.7523  0.5853
 6005SOL    HW129474   3.860   2.737  16.213  4.7975 -1.7793  0.8258
 6005SOL    HW229475   3.771   2.767  16.325  1.0513  0.5850  0.4345
 6006SOL     OW29476   4.127   2.379   7.149 -0.0310 -0.7810  0.3980
 6006SOL    HW129477   4.180   2.342   7.078 -0.4772  0.9143 -0.8345
 6006SOL    HW229478   4.103   2.295   7.186 -0.9364 -1.1207 -0.9850
 6007SOL     OW29479   2.449   2.351  16.858 -0.0543 -0.6861 -0.3137
 6007SOL    HW129480   2.380   2.415  16.870 -1.1960 -2.2001  1.1552
 6007SOL    HW229481   2.512   2.386  16.921 -1.5792  2.2096 -0.4051
 6008SOL     OW29482   4.593   2.891   7.847 -0.1096  0.5234  0.3312
 6008SOL    HW129483   4.575   2.914   7.938  0.1337 -0.3715  0.6012
 6008SOL    HW229484   4.678   2.848   7.852 -0.4470 -0.0462  1.1248
 6009SOL     OW29485   4.592   3.554   3.518  0.1012 -0.3393 -0.0857
 6009SOL    HW129486   4.685   3.578   3.524  0.0986 -0.5702  0.8802
 6009SOL    HW229487   4.573   3.563   3.424 -1.1285  0.7553  0.2581
 6010SOL     OW29488   2.756   2.454   1.128  0.1036 -0.2756 -0.1894
 6010SOL    HW129489   2.847   2.473   1.102 -0.7865  0.5434 -2.6971
 6010SOL    HW229490   2.762   2.363   1.159 -1.3963 -0.3802 -0.2532
 6011SOL     OW29491   3.596   1.808   9.774  0.6498 -0.1161  0.0818
 6011SOL    HW129492   3.581   1.773   9.862  1.6278 -0.1353  0.2422
 6011SOL    HW229493   3.634   1.895   9.782  0.0900  0.0362  1.0530
 6012SOL     OW29494   1.277   1.186   4.742  0.2440  0.0089  0.4583
 6012SOL    HW129495   1.293   1.180   4.836  3.0757  3.7913  0.2005
 6012SOL    HW229496   1.363   1.182   4.702 -0.5473  2.9693 -1.5519
 6013SOL     OW29497   0.006   3.449   3.901  0.0219 -0.2949 -0.6714
 6013SOL    HW129498   4.714   3.355   3.892  1.0126 -0.5015 -0.5246
 6013SOL    HW229499   4.651   3.487   3.867  0.2893  0.8705 -0.0044
 6014SOL     OW29500   4.423   1.851  16.918  0.1925 -0.9604 -0.7257
 6014SOL    HW129501   4.427   1.768  16.966 -2.4953 -0.6189  0.1141
 6014SOL    HW229502   4.514   1.869  16.896  0.5189  0.0681  1.4070
 6015SOL     OW29503   1.539   0.146   5.209 -0.3358  0.1649  0.2198
 6015SOL    HW129504   1.483   0.109   5.278 -0.9966 -0.1248 -0.4740
 6015SOL    HW229505   1.613   0.157   5.268 -0.2069 -0.8826  0.2568
 6016SOL     OW29506   2.237   1.107   0.056  0.7587  0.3491 -0.0663
 6016SOL    HW129507   2.164   1.148   0.009  0.4997 -2.2958 -2.0011
 6016SOL    HW229508   2.263   1.184   0.106  1.8942 -1.7273  2.5259
 6017SOL     OW29509   2.313   4.000   8.736 -0.1791 -0.5880  0.1173
 6017SOL    HW129510   2.293   4.074   8.678  3.2472  1.8761  2.0366
 6017SOL    HW229511   2.321   4.040   8.823  2.0881 -1.4719  0.3061
 6018SOL     OW29512   0.991   3.547   5.646  0.3810 -0.5215  0.3724
 6018SOL    HW129513   0.900   3.557   5.617 -0.0039 -2.2511  0.9607
 6018SOL    HW229514   1.026   3.504   5.569 -0.2879 -0.9721  0.3175
 6019SOL     OW29515   3.872   4.346   6.042 -0.1117 -0.2889  0.4232
 6019SOL    HW129516   3.923   4.346   5.961 -0.4471  1.5757  0.2226
 6019SOL    HW229517   3.803   4.409   6.023  0.0702 -1.0397 -2.6224
 6020SOL     OW29518   4.393   0.010   7.059 -0.2542  0.3168 -0.4220
 6020SOL    HW129519   4.393   0.035   7.151  1.0244 -0.6951 -0.1404
 6020SOL    HW229520   4.372   4.643   7.055  1.3612 -0.1974  3.2801
 6021SOL     OW29521   1.247   0.772  11.353 -0.3778 -1.1559  0.4642
 6021SOL    HW129522   1.185   0.730  11.294 -0.2744 -0.2605 -0.2827
 6021SOL    HW229523   1.203   0.855  11.372 -0.7379 -1.1221 -0.5596
 6022SOL     OW29524   3.820   3.805   3.121 -0.6394 -0.6875  0.9642
 6022SOL    HW129525   3.851   3.863   3.190  0.2796 -1.7507  1.4481
 6022SOL    HW229526   3.784   3.729   3.166  2.6462 -2.3785  0.7171
 6023SOL     OW29527   3.718   1.536   5.365 -0.0481  0.0850  0.2874
 6023SOL    HW129528   3.689   1.609   5.311 -0.8636  0.9935  1.9376
 6023SOL    HW229529   3.708   1.569   5.455 -1.6018 -0.3316  0.2698
 6024SOL     OW29530   0.673   4.571   2.104  0.1712 -0.3047 -0.1402
 6024SOL    HW129531   0.619   4.519   2.164 -1.9107 -0.2936 -2.0314
 6024SOL    HW229532   0.745   4.607   2.157  0.6634 -1.2763 -0.1362
 6025SOL     OW29533   3.340   3.746   5.377  0.6179  0.6023  0.5577
 6025SOL    HW129534   3.323   3.652   5.381  0.9571  0.5501  0.7264
 6025SOL    HW229535   3.264   3.782   5.331 -0.3407 -2.2195 -0.0319
 6026SOL     OW29536   1.708   0.259   6.665  0.2910 -0.3322 -0.5918
 6026SOL    HW129537   1.623   0.216   6.672  0.4065 -0.2273  1.3490
 6026SOL    HW229538   1.731   0.235   6.575  0.6110 -1.8781 -0.0904
 6027SOL     OW29539   2.711   3.595   1.619  0.0685 -0.2611 -0.1234
 6027SOL    HW129540   2.752   3.522   1.665  1.3480 -0.9636 -2.3939
 6027SOL    HW229541   2.699   3.550   1.536  0.0981 -1.7582  0.6888
 6028SOL     OW29542   2.526   3.303   8.976 -0.0131 -0.2377 -0.0590
 6028SOL    HW129543   2.481   3.382   9.005  1.7597  0.3382  1.1289
 6028SOL    HW229544   2.578   3.331   8.900  1.0073 -0.2801  0.6318
 6029SOL     OW29545   2.721   2.743   4.283 -0.4922 -0.3072  0.1431
 6029SOL    HW129546   2.667   2.760   4.360  1.2895  1.6919  0.9508
 6029SOL    HW229547   2.766   2.670   4.325  1.6199 -0.1569 -1.9106
 6030SOL     OW29548   2.741   2.454   4.043 -0.4979 -0.5136 -0.5042
 6030SOL    HW129549   2.653   2.421   4.059 -0.4916  0.5458  1.6943
 6030SOL    HW229550   2.726   2.521   3.976  0.4775  0.1695 -0.0438
 6031SOL     OW29551   2.071   3.670   7.332  0.0217  0.4824 -0.3702
 6031SOL    HW129552   2.037   3.738   7.275 -1.3678  0.9144  0.9631
 6031SOL    HW229553   2.148   3.640   7.285 -0.9521 -0.0617 -1.6336
 6032SOL     OW29554   2.570   1.366   5.975 -1.4396 -0.2224 -0.4762
 6032SOL    HW129555   2.619   1.325   5.904  0.1552  2.7000 -1.0848
 6032SOL    HW229556   2.576   1.289   6.031 -0.8254 -0.1613 -0.4496
 6033SOL     OW29557   2.934   2.749  12.807  0.1866  0.2778  0.3713
 6033SOL    HW129558   2.859   2.807  12.797 -0.3049 -0.4484 -0.1547
 6033SOL    HW229559   3.007   2.810  12.800  0.3883 -0.1087 -0.8770
 6034SOL     OW29560   0.686   1.578  15.703 -0.3555 -0.4265 -0.4534
 6034SOL    HW129561   0.684   1.665  15.663 -1.6630 -0.3584 -0.2287
 6034SOL    HW229562   0.665   1.592  15.796  1.1441 -0.8300 -0.0508
 6035SOL     OW29563   3.865   0.010   9.227 -0.4796  0.5231 -0.3652
 6035SOL    HW129564   3.835   0.015   9.318 -0.2952 -1.0593 -0.2282
 6035SOL    HW229565   3.790   0.043   9.178 -0.7514  0.1193 -0.2142
 6036SOL     OW29566   0.467   0.190  10.894 -0.9603 -0.2319 -0.1265
 6036SOL    HW129567   0.408   0.119  10.868  1.0728 -2.4504  1.3588
 6036SOL    HW229568   0.395   0.247  10.923  0.6055  2.3793 -1.3093
 6037SOL     OW29569   2.325   2.901   7.201  0.4180 -1.0813  0.2818
 6037SOL    HW129570   2.407   2.878   7.157  0.1649 -0.5093 -0.4924
 6037SOL    HW229571   2.260   2.851   7.152  0.1070 -0.1606 -0.2501
 6038SOL     OW29572   1.782   0.743   8.200 -0.7745  0.3416  0.3653
 6038SOL    HW129573   1.780   0.655   8.238 -1.4775  0.2693  0.1677
 6038SOL    HW229574   1.874   0.769   8.198 -0.5556 -0.4540 -0.0486
 6039SOL     OW29575   3.939   1.796   7.299 -0.0332 -0.3059 -0.4213
 6039SOL    HW129576   4.024   1.762   7.271  0.0421  0.0226 -0.5971
 6039SOL    HW229577   3.927   1.743   7.378 -0.3156  3.1889  1.9109
 6040SOL     OW29578   4.432   3.023   1.900  0.1893  0.5176 -0.5702
 6040SOL    HW129579   4.363   3.084   1.927 -0.2328 -0.8027  1.3868
 6040SOL    HW229580   4.391   2.941   1.927  1.4097  0.3718  0.8775
 6041SOL     OW29581   2.040   0.400   2.192 -0.1340 -0.1468 -0.0283
 6041SOL    HW129582   1.961   0.369   2.237  0.1414 -0.7069  0.0702
 6041SOL    HW229583   2.032   0.335   2.123 -0.7508  2.7710 -2.6963
 6042SOL     OW29584   3.811   2.334   9.298 -0.1107  0.3027  0.4990
 6042SOL    HW129585   3.901   2.312   9.321  0.2913 -0.3372 -1.7328
 6042SOL    HW229586   3.798   2.386   9.378  0.3543 -0.9054  1.3584
 6043SOL     OW29587   2.359   3.178  13.556 -0.5204  0.7480 -0.6319
 6043SOL    HW129588   2.398   3.094  13.581  0.0364  2.4538  4.1916
 6043SOL    HW229589   2.411   3.243  13.602 -1.8484  2.6480 -1.8255
 6044SOL     OW29590   1.833   4.091  10.549  0.1662  0.0179  0.0076
 6044SOL    HW129591   1.829   4.056  10.639 -0.8892  0.3221  0.0778
 6044SOL    HW229592   1.857   4.014  10.498 -0.5204 -0.8170  0.9269
 6045SOL     OW29593   2.803   1.726  17.281  0.4113  0.0318 -0.2085
 6045SOL    HW129594   2.858   1.650  17.299  0.1804 -0.0367  0.2081
 6045SOL    HW229595   2.789   1.711  17.188  1.2437  0.2233 -0.3657
 6046SOL     OW29596   2.511   1.460   7.441  0.5023 -0.2623 -0.0178
 6046SOL    HW129597   2.455   1.473   7.365  0.6099  3.5190  0.5535
 6046SOL    HW229598   2.445   1.431   7.504  0.3836  0.4972  0.2045
 6047SOL     OW29599   3.153   1.209  16.460  0.1071 -0.5389  0.1092
 6047SOL    HW129600   3.149   1.115  16.442 -1.1183 -0.6068  0.7329
 6047SOL    HW229601   3.098   1.209  16.539 -0.8924  0.8589 -0.5810
 6048SOL     OW29602   4.003   2.629   8.020  0.5962  0.0038 -0.2992
 6048SOL    HW129603   3.928   2.687   8.006 -1.0081 -2.1662 -0.6903
 6048SOL    HW229604   4.072   2.685   7.982 -0.0934  0.9671 -0.1376
 6049SOL     OW29605   1.789   0.474   8.325 -0.5412 -0.2290 -0.7539
 6049SOL    HW129606   1.819   0.387   8.352 -0.1660  0.3807  0.8273
 6049SOL    HW229607   1.716   0.446   8.271 -1.0515 -2.6795  1.2178
 6050SOL     OW29608   0.584   0.873  14.607  0.4382 -0.0323 -0.4794
 6050SOL    HW129609   0.578   0.946  14.545  0.4334  1.7530  1.6674
 6050SOL    HW229610   0.680   0.870  14.613  0.2815 -0.8952  1.5566
 6051SOL     OW29611   1.405   1.152   5.791  0.3533  0.0623  0.0011
 6051SOL    HW129612   1.421   1.063   5.757  0.3186 -0.3758  1.1264
 6051SOL    HW229613   1.423   1.137   5.884 -3.6219  1.4468  0.9698
 6052SOL     OW29614   1.443   2.845   2.946 -0.9791  0.6862  0.5250
 6052SOL    HW129615   1.431   2.855   3.041  1.6771  0.8553  0.8546
 6052SOL    HW229616   1.439   2.938   2.923  1.5764  0.9578  1.0918
 6053SOL     OW29617   1.032   3.331   5.906  0.9551 -0.0104  0.8214
 6053SOL    HW129618   1.087   3.409   5.916  0.3187  0.3587  1.4026
 6053SOL    HW229619   0.941   3.356   5.920  0.9984  0.5312  0.1481
 6054SOL     OW29620   3.056   0.035  14.671 -0.0977 -0.2314  0.2220
 6054SOL    HW129621   3.032   4.721  14.754 -1.2745  0.1837  0.0877
 6054SOL    HW229622   3.070   0.127  14.694  0.2946 -1.2575  3.9725
 6055SOL     OW29623   2.391   1.111   3.750  0.0327 -0.1237 -0.1604
 6055SOL    HW129624   2.453   1.139   3.683 -0.1094  0.5703 -0.0058
 6055SOL    HW229625   2.429   1.127   3.837  0.3104  1.0531 -0.4988
 6056SOL     OW29626   2.692   1.677   3.902 -0.4980 -0.8831  0.4583
 6056SOL    HW129627   2.672   1.588   3.873 -1.2701 -0.0017 -1.7155
 6056SOL    HW229628   2.688   1.718   3.816 -0.5192 -1.5570  0.1401
 6057SOL     OW29629   1.634   1.682   3.076 -0.5392  0.3821  0.0518
 6057SOL    HW129630   1.694   1.752   3.102  0.1892  0.1161 -0.8820
 6057SOL    HW229631   1.607   1.721   2.993 -1.7588 -1.5642 -0.4563
 6058SOL     OW29632   0.885   2.001   3.163  0.0331 -0.3837 -0.0631
 6058SOL    HW129633   0.978   2.016   3.183 -0.8685  2.0275  2.2224
 6058SOL    HW229634   0.868   2.062   3.092  0.0518  0.8024  0.9459
 6059SOL     OW29635   2.656   3.289   0.550 -0.0770  0.1775 -0.1522
 6059SOL    HW129636   2.701   3.296   0.634  1.1840 -1.4212 -0.6739
 6059SOL    HW229637   2.627   3.379   0.539 -2.5216 -0.6776 -0.6947
 6060SOL     OW29638   1.945   2.270   1.906  0.0564  0.3783 -0.3335
 6060SOL    HW129639   1.936   2.276   1.811 -0.5049  1.8030 -0.1799
 6060SOL    HW229640   1.953   2.363   1.925  0.4182  0.1484  0.6188
 6061SOL     OW29641   3.024   4.203  14.113 -0.2421  0.4075 -0.0606
 6061SOL    HW129642   2.991   4.290  14.089  1.2261  0.5226 -1.6196
 6061SOL    HW229643   3.110   4.201  14.071  0.8202 -0.0288  2.1279
 6062SOL     OW29644   2.163   1.360   5.083 -0.0252  0.1353  0.2716
 6062SOL    HW129645   2.135   1.329   4.997 -1.3523 -2.2947  1.5862
 6062SOL    HW229646   2.090   1.333   5.139 -0.6787 -1.3867 -1.3024
 6063SOL     OW29647   1.543   1.869  16.556 -0.1004 -0.2634 -0.0645
 6063SOL    HW129648   1.525   1.790  16.505 -1.3381  0.0042 -0.0405
 6063SOL    HW229649   1.489   1.860  16.634 -2.4015 -0.1912 -1.6568
 6064SOL     OW29650   3.450   1.780   6.701 -0.8310 -0.0149  0.1138
 6064SOL    HW129651   3.411   1.716   6.759  0.9351 -0.4431  0.8416
 6064SOL    HW229652   3.543   1.757   6.711 -0.4376  1.9292  1.1082
 6065SOL     OW29653   3.243   0.145  10.494  0.3450 -0.2400  0.5445
 6065SOL    HW129654   3.311   0.083  10.519  0.4607  0.3729  1.7256
 6065SOL    HW229655   3.259   0.218  10.553  2.3742  0.2363 -0.6181
 6066SOL     OW29656   3.736   2.159   5.679  0.1154  0.4829  0.0430
 6066SOL    HW129657   3.713   2.221   5.749 -0.3965 -0.3727  0.6360
 6066SOL    HW229658   3.828   2.158   5.705  0.7354  3.2554 -2.0265
 6067SOL     OW29659   0.142   0.327   7.363 -0.0577 -0.3096 -0.0458
 6067SOL    HW129660   0.237   0.321   7.351 -0.0331  0.3951 -0.1874
 6067SOL    HW229661   0.117   0.384   7.291 -1.4269  0.6763  1.2133
 6068SOL     OW29662   3.515   3.897   7.571 -0.5680  0.0121 -0.1711
 6068SOL    HW129663   3.465   3.869   7.494  1.9039  1.6327 -2.3571
 6068SOL    HW229664   3.591   3.839   7.566 -0.6084 -0.0050 -0.5419
 6069SOL     OW29665   2.528   3.779   8.704  0.4034  0.5235 -0.6525
 6069SOL    HW129666   2.500   3.798   8.794  1.0180 -0.4580 -0.2609
 6069SOL    HW229667   2.560   3.867   8.682  2.1279  0.4035  1.3869
 6070SOL     OW29668   1.839   0.979   5.097  0.5649  0.0988 -0.2545
 6070SOL    HW129669   1.836   0.899   5.150  0.0617 -1.5545 -2.7343
 6070SOL    HW229670   1.888   0.946   5.022  1.9964  0.7193  0.4140
 6071SOL     OW29671   0.546   0.441   2.475  0.4439 -0.3750  0.0253
 6071SOL    HW129672   0.560   0.442   2.570 -4.0450  1.6799  0.6285
 6071SOL    HW229673   0.545   0.534   2.454 -0.5324 -0.9186 -2.2345
 6072SOL     OW29674   1.381   0.407  12.324 -0.0936 -0.4359 -0.0105
 6072SOL    HW129675   1.460   0.461  12.321  0.1855 -0.8197  0.4347
 6072SOL    HW229676   1.396   0.365  12.409  0.0684 -0.8073 -0.2265
 6073SOL     OW29677   0.224   0.849   6.417 -0.1613 -0.1545 -0.2886
 6073SOL    HW129678   0.268   0.930   6.390  1.3121 -0.4303  1.3020
 6073SOL    HW229679   0.226   0.801   6.334 -1.3859 -1.7898  0.6417
 6074SOL     OW29680   3.499   4.207   4.716  0.1305 -0.1607 -0.1890
 6074SOL    HW129681   3.504   4.120   4.754 -1.1900 -0.4927 -0.7537
 6074SOL    HW229682   3.462   4.182   4.631  0.6507  0.8327 -0.7042
 6075SOL     OW29683   0.514   3.868   9.712  0.0867  0.5448 -0.0866
 6075SOL    HW129684   0.608   3.868   9.734  0.2618 -0.1014 -0.8215
 6075SOL    HW229685   0.489   3.815   9.788 -1.7177 -2.6476 -2.9073
 6076SOL     OW29686   2.065   2.011   8.635 -0.1405 -0.1008  0.0058
 6076SOL    HW129687   2.095   2.022   8.725  0.2073  1.3915 -0.2899
 6076SOL    HW229688   1.980   2.053   8.645 -0.4309 -0.2214 -1.8835
 6077SOL     OW29689   2.915   3.244   6.977 -0.1215 -0.9191 -0.0050
 6077SOL    HW129690   2.858   3.293   7.036 -0.1312 -0.3082 -0.5316
 6077SOL    HW229691   2.919   3.290   6.893 -0.9163 -0.2637  0.3204
 6078SOL     OW29692   1.182   4.310   5.219  0.3936 -0.5902 -0.3287
 6078SOL    HW129693   1.146   4.398   5.204 -1.0837 -1.1901 -0.3101
 6078SOL    HW229694   1.245   4.307   5.147  1.1387 -3.4763  0.4645
 6079SOL     OW29695   4.163   1.169   0.400  0.0252 -0.0711 -0.5773
 6079SOL    HW129696   4.214   1.089   0.404 -2.1191 -1.3542  0.9303
 6079SOL    HW229697   4.147   1.176   0.494 -0.3027  1.1693 -0.7181
 6080SOL     OW29698   1.849   3.141   4.252 -0.3079 -0.2249  0.2015
 6080SOL    HW129699   1.907   3.206   4.212 -0.2476 -0.7339 -0.5458
 6080SOL    HW229700   1.864   3.166   4.343 -1.1116  2.3258 -0.3725
 6081SOL     OW29701   4.194   4.277  14.321 -0.0607  0.3248  0.3280
 6081SOL    HW129702   4.149   4.232  14.250  1.2840  0.5302 -0.6612
 6081SOL    HW229703   4.176   4.208  14.385 -2.3064  1.1343  0.5622
 6082SOL     OW29704   3.671   3.620   2.513  0.3336 -0.3058 -0.8706
 6082SOL    HW129705   3.722   3.673   2.451  1.6897 -0.5110  0.0631
 6082SOL    HW229706   3.654   3.687   2.579  0.3841  1.0509 -2.2250
 6083SOL     OW29707   1.084   2.515  12.806  0.4257 -0.1006 -0.4220
 6083SOL    HW129708   0.994   2.488  12.824 -0.5248  1.1480 -3.2454
 6083SOL    HW229709   1.095   2.577  12.878  0.5633 -2.7563  1.8700
 6084SOL     OW29710   0.249   3.948   2.364  0.2626 -0.1808 -0.0163
 6084SOL    HW129711   0.224   3.905   2.282  0.6303 -2.3568  1.0093
 6084SOL    HW229712   0.162   3.978   2.389  1.1518  1.6837  0.7837
 6085SOL     OW29713   1.320   2.632  13.798 -0.4226  0.2675  0.2462
 6085SOL    HW129714   1.253   2.632  13.867 -0.5860 -1.1245  0.0859
 6085SOL    HW229715   1.367   2.550  13.813 -0.5845  0.7809  3.6288
 6086SOL     OW29716   4.618   1.321   8.934 -0.1622 -0.0158 -0.1163
 6086SOL    HW129717   4.580   1.234   8.924  0.4943 -0.3342  0.1277
 6086SOL    HW229718   4.632   1.331   9.028 -0.0133 -0.2948 -0.1087
 6087SOL     OW29719   0.684   4.214   2.731 -0.6748 -0.0827 -0.9429
 6087SOL    HW129720   0.686   4.161   2.652  2.0525 -1.1868 -0.1218
 6087SOL    HW229721   0.700   4.142   2.792  0.4919  1.2154  0.3016
 6088SOL     OW29722   0.627   1.669   7.070  0.4730  0.3714 -0.1748
 6088SOL    HW129723   0.650   1.683   6.978 -2.4771  3.0348 -0.4814
 6088SOL    HW229724   0.717   1.669   7.102  0.7284 -0.7259 -0.8648
 6089SOL     OW29725   1.296   0.899   7.389 -0.1197 -0.8042  0.4570
 6089SOL    HW129726   1.374   0.908   7.334  1.0011  0.0166  2.1774
 6089SOL    HW229727   1.262   0.988   7.385  0.5557 -0.4976  1.4478
 6090SOL     OW29728   0.964   0.418   7.742 -0.0677 -0.4170 -0.4713
 6090SOL    HW129729   1.026   0.438   7.812  0.1255  0.3427 -0.8611
 6090SOL    HW229730   0.918   0.343   7.780  2.2419 -1.7946 -0.4121
 6091SOL     OW29731   3.516   2.521  12.495 -0.4274 -0.1395 -0.0001
 6091SOL    HW129732   3.504   2.467  12.417  1.8591 -2.0857  0.9944
 6091SOL    HW229733   3.511   2.610  12.461  0.3934 -0.3178 -0.5806
 6092SOL     OW29734   2.918   1.516  13.376 -0.3937  0.3223 -0.1526
 6092SOL    HW129735   2.837   1.538  13.331 -0.7142  1.6364  1.0818
 6092SOL    HW229736   2.934   1.425  13.349 -0.8422  0.4457 -0.8209
 6093SOL     OW29737   1.865   2.375   6.613 -0.1050  0.2688 -0.1441
 6093SOL    HW129738   1.871   2.439   6.684  0.9788 -0.3284  0.3197
 6093SOL    HW229739   1.953   2.387   6.576 -0.6533  1.1438 -1.1558
 6094SOL     OW29740   3.834   4.197   9.490 -0.1340  0.1135  0.8329
 6094SOL    HW129741   3.757   4.192   9.433  0.1331  0.5712  0.4310
 6094SOL    HW229742   3.881   4.119   9.459 -3.0129 -1.1152 -0.3983
 6095SOL     OW29743   4.463   1.063   5.007 -0.4113  0.9882 -0.0503
 6095SOL    HW129744   4.407   1.053   5.084  0.3746  0.8793  0.5074
 6095SOL    HW229745   4.510   1.142   5.033  1.1709 -0.0826  0.3554
 6096SOL     OW29746   4.431   2.757  11.363 -0.2237 -0.0198 -0.2262
 6096SOL    HW129747   4.416   2.731  11.272  2.9693 -0.0419 -0.7163
 6096SOL    HW229748   4.520   2.784  11.344 -1.2158  0.8236 -3.8193
 6097SOL     OW29749   3.871   3.526   9.967  0.2572 -0.8046 -0.3714
 6097SOL    HW129750   3.877   3.431   9.957 -0.7825 -1.3440  4.1331
 6097SOL    HW229751   3.893   3.534   9.874  2.8923  1.9811  0.4941
 6098SOL     OW29752   2.321   1.309   5.837 -0.2808 -0.4193  0.0122
 6098SOL    HW129753   2.404   1.338   5.874  0.0889 -1.7563  0.2425
 6098SOL    HW229754   2.331   1.227   5.789  0.4552  0.7723 -1.8601
 6099SOL     OW29755   0.692   0.095   8.386 -0.0143 -0.2635 -0.3946
 6099SOL    HW129756   0.778   0.065   8.415 -0.7074 -1.2771  0.6325
 6099SOL    HW229757   0.636   0.053   8.452  0.3080 -3.3202 -2.0563
 6100SOL     OW29758   2.784   2.902  10.799  0.4398 -0.2006 -0.4437
 6100SOL    HW129759   2.744   2.890  10.712  0.2212  2.1332 -0.6540
 6100SOL    HW229760   2.849   2.970  10.783 -0.5368  0.9969  0.7371
 6101SOL     OW29761   4.160   3.869   1.380 -0.5113 -0.0917  0.2334
 6101SOL    HW129762   4.218   3.833   1.312  0.4043 -2.3700  2.2042
 6101SOL    HW229763   4.118   3.786   1.404 -0.8315 -0.1327 -0.4840
 6102SOL     OW29764   3.769   4.595   8.898  0.0826 -0.2450  0.4987
 6102SOL    HW129765   3.850   4.561   8.936  1.0731  0.7945 -0.6741
 6102SOL    HW229766   3.736   4.644   8.973  0.4325  0.2234  0.3435
 6103SOL     OW29767   3.238   2.244  11.363 -0.2385 -0.4436  0.2065
 6103SOL    HW129768   3.269   2.158  11.333  0.1684 -0.4415  0.6225
 6103SOL    HW229769   3.323   2.288  11.363 -0.6940  0.4168  0.5841
 6104SOL     OW29770   4.122   4.361  15.082  0.3553 -0.1572  0.8011
 6104SOL    HW129771   4.160   4.400  15.003  0.3365 -1.3397  0.2206
 6104SOL    HW229772   4.037   4.330  15.054 -0.2363  1.4046  0.8466
 6105SOL     OW29773   3.782   3.242  16.523 -0.1985  0.1907 -0.7328
 6105SOL    HW129774   3.814   3.249  16.613  2.0279 -0.6783 -1.4636
 6105SOL    HW229775   3.703   3.193  16.544  1.5348 -2.8940 -1.3614
 6106SOL     OW29776   0.487   2.172   0.533 -0.4586 -0.3524  0.0829
 6106SOL    HW129777   0.472   2.133   0.620 -2.3782  1.2419  0.4512
 6106SOL    HW229778   0.496   2.259   0.572  1.2645  0.3487 -1.8941
 6107SOL     OW29779   1.155   2.763   8.849  0.0008  0.4585  0.4043
 6107SOL    HW129780   1.144   2.707   8.926 -2.7595 -0.2314 -0.5009
 6107SOL    HW229781   1.216   2.712   8.796 -1.1981 -0.1973 -0.3175
 6108SOL     OW29782   2.667   0.713   4.449  0.6597 -0.1507  0.3422
 6108SOL    HW129783   2.746   0.723   4.395 -0.5572  0.9793 -1.1917
 6108SOL    HW229784   2.644   0.806   4.446  0.6711 -0.1611 -0.0681
 6109SOL     OW29785   3.100   1.377   3.431  0.0981 -0.0503  0.1588
 6109SOL    HW129786   3.164   1.396   3.500 -2.5952  1.5749  2.1936
 6109SOL    HW229787   3.049   1.306   3.471  0.3481  0.2255  0.9651
 6110SOL     OW29788   4.516   4.567  12.381 -0.0032  0.1361 -0.1189
 6110SOL    HW129789   4.468   4.514  12.445  3.8118 -1.6986  1.1951
 6110SOL    HW229790   4.537   4.508  12.309 -0.8548  0.6952 -0.8349
 6111SOL     OW29791   3.623   0.890   7.265  0.0856  0.3431 -0.0414
 6111SOL    HW129792   3.607   0.897   7.359  0.1051 -1.9413  0.1134
 6111SOL    HW229793   3.548   0.931   7.222  0.3880  0.9263 -0.0118
 6112SOL     OW29794   3.537   4.709   3.690 -0.6658 -0.0948  0.5558
 6112SOL    HW129795   3.567   4.722   3.780 -0.6803  1.0959  0.3849
 6112SOL    HW229796   3.442   4.697   3.696 -1.0567  2.9968  0.7672
 6113SOL     OW29797   1.104   4.555   3.359  0.2576  0.3947 -0.2490
 6113SOL    HW129798   1.127   4.550   3.452 -0.7344 -2.7589 -0.1889
 6113SOL    HW229799   1.185   4.522   3.319  0.1344  0.2666 -0.3895
 6114SOL     OW29800   4.524   4.057   4.598  0.2829 -0.3237 -0.4639
 6114SOL    HW129801   4.432   4.058   4.621  0.3924  0.1035 -0.0519
 6114SOL    HW229802   4.571   4.033   4.678 -1.2878 -1.0467  0.2217
 6115SOL     OW29803   0.663   3.555   7.289 -0.1435  0.1236 -0.6375
 6115SOL    HW129804   0.706   3.516   7.365  0.3906  1.4971 -0.2225
 6115SOL    HW229805   0.574   3.578   7.312 -0.0655 -0.6111  0.3852
 6116SOL     OW29806   1.862   0.290   1.766  0.1223 -0.3737 -0.0512
 6116SOL    HW129807   1.779   0.244   1.781 -0.4381  0.0461 -1.8759
 6116SOL    HW229808   1.915   0.215   1.740 -0.7408 -0.7319 -0.7736
 6117SOL     OW29809   0.821   1.194   7.598  0.6543  0.2592 -0.3457
 6117SOL    HW129810   0.822   1.164   7.507  1.6206  0.4671 -0.3962
 6117SOL    HW229811   0.824   1.290   7.592 -2.0812  0.3890  0.1401
 6118SOL     OW29812   3.201   3.198   6.828 -0.3725 -0.3645  0.1234
 6118SOL    HW129813   3.115   3.238   6.819  0.7973  1.8978 -1.0731
 6118SOL    HW229814   3.177   3.108   6.848 -0.1067 -0.0356  1.9360
 6119SOL     OW29815   0.233   0.124   2.010 -0.1519 -0.1019  0.3841
 6119SOL    HW129816   0.197   0.110   2.097  0.1430 -1.4817  0.2787
 6119SOL    HW229817   0.319   0.088   2.031 -0.2326 -1.8972 -2.3330
 6120SOL     OW29818   1.380   0.888   9.215  0.2188  0.0104  0.6302
 6120SOL    HW129819   1.420   0.804   9.189  0.6103  0.3670  0.0678
 6120SOL    HW229820   1.451   0.948   9.192 -0.2583  0.4318  0.2623
 6121SOL     OW29821   3.275   1.329   5.945  0.5081 -0.2200 -0.4218
 6121SOL    HW129822   3.213   1.319   5.873 -2.1623 -1.9060  2.1388
 6121SOL    HW229823   3.270   1.425   5.953 -2.8923 -0.4037 -0.3644
 6122SOL     OW29824   1.889   3.580   3.560 -0.5009 -0.5663  0.2448
 6122SOL    HW129825   1.830   3.619   3.625  0.4470  1.3365 -0.0514
 6122SOL    HW229826   1.941   3.658   3.542  0.5440 -0.3066  4.2220
 6123SOL     OW29827   3.872   4.625   6.389  0.0721  0.0455 -0.3385
 6123SOL    HW129828   3.885   4.682   6.465 -2.2477 -0.7741  0.6683
 6123SOL    HW229829   3.948   4.651   6.338 -0.7099  0.8269 -1.0993
 6124SOL     OW29830   4.605   4.437   2.239  0.0260 -0.1347 -0.7017
 6124SOL    HW129831   4.684   4.401   2.280 -0.1737 -1.2273 -1.2585
 6124SOL    HW229832   4.539   4.377   2.273  1.8391 -1.7192  0.0783
 6125SOL     OW29833   0.356   1.577  15.686 -0.2008 -0.5905  0.0299
 6125SOL    HW129834   0.365   1.506  15.749 -0.8000 -1.6050 -1.0302
 6125SOL    HW229835   0.419   1.538  15.626  0.0511  2.3296 -1.6121
 6126SOL     OW29836   0.638   1.888  13.643  0.0056  0.1379 -0.5337
 6126SOL    HW129837   0.724   1.867  13.679  0.4413 -2.6209 -3.1296
 6126SOL    HW229838   0.589   1.911  13.722 -0.0579  0.9310 -0.8077
 6127SOL     OW29839   4.471   0.770   7.153 -0.1130 -0.1934  0.3425
 6127SOL    HW129840   4.532   0.791   7.224 -1.5152  1.1509  1.1786
 6127SOL    HW229841   4.465   0.675   7.162 -1.8289  0.2164  3.6348
 6128SOL     OW29842   3.348   0.751   7.225  0.3465  0.1819  0.0378
 6128SOL    HW129843   3.358   0.809   7.300  0.3641  2.5542 -1.8048
 6128SOL    HW229844   3.303   0.804   7.159  0.1662 -1.6194 -1.3185
 6129SOL     OW29845   0.223   0.782   6.152  0.5725  0.1368 -0.4439
 6129SOL    HW129846   0.307   0.738   6.145  1.4694  1.2514  3.2769
 6129SOL    HW229847   0.222   0.830   6.069 -0.0787 -0.0078 -0.5237
 6130SOL     OW29848   2.208   3.009  15.755 -0.0609  0.0305 -0.9158
 6130SOL    HW129849   2.170   2.964  15.680 -0.1027  0.5310 -1.2015
 6130SOL    HW229850   2.177   3.098  15.733  2.7855  0.9489 -1.1433
 6131SOL     OW29851   2.471   2.555   7.052  0.0147 -0.1435  0.0378
 6131SOL    HW129852   2.424   2.564   7.134  0.5858  3.2849  0.0100
 6131SOL    HW229853   2.515   2.641   7.048  0.4376 -0.3019  1.2353
 6132SOL     OW29854   3.899   2.751  15.998  0.1487 -0.1390  0.7726
 6132SOL    HW129855   3.915   2.684  15.932 -0.6936  0.4853 -0.0519
 6132SOL    HW229856   3.927   2.829  15.950 -0.7138 -0.4354 -0.2221
 6133SOL     OW29857   4.156   1.875  10.804  0.3695 -0.0367 -0.1487
 6133SOL    HW129858   4.128   1.834  10.886  0.7952  0.8314  0.4248
 6133SOL    HW229859   4.164   1.965  10.836  0.5685 -0.6048  1.3982
 6134SOL     OW29860   4.555   2.422   4.626 -0.5406 -0.4749  0.1178
 6134SOL    HW129861   4.626   2.484   4.636 -1.0962 -0.4558  3.7786
 6134SOL    HW229862   4.608   2.344   4.608 -0.1657  0.7359 -4.1724
 6135SOL     OW29863   1.793   2.173  12.411  0.1650 -0.6485 -0.0202
 6135SOL    HW129864   1.742   2.142  12.486 -0.6149 -0.5615 -0.5166
 6135SOL    HW229865   1.811   2.092  12.364 -2.3523 -0.7711 -0.7503
 6136SOL     OW29866   1.098   4.712   7.262  0.2224  0.2896  0.4104
 6136SOL    HW129867   1.027   4.684   7.321  0.2983 -0.9562 -0.0984
 6136SOL    HW229868   1.165   4.644   7.271 -1.6591 -1.6710 -0.3495
 6137SOL     OW29869   3.982   0.677   2.672  0.2188 -0.7295  0.1180
 6137SOL    HW129870   3.956   0.757   2.718  1.1884  1.0312 -2.4476
 6137SOL    HW229871   3.976   0.620   2.749 -2.5333 -1.2953 -0.5104
 6138SOL     OW29872   3.720   3.487   3.091  0.0777  0.5144  0.2953
 6138SOL    HW129873   3.802   3.437   3.085  0.2358  0.5197  2.5053
 6138SOL    HW229874   3.679   3.482   3.004 -0.6623  0.1309  0.6695
 6139SOL     OW29875   1.922   0.927   4.684  0.2305  0.5484 -0.0411
 6139SOL    HW129876   1.946   0.878   4.606 -0.6873  1.1489 -0.7006
 6139SOL    HW229877   2.007   0.940   4.725  0.3707  0.1279 -0.1966
 6140SOL     OW29878   1.181   3.372   2.640 -0.4155  0.6550 -0.6707
 6140SOL    HW129879   1.177   3.447   2.581 -0.3624  0.8395 -0.4359
 6140SOL    HW229880   1.187   3.294   2.583 -3.6527 -2.2105  2.9461
 6141SOL     OW29881   4.721   4.339   8.154 -0.1538 -0.0291 -0.0512
 6141SOL    HW129882   4.629   4.322   8.134  0.3936 -1.3743 -1.5110
 6141SOL    HW229883   0.035   4.258   8.121  0.4587  0.1561  0.2496
 6142SOL     OW29884   3.468   0.209   7.286 -0.1746 -0.2477 -0.1919
 6142SOL    HW129885   3.374   0.208   7.270 -0.2094 -0.2497  0.0176
 6142SOL    HW229886   3.486   0.303   7.281 -0.8242 -0.0370  1.4726
 6143SOL     OW29887   2.846   0.790   5.818 -0.1693 -0.6186 -0.4091
 6143SOL    HW129888   2.911   0.859   5.835 -1.1859  0.0914  0.6072
 6143SOL    HW229889   2.895   0.723   5.864  1.8044  1.6494  0.8109
 6144SOL     OW29890   1.642   2.845  17.207  0.6043  0.1083  0.2021
 6144SOL    HW129891   1.675   2.933  17.190  1.3088 -0.2161 -0.0908
 6144SOL    HW229892   1.719   2.799  17.240  0.2588 -0.3964  0.3037
 6145SOL     OW29893   2.971   3.836   9.081 -0.0798 -0.3850  0.1867
 6145SOL    HW129894   2.899   3.899   9.090 -0.0982 -0.3450 -0.2107
 6145SOL    HW229895   2.950   3.794   8.997  0.4270 -0.5230  0.1258
 6146SOL     OW29896   3.863   4.035  17.068  0.0105 -0.4161  0.7990
 6146SOL    HW129897   3.896   4.125  17.059 -1.2396 -0.4510 -4.5956
 6146SOL    HW229898   3.804   4.055  17.141  1.8749  0.8063  1.9791
 6147SOL     OW29899   4.016   2.579  10.297  0.4474 -0.6358  0.1794
 6147SOL    HW129900   4.097   2.610  10.336 -0.6353  2.0134  0.3229
 6147SOL    HW229901   4.041   2.577  10.204 -2.8714  1.2045 -0.7663
 6148SOL     OW29902   0.214   1.442   0.187  0.3966 -0.0052  0.2050
 6148SOL    HW129903   0.299   1.486   0.189  0.5974 -0.3966  0.2277
 6148SOL    HW229904   0.228   1.400   0.102 -0.4906  1.3270 -0.6017
 6149SOL     OW29905   2.325   3.140   2.663  0.3098 -0.6107 -0.0989
 6149SOL    HW129906   2.378   3.183   2.730 -0.1795 -1.4593  0.8472
 6149SOL    HW229907   2.370   3.166   2.583  1.7394  3.1267  1.9415
 6150SOL     OW29908   1.280   2.889   7.496 -0.0872  1.1909  0.3651
 6150SOL    HW129909   1.196   2.867   7.455  0.5631  0.6715 -0.6938
 6150SOL    HW229910   1.280   2.856   7.586 -1.1459  0.1143 -0.0252
 6151SOL     OW29911   2.870   2.250   8.117  0.5289 -0.0358 -0.2353
 6151SOL    HW129912   2.890   2.343   8.127  1.6633 -0.1516 -1.3920
 6151SOL    HW229913   2.884   2.228   8.209  0.3203  0.2285 -0.1383
 6152SOL     OW29914   2.377   2.222   6.677  0.0615 -0.4325  0.2496
 6152SOL    HW129915   2.398   2.304   6.720  2.3604 -0.4423 -0.8774
 6152SOL    HW229916   2.411   2.161   6.742  0.1348  0.1603  0.7658
 6153SOL     OW29917   2.941   0.992   6.296 -0.5277 -0.0029 -0.3563
 6153SOL    HW129918   2.984   1.014   6.213  1.4092 -1.7706  0.1551
 6153SOL    HW229919   2.945   1.075   6.344 -1.9430  0.8887 -1.8039
 6154SOL     OW29920   0.059   1.319   8.531 -0.2264  0.0183 -0.0462
 6154SOL    HW129921   0.012   1.280   8.605  0.1616  0.8325  0.6288
 6154SOL    HW229922   0.132   1.259   8.515 -0.2257  0.3320 -1.1817
 6155SOL     OW29923   2.559   4.287   2.703  0.5563 -0.1415 -0.2492
 6155SOL    HW129924   2.622   4.278   2.775  0.3716 -1.4968 -0.2606
 6155SOL    HW229925   2.483   4.235   2.730  0.9910 -0.8691 -0.4158
 6156SOL     OW29926   1.147   3.810   6.221 -0.6723  0.3229  0.0632
 6156SOL    HW129927   1.082   3.750   6.184  0.1162  0.1048 -0.9633
 6156SOL    HW229928   1.199   3.749   6.274  1.1044  3.3398  1.7821
 6157SOL     OW29929   0.095   1.186   2.318 -0.3174  0.0400  0.5115
 6157SOL    HW129930   0.154   1.217   2.387 -2.6438  2.3774  1.4002
 6157SOL    HW229931   0.014   1.228   2.345 -0.9500 -0.5260 -0.4782
 6158SOL     OW29932   1.119   0.930  13.174 -0.0638  0.1545 -0.0046
 6158SOL    HW129933   1.081   0.940  13.086 -1.2280  3.2899  0.8681
 6158SOL    HW229934   1.157   1.015  13.196  0.2807  0.3467 -1.3233
 6159SOL     OW29935   1.846   0.955  13.100  0.3681  0.2826  0.4815
 6159SOL    HW129936   1.930   0.979  13.141 -0.7971  0.8163  2.5828
 6159SOL    HW229937   1.879   0.957  13.010 -2.2536  2.6784 -0.4202
 6160SOL     OW29938   0.442   3.666   6.253 -0.3210 -0.1487 -0.1030
 6160SOL    HW129939   0.503   3.723   6.207  0.9698 -0.3053  1.3996
 6160SOL    HW229940   0.515   3.605   6.263  0.9198  1.5269  1.1717
 6161SOL     OW29941   0.827   4.020  13.527 -0.1370  0.2730 -0.2944
 6161SOL    HW129942   0.819   4.079  13.602  0.2171  0.9442 -0.7757
 6161SOL    HW229943   0.850   3.939  13.572 -1.8986  0.5451  1.0702
 6162SOL     OW29944   1.727   1.059  13.931 -0.2645  0.1190  0.3156
 6162SOL    HW129945   1.781   1.010  13.993  0.5971  1.9147  0.9790
 6162SOL    HW229946   1.685   0.982  13.892 -1.6738  0.0613  1.9307
 6163SOL     OW29947   4.163   1.195   8.470 -0.7452  0.0068  0.0820
 6163SOL    HW129948   4.257   1.207   8.477 -0.7649  0.2692 -0.1439
 6163SOL    HW229949   4.136   1.251   8.543 -2.2340 -0.3833 -0.1663
 6164SOL     OW29950   1.150   2.689   4.784  0.1392  0.5345 -0.0327
 6164SOL    HW129951   1.109   2.624   4.841  1.6480 -1.2965 -1.0139
 6164SOL    HW229952   1.081   2.747   4.752  0.1733 -0.4947 -1.9543
 6165SOL     OW29953   0.845   3.852   6.680  0.0025  0.6336 -0.4775
 6165SOL    HW129954   0.814   3.872   6.768 -1.6229 -3.2091 -0.1548
 6165SOL    HW229955   0.766   3.821   6.636 -1.5068  0.0205  2.7061
 6166SOL     OW29956   3.433   4.604   1.603 -0.4251 -0.0246  0.4256
 6166SOL    HW129957   3.407   4.650   1.683 -0.5151 -0.8216  0.8549
 6166SOL    HW229958   3.388   4.519   1.612  0.8093 -0.8781 -1.5040
 6167SOL     OW29959   4.474   0.987   1.496  0.5755 -0.0557 -0.1547
 6167SOL    HW129960   4.556   0.983   1.546  0.2794 -0.5164  0.2880
 6167SOL    HW229961   4.446   0.897   1.515 -0.0583 -0.1642 -1.6372
 6168SOL     OW29962   3.332   3.183  14.968  0.3921  0.3168  0.0193
 6168SOL    HW129963   3.313   3.276  14.957  2.3577  0.7846  0.5334
 6168SOL    HW229964   3.340   3.159  14.876 -2.4264 -0.2908 -0.0705
 6169SOL     OW29965   2.658   1.324  17.683 -0.6233  0.1955  0.7801
 6169SOL    HW129966   2.720   1.382  17.640 -0.2592  0.3385  1.4898
 6169SOL    HW229967   2.683   1.239  17.647  1.2127  0.7292  0.8031
 6170SOL     OW29968   0.994   0.993   6.356  0.1524  0.2509  0.8919
 6170SOL    HW129969   0.966   1.064   6.414 -0.2896  1.3455 -0.6576
 6170SOL    HW229970   1.073   1.028   6.314 -0.5439 -1.4698 -1.8540
 6171SOL     OW29971   4.226   1.347   6.687 -0.2855 -0.0230  0.0255
 6171SOL    HW129972   4.135   1.319   6.676 -0.5240  0.6373  0.3104
 6171SOL    HW229973   4.262   1.270   6.730 -0.5098  0.4753  1.1053
 6172SOL     OW29974   4.019   3.591  11.024  0.3920 -0.2435  0.1987
 6172SOL    HW129975   4.020   3.666  10.965  3.0792 -1.9922 -2.0296
 6172SOL    HW229976   4.072   3.524  10.979  1.7514  0.9771 -0.0065
 6173SOL     OW29977   2.656   3.573   9.082  0.3057  0.5480  0.3002
 6173SOL    HW129978   2.564   3.552   9.094  0.3749 -0.2822 -0.5297
 6173SOL    HW229979   2.689   3.565   9.172  3.3378 -3.0424 -1.0950
 6174SOL     OW29980   4.724   3.145  11.333 -0.6029 -0.4792 -0.7862
 6174SOL    HW129981   4.640   3.183  11.305  0.6793 -0.3107 -4.3886
 6174SOL    HW229982   0.037   3.213  11.388  0.7115 -0.4988 -1.7157
 6175SOL     OW29983   2.001   3.909   6.670  0.2699  0.3380  0.0238
 6175SOL    HW129984   2.017   3.875   6.581  1.6618  0.9789  0.0487
 6175SOL    HW229985   2.084   3.886   6.711 -1.0152 -2.6714  0.9437
 6176SOL     OW29986   1.223   3.579  16.195  0.6825 -0.2765  0.3097
 6176SOL    HW129987   1.156   3.611  16.135 -0.2299 -1.1640  0.8588
 6176SOL    HW229988   1.241   3.495  16.153 -0.6343  0.0537 -0.8986
 6177SOL     OW29989   0.415   3.485   2.941 -0.1837 -0.0190 -0.5118
 6177SOL    HW129990   0.410   3.392   2.916  0.8618 -0.8330  2.3311
 6177SOL    HW229991   0.487   3.521   2.889 -1.7923  2.4448 -1.0114
 6178SOL     OW29992   2.017   0.944  12.906 -0.2512  0.8972 -0.3591
 6178SOL    HW129993   2.061   0.925  12.823  0.8976  1.6567  0.0818
 6178SOL    HW229994   2.077   1.009  12.941 -1.3889  2.5204 -1.3958
 6179SOL     OW29995   3.281   1.756  13.465  0.2634  0.3302 -0.6377
 6179SOL    HW129996   3.347   1.769  13.397  0.9246  0.0194 -0.0466
 6179SOL    HW229997   3.274   1.843  13.503 -1.4289  0.0164 -0.2400
 6180SOL     OW29998   3.158   2.799   7.163  0.3114  0.0218 -0.0358
 6180SOL    HW129999   3.233   2.821   7.108  0.8821 -1.1917  0.2529
 6180SOL    HW230000   3.098   2.775   7.093 -0.0066 -1.4192  0.7171
 6181SOL     OW30001   0.375   0.941   1.253 -0.2421  0.3356  0.4172
 6181SOL    HW130002   0.351   0.849   1.242  4.2023 -1.0898  2.6338
 6181SOL    HW230003   0.300   0.983   1.211 -1.0061 -1.0650  0.3880
 6182SOL     OW30004   3.598   3.695   9.343  0.4627 -0.3532 -0.1975
 6182SOL    HW130005   3.556   3.697   9.429 -1.1106 -1.3141 -0.9370
 6182SOL    HW230006   3.540   3.756   9.298  1.0734  0.8714  0.6643
 6183SOL     OW30007   2.452   1.916   2.669 -0.1878 -0.6200  0.0665
 6183SOL    HW130008   2.406   1.845   2.715 -0.6880  0.3281  1.0451
 6183SOL    HW230009   2.531   1.907   2.723  1.0930 -1.0152 -1.8962
 6184SOL     OW30010   0.111   1.465   7.474 -0.5158 -0.0570  0.4435
 6184SOL    HW130011   0.098   1.536   7.411 -0.6167  0.7771  1.4196
 6184SOL    HW230012   0.034   1.409   7.477 -1.1661  0.8666  0.5958
 6185SOL     OW30013   1.908   1.371  11.706  0.0290 -0.5600  0.6041
 6185SOL    HW130014   1.902   1.304  11.638 -1.9714  1.5091 -1.2612
 6185SOL    HW230015   1.967   1.429  11.659 -1.3664  0.3969  0.0267
 6186SOL     OW30016   4.424   2.615   0.088 -0.1920 -0.0642 -0.2307
 6186SOL    HW130017   4.359   2.559   0.131 -1.4919  0.8557 -1.0230
 6186SOL    HW230018   4.499   2.555   0.096 -0.8839 -1.1592 -2.0290
 6187SOL     OW30019   2.956   2.653  13.587  0.4143 -0.1461  0.0973
 6187SOL    HW130020   2.889   2.589  13.611 -1.8926  1.7995 -1.3299
 6187SOL    HW230021   2.970   2.716  13.658  0.3094 -0.5806  0.5050
 6188SOL     OW30022   1.437   2.759   4.127  0.2471  0.0521  0.1060
 6188SOL    HW130023   1.509   2.802   4.174 -0.5167  0.2311  1.0963
 6188SOL    HW230024   1.376   2.832   4.118  0.2625  0.2311  1.5646
 6189SOL     OW30025   1.658   4.440  12.807  0.3849 -0.5265  0.1742
 6189SOL    HW130026   1.744   4.461  12.772 -0.0122 -2.1623 -1.7849
 6189SOL    HW230027   1.674   4.350  12.835  0.9478  0.0077  1.5605
 6190SOL     OW30028   1.789   4.459   4.443  0.3672 -0.3138 -0.3618
 6190SOL    HW130029   1.722   4.392   4.439  0.7934 -0.8445  1.2210
 6190SOL    HW230030   1.744   4.525   4.496 -0.5280  0.6864 -2.3765
 6191SOL     OW30031   2.139   2.040   5.579 -0.4278  0.0640 -0.4737
 6191SOL    HW130032   2.121   2.052   5.485 -1.2812  1.2519 -0.1549
 6191SOL    HW230033   2.235   2.045   5.577 -0.2619 -2.7500  0.2209
 6192SOL     OW30034   3.712   0.657   5.424  0.0978  0.3866  0.2422
 6192SOL    HW130035   3.634   0.670   5.479 -1.0558 -0.5274 -1.1757
 6192SOL    HW230036   3.697   0.728   5.362  0.3816  0.6132  0.4343
 6193SOL     OW30037   0.537   1.137  15.386 -0.3251 -0.1487  0.2692
 6193SOL    HW130038   0.497   1.079  15.450 -0.7465  0.7285  0.7881
 6193SOL    HW230039   0.589   1.071  15.339 -0.0642  1.2055 -1.3560
 6194SOL     OW30040   3.115   4.066  15.251 -0.1090 -0.2145  0.0241
 6194SOL    HW130041   3.029   4.024  15.246 -0.3834  0.3820 -0.4136
 6194SOL    HW230042   3.148   4.025  15.171  0.7871 -0.4395  0.5204
 6195SOL     OW30043   3.294   1.089   1.868 -0.2521 -0.3121  0.2147
 6195SOL    HW130044   3.313   1.136   1.949  1.2103 -0.1132 -0.2486
 6195SOL    HW230045   3.331   1.150   1.804  0.7252 -0.9687  0.1613
 6196SOL     OW30046   3.975   4.156  14.679  0.0597  0.0985 -0.0328
 6196SOL    HW130047   4.001   4.095  14.749  0.7337  2.3712  1.7008
 6196SOL    HW230048   3.954   4.103  14.603 -2.0815 -1.0746  1.3792
 6197SOL     OW30049   2.053   3.827   1.860  0.0871 -0.5448  0.1677
 6197SOL    HW130050   2.018   3.781   1.784  2.8063 -0.3256 -1.2301
 6197SOL    HW230051   2.007   3.780   1.930  2.5949 -2.3517  0.6185
 6198SOL     OW30052   1.358   1.922   5.330 -0.2064 -0.7277  0.3776
 6198SOL    HW130053   1.295   1.872   5.277  1.2084 -3.8796  1.6381
 6198SOL    HW230054   1.440   1.908   5.283  0.1932 -0.9705  1.1537
 6199SOL     OW30055   1.156   3.519   7.293 -0.7338  0.3302 -0.4000
 6199SOL    HW130056   1.116   3.605   7.286 -0.2610  0.5001 -1.0199
 6199SOL    HW230057   1.226   3.544   7.353  0.5923  0.9555 -2.1902
 6200SOL     OW30058   3.532   1.300  15.853  0.0992 -1.0874 -0.4590
 6200SOL    HW130059   3.462   1.292  15.918 -0.9843 -1.7385 -1.7176
 6200SOL    HW230060   3.581   1.371  15.895 -0.3995 -1.4077  0.6731
 6201SOL     OW30061   3.482   3.159   5.000 -0.2118  0.2788 -0.6016
 6201SOL    HW130062   3.555   3.220   5.011  0.1298 -0.1892 -0.2710
 6201SOL    HW230063   3.449   3.168   4.911 -0.7702 -0.2582 -0.4488
 6202SOL     OW30064   2.051   4.686   7.403  0.0607 -0.0244 -0.1100
 6202SOL    HW130065   2.092   4.616   7.455 -0.4279  1.0617  1.7386
 6202SOL    HW230066   2.030   4.645   7.319 -0.5008 -1.3142  0.6615
 6203SOL     OW30067   2.059   1.308   8.646  0.4514 -0.1964 -0.6311
 6203SOL    HW130068   2.055   1.398   8.613 -1.0587 -0.7276 -1.8908
 6203SOL    HW230069   2.147   1.279   8.621 -0.6987 -3.1542 -1.1774
 6204SOL     OW30070   1.936   4.070   2.987 -0.3166 -0.0606  0.0333
 6204SOL    HW130071   1.974   4.153   3.015  1.6870 -1.1045  0.4030
 6204SOL    HW230072   1.968   4.012   3.056 -1.7780 -1.8848 -0.8166
 6205SOL     OW30073   1.774   3.246   1.430  0.3282 -0.2869 -0.2340
 6205SOL    HW130074   1.840   3.263   1.364 -1.1690  0.1940 -1.6012
 6205SOL    HW230075   1.702   3.212   1.377  0.8174 -4.3687  1.6840
 6206SOL     OW30076   0.219   2.436   6.259  0.6108 -0.0838 -0.2024
 6206SOL    HW130077   0.154   2.382   6.303  0.9614 -0.7147 -0.4611
 6206SOL    HW230078   0.294   2.441   6.319 -0.8321 -0.5060  1.6282
 6207SOL     OW30079   2.932   3.067   9.409 -0.0143  0.2194 -0.0043
 6207SOL    HW130080   2.898   3.076   9.498 -0.4534  2.2941 -0.3782
 6207SOL    HW230081   3.007   3.010   9.422 -1.0865 -1.4861 -1.2619
 6208SOL     OW30082   0.017   1.855  16.531 -0.1571  0.1905 -0.0803
 6208SOL    HW130083   4.697   1.902  16.600  0.7105  1.6435 -0.4844
 6208SOL    HW230084   4.721   1.766  16.557 -0.4761  0.3045  0.0451
 6209SOL     OW30085   0.574   1.988   4.752 -0.4955  0.1037  0.0168
 6209SOL    HW130086   0.599   1.898   4.771  0.8003  0.6216  0.7367
 6209SOL    HW230087   0.528   2.012   4.832  0.5891  1.7853  0.1414
 6210SOL     OW30088   0.936   1.268  10.820  0.1309  0.3887 -0.5846
 6210SOL    HW130089   1.007   1.205  10.807 -0.1568  0.1778 -1.1297
 6210SOL    HW230090   0.875   1.203  10.786  0.5377  1.1742 -2.8498
 6211SOL     OW30091   3.639   4.051  12.289  0.2113  0.4874  0.6561
 6211SOL    HW130092   3.595   4.117  12.342 -0.4549  1.3874 -1.0590
 6211SOL    HW230093   3.730   4.079  12.299  0.1228  0.6454  1.0467
 6212SOL     OW30094   4.224   1.220  10.254  0.7103 -0.6541  0.3267
 6212SOL    HW130095   4.214   1.274  10.332  1.1920  0.5612 -0.4499
 6212SOL    HW230096   4.320   1.220  10.247  0.7162 -2.0809  0.3389
 6213SOL     OW30097   2.815   4.131   1.381  0.0977 -1.0587 -0.4108
 6213SOL    HW130098   2.837   4.093   1.295  2.9393  2.3682 -1.1617
 6213SOL    HW230099   2.726   4.161   1.360 -0.1696 -0.3144  1.8591
 6214SOL     OW30100   3.345   1.736   1.939  0.0258 -0.3527  0.3206
 6214SOL    HW130101   3.406   1.725   2.012  0.4354  1.2523  0.2128
 6214SOL    HW230102   3.367   1.665   1.879  0.3713 -0.6123  0.7506
 6215SOL     OW30103   3.257   4.213   8.710  0.2527  0.2272 -0.2773
 6215SOL    HW130104   3.280   4.254   8.627  0.2155  2.1054  0.6247
 6215SOL    HW230105   3.338   4.224   8.761 -0.6884  2.7496  0.6853
 6216SOL     OW30106   2.457   2.269   7.824  0.5727 -0.3439 -0.1146
 6216SOL    HW130107   2.531   2.229   7.778  0.9522  1.3933 -1.0284
 6216SOL    HW230108   2.486   2.267   7.915  2.3989  0.8783 -0.6668
 6217SOL     OW30109   1.198   4.236  11.819  0.1326  0.2338 -0.5138
 6217SOL    HW130110   1.220   4.152  11.780 -1.8927 -0.6386  0.2111
 6217SOL    HW230111   1.241   4.296  11.759  1.4084  1.3465  1.4924
 6218SOL     OW30112   4.636   2.230   8.161 -0.2373 -0.9334  0.0306
 6218SOL    HW130113   4.632   2.136   8.182  1.5496 -0.7915  1.0445
 6218SOL    HW230114   4.618   2.224   8.068  1.6001 -0.4772 -0.3639
 6219SOL     OW30115   2.236   2.443   7.976 -0.2306 -0.5326 -0.2444
 6219SOL    HW130116   2.207   2.422   7.887 -3.7764 -0.7418  0.9344
 6219SOL    HW230117   2.309   2.503   7.962  1.7001 -2.4227  1.7978
 6220SOL     OW30118   4.533   0.504   6.408  0.0701  0.3179  0.2335
 6220SOL    HW130119   4.543   0.409   6.403 -2.5316  0.0538  0.3791
 6220SOL    HW230120   4.607   0.535   6.356  1.3911 -3.3213 -0.0852
 6221SOL     OW30121   1.170   3.771  12.910  0.1913 -0.4004  0.8536
 6221SOL    HW130122   1.170   3.867  12.910 -1.8003 -0.4058  0.4421
 6221SOL    HW230123   1.139   3.750  12.998 -0.1260  1.1463  1.1114
 6222SOL     OW30124   0.656   4.191   0.794 -0.2237  0.1605 -0.0830
 6222SOL    HW130125   0.584   4.128   0.798  0.6151 -0.9384 -2.5551
 6222SOL    HW230126   0.724   4.148   0.743  0.4360  0.7464  0.2985
 6223SOL     OW30127   1.477   4.690   3.405  0.7959 -0.6738 -0.4756
 6223SOL    HW130128   1.517   0.029   3.347 -0.6741 -1.6842 -2.6126
 6223SOL    HW230129   1.416   4.649   3.345  0.4823  0.1756 -0.7359
 6224SOL     OW30130   1.468   2.805   7.894  0.1146 -0.5353 -0.4004
 6224SOL    HW130131   1.466   2.864   7.969 -2.1952 -1.9693  0.6810
 6224SOL    HW230132   1.560   2.779   7.895  0.1656 -0.3907 -1.3866
 6225SOL     OW30133   2.040   4.167   9.135 -0.1062  0.0630 -0.2798
 6225SOL    HW130134   1.979   4.224   9.183 -0.4476  2.2951 -3.3589
 6225SOL    HW230135   1.985   4.149   9.059  0.3154  0.3277 -0.6498
 6226SOL     OW30136   1.497   3.993   4.589 -0.0299  0.8185  0.2233
 6226SOL    HW130137   1.515   3.938   4.665  2.7126 -1.2675 -1.9105
 6226SOL    HW230138   1.508   3.923   4.525 -0.7328  0.2433  0.7424
 6227SOL     OW30139   1.269   0.461   7.180  0.3625  0.0975 -0.0140
 6227SOL    HW130140   1.233   0.524   7.118  0.1945  0.8701  0.8853
 6227SOL    HW230141   1.236   0.485   7.266  0.9617  0.6165  0.0697
 6228SOL     OW30142   0.557   3.285   8.423 -0.2888 -0.5947 -0.5564
 6228SOL    HW130143   0.599   3.205   8.391  1.7902 -0.1875  1.1558
 6228SOL    HW230144   0.508   3.243   8.494  0.5349  1.3651  1.1806
 6229SOL     OW30145   4.300   2.456   5.261 -0.1099 -0.3140  0.0253
 6229SOL    HW130146   4.276   2.419   5.176 -1.4452  0.6596 -0.0327
 6229SOL    HW230147   4.276   2.386   5.322 -1.6177  0.3537  0.2069
 6230SOL     OW30148   1.324   0.162   4.231  0.5984 -0.5041 -0.2091
 6230SOL    HW130149   1.264   0.122   4.294  0.3548 -0.2064 -0.2554
 6230SOL    HW230150   1.292   0.252   4.235 -0.9562 -0.9943 -1.4564
 6231SOL     OW30151   3.486   3.485  10.290 -0.2493 -0.1059  0.2297
 6231SOL    HW130152   3.546   3.418  10.321  0.6578 -0.0989 -1.5216
 6231SOL    HW230153   3.545   3.541  10.239  0.9156  0.3591  2.0840
 6232SOL     OW30154   1.305   0.549   3.430 -0.2214  0.2840  0.2515
 6232SOL    HW130155   1.288   0.533   3.523  0.7384 -0.7020  0.2525
 6232SOL    HW230156   1.337   0.463   3.403 -2.4046 -0.3378 -0.3970
 6233SOL     OW30157   4.169   2.570  15.259 -0.2852 -0.1389  0.0904
 6233SOL    HW130158   4.237   2.606  15.202 -0.3245 -1.1265 -0.5750
 6233SOL    HW230159   4.216   2.508  15.315  2.1322  2.0413  0.4620
 6234SOL     OW30160   2.882   0.299   5.068 -0.1679  0.0520  0.0785
 6234SOL    HW130161   2.887   0.207   5.042 -1.5501 -0.3378  1.2415
 6234SOL    HW230162   2.803   0.325   5.021  0.1208 -0.0692 -0.4807
 6235SOL     OW30163   3.626   2.497   6.888  0.2624  0.1607  0.0299
 6235SOL    HW130164   3.550   2.507   6.945 -0.4121 -0.8846 -0.6791
 6235SOL    HW230165   3.696   2.473   6.948 -0.0459 -0.2084  0.2423
 6236SOL     OW30166   0.070   4.511   7.659 -0.1228  0.0427  0.1829
 6236SOL    HW130167   0.025   4.484   7.739 -0.1712 -0.5497 -0.0493
 6236SOL    HW230168   0.026   4.450   7.600 -1.1381 -0.6245  1.6335
 6237SOL     OW30169   0.058   3.259  11.098  0.4236  0.1431 -0.3247
 6237SOL    HW130170   0.128   3.322  11.081  0.7801 -0.5857 -1.6372
 6237SOL    HW230171   0.053   3.257  11.193  1.6504  3.1356 -0.1970
 6238SOL     OW30172   1.005   1.506  10.662 -0.3358  0.0260 -0.2223
 6238SOL    HW130173   0.919   1.506  10.618 -1.2523  2.7694  1.6392
 6238SOL    HW230174   0.984   1.444  10.732  0.2504  2.7649  2.3126
 6239SOL     OW30175   1.469   1.071  14.959  0.2021 -0.4001  0.1357
 6239SOL    HW130176   1.425   0.996  14.920  0.3278 -0.0297 -0.7085
 6239SOL    HW230177   1.552   1.079  14.912 -0.5933  3.4181 -0.6612
 6240SOL     OW30178   3.405   4.172   7.638  0.1164  0.2085  0.7919
 6240SOL    HW130179   3.329   4.194   7.585 -0.9864 -0.7594  1.9448
 6240SOL    HW230180   3.424   4.087   7.598  3.2101  1.6893 -0.8727
 6241SOL     OW30181   3.795   0.938  12.080  0.5089  0.2426  0.1917
 6241SOL    HW130182   3.882   0.941  12.040  1.1459  2.2513  1.7370
 6241SOL    HW230183   3.743   0.943  12.000  0.7097 -0.3208  0.0252
 6242SOL     OW30184   2.598   4.198  10.242  0.1422  0.3448  0.2530
 6242SOL    HW130185   2.654   4.273  10.266 -0.2971  0.6718  0.2576
 6242SOL    HW230186   2.573   4.164  10.328  0.6750  0.8486  0.6133
 6243SOL     OW30187   0.975   3.239   6.531  0.1143 -0.2689 -0.0830
 6243SOL    HW130188   0.955   3.175   6.463  0.2960 -0.8829  0.4331
 6243SOL    HW230189   0.920   3.194   6.595 -0.7095  0.9148  0.0255
 6244SOL     OW30190   3.960   1.496   9.006 -0.0782 -0.8345 -0.1723
 6244SOL    HW130191   3.951   1.571   9.064  1.3975  0.4747 -1.6426
 6244SOL    HW230192   4.025   1.532   8.945  1.2231  0.6174  2.0759
 6245SOL     OW30193   2.792   0.377   4.681  0.0382 -0.6977  0.0166
 6245SOL    HW130194   2.722   0.421   4.634 -1.1648  0.9383  3.3484
 6245SOL    HW230195   2.868   0.413   4.635  0.9888 -0.8043  1.4952
 6246SOL     OW30196   0.841   3.141   0.466 -0.3334 -0.5954 -0.4280
 6246SOL    HW130197   0.901   3.070   0.487 -1.3920 -1.2275  0.4737
 6246SOL    HW230198   0.796   3.161   0.548  2.6794 -1.8579  1.4865
 6247SOL     OW30199   4.645   3.788   2.569  0.1599  0.8639 -0.1947
 6247SOL    HW130200   4.563   3.818   2.609 -0.8155 -1.8194 -0.1731
 6247SOL    HW230201   4.644   3.820   2.479  0.6852  2.4829  0.3863
 6248SOL     OW30202   3.278   0.610   5.059  0.3433  0.4710 -0.5276
 6248SOL    HW130203   3.262   0.662   5.138  1.8045  1.6473 -1.0051
 6248SOL    HW230204   3.326   0.536   5.095 -0.4559  0.9866  1.6426
 6249SOL     OW30205   4.713   0.885   7.949  0.1911 -0.2821  0.3761
 6249SOL    HW130206   4.712   0.975   7.915  1.2757 -1.0122 -1.5282
 6249SOL    HW230207   4.707   0.899   8.044 -2.4894  0.7387  0.0722
 6250SOL     OW30208   0.533   0.598   1.715  0.2997 -0.5234 -0.0665
 6250SOL    HW130209   0.515   0.685   1.751  0.6813 -1.3721  2.2184
 6250SOL    HW230210   0.622   0.577   1.745  0.0014 -3.3877 -1.2112
 6251SOL     OW30211   4.030   0.273   1.841  0.1860 -0.4695 -0.2205
 6251SOL    HW130212   4.105   0.220   1.812  0.7596  0.3097 -0.1740
 6251SOL    HW230213   4.016   0.321   1.760 -0.0520 -1.9067 -1.0233
 6252SOL     OW30214   3.950   3.559   2.617 -0.2333 -0.1178 -0.1722
 6252SOL    HW130215   3.912   3.533   2.533  0.6986  1.3321 -1.0520
 6252SOL    HW230216   3.926   3.652   2.617  0.2302  0.0072  0.3290
 6253SOL     OW30217   0.442   4.545   6.775 -0.3184  0.7648  0.0575
 6253SOL    HW130218   0.528   4.524   6.812 -1.4213  1.6448  3.1364
 6253SOL    HW230219   0.429   4.636   6.803 -0.7500  0.0892  2.0953
 6254SOL     OW30220   3.674   4.163   3.403 -0.4336  0.1195 -0.9015
 6254SOL    HW130221   3.687   4.229   3.335 -0.3772  0.8685 -0.1560
 6254SOL    HW230222   3.729   4.204   3.470  0.3677  0.4977 -1.7835
 6255SOL     OW30223   0.223   0.925   2.344  0.8326  0.1183  0.3416
 6255SOL    HW130224   0.173   0.875   2.279  0.5723  1.6132 -0.6018
 6255SOL    HW230225   0.175   1.007   2.339  1.2570  0.3751  0.4700
 6256SOL     OW30226   2.113   0.917   3.905  0.3553 -0.3729 -0.2872
 6256SOL    HW130227   2.177   0.890   3.971  1.0959 -1.1021 -1.3009
 6256SOL    HW230228   2.039   0.912   3.965 -0.7456  0.2652 -1.6069
 6257SOL     OW30229   3.119   0.121   0.259  0.4958  0.0279 -0.7274
 6257SOL    HW130230   3.188   0.087   0.315 -0.0952 -2.3683 -1.4781
 6257SOL    HW230231   3.044   0.136   0.317  1.0602 -0.5830  0.1508
 6258SOL     OW30232   1.707   2.941   9.029 -0.3102 -0.0967 -0.4764
 6258SOL    HW130233   1.773   2.897   8.975  2.0119  0.8401  1.6118
 6258SOL    HW230234   1.646   2.951   8.956 -1.6041  0.7244  0.7276
 6259SOL     OW30235   3.688   2.497  11.620  0.1190 -0.0153 -0.1939
 6259SOL    HW130236   3.718   2.430  11.681 -0.2786  2.1933  2.4627
 6259SOL    HW230237   3.643   2.558  11.679  0.5218  1.9244 -1.9122
 6260SOL     OW30238   4.637   1.783   8.832 -0.3501  0.0684 -0.4141
 6260SOL    HW130239   4.581   1.856   8.858 -0.0495  0.1081  0.1189
 6260SOL    HW230240   4.673   1.819   8.751  1.0401  0.0346  0.1924
 6261SOL     OW30241   3.045   4.102  10.527 -0.2355  0.0800 -0.3675
 6261SOL    HW130242   3.022   4.122  10.436  0.3835  1.3586 -0.2483
 6261SOL    HW230243   3.060   4.194  10.548 -3.3562  0.6996 -0.7602
 6262SOL     OW30244   0.677   4.152   7.456 -0.1147 -0.2595  0.3303
 6262SOL    HW130245   0.691   4.183   7.546 -0.6817 -0.6697  0.5626
 6262SOL    HW230246   0.766   4.121   7.439  0.7131  3.4356 -1.9449
 6263SOL     OW30247   2.355   4.009   3.662 -0.3179 -0.2096 -0.1310
 6263SOL    HW130248   2.404   4.067   3.721 -0.8932  1.7613 -1.6003
 6263SOL    HW230249   2.274   4.002   3.713  0.1596  0.4902  0.7293
 6264SOL     OW30250   2.893   0.907  15.527 -0.1723  0.2834  0.1432
 6264SOL    HW130251   2.836   0.894  15.451 -0.1277  0.7844  0.0235
 6264SOL    HW230252   2.827   0.938  15.590 -0.6845 -2.9929  1.1916
 6265SOL     OW30253   3.818   0.519   2.408 -0.0648  0.4090  0.0135
 6265SOL    HW130254   3.891   0.481   2.458 -0.1600  0.7756  0.4271
 6265SOL    HW230255   3.760   0.559   2.472  0.5663 -0.2367  1.0044
 6266SOL     OW30256   2.493   2.587   6.052  0.0652 -0.0775 -0.7115
 6266SOL    HW130257   2.414   2.630   6.017 -2.5049 -4.1851  0.0849
 6266SOL    HW230258   2.557   2.658   6.060  1.4902 -1.1969 -2.3884
 6267SOL     OW30259   2.855   2.810  16.194  0.7836 -0.4289 -0.2026
 6267SOL    HW130260   2.837   2.899  16.164 -0.3346 -0.8795 -0.8742
 6267SOL    HW230261   2.919   2.782  16.129  1.3065 -0.1887  0.2050
 6268SOL     OW30262   0.707   3.260   7.761 -0.5232  0.4531 -0.0435
 6268SOL    HW130263   0.614   3.258   7.782 -0.8668 -0.7686 -1.7009
 6268SOL    HW230264   0.738   3.318   7.831  1.6168 -0.4770 -0.2167
 6269SOL     OW30265   2.924   1.452   0.888  0.1856 -0.2572 -0.3221
 6269SOL    HW130266   2.853   1.414   0.836  0.9390 -0.8966 -0.8773
 6269SOL    HW230267   2.879   1.531   0.920  1.0099 -0.0588  0.3456
 6270SOL     OW30268   1.010   0.135   7.941  0.0783 -0.7022  0.0414
 6270SOL    HW130269   1.012   0.224   7.975 -2.0426 -1.3749  1.9257
 6270SOL    HW230270   0.917   0.129   7.919  0.6046  2.7637 -3.0086
 6271SOL     OW30271   2.711   4.645   4.284 -0.5189  0.0569 -0.1819
 6271SOL    HW130272   2.802   4.656   4.258  0.0838 -0.9088  1.5111
 6271SOL    HW230273   2.723   4.636   4.379  0.5711  1.3801 -0.2002
 6272SOL     OW30274   4.065   3.984  16.877  0.8785 -0.4022 -0.2793
 6272SOL    HW130275   3.989   4.013  16.928  1.0693 -1.8431  0.8534
 6272SOL    HW230276   4.022   3.943  16.802  2.6348 -1.1696 -0.8564
 6273SOL     OW30277   4.547   1.810   0.982  0.0440 -0.0895  0.1949
 6273SOL    HW130278   4.634   1.806   1.021 -0.2607  0.4931  0.9212
 6273SOL    HW230279   4.552   1.878   0.915  2.5078  0.3769  0.8745
 6274SOL     OW30280   2.403   3.976   6.529  0.0364  0.6136  0.2711
 6274SOL    HW130281   2.356   3.978   6.445 -0.4609  0.1005  0.5296
 6274SOL    HW230282   2.363   4.053   6.569 -1.9847  0.4292 -1.3690
 6275SOL     OW30283   4.314   3.692   1.203 -0.6833  0.2943 -0.7690
 6275SOL    HW130284   4.282   3.607   1.173  0.5762 -0.5459  0.3246
 6275SOL    HW230285   4.408   3.676   1.196 -0.5672  0.7995 -0.3478
 6276SOL     OW30286   2.178   0.465   2.938  0.5682 -0.3089  0.2316
 6276SOL    HW130287   2.166   0.521   3.015 -2.6711 -2.6447  1.3986
 6276SOL    HW230288   2.125   0.390   2.965  3.3438 -3.0537 -1.9967
 6277SOL     OW30289   1.223   3.685  17.589 -0.0965 -0.4253 -0.0828
 6277SOL    HW130290   1.207   3.616  17.526  1.9637 -1.6585  0.7483
 6277SOL    HW230291   1.189   3.636  17.664 -0.3268  1.2414  0.9018
 6278SOL     OW30292   2.961   2.465   0.216 -0.1745 -0.0891 -0.0597
 6278SOL    HW130293   2.978   2.414   0.137  0.0598 -0.1827  0.0476
 6278SOL    HW230294   2.991   2.555   0.203  0.9348 -0.1431  2.0194
 6279SOL     OW30295   0.392   1.954  12.149  0.0212 -0.3310  0.2207
 6279SOL    HW130296   0.439   2.021  12.100 -0.2753 -0.6679 -0.5395
 6279SOL    HW230297   0.345   2.015  12.206 -1.1433 -0.2880 -0.7677
 6280SOL     OW30298   3.285   1.642   6.507 -0.1334 -0.0000  0.1384
 6280SOL    HW130299   3.347   1.622   6.577  0.0788  2.2200  0.5826
 6280SOL    HW230300   3.236   1.721   6.530  0.0042  0.4397 -1.0827
 6281SOL     OW30301   3.314   0.148  17.041  0.6065 -0.5192 -0.1730
 6281SOL    HW130302   3.351   0.104  16.964  2.2039 -0.3513  0.5008
 6281SOL    HW230303   3.365   0.107  17.111  0.1903 -0.2652  0.2755
 6282SOL     OW30304   4.053   2.975   1.214  0.7668 -0.1699 -0.4653
 6282SOL    HW130305   3.970   2.934   1.238  1.2971 -1.5380 -0.9980
 6282SOL    HW230306   4.048   2.966   1.119 -1.2066  1.5756 -0.5256
 6283SOL     OW30307   4.028   4.208   8.567  0.1896 -0.2655 -0.3799
 6283SOL    HW130308   3.944   4.242   8.596  0.6037 -0.0815  0.5848
 6283SOL    HW230309   4.002   4.150   8.495  1.6674 -0.0815 -1.0672
 6284SOL     OW30310   4.076   4.503   2.765 -0.1513 -0.3441 -0.6645
 6284SOL    HW130311   3.994   4.496   2.716  0.2582 -0.6975 -1.2996
 6284SOL    HW230312   4.115   4.417   2.750  0.2603 -0.9427  4.0819
 6285SOL     OW30313   0.359   3.446   6.994 -0.0342  0.0015  0.2928
 6285SOL    HW130314   0.273   3.455   6.953 -0.0215 -0.6556  0.1095
 6285SOL    HW230315   0.367   3.534   7.029  2.0298  0.9059 -2.4260
 6286SOL     OW30316   0.857   0.763  11.132 -0.4327  0.1526 -0.5800
 6286SOL    HW130317   0.931   0.824  11.127 -0.1153 -0.2238 -0.4071
 6286SOL    HW230318   0.852   0.745  11.226 -0.0069  3.8608  0.1585
 6287SOL     OW30319   1.165   1.870   8.754 -0.1444  0.4148 -0.4902
 6287SOL    HW130320   1.079   1.888   8.716  0.6165  1.4393 -1.7353
 6287SOL    HW230321   1.221   1.938   8.716 -0.0347  1.8137  2.1547
 6288SOL     OW30322   3.900   4.319   2.125 -0.3382  0.2814  0.0251
 6288SOL    HW130323   3.973   4.265   2.156 -1.8342 -1.4784  0.4291
 6288SOL    HW230324   3.922   4.406   2.159 -1.7227  0.7296 -0.2171
 6289SOL     OW30325   3.094   3.341  14.703 -0.0030 -0.1083 -0.4425
 6289SOL    HW130326   3.131   3.397  14.771  1.0259  1.6694 -2.4525
 6289SOL    HW230327   3.149   3.359  14.627  2.3800 -2.8199  0.6464
 6290SOL     OW30328   1.123   0.418  12.190 -0.1829  0.0741  0.3093
 6290SOL    HW130329   1.212   0.422  12.223 -0.6046  3.2037  1.0335
 6290SOL    HW230330   1.087   0.473  12.259  3.4289  1.1164  1.3452
 6291SOL     OW30331   3.871   0.148  14.241 -0.1948  0.0196  0.1317
 6291SOL    HW130332   3.818   0.178  14.315 -0.9917 -2.2962  0.5134
 6291SOL    HW230333   3.956   0.185  14.264  0.1232  0.1134 -1.2308
 6292SOL     OW30334   3.924   2.856   2.897  0.3269 -0.2732 -0.6577
 6292SOL    HW130335   3.950   2.878   2.986  0.1275 -3.1329  0.0929
 6292SOL    HW230336   3.885   2.941   2.878  0.2789 -0.1577 -0.0268
 6293SOL     OW30337   4.180   4.629   3.844 -0.3037 -0.0529 -0.1883
 6293SOL    HW130338   4.179   4.677   3.927  0.4848 -1.8344  0.8535
 6293SOL    HW230339   4.088   4.643   3.821  0.1970  1.2126 -1.4657
 6294SOL     OW30340   0.811   0.690   1.300 -0.3465  0.2745 -0.6267
 6294SOL    HW130341   0.866   0.750   1.251  0.4149 -0.7564 -1.0259
 6294SOL    HW230342   0.720   0.713   1.281  0.1223  3.3670  0.8820
 6295SOL     OW30343   3.787   4.594   1.290 -0.6782  0.2595  0.8630
 6295SOL    HW130344   3.740   4.582   1.208 -0.0166  1.3005  0.3252
 6295SOL    HW230345   3.715   4.625   1.344 -0.0297  2.5613  0.3899
 6296SOL     OW30346   2.972   3.647  12.583  0.0598 -0.5784  0.0535
 6296SOL    HW130347   2.922   3.634  12.663  1.2415 -0.1844  0.8644
 6296SOL    HW230348   2.976   3.560  12.543 -0.0290 -1.5191  2.1134
 6297SOL     OW30349   0.696   0.182   1.094 -0.1577 -0.0621  0.0084
 6297SOL    HW130350   0.686   0.162   1.187  0.4144 -1.3271 -0.2073
 6297SOL    HW230351   0.735   0.106   1.051  0.2966  0.4697 -0.5150
 6298SOL     OW30352   1.134   3.040   2.799  0.4390  0.1770 -0.1120
 6298SOL    HW130353   1.106   2.948   2.796 -4.2823  1.7212 -2.5633
 6298SOL    HW230354   1.213   3.027   2.746  0.3765  0.0350 -0.1717
 6299SOL     OW30355   2.865   3.454   7.484  0.5190  0.3390 -0.2346
 6299SOL    HW130356   2.777   3.491   7.479 -0.4002 -2.1173 -2.0884
 6299SOL    HW230357   2.839   3.366   7.510 -1.7829  0.9021 -0.6919
 6300SOL     OW30358   1.643   0.609   3.202 -0.2639 -0.7398  0.0396
 6300SOL    HW130359   1.729   0.618   3.163 -0.2547  1.5434  0.6319
 6300SOL    HW230360   1.648   0.515   3.220  1.1426 -0.9928 -1.7103
 6301SOL     OW30361   2.905   4.467  12.820  0.3007  0.4807  0.2172
 6301SOL    HW130362   2.907   4.371  12.814  0.0599  0.6206 -2.0584
 6301SOL    HW230363   2.962   4.486  12.746  0.8319  2.8469  1.2309
 6302SOL     OW30364   2.597   2.111  14.157  0.0174 -0.1680 -0.0028
 6302SOL    HW130365   2.615   2.141  14.246 -0.1197  1.2879 -0.4610
 6302SOL    HW230366   2.649   2.031  14.154 -1.6786 -1.1846 -1.9480
 6303SOL     OW30367   0.759   3.763   3.014 -0.4496 -0.1397  0.4605
 6303SOL    HW130368   0.673   3.722   3.007 -1.3019  1.7844 -0.3020
 6303SOL    HW230369   0.756   3.789   3.106  0.9808 -1.1791  0.8058
 6304SOL     OW30370   3.504   3.235   6.227  0.1308 -0.5669  0.0802
 6304SOL    HW130371   3.587   3.258   6.269  1.0754 -1.3672 -1.3129
 6304SOL    HW230372   3.451   3.209   6.302  0.1102  1.3885  0.7413
 6305SOL     OW30373   0.862   3.988   8.575  0.2105  0.1170 -0.3419
 6305SOL    HW130374   0.921   3.913   8.581 -2.0544 -1.5683  1.1160
 6305SOL    HW230375   0.774   3.953   8.588  1.1826 -3.2857 -3.1569
 6306SOL     OW30376   1.044   2.957   0.495  0.6027 -0.3630  0.0477
 6306SOL    HW130377   1.083   2.901   0.561  1.9185  0.2804 -0.1899
 6306SOL    HW230378   1.124   2.986   0.452  0.5363  0.1509  0.2730
 6307SOL     OW30379   0.538   2.781   4.358  0.1031 -0.1403  0.0693
 6307SOL    HW130380   0.600   2.838   4.312  1.2823  0.3263  2.2342
 6307SOL    HW230381   0.561   2.693   4.328  0.5978  0.1038 -0.2563
 6308SOL     OW30382   1.906   1.279  10.331  0.0237 -0.1769  0.5621
 6308SOL    HW130383   1.905   1.201  10.387 -0.2852 -0.4536  0.1656
 6308SOL    HW230384   1.851   1.328  10.392  3.2560  2.8154  1.0816
 6309SOL     OW30385   0.128   0.933   9.444 -0.1418 -0.1178 -0.0972
 6309SOL    HW130386   0.142   0.989   9.369 -1.5057  2.3012  1.4386
 6309SOL    HW230387   0.174   0.857   9.407 -0.0565 -0.5642  0.9184
 6310SOL     OW30388   4.163   4.080   6.540 -0.0722  0.0627 -0.0965
 6310SOL    HW130389   4.173   3.987   6.561  1.3801  0.7223  2.0594
 6310SOL    HW230390   4.160   4.080   6.444  0.2280  0.9320 -0.1017
 6311SOL     OW30391   4.209   1.550   6.515  0.1806 -0.4530  0.3603
 6311SOL    HW130392   4.212   1.474   6.572 -1.0991 -0.1979  0.7685
 6311SOL    HW230393   4.240   1.515   6.432 -0.3979  2.5347 -1.1109
 6312SOL     OW30394   0.776   1.648   3.100  0.1756 -0.1569  0.1458
 6312SOL    HW130395   0.810   1.558   3.105 -3.1485 -1.5122 -1.0561
 6312SOL    HW230396   0.853   1.688   3.061 -0.7330 -0.4649 -1.9749
 6313SOL     OW30397   3.063   3.204   6.439 -0.2253  0.3542  0.0734
 6313SOL    HW130398   3.008   3.167   6.371  1.0369  0.7813 -1.1937
 6313SOL    HW230399   3.048   3.298   6.426 -2.0821  0.0222 -0.0521
 6314SOL     OW30400   2.787   1.609  11.874 -0.5430 -0.3800  0.3121
 6314SOL    HW130401   2.747   1.601  11.787  0.9394  2.1736 -0.5937
 6314SOL    HW230402   2.723   1.674  11.905 -0.3646 -0.3071  0.5258
 6315SOL     OW30403   1.702   0.201   2.003  0.2044 -0.2454  0.6665
 6315SOL    HW130404   1.631   0.262   1.983  0.1918 -1.0556 -1.7470
 6315SOL    HW230405   1.735   0.236   2.086 -0.8805  1.8567  0.2032
 6316SOL     OW30406   1.523   3.177   0.385  0.4689  0.5027  0.1883
 6316SOL    HW130407   1.606   3.130   0.378  1.3091  2.2828 -1.8153
 6316SOL    HW230408   1.558   3.265   0.401 -2.9586  2.3776 -2.8827
 6317SOL     OW30409   3.765   4.506   8.393 -0.3563  0.4985 -0.5797
 6317SOL    HW130410   3.747   4.588   8.346 -2.6611  0.0414 -0.4551
 6317SOL    HW230411   3.790   4.539   8.479 -1.4755 -1.6265  0.5464
 6318SOL     OW30412   1.266   2.807   7.194 -0.1349  0.5573 -0.0959
 6318SOL    HW130413   1.228   2.719   7.192 -0.3520  0.6990 -1.9873
 6318SOL    HW230414   1.204   2.845   7.255 -0.9011  0.7677 -1.0028
 6319SOL     OW30415   1.915   1.002   8.624  0.7539  0.0857  0.1632
 6319SOL    HW130416   1.902   1.009   8.719 -1.1300 -1.4366  0.0071
 6319SOL    HW230417   2.002   1.041   8.616  0.7518 -0.2751 -1.5740
 6320SOL     OW30418   3.248   0.840   7.674  0.1965 -1.1110 -0.1528
 6320SOL    HW130419   3.227   0.894   7.750 -0.7797 -1.1626 -0.3875
 6320SOL    HW230420   3.193   0.761   7.684  0.9398 -1.7058 -0.7693
 6321SOL     OW30421   4.573   3.342   6.774 -0.1815  0.1968 -0.0785
 6321SOL    HW130422   4.502   3.282   6.751 -1.8744  1.3878  2.0451
 6321SOL    HW230423   4.626   3.336   6.695  0.1870  0.9178  0.1188
 6322SOL     OW30424   3.946   2.440   1.860 -0.1314  0.8015  0.3871
 6322SOL    HW130425   4.005   2.435   1.785 -1.2329 -0.6352 -0.3976
 6322SOL    HW230426   3.986   2.380   1.922  0.3984 -0.6966 -1.3909
 6323SOL     OW30427   0.645   1.864  15.914  0.9114 -0.0921  0.1447
 6323SOL    HW130428   0.592   1.929  15.868  1.7276 -0.2880 -1.0762
 6323SOL    HW230429   0.671   1.916  15.990  1.0035  0.6376 -0.3872
 6324SOL     OW30430   3.425   4.547   0.329  0.1720 -0.3705  0.2151
 6324SOL    HW130431   3.451   4.568   0.239  1.7051 -0.3742  0.6574
 6324SOL    HW230432   3.491   4.480   0.345 -0.9655 -1.5793 -0.2327
 6325SOL     OW30433   3.456   0.241   8.763  0.0823 -0.3497  0.4319
 6325SOL    HW130434   3.472   0.285   8.680  2.0897 -1.4325  0.2485
 6325SOL    HW230435   3.407   0.313   8.804 -1.1372 -0.0360 -1.6121
 6326SOL     OW30436   4.436   2.150  11.878 -0.0731  0.4782  0.0872
 6326SOL    HW130437   4.385   2.074  11.848  0.8715 -0.1318  0.0280
 6326SOL    HW230438   4.387   2.181  11.954 -1.6671  1.4666 -1.3441
 6327SOL     OW30439   2.550   1.021   5.527  0.6461 -0.1053  0.0065
 6327SOL    HW130440   2.519   0.932   5.513 -0.9449  0.4820 -0.2987
 6327SOL    HW230441   2.608   1.025   5.451  0.5907  1.9175  0.0652
 6328SOL     OW30442   0.332   3.609   7.694 -0.3698  0.1280  0.5778
 6328SOL    HW130443   0.305   3.517   7.691 -0.2403  0.1175 -0.4189
 6328SOL    HW230444   0.248   3.654   7.685  0.2666  1.1547 -0.2776
 6329SOL     OW30445   0.052   4.407   4.904 -0.8958 -0.3013 -0.3059
 6329SOL    HW130446   4.712   4.438   4.842 -1.7561  0.0266  0.7692
 6329SOL    HW230447   0.025   4.450   4.985 -1.1356  0.2312 -0.6701
 6330SOL     OW30448   1.655   1.728   3.431 -0.1753  0.0604  0.2305
 6330SOL    HW130449   1.611   1.771   3.358  0.6325  0.2398 -0.1559
 6330SOL    HW230450   1.579   1.720   3.488 -0.4899  0.0703 -0.1856
 6331SOL     OW30451   0.768   3.652   7.037 -0.1431 -0.4968 -0.1140
 6331SOL    HW130452   0.723   3.599   7.103 -1.9870 -0.1509 -1.0888
 6331SOL    HW230453   0.822   3.583   7.000 -0.1903 -1.7948  2.2389
 6332SOL     OW30454   4.493   1.943   2.861 -0.0924  0.0776 -0.1598
 6332SOL    HW130455   4.483   1.852   2.890  1.7253 -0.0097  0.1970
 6332SOL    HW230456   4.578   1.934   2.818  0.6538  2.8785  0.7362
 6333SOL     OW30457   3.390   1.073   0.938 -0.2734  0.0028 -0.4807
 6333SOL    HW130458   3.453   1.003   0.926 -0.1970 -0.0511  0.2143
 6333SOL    HW230459   3.408   1.127   0.862  0.9480  0.4547  0.1250
 6334SOL     OW30460   3.088   1.246   9.114 -0.2499  0.5006 -0.0404
 6334SOL    HW130461   3.167   1.260   9.167 -0.3102  2.1785 -0.3984
 6334SOL    HW230462   3.016   1.280   9.166 -0.8683 -0.9934  0.0519
 6335SOL     OW30463   2.672   4.069   7.225 -0.0503  0.1411  0.2323
 6335SOL    HW130464   2.593   4.119   7.245 -0.7671 -0.9469  0.1107
 6335SOL    HW230465   2.693   4.054   7.318 -0.1678 -1.6590 -0.0292
 6336SOL     OW30466   1.850   4.545   4.070  0.0454 -0.3529  0.2991
 6336SOL    HW130467   1.820   4.616   4.127  1.5820 -0.2178  0.9540
 6336SOL    HW230468   1.944   4.549   4.090  0.8399 -1.6044 -3.1435
 6337SOL     OW30469   2.701   3.858   7.876  0.3507  0.5126 -0.1240
 6337SOL    HW130470   2.762   3.854   7.803  2.2235 -1.2136  1.5468
 6337SOL    HW230471   2.661   3.772   7.864 -1.4146  1.0284  1.9687
 6338SOL     OW30472   1.979   2.967  15.000  0.8021 -0.3392 -0.3519
 6338SOL    HW130473   1.998   2.873  15.003 -1.1505 -0.7024  0.2314
 6338SOL    HW230474   1.944   2.978  14.911  2.6309  2.1577 -0.7700
 6339SOL     OW30475   2.691   1.734   7.943  0.1590 -0.2726  0.3607
 6339SOL    HW130476   2.708   1.818   7.899 -0.8640 -0.5754 -0.5892
 6339SOL    HW230477   2.763   1.680   7.908  2.5275  3.1872 -0.1598
 6340SOL     OW30478   0.556   1.119   7.703  0.0011 -0.2416  0.3462
 6340SOL    HW130479   0.638   1.159   7.675 -0.2764 -0.0576 -0.2200
 6340SOL    HW230480   0.573   1.026   7.685 -0.5517 -0.5176  1.2357
 6341SOL     OW30481   3.165   3.944   2.745 -0.1020 -0.3368 -0.2432
 6341SOL    HW130482   3.118   3.975   2.823 -0.2637  1.3280 -0.9967
 6341SOL    HW230483   3.198   3.856   2.763 -1.8993 -0.7406  1.0887
 6342SOL     OW30484   0.103   3.265  15.966 -0.1946  0.0348  0.0502
 6342SOL    HW130485   0.165   3.336  15.981  0.7339 -0.6012 -0.8432
 6342SOL    HW230486   0.137   3.224  15.887  0.0172 -1.5013  0.9442
 6343SOL     OW30487   3.110   1.179  17.170  0.3697 -0.2401 -0.1733
 6343SOL    HW130488   3.189   1.221  17.137  0.2088 -1.6765 -2.3387
 6343SOL    HW230489   3.049   1.252  17.178 -1.2074 -1.4377 -1.1510
 6344SOL     OW30490   2.422   1.413   3.175 -0.1953  0.1077  0.2748
 6344SOL    HW130491   2.341   1.435   3.130 -0.2119 -1.7284 -0.6066
 6344SOL    HW230492   2.409   1.318   3.181  0.0648  0.0564  0.0380
 6345SOL     OW30493   2.111   1.122  11.956  0.6578  0.0857 -0.4385
 6345SOL    HW130494   2.024   1.088  11.975 -0.1948  1.9688 -1.0574
 6345SOL    HW230495   2.148   1.043  11.916  1.5658  1.5164 -2.3858
 6346SOL     OW30496   3.496   2.742   5.699  0.1485 -0.3533 -0.0209
 6346SOL    HW130497   3.568   2.736   5.636 -0.4001  1.0964 -0.7621
 6346SOL    HW230498   3.540   2.791   5.769 -2.3192 -1.1872  2.0973
 6347SOL     OW30499   3.078   2.963   7.381  0.5702  0.0546 -0.6421
 6347SOL    HW130500   3.092   2.908   7.304  0.1133 -3.4138  1.7744
 6347SOL    HW230501   3.165   2.959   7.422  0.0077 -1.6898  0.3563
 6348SOL     OW30502   2.872   2.905   7.893  0.2196 -0.6402 -0.5041
 6348SOL    HW130503   2.933   2.979   7.889  2.1674 -2.1938  0.5734
 6348SOL    HW230504   2.898   2.855   7.817  2.3284  0.2777 -0.3800
 6349SOL     OW30505   1.400   2.330  13.775 -0.3148  0.0002 -0.2873
 6349SOL    HW130506   1.443   2.367  13.698 -0.1244  0.8373  0.2221
 6349SOL    HW230507   1.388   2.243  13.738 -2.9022 -0.3332  1.3076
 6350SOL     OW30508   0.333   2.970   4.875 -0.5463  0.1061  0.6847
 6350SOL    HW130509   0.425   2.988   4.857 -1.0929  4.5694  2.3595
 6350SOL    HW230510   0.288   3.000   4.796 -1.9432 -2.5708  0.4278
 6351SOL     OW30511   3.307   1.184  13.748 -0.2613 -0.0915 -0.3650
 6351SOL    HW130512   3.342   1.219  13.666 -0.3821 -1.2304 -0.9007
 6351SOL    HW230513   3.296   1.269  13.791  1.3391  0.9338 -1.9665
 6352SOL     OW30514   2.416   3.050   8.116 -0.0917 -0.4756 -0.3156
 6352SOL    HW130515   2.475   3.118   8.150 -1.9461  0.0174  1.8903
 6352SOL    HW230516   2.467   2.970   8.129  1.3686  0.7297  1.4898
 6353SOL     OW30517   0.324   0.798   7.099  0.4209 -0.0236 -0.2401
 6353SOL    HW130518   0.284   0.772   7.182  2.5287 -3.8713 -0.4546
 6353SOL    HW230519   0.326   0.893   7.110  2.5136  0.0929 -1.7473
 6354SOL     OW30520   1.351   4.017   8.521 -0.6224 -0.0434  0.4046
 6354SOL    HW130521   1.302   4.009   8.602 -0.9641  1.9875  0.3799
 6354SOL    HW230522   1.412   3.943   8.522  0.2458  0.6096 -2.4666
 6355SOL     OW30523   0.648   3.729   7.760  0.1116 -0.0209  0.1399
 6355SOL    HW130524   0.598   3.805   7.789 -0.1413 -0.1433  0.0198
 6355SOL    HW230525   0.581   3.668   7.729 -0.6410  1.3759 -0.9501
 6356SOL     OW30526   2.249   1.574   3.835  0.1864 -0.2035  0.3575
 6356SOL    HW130527   2.282   1.508   3.896  0.3567 -0.2244  0.2432
 6356SOL    HW230528   2.157   1.561   3.860 -0.5699  1.8802 -1.3483
 6357SOL     OW30529   2.092   4.571   6.322 -0.2941  0.2550  0.0190
 6357SOL    HW130530   2.024   4.627   6.360 -1.3438  0.5806 -2.3241
 6357SOL    HW230531   2.155   4.591   6.391  0.2942 -0.5610 -0.2786
 6358SOL     OW30532   1.174   3.925   3.166 -0.1833 -0.5056  0.0489
 6358SOL    HW130533   1.164   3.945   3.073  0.1125  0.8040  0.2908
 6358SOL    HW230534   1.265   3.898   3.174  0.6018  1.3333 -2.6123
 6359SOL     OW30535   4.030   2.506   6.651 -0.1898 -0.0940 -0.2513
 6359SOL    HW130536   4.024   2.552   6.735  0.6334 -1.1533  0.3770
 6359SOL    HW230537   3.939   2.511   6.621 -0.3436 -0.5120  0.1582
 6360SOL     OW30538   0.377   2.054   6.403  0.3906  0.1759  0.0905
 6360SOL    HW130539   0.288   2.089   6.400  1.9779  4.4330  1.6423
 6360SOL    HW230540   0.370   1.981   6.463 -1.4817 -1.8148 -2.5564
 6361SOL     OW30541   0.265   2.843   2.129 -0.0350  0.2678  0.4071
 6361SOL    HW130542   0.274   2.747   2.125  3.2303  0.6559 -1.6616
 6361SOL    HW230543   0.192   2.868   2.072 -0.3764  0.5452  0.9741
 6362SOL     OW30544   3.656   2.367   8.257 -0.7363  0.8991 -0.3165
 6362SOL    HW130545   3.665   2.289   8.202 -1.6339 -0.4781  1.4937
 6362SOL    HW230546   3.655   2.324   8.342 -1.3529 -2.9755 -2.2427
 6363SOL     OW30547   3.371   0.827   3.121 -0.2110  0.1702  0.2501
 6363SOL    HW130548   3.426   0.786   3.054  2.4390  2.5316  0.9997
 6363SOL    HW230549   3.340   0.908   3.081 -1.1724 -0.3655 -0.0950
 6364SOL     OW30550   2.638   2.200  12.070 -0.3385  0.1955 -0.1024
 6364SOL    HW130551   2.626   2.223  12.162 -1.0913  0.6418 -0.3121
 6364SOL    HW230552   2.718   2.147  12.076  0.1070  0.8219 -0.4008
 6365SOL     OW30553   1.859   3.431   5.456 -0.4212  0.0319  0.3656
 6365SOL    HW130554   1.830   3.353   5.504 -1.0201 -0.4118 -0.7415
 6365SOL    HW230555   1.948   3.432   5.493 -1.2174 -0.4922  2.2925
 6366SOL     OW30556   3.291   3.821   7.921  0.4206  0.2227  0.3398
 6366SOL    HW130557   3.282   3.787   7.832  0.9191 -0.3603  0.5202
 6366SOL    HW230558   3.349   3.755   7.958  2.3931  1.2774 -0.8985
 6367SOL     OW30559   0.588   0.159   8.773  0.0434  0.2173 -0.0170
 6367SOL    HW130560   0.517   0.155   8.709  0.0015 -2.4500  0.1608
 6367SOL    HW230561   0.550   0.104   8.842  0.8703  0.5155  0.6787
 6368SOL     OW30562   2.110   3.976   9.351 -0.3335  0.1784 -0.1542
 6368SOL    HW130563   2.025   3.934   9.338 -0.6708  0.5893  0.7293
 6368SOL    HW230564   2.093   4.048   9.290 -0.1941 -0.0012 -0.4054
 6369SOL     OW30565   1.715   1.367   1.052 -0.4189  0.4978  0.4123
 6369SOL    HW130566   1.621   1.376   1.068 -0.1149 -1.9725  3.3168
 6369SOL    HW230567   1.739   1.279   1.079  0.6704  1.6059  3.0748
 6370SOL     OW30568   3.635   0.397   9.500  0.5201  0.4757  0.0112
 6370SOL    HW130569   3.723   0.372   9.529  0.1135 -1.2232 -0.2268
 6370SOL    HW230570   3.595   0.428   9.581  0.5096  1.2586 -0.2951
 6371SOL     OW30571   4.254   1.755   4.391 -0.2276  0.5270 -0.0535
 6371SOL    HW130572   4.172   1.782   4.431 -0.6107  1.4887 -1.4914
 6371SOL    HW230573   4.273   1.688   4.457 -0.5845  0.7061  0.2318
 6372SOL     OW30574   3.296   2.007   9.765 -0.0864 -0.0317  0.2108
 6372SOL    HW130575   3.262   2.049   9.685 -0.6803  1.1007  1.0550
 6372SOL    HW230576   3.367   1.953   9.730  0.9662  1.4580  0.0482
 6373SOL     OW30577   3.308   0.625   9.528 -0.1264  0.5831  0.1939
 6373SOL    HW130578   3.332   0.550   9.474 -3.0581 -0.4207  0.2982
 6373SOL    HW230579   3.376   0.626   9.595  0.5253 -1.3922 -0.4556
 6374SOL     OW30580   3.782   1.246   5.980  0.3234  0.1300  0.5472
 6374SOL    HW130581   3.687   1.241   5.981  0.3293 -0.5411 -2.2662
 6374SOL    HW230582   3.810   1.155   5.983 -1.3781 -0.4007  0.1246
 6375SOL     OW30583   0.274   1.510   4.830  0.4464  0.4727  0.6744
 6375SOL    HW130584   0.278   1.597   4.792 -1.4734  1.5995  3.0575
 6375SOL    HW230585   0.278   1.536   4.923  0.0836  0.8733  0.5789
 6376SOL     OW30586   1.801   1.222  13.288  0.4588  0.2006 -0.1287
 6376SOL    HW130587   1.779   1.313  13.270  2.3259  0.7154  0.2004
 6376SOL    HW230588   1.895   1.226  13.271  0.4384 -0.6797 -0.4827
 6377SOL     OW30589   0.727   0.170   3.291  0.0673 -1.0327  0.3605
 6377SOL    HW130590   0.772   0.253   3.272  1.2881 -1.6070  0.7457
 6377SOL    HW230591   0.801   0.120   3.257  0.7561  1.4772 -1.7740
 6378SOL     OW30592   2.361   2.893   6.387  0.4344  0.1552 -0.0083
 6378SOL    HW130593   2.363   2.804   6.351 -1.1592 -0.4366  1.3286
 6378SOL    HW230594   2.296   2.873   6.455  0.6917  1.3125  0.5826
 6379SOL     OW30595   3.979   3.078   5.540 -0.1901  0.0443  0.3125
 6379SOL    HW130596   3.931   3.029   5.607  3.0738 -1.7226  1.3445
 6379SOL    HW230597   3.917   3.078   5.466 -0.2378  0.3306  0.3540
 6380SOL     OW30598   1.207   3.982   4.096 -0.4781  0.1381  0.2179
 6380SOL    HW130599   1.270   3.931   4.045 -0.5287  0.9312 -0.6410
 6380SOL    HW230600   1.176   3.902   4.140  1.3130 -1.2529 -1.0503
 6381SOL     OW30601   0.940   4.544  10.033  0.2497 -0.1749  0.1637
 6381SOL    HW130602   0.898   4.469  10.075  2.1853 -1.1170  0.4012
 6381SOL    HW230603   0.930   4.614  10.097 -1.2052 -1.2006  1.0772
 6382SOL     OW30604   0.945   4.182   7.568 -0.0770 -1.2168  0.1520
 6382SOL    HW130605   0.891   4.205   7.644 -0.9657  0.5491 -1.0077
 6382SOL    HW230606   0.994   4.109   7.606  2.2040  0.4014  0.3204
 6383SOL     OW30607   0.358   3.530  14.886  0.1699 -0.0352 -0.3118
 6383SOL    HW130608   0.346   3.532  14.981 -1.4634 -1.8030 -0.4837
 6383SOL    HW230609   0.307   3.610  14.871  0.7352  0.4289  0.2137
 6384SOL     OW30610   2.242   4.575   7.106  0.6541 -0.4416  0.1573
 6384SOL    HW130611   2.283   4.649   7.151 -1.1242  0.4791  0.2563
 6384SOL    HW230612   2.157   4.606   7.075  1.7128  1.4430 -0.8306
 6385SOL     OW30613   0.622   2.133   6.439  0.9235  0.1372 -0.2229
 6385SOL    HW130614   0.544   2.126   6.384  1.3099 -0.9631 -0.6374
 6385SOL    HW230615   0.665   2.049   6.422  0.9060 -0.1147  1.0245
 6386SOL     OW30616   3.622   0.079   1.553 -0.4896 -0.2279  0.3720
 6386SOL    HW130617   3.579   0.106   1.472  1.3085 -0.7302 -0.7408
 6386SOL    HW230618   3.565   0.003   1.567 -0.8106  0.1196  0.9418
 6387SOL     OW30619   4.283   0.492   1.710  0.2889 -0.2520  0.2101
 6387SOL    HW130620   4.344   0.420   1.692  2.0651  0.6252  2.7028
 6387SOL    HW230621   4.336   0.564   1.675 -1.6440  1.9854  1.8862
 6388SOL     OW30622   2.201   4.062   1.913  0.4360 -0.1154 -0.2345
 6388SOL    HW130623   2.267   4.013   1.962 -0.4109 -0.1707  0.8276
 6388SOL    HW230624   2.152   3.991   1.871  1.2085 -0.3651 -0.7337
 6389SOL     OW30625   2.466   3.081   0.073  0.8242  0.3538 -0.8297
 6389SOL    HW130626   2.543   3.024   0.073  1.2650  0.9355 -1.6498
 6389SOL    HW230627   2.514   3.164   0.075  1.6002 -0.0702 -1.6204
 6390SOL     OW30628   0.935   2.646  17.285 -0.2215  0.0201 -0.5430
 6390SOL    HW130629   0.996   2.642  17.358 -1.0068 -1.6445  0.0145
 6390SOL    HW230630   0.949   2.561  17.244  2.1665  0.4210 -0.5415
 6391SOL     OW30631   3.875   1.657   5.619  0.4986 -0.2747  0.5547
 6391SOL    HW130632   3.869   1.564   5.642  1.4693 -0.3939  0.3079
 6391SOL    HW230633   3.784   1.686   5.615  0.0998 -1.3567  1.7614
 6392SOL     OW30634   4.224   1.881   4.695 -0.0311  0.0057 -0.4345
 6392SOL    HW130635   4.268   1.806   4.655 -0.2953  0.0441 -0.7991
 6392SOL    HW230636   4.148   1.837   4.731  0.6665 -1.8262 -1.2015
 6393SOL     OW30637   0.526   3.057   6.731 -0.0035  0.5403  0.1771
 6393SOL    HW130638   0.441   3.088   6.700  0.4331  1.2498 -0.3101
 6393SOL    HW230639   0.552   3.109   6.806  0.4424 -0.2151  0.5478
 6394SOL     OW30640   2.828   3.670   1.257  0.2561 -0.1710 -0.4368
 6394SOL    HW130641   2.917   3.655   1.287  1.0744  2.9271 -1.3252
 6394SOL    HW230642   2.787   3.596   1.302  2.5560 -0.8014  0.6256
 6395SOL     OW30643   2.067   1.833   8.414 -0.2878 -0.3486  0.0799
 6395SOL    HW130644   2.071   1.890   8.491  1.9188 -0.5261  0.0948
 6395SOL    HW230645   2.011   1.874   8.348 -1.8889  0.1524  1.7278
 6396SOL     OW30646   4.694   3.080   4.498 -0.1364  0.6563 -0.6390
 6396SOL    HW130647   4.726   3.039   4.418  1.0507  1.2575 -0.4855
 6396SOL    HW230648   4.649   3.006   4.537 -1.1704  0.3054 -2.5228
 6397SOL     OW30649   3.951   1.006   0.856  0.3814 -0.5513  0.2981
 6397SOL    HW130650   4.001   0.969   0.784 -2.3847 -3.8739  0.0651
 6397SOL    HW230651   3.923   1.088   0.816  0.5256  0.0311  1.3691
 6398SOL     OW30652   2.615   4.378   4.096  0.3533 -0.3855 -0.2258
 6398SOL    HW130653   2.536   4.337   4.133  0.1820  0.1519  0.0071
 6398SOL    HW230654   2.682   4.325   4.139 -0.2950 -1.3690 -0.4419
 6399SOL     OW30655   3.142   3.610   7.413 -0.2119 -0.2000  0.3017
 6399SOL    HW130656   3.093   3.530   7.433 -1.1564  0.6182  1.3006
 6399SOL    HW230657   3.143   3.622   7.318 -0.0242  1.9750  0.5765
 6400SOL     OW30658   2.693   3.715   2.441  0.1542 -0.0668 -0.5699
 6400SOL    HW130659   2.716   3.788   2.499 -2.8311 -2.7525  3.9961
 6400SOL    HW230660   2.650   3.651   2.498 -1.0044  2.6232  1.5853
 6401SOL     OW30661   1.323   4.195   6.702  0.0970  0.2431  0.0271
 6401SOL    HW130662   1.287   4.181   6.790  3.4185 -0.5157  1.2947
 6401SOL    HW230663   1.416   4.216   6.712  0.2603 -1.3259  1.7893
 6402SOL     OW30664   4.700   2.286   6.776  0.0546 -0.0278 -0.1331
 6402SOL    HW130665   4.625   2.345   6.774  0.2660  0.1695 -2.4667
 6402SOL    HW230666   4.664   2.209   6.819 -1.1566  0.5210 -0.1839
 6403SOL     OW30667   0.686   1.185  15.629  1.1843  0.0196  0.5938
 6403SOL    HW130668   0.628   1.242  15.578 -0.7512 -2.9181 -0.4976
 6403SOL    HW230669   0.767   1.234  15.643  0.9051  0.8806 -0.7666
 6404SOL     OW30670   4.256   1.016  12.638  0.0568 -0.0625 -0.2892
 6404SOL    HW130671   4.162   1.018  12.619 -0.1417 -1.4103  0.5618
 6404SOL    HW230672   4.275   0.954  12.569 -2.5109  1.2684 -2.1999
 6405SOL     OW30673   2.517   0.667   1.833 -0.0244  0.3998  0.4774
 6405SOL    HW130674   2.467   0.598   1.788 -0.5864  0.3905  1.1245
 6405SOL    HW230675   2.471   0.696   1.912 -3.3319 -0.4449 -1.1397
 6406SOL     OW30676   0.377   4.268   3.061  0.1749 -0.1490 -0.7271
 6406SOL    HW130677   0.365   4.173   3.061  2.1744 -0.3834  1.6012
 6406SOL    HW230678   0.398   4.287   2.969  1.9119 -2.1161 -0.7317
 6407SOL     OW30679   3.983   2.676   2.016  0.0095 -0.1429 -0.2552
 6407SOL    HW130680   3.968   2.587   1.986 -1.2297  0.0492 -0.2055
 6407SOL    HW230681   4.058   2.658   2.072 -0.0116  1.2422  0.2304
 6408SOL     OW30682   3.532   1.828   3.350 -0.3413 -0.7649 -0.0126
 6408SOL    HW130683   3.599   1.810   3.416  0.1757  3.7874  0.7011
 6408SOL    HW230684   3.457   1.807   3.405  0.6248 -3.3137  0.3387
 6409SOL     OW30685   1.266   1.264   8.509  0.3105  0.8773 -0.3219
 6409SOL    HW130686   1.358   1.281   8.489 -0.2085  1.5025 -2.1503
 6409SOL    HW230687   1.253   1.307   8.593 -1.5509  0.1489 -0.2496
 6410SOL     OW30688   3.510   1.988   6.490  0.4481  0.1845 -0.1848
 6410SOL    HW130689   3.446   1.923   6.518  0.2628  0.1725 -0.6417
 6410SOL    HW230690   3.575   1.993   6.560  1.6058  1.1914 -1.3353
 6411SOL     OW30691   1.915   3.046   7.642 -0.1185 -0.5877 -0.1134
 6411SOL    HW130692   2.005   3.068   7.663 -0.9021  0.4802  2.0965
 6411SOL    HW230693   1.927   3.019   7.551 -0.4359 -0.8630 -0.0751
 6412SOL     OW30694   1.173   4.136   7.200  0.4160  0.4256 -0.3982
 6412SOL    HW130695   1.155   4.216   7.249  3.0203  1.5271 -1.2049
 6412SOL    HW230696   1.125   4.075   7.256 -1.5786  2.6836  0.3665
 6413SOL     OW30697   0.422   4.416   8.119  0.1562 -0.0374  0.1417
 6413SOL    HW130698   0.490   4.388   8.180  1.8176 -0.6365 -1.9923
 6413SOL    HW230699   0.370   4.337   8.106 -0.1649 -0.2299  2.5285
 6414SOL     OW30700   4.130   3.607   5.632 -0.2839  0.6498  1.0315
 6414SOL    HW130701   4.166   3.613   5.543  0.3788  0.3841  1.2792
 6414SOL    HW230702   4.081   3.525   5.630  1.2306 -0.1938 -1.7587
 6415SOL     OW30703   0.687   0.040   4.580 -0.7246 -0.0836 -0.2174
 6415SOL    HW130704   0.695   0.051   4.485  1.3839 -2.0852 -0.2688
 6415SOL    HW230705   0.753   4.699   4.597 -0.2672  0.6763  0.9953
 6416SOL     OW30706   3.814   4.244   3.630 -0.0472 -0.4492  0.3277
 6416SOL    HW130707   3.906   4.223   3.644 -0.5857 -1.7181  2.1017
 6416SOL    HW230708   3.803   4.297   3.709 -0.8489  1.3726 -1.0053
 6417SOL     OW30709   4.518   0.617  15.348  0.2434 -0.7787 -0.4671
 6417SOL    HW130710   4.553   0.698  15.385  0.2967 -0.8716 -0.3141
 6417SOL    HW230711   4.604   0.576  15.347  0.9477  0.7321 -2.1799
 6418SOL     OW30712   2.861   3.646   5.804 -0.2778 -0.3765  0.4376
 6418SOL    HW130713   2.902   3.710   5.746 -0.1387  0.6276  1.6277
 6418SOL    HW230714   2.904   3.678   5.884  0.5842  1.3643 -0.7257
 6419SOL     OW30715   4.233   3.023   7.609 -0.4185  0.0495 -0.0923
 6419SOL    HW130716   4.317   3.062   7.583 -1.2537  1.5211 -0.5419
 6419SOL    HW230717   4.170   3.052   7.544 -0.6601 -0.1470  0.0550
 6420SOL     OW30718   2.186   0.854  17.229  0.4334 -0.2511 -0.0239
 6420SOL    HW130719   2.215   0.846  17.320  1.8658  0.2906 -0.4359
 6420SOL    HW230720   2.136   0.773  17.215  2.6360 -1.7026  0.4359
 6421SOL     OW30721   3.704   2.995   0.195  0.5661  0.1189  0.1328
 6421SOL    HW130722   3.651   2.954   0.263  4.1893 -0.7618  2.4136
 6421SOL    HW230723   3.738   2.924   0.141 -1.4312 -1.2063  0.6291
 6422SOL     OW30724   3.045   2.179   6.022 -0.0169 -0.0595 -0.5703
 6422SOL    HW130725   2.982   2.182   6.093  1.2333  1.4917  0.4897
 6422SOL    HW230726   3.052   2.084   6.021 -1.7277 -0.1873 -0.5090
 6423SOL     OW30727   2.254   1.173   2.306 -0.1811  0.3855  0.1705
 6423SOL    HW130728   2.285   1.197   2.393 -0.5640  4.2824 -0.7465
 6423SOL    HW230729   2.228   1.082   2.320  1.8556 -0.3564 -0.8266
 6424SOL     OW30730   3.246   3.511  13.028  0.5694 -0.1129  0.8643
 6424SOL    HW130731   3.341   3.520  13.024  0.4180  1.1013  0.1874
 6424SOL    HW230732   3.230   3.571  12.955 -1.6341 -2.1622 -0.3562
 6425SOL     OW30733   2.834   0.473   5.908  0.8020  0.1585 -0.4908
 6425SOL    HW130734   2.884   0.391   5.913  0.9205  0.2772  0.4178
 6425SOL    HW230735   2.915   0.517   5.882  0.9418  0.2534  0.0925
 6426SOL     OW30736   2.297   2.460   0.500  0.6112  0.3277  0.4803
 6426SOL    HW130737   2.238   2.394   0.538 -1.2064  1.1001 -0.9715
 6426SOL    HW230738   2.323   2.514   0.574  0.1438  1.9205 -0.5237
 6427SOL     OW30739   2.414   3.083   6.183 -0.2456  0.9031  0.7296
 6427SOL    HW130740   2.418   3.046   6.095  0.3778 -1.8059  1.8969
 6427SOL    HW230741   2.389   3.014   6.245  0.5834  1.9997  2.2775
 6428SOL     OW30742   4.032   2.355   0.717 -1.1001 -0.6144  1.1140
 6428SOL    HW130743   4.114   2.393   0.684 -0.5665 -2.5267  0.2361
 6428SOL    HW230744   4.058   2.323   0.804  1.7148  0.0713  0.5357
 6429SOL     OW30745   3.071   1.820   6.630  0.1717 -0.3362 -0.3437
 6429SOL    HW130746   3.124   1.844   6.706 -0.8131 -3.1280  1.2289
 6429SOL    HW230747   3.011   1.892   6.612 -0.7554 -1.0316  0.0133
 6430SOL     OW30748   4.163   0.832   8.387  0.0002  0.1454  1.1371
 6430SOL    HW130749   4.176   0.740   8.365 -1.5729  0.2473 -0.2593
 6430SOL    HW230750   4.182   0.838   8.481  3.5696  1.3612  0.3300
 6431SOL     OW30751   3.812   2.236   5.931  0.0359 -0.1291  0.6142
 6431SOL    HW130752   3.843   2.190   6.009 -2.4624 -1.6684  0.7290
 6431SOL    HW230753   3.762   2.313   5.958  0.3188  0.1515  0.3371
 6432SOL     OW30754   2.007   3.452   2.269 -0.2030  0.3143 -0.3608
 6432SOL    HW130755   2.096   3.449   2.304 -0.6690  3.4429  1.1305
 6432SOL    HW230756   2.003   3.390   2.196 -0.3517 -1.2418  0.9488
 6433SOL     OW30757   2.233   1.763  12.542 -0.5073 -0.0037  0.1792
 6433SOL    HW130758   2.186   1.782  12.623 -0.1159  2.5487 -0.1909
 6433SOL    HW230759   2.185   1.791  12.464 -0.0718 -0.3077 -0.1976
 6434SOL     OW30760   1.614   0.482   9.334  0.3278  0.0973 -0.0886
 6434SOL    HW130761   1.596   0.502   9.426 -1.0463 -2.6463  0.2535
 6434SOL    HW230762   1.525   0.499   9.304  0.5040  0.7821 -0.2283
 6435SOL     OW30763   1.334   4.480  14.544 -0.2194  0.7447  0.1242
 6435SOL    HW130764   1.409   4.458  14.489  0.8297  0.4772  1.6646
 6435SOL    HW230765   1.267   4.439  14.488 -0.5681  1.6054 -0.0860
 6436SOL     OW30766   4.567   2.874   6.985  0.0683 -1.1328  0.5599
 6436SOL    HW130767   4.532   2.934   7.051  1.6452  1.9374 -1.4116
 6436SOL    HW230768   4.635   2.928   6.944 -1.3335 -0.1617 -0.5215
 6437SOL     OW30769   4.052   3.173   6.896 -0.7380  0.6351 -0.1662
 6437SOL    HW130770   4.141   3.166   6.860 -1.3601 -1.7880 -1.1903
 6437SOL    HW230771   4.040   3.257   6.852  0.2278  0.4231 -0.8362
 6438SOL     OW30772   1.449   4.132   2.143 -0.4014  0.2632  0.4509
 6438SOL    HW130773   1.532   4.180   2.142 -0.2913  0.0864  1.2194
 6438SOL    HW230774   1.380   4.187   2.106 -2.0334 -1.7901  0.4559
 6439SOL     OW30775   4.645   2.118  16.139 -1.1575 -0.6140  0.0535
 6439SOL    HW130776   4.690   2.047  16.093 -2.6577 -0.6883 -1.2898
 6439SOL    HW230777   4.684   2.117  16.226 -0.5521  0.7272 -0.2081
 6440SOL     OW30778   1.433   3.153   4.391 -0.2798 -0.3335 -0.1155
 6440SOL    HW130779   1.380   3.113   4.461 -0.4116 -2.3991 -1.3771
 6440SOL    HW230780   1.524   3.134   4.414  0.2142  2.8611  0.5232
 6441SOL     OW30781   0.165   3.580  12.814  0.0782  0.1656  0.0025
 6441SOL    HW130782   0.093   3.625  12.769  0.6311  1.4165  0.3803
 6441SOL    HW230783   0.192   3.525  12.740 -0.1877  0.9288 -0.6747
 6442SOL     OW30784   2.724   0.001   2.114 -0.5857  0.0661  0.3837
 6442SOL    HW130785   2.738   0.077   2.171 -1.5994  0.5702 -0.0323
 6442SOL    HW230786   2.710   4.659   2.180  0.8610 -1.1260 -0.5508
 6443SOL     OW30787   0.404   0.171   1.116  0.3183 -0.9549  0.0432
 6443SOL    HW130788   0.357   0.115   1.054 -1.4152  1.9779 -1.2962
 6443SOL    HW230789   0.495   0.143   1.109  1.1111  1.3150  1.4536
 6444SOL     OW30790   3.673   0.098   8.405  0.2560  0.0761 -0.0496
 6444SOL    HW130791   3.627   0.142   8.476  0.3570 -0.4090  0.3196
 6444SOL    HW230792   3.745   0.152   8.373 -0.0073  0.2863 -0.2853
 6445SOL     OW30793   3.059   2.203   0.494 -0.0305 -0.1596 -0.3151
 6445SOL    HW130794   3.102   2.266   0.437  1.3122  0.1010  0.9885
 6445SOL    HW230795   3.121   2.130   0.485  2.9122  2.5493 -2.1147
 6446SOL     OW30796   1.180   2.171   8.153 -0.3773  0.5239  0.0706
 6446SOL    HW130797   1.154   2.138   8.239 -0.6565  3.4890  1.1144
 6446SOL    HW230798   1.130   2.252   8.164 -0.7963  0.3043 -0.2016
 6447SOL     OW30799   1.942   3.194   1.633  0.0664 -0.2564 -0.1453
 6447SOL    HW130800   1.872   3.187   1.568  1.6461  0.5541 -1.9357
 6447SOL    HW230801   2.010   3.155   1.579  0.6603 -1.3740  1.4314
 6448SOL     OW30802   0.981   2.767  13.437 -0.4362  0.2144  0.2129
 6448SOL    HW130803   0.978   2.678  13.474 -2.6028 -0.0981 -0.6902
 6448SOL    HW230804   0.886   2.778  13.427 -0.4109 -0.8898 -1.2099
 6449SOL     OW30805   3.119   2.748   7.948 -0.5441  0.0583 -0.0080
 6449SOL    HW130806   3.027   2.776   7.954 -0.4958  0.4269 -1.0162
 6449SOL    HW230807   3.164   2.811   7.892 -0.1038 -0.2387  0.0142
 6450SOL     OW30808   2.890   2.614   7.446 -0.0823 -0.4956  0.0139
 6450SOL    HW130809   2.876   2.536   7.501 -2.5379  0.2044  0.3705
 6450SOL    HW230810   2.818   2.612   7.384 -0.3492  0.7637  0.2801
 6451SOL     OW30811   3.862   0.426   6.582  0.5387 -0.4001  0.0468
 6451SOL    HW130812   3.865   0.394   6.673  1.2675 -0.5554 -0.0362
 6451SOL    HW230813   3.769   0.451   6.583  0.8262  0.5690  2.7113
 6452SOL     OW30814   3.996   2.802   4.316 -0.1056 -0.1019  0.3742
 6452SOL    HW130815   4.057   2.803   4.389 -0.8226  0.6825  0.9662
 6452SOL    HW230816   3.923   2.745   4.341  0.7621 -1.5231 -0.3418
 6453SOL     OW30817   4.127   4.095   0.181  0.1069  0.2641 -0.1379
 6453SOL    HW130818   4.192   4.074   0.248 -1.3927  0.6902  1.4562
 6453SOL    HW230819   4.178   4.157   0.129  0.3443 -0.0118 -0.2309
 6454SOL     OW30820   3.218   1.517   8.189 -0.7102 -0.0282 -0.3985
 6454SOL    HW130821   3.218   1.423   8.170 -0.2349 -0.5116  1.9641
 6454SOL    HW230822   3.304   1.544   8.157 -0.8202  0.2872 -0.4273
 6455SOL     OW30823   2.827   1.657   9.794  0.4935 -0.1454  0.3515
 6455SOL    HW130824   2.920   1.637   9.781  0.2418 -1.7469  1.0201
 6455SOL    HW230825   2.789   1.613   9.718  0.3021 -0.1787  0.4659
 6456SOL     OW30826   0.255   3.194   6.342  0.8331 -0.0704 -0.3586
 6456SOL    HW130827   0.196   3.217   6.271 -0.6674  3.2631  1.9384
 6456SOL    HW230828   0.284   3.283   6.363 -0.2897 -0.0596  1.1918
 6457SOL     OW30829   0.515   3.392  12.714 -0.1772  0.0070 -0.3863
 6457SOL    HW130830   0.420   3.388  12.716 -0.1428  0.2601  1.5162
 6457SOL    HW230831   0.530   3.486  12.704  0.5873 -0.5296 -4.3799
 6458SOL     OW30832   4.373   2.198  10.144 -0.1968 -0.0752  0.5114
 6458SOL    HW130833   4.462   2.233  10.137 -0.3712  0.7955  2.9784
 6458SOL    HW230834   4.371   2.128  10.078  0.7048  0.9418 -0.5898
 6459SOL     OW30835   4.324   4.328   9.690  0.4080 -0.0666 -0.2653
 6459SOL    HW130836   4.276   4.398   9.646 -1.5156 -0.5921  1.0364
 6459SOL    HW230837   4.414   4.363   9.694  0.8986 -1.4023  0.4117
 6460SOL     OW30838   3.025   4.388   0.309 -0.9619  0.3036  0.2010
 6460SOL    HW130839   3.092   4.442   0.268  1.3396 -2.9743 -0.3685
 6460SOL    HW230840   2.962   4.456   0.334  0.1970  1.3014  0.4130
 6461SOL     OW30841   3.627   0.495   2.678  0.0826 -0.1094  0.5204
 6461SOL    HW130842   3.646   0.543   2.758  1.8506 -0.6260  0.4260
 6461SOL    HW230843   3.656   0.412   2.716  0.8635 -0.0576  0.0392
 6462SOL     OW30844   2.476   3.463   3.884  0.3014  0.7084 -0.3130
 6462SOL    HW130845   2.419   3.529   3.846  0.7219  1.0846 -0.2963
 6462SOL    HW230846   2.516   3.433   3.802 -0.7554 -0.1137 -0.5340
 6463SOL     OW30847   3.037   1.396  16.854  0.2569 -0.4755  0.4092
 6463SOL    HW130848   2.985   1.417  16.776  0.1173 -2.1629  0.0510
 6463SOL    HW230849   3.076   1.312  16.828  1.3992  0.6646 -1.6113
 6464SOL     OW30850   1.719   0.044   8.888 -0.0906 -0.1047 -0.4403
 6464SOL    HW130851   1.645   0.103   8.898 -0.1973 -0.1144 -1.1532
 6464SOL    HW230852   1.778   0.095   8.832  1.9502 -0.3894  1.4143
 6465SOL     OW30853   3.675   1.261   4.468 -0.5411  0.0070 -0.1611
 6465SOL    HW130854   3.641   1.179   4.432 -2.2841  0.8354 -0.4072
 6465SOL    HW230855   3.668   1.310   4.387  0.2540  1.5831  0.7410
 6466SOL     OW30856   2.104   3.668  11.714 -0.1277  0.3131  0.3529
 6466SOL    HW130857   2.189   3.694  11.679 -1.2715  0.3635 -2.4388
 6466SOL    HW230858   2.040   3.694  11.648 -0.1488  0.6430  0.5075
 6467SOL     OW30859   3.729   1.561   3.682 -0.1535  0.0512 -0.2974
 6467SOL    HW130860   3.783   1.482   3.691 -2.0001 -1.1521  0.0803
 6467SOL    HW230861   3.642   1.532   3.654  0.2458 -0.6208 -0.8526
 6468SOL     OW30862   3.799   4.215   0.377  0.4225 -0.0236  0.5818
 6468SOL    HW130863   3.832   4.136   0.335  1.7412  0.5938  0.4773
 6468SOL    HW230864   3.874   4.274   0.377 -0.8766  1.6156 -0.3578
 6469SOL     OW30865   3.032   0.720   4.588 -0.0727  0.3655  0.8224
 6469SOL    HW130866   3.028   0.631   4.623  0.2419  1.4004  3.4773
 6469SOL    HW230867   3.068   0.697   4.502 -0.0542  1.4730  0.5349
 6470SOL     OW30868   0.118   2.088  11.195  0.7050  0.1676  0.1993
 6470SOL    HW130869   0.153   2.085  11.284 -1.5997  2.1080  1.1774
 6470SOL    HW230870   0.134   2.179  11.168 -2.3340  0.4639 -0.5999
 6471SOL     OW30871   1.986   0.591   4.425 -0.4233  0.1951  0.0285
 6471SOL    HW130872   2.059   0.545   4.465  0.9638  0.7049 -1.9028
 6471SOL    HW230873   2.020   0.610   4.338  1.6060 -0.0011  0.7744
 6472SOL     OW30874   0.521   0.332   3.945 -0.3902  0.4866 -0.2581
 6472SOL    HW130875   0.607   0.371   3.931  0.3923 -0.4055  2.0260
 6472SOL    HW230876   0.503   0.358   4.036  0.1970 -0.7551  0.2106
 6473SOL     OW30877   1.854   0.782   5.291 -0.2353 -0.4240  0.2966
 6473SOL    HW130878   1.768   0.743   5.274  0.3775 -0.8404 -1.8109
 6473SOL    HW230879   1.865   0.753   5.381  0.3021  0.0242  0.3743
 6474SOL     OW30880   0.416   1.634   1.580  0.0132  0.6613  0.3682
 6474SOL    HW130881   0.343   1.668   1.527  0.8544 -2.9358 -3.0705
 6474SOL    HW230882   0.460   1.585   1.511 -2.9774  2.0252 -2.5525
 6475SOL     OW30883   0.465   2.967   3.337 -0.0884 -0.2909 -0.2349
 6475SOL    HW130884   0.482   3.034   3.270 -1.5701  1.1448  0.8210
 6475SOL    HW230885   0.431   2.901   3.276 -0.5052 -0.2456 -0.0512
 6476SOL     OW30886   2.842   0.853   4.045  0.1305  0.4122 -0.1794
 6476SOL    HW130887   2.851   0.780   4.107  1.3107 -0.5264 -1.4471
 6476SOL    HW230888   2.857   0.812   3.960  0.4563 -1.5481  0.8175
 6477SOL     OW30889   0.849   0.793   6.924 -0.1313  0.4047 -0.2627
 6477SOL    HW130890   0.903   0.720   6.892 -0.2357 -0.5522  1.7539
 6477SOL    HW230891   0.766   0.749   6.941  0.1053  1.0913  2.5937
 6478SOL     OW30892   0.160   3.380   7.804  0.1442  0.1608  0.7919
 6478SOL    HW130893   0.143   3.447   7.871 -1.0638 -0.2190  0.8732
 6478SOL    HW230894   0.109   3.307   7.840 -1.8888  0.0480 -2.2748
 6479SOL     OW30895   1.963   3.756   3.961 -0.1863  0.1397 -0.3137
 6479SOL    HW130896   1.985   3.736   4.052 -2.0182 -1.3112 -0.2181
 6479SOL    HW230897   1.907   3.682   3.940  1.2024 -1.1091  0.4178
 6480SOL     OW30898   1.980   2.556  17.100  0.6064  0.2279  0.0949
 6480SOL    HW130899   1.932   2.613  17.160 -1.4635  0.1080 -1.4663
 6480SOL    HW230900   2.055   2.530  17.154  0.3933  1.5736  1.0601
 6481SOL     OW30901   3.978   4.591   4.122 -0.4421 -0.0540  0.6191
 6481SOL    HW130902   3.926   4.636   4.055  2.3233 -0.4506 -1.7961
 6481SOL    HW230903   3.903   4.568   4.176  0.6184 -2.2921  1.1167
 6482SOL     OW30904   2.576   0.392   5.326 -0.2706 -0.3301 -0.4291
 6482SOL    HW130905   2.636   0.318   5.315 -0.5181 -0.3072 -1.8633
 6482SOL    HW230906   2.634   0.441   5.385 -1.0979 -1.3022  1.2028
 6483SOL     OW30907   3.718   3.795   2.708  0.3156  0.5605  0.3988
 6483SOL    HW130908   3.802   3.827   2.739 -0.0515  0.5102  1.4586
 6483SOL    HW230909   3.653   3.863   2.728 -0.4486  0.7703 -2.6769
 6484SOL     OW30910   3.338   0.592   3.503  0.5373  0.5721  0.0385
 6484SOL    HW130911   3.409   0.551   3.454 -1.5325 -1.3661 -1.3472
 6484SOL    HW230912   3.345   0.677   3.458 -1.1881  0.6277 -0.1471
 6485SOL     OW30913   4.251   1.655   5.924 -0.1067  0.5952 -0.7279
 6485SOL    HW130914   4.213   1.673   5.837 -1.8974  1.0642  0.1540
 6485SOL    HW230915   4.170   1.680   5.968  0.2222  0.6233 -0.1464
 6486SOL     OW30916   1.124   2.368   6.977 -0.3398 -0.0064  0.2518
 6486SOL    HW130917   1.172   2.367   6.895 -0.7279 -2.1674  0.0390
 6486SOL    HW230918   1.041   2.400   6.941  0.0466 -0.4673 -1.0337
 6487SOL     OW30919   0.134   4.275   9.540  0.1999  0.0945  0.0934
 6487SOL    HW130920   0.116   4.241   9.628 -0.5651  1.3156  0.4083
 6487SOL    HW230921   0.215   4.321   9.560 -0.5493 -0.1600  3.6062
 6488SOL     OW30922   4.426   1.649  12.382 -0.3448  0.1333 -0.4220
 6488SOL    HW130923   4.486   1.616  12.450 -1.0084  0.4482  0.3209
 6488SOL    HW230924   4.343   1.620  12.420  0.0934  0.6218  0.9122
 6489SOL     OW30925   2.081   0.266   3.298  0.5206  0.5389 -0.4987
 6489SOL    HW130926   2.089   0.295   3.389 -1.7613  2.0108 -0.7587
 6489SOL    HW230927   2.131   0.331   3.249  3.7457  0.3817  2.6043
 6490SOL     OW30928   1.875   4.128   3.278 -0.2084 -0.1647  0.7257
 6490SOL    HW130929   1.786   4.129   3.313  0.0021  1.6607  1.2488
 6490SOL    HW230930   1.854   4.154   3.188  1.0010  0.6018  0.6586
 6491SOL     OW30931   1.615   4.644  14.785 -0.6171  0.1128 -0.1520
 6491SOL    HW130932   1.677   4.659  14.713  0.0752  0.2068  0.4735
 6491SOL    HW230933   1.628   4.552  14.809 -0.1350 -0.7840 -3.8088
 6492SOL     OW30934   1.604   0.613   4.618  0.1445  0.6496  0.3359
 6492SOL    HW130935   1.593   0.557   4.695  2.6665  0.0381  0.2404
 6492SOL    HW230936   1.621   0.698   4.657 -2.7821  1.1202  0.6153
 6493SOL     OW30937   2.639   1.146   2.505  0.2946 -0.0846 -0.7030
 6493SOL    HW130938   2.556   1.100   2.521 -0.6922  1.9929  0.1027
 6493SOL    HW230939   2.603   1.223   2.463  0.8321 -0.4875 -1.9062
 6494SOL     OW30940   1.403   3.436  15.367  0.0798  0.0240  0.6439
 6494SOL    HW130941   1.446   3.440  15.281  0.2402  0.3741  0.7400
 6494SOL    HW230942   1.435   3.353  15.403 -0.7037 -0.0259  1.2150
 6495SOL     OW30943   3.331   1.824   3.552  0.5138  0.2659  0.7193
 6495SOL    HW130944   3.256   1.869   3.589 -1.1872 -2.7044  0.9045
 6495SOL    HW230945   3.331   1.743   3.604  2.1341  0.3794  0.9131
 6496SOL     OW30946   3.985   3.358   5.588 -0.2142  0.5789 -0.0057
 6496SOL    HW130947   3.982   3.263   5.584  0.8303  0.5641 -0.3398
 6496SOL    HW230948   3.915   3.382   5.649  0.0846 -1.4340  1.1283
 6497SOL     OW30949   1.933   2.935   6.354 -0.1245 -0.2274 -0.4617
 6497SOL    HW130950   1.872   2.935   6.428  0.0796 -2.2678 -0.2911
 6497SOL    HW230951   1.979   2.852   6.367 -0.3437 -0.0721  1.3291
 6498SOL     OW30952   3.862   4.094   4.813  0.1642  0.3110  0.2012
 6498SOL    HW130953   3.896   4.051   4.734  1.0056  0.8136  0.2837
 6498SOL    HW230954   3.831   4.019   4.864 -1.8363  0.0764 -1.3686
 6499SOL     OW30955   0.816   1.051   8.244 -0.2180  0.2913  0.2754
 6499SOL    HW130956   0.817   1.123   8.182 -1.9080  0.3512  0.3124
 6499SOL    HW230957   0.884   1.060   8.311 -0.6189 -1.8431  0.9758
 6500SOL     OW30958   2.286   3.143   5.621 -0.4303 -0.4343  0.5700
 6500SOL    HW130959   2.270   3.052   5.646 -2.9694 -0.2483 -0.3961
 6500SOL    HW230960   2.325   3.128   5.534 -0.2748  0.0058  0.5672
 6501SOL     OW30961   2.421   2.942   7.831 -0.0548  0.0013 -0.4182
 6501SOL    HW130962   2.369   2.985   7.763 -1.1954  1.1473  1.1699
 6501SOL    HW230963   2.402   2.993   7.909  2.4157  1.5816 -0.8344
 6502SOL     OW30964   3.939   4.267   7.004  0.6891 -0.0064  0.0139
 6502SOL    HW130965   4.007   4.216   6.960  0.7498 -0.9875  1.2524
 6502SOL    HW230966   3.858   4.243   6.959  1.4244 -0.3390 -1.1430
 6503SOL     OW30967   0.958   1.177   6.562  0.4073 -0.3032  0.4644
 6503SOL    HW130968   0.971   1.271   6.574  1.7499 -0.8356  3.2364
 6503SOL    HW230969   1.015   1.137   6.628 -2.2277 -2.6391  1.3397
 6504SOL     OW30970   1.142   4.574   5.423 -0.4592 -0.2558  0.2795
 6504SOL    HW130971   1.088   4.618   5.489 -0.8607 -1.3393  0.6822
 6504SOL    HW230972   1.156   4.493   5.473  1.0764 -0.8644 -1.1322
 6505SOL     OW30973   3.697   1.630   9.156  0.0913 -0.3627 -0.6245
 6505SOL    HW130974   3.772   1.613   9.099  0.0655 -0.6658 -0.5682
 6505SOL    HW230975   3.728   1.717   9.181 -0.2843 -0.5016  0.3490
 6506SOL     OW30976   0.232   2.359   2.713 -0.2321  0.5738  0.1691
 6506SOL    HW130977   0.139   2.378   2.698 -0.2373 -0.0094 -0.5172
 6506SOL    HW230978   0.232   2.368   2.808  0.1076 -0.4609  0.2669
 6507SOL     OW30979   0.590   4.049   8.791 -0.5504 -0.2603  0.1788
 6507SOL    HW130980   0.584   3.986   8.719  1.4855  1.8063 -1.7849
 6507SOL    HW230981   0.631   3.994   8.858  0.7512  0.5473  0.0479
 6508SOL     OW30982   1.603   3.522  13.009 -0.2415 -0.1142 -0.4051
 6508SOL    HW130983   1.538   3.569  12.956 -0.2851  0.7749  0.4320
 6508SOL    HW230984   1.565   3.435  13.000  0.4351 -0.4619  0.1274
 6509SOL     OW30985   2.973   0.368   0.407  0.5548 -0.0738  0.2979
 6509SOL    HW130986   2.878   0.375   0.404  0.6469  0.8676 -0.3074
 6509SOL    HW230987   2.988   0.290   0.462  0.0210  0.8566  1.7737
 6510SOL     OW30988   3.998   2.597   1.407  0.6899  0.1250  0.5376
 6510SOL    HW130989   3.994   2.615   1.501 -1.1617 -1.0677  0.6684
 6510SOL    HW230990   3.904   2.597   1.390  0.6385 -1.2083  0.8165
 6511SOL     OW30991   0.152   4.150   0.207 -0.1590 -0.2025  0.3888
 6511SOL    HW130992   0.088   4.218   0.231  1.8282  2.5219 -1.9907
 6511SOL    HW230993   0.114   4.062   0.210 -0.2854 -0.2127 -1.1987
 6512SOL     OW30994   4.473   0.310   7.875  0.0030 -0.3577 -0.0073
 6512SOL    HW130995   4.523   0.248   7.928 -1.2571  1.2671  3.0784
 6512SOL    HW230996   4.382   0.282   7.887  0.1294 -1.0247 -0.6513
 6513SOL     OW30997   0.754   2.142   4.617  0.2140 -0.0117 -0.1518
 6513SOL    HW130998   0.696   2.071   4.646  0.4565 -0.4209 -0.6851
 6513SOL    HW230999   0.820   2.131   4.686  0.7121  0.7287 -0.5130
 6514SOL     OW31000   0.164   3.874   0.244 -0.0830 -0.3760 -0.2176
 6514SOL    HW131001   0.200   3.870   0.155 -2.3625  1.9591 -1.2322
 6514SOL    HW231002   0.083   3.824   0.234 -2.0898  2.5983  1.4657
 6515SOL     OW31003   1.602   0.325  15.916 -0.3014  0.5783  0.1626
 6515SOL    HW131004   1.508   0.337  15.901 -0.2822 -0.2558 -0.5735
 6515SOL    HW231005   1.633   0.309  15.827 -1.2157 -0.7241  0.0897
 6516SOL     OW31006   4.219   3.601   7.476  0.6023  0.7300  0.4992
 6516SOL    HW131007   4.303   3.588   7.520  0.3854 -1.8762  0.1199
 6516SOL    HW231008   4.239   3.567   7.389  2.0169  0.0560  1.0877
 6517SOL     OW31009   2.358   4.194   1.692 -0.3777 -0.2567 -0.2507
 6517SOL    HW131010   2.334   4.149   1.611  1.5296 -1.5937 -0.0709
 6517SOL    HW231011   2.290   4.171   1.755  0.8826  0.0203  1.2014
 6518SOL     OW31012   0.220   3.993   8.862  0.1729  0.0356 -0.9552
 6518SOL    HW131013   0.292   4.044   8.898 -0.8555  1.5752 -1.0662
 6518SOL    HW231014   0.201   3.942   8.940 -1.3471  1.2150 -0.5430
 6519SOL     OW31015   1.495   1.550   8.451 -0.0305  0.4048 -0.0360
 6519SOL    HW131016   1.496   1.454   8.449  1.9754  0.4556 -1.1821
 6519SOL    HW231017   1.486   1.559   8.356  0.3642 -0.6436 -0.1777
 6520SOL     OW31018   4.194   2.139   0.486 -0.0765  0.2316 -0.2003
 6520SOL    HW131019   4.159   2.225   0.465 -0.9503 -0.1180 -0.1831
 6520SOL    HW231020   4.210   2.169   0.576 -0.5358 -0.8466  0.2349
 6521SOL     OW31021   2.233   1.478  12.615  0.0945  0.0744 -0.3237
 6521SOL    HW131022   2.141   1.485  12.587 -0.0155 -0.8105 -0.1849
 6521SOL    HW231023   2.257   1.566  12.585 -0.1666  0.2761  0.0623
 6522SOL     OW31024   2.799   1.243   8.421 -0.2476 -0.0641 -0.0001
 6522SOL    HW131025   2.871   1.184   8.443  1.9115  2.2577 -0.9683
 6522SOL    HW231026   2.815   1.319   8.477 -0.1135 -0.0560 -0.0488
 6523SOL     OW31027   4.069   4.048  14.431  0.0024 -0.0259 -0.5692
 6523SOL    HW131028   4.046   4.006  14.349  0.1794  1.1051 -1.1940
 6523SOL    HW231029   4.093   3.969  14.479 -1.3898  0.1670  0.4516
 6524SOL     OW31030   3.470   0.791   5.530 -0.9921 -0.0079  0.2114
 6524SOL    HW131031   3.434   0.872   5.495  0.5677 -0.2600 -2.0490
 6524SOL    HW231032   3.491   0.815   5.620 -1.4424  2.6755 -0.4179
 6525SOL     OW31033   1.304   3.471   3.622 -0.1237  0.4463 -0.2522
 6525SOL    HW131034   1.252   3.432   3.551 -0.8047  0.3747  0.2829
 6525SOL    HW231035   1.374   3.408   3.639  0.6449  0.9177 -1.6454
 6526SOL     OW31036   0.327   1.776   3.898  0.2733 -0.0032 -0.4820
 6526SOL    HW131037   0.245   1.822   3.917 -1.3972 -2.5008 -1.6213
 6526SOL    HW231038   0.315   1.688   3.935 -0.3245  1.5436  2.9703
 6527SOL     OW31039   4.335   1.078  12.004 -0.3022 -0.1226  0.3592
 6527SOL    HW131040   4.320   1.083  11.910  0.5891 -0.5556  0.1849
 6527SOL    HW231041   4.252   1.045  12.039 -0.1323 -2.3143 -1.2894
 6528SOL     OW31042   2.511   2.352   0.324 -0.8171 -0.1498 -0.0110
 6528SOL    HW131043   2.510   2.404   0.244  3.3497 -0.0508 -0.0238
 6528SOL    HW231044   2.447   2.400   0.375  0.2721 -1.3165  2.4247
 6529SOL     OW31045   4.514   2.754   8.920 -0.1502 -0.5133  0.3950
 6529SOL    HW131046   4.481   2.843   8.935  1.4016  0.1598 -0.2925
 6529SOL    HW231047   4.440   2.695   8.904 -1.5357  1.5921 -0.9831
 6530SOL     OW31048   0.657   3.653  17.608  0.2834 -0.3058 -0.5729
 6530SOL    HW131049   0.644   3.578  17.667 -2.9337  0.6051 -0.1305
 6530SOL    HW231050   0.573   3.696  17.620 -0.0409 -0.5222 -2.0495
 6531SOL     OW31051   2.882   4.020   2.058 -0.4451  0.6301  0.5250
 6531SOL    HW131052   2.850   3.930   2.053 -0.7213  0.8948 -2.2641
 6531SOL    HW231053   2.864   4.046   2.148  0.7167 -0.8704  1.1968
 6532SOL     OW31054   4.293   3.833  16.948  0.3849 -0.3207  0.1264
 6532SOL    HW131055   4.214   3.882  16.924 -0.5372 -2.2824 -0.8359
 6532SOL    HW231056   4.362   3.882  16.902  0.2725 -0.9302 -0.6806
 6533SOL     OW31057   2.802   4.345   7.423  0.1425 -1.2560  0.0452
 6533SOL    HW131058   2.789   4.363   7.330  0.0629  1.5919  0.5927
 6533SOL    HW231059   2.719   4.307   7.451  0.0514  0.1371  1.7238
 6534SOL     OW31060   1.092   3.916   9.637 -0.3592 -0.4363  0.2067
 6534SOL    HW131061   1.076   3.956   9.722 -0.8163  0.3167 -0.2297
 6534SOL    HW231062   1.174   3.959   9.612 -0.3635 -0.0570  0.8542
 6535SOL     OW31063   0.271   1.762  17.454  0.4366 -0.2080  0.4520
 6535SOL    HW131064   0.304   1.734  17.539  1.8044 -0.9097 -0.3169
 6535SOL    HW231065   0.205   1.695  17.437 -0.0342  0.2724  0.3658
 6536SOL     OW31066   0.019   2.992   6.011 -0.3708  0.0416 -0.5956
 6536SOL    HW131067   4.714   2.934   6.080  3.0813 -1.7195 -0.4896
 6536SOL    HW231068   0.106   2.951   6.007  0.5557  1.9129 -0.0468
 6537SOL     OW31069   1.520   3.094  10.432  0.5465 -0.0391 -0.5235
 6537SOL    HW131070   1.537   3.003  10.452 -0.2884 -0.2754 -0.8882
 6537SOL    HW231071   1.604   3.133  10.457  0.3019  0.4959 -0.5400
 6538SOL     OW31072   1.745   1.337   7.015 -0.6262  0.0295  0.7210
 6538SOL    HW131073   1.773   1.321   6.925  0.4213 -0.9597  1.2298
 6538SOL    HW231074   1.748   1.249   7.052  1.9993 -1.2419 -2.4851
 6539SOL     OW31075   3.977   0.158   7.308 -0.5530 -0.1397  0.2533
 6539SOL    HW131076   3.926   0.106   7.371 -1.6548 -0.1955 -0.6977
 6539SOL    HW231077   4.044   0.196   7.365  1.0656 -0.8151 -1.2378
 6540SOL     OW31078   2.489   3.237   9.880 -0.4073  0.1311 -0.1925
 6540SOL    HW131079   2.484   3.330   9.903 -1.4272  0.0011  0.0784
 6540SOL    HW231080   2.585   3.231   9.870 -0.4460 -2.0649  0.7449
 6541SOL     OW31081   4.444   2.846   3.801 -0.0500 -0.0670  0.5704
 6541SOL    HW131082   4.360   2.876   3.834  0.7195  0.9665  1.5917
 6541SOL    HW231083   4.417   2.772   3.746  1.0587  0.7807 -1.1362
 6542SOL     OW31084   2.073   4.550   6.824  0.1722  0.0438 -0.2435
 6542SOL    HW131085   2.031   4.540   6.739  0.8225  2.2763 -0.8259
 6542SOL    HW231086   2.013   4.613   6.864 -1.3682 -1.6732  0.1473
 6543SOL     OW31087   0.948   3.626   6.175 -0.1080  0.0247  0.5528
 6543SOL    HW131088   0.891   3.607   6.249  0.7892 -0.9158  1.0092
 6543SOL    HW231089   0.979   3.536   6.163 -0.2975  0.0539 -0.1801
 6544SOL     OW31090   0.718   1.196   0.951 -0.4632 -0.2299 -0.4025
 6544SOL    HW131091   0.650   1.246   0.905 -0.5749 -0.3317 -0.3466
 6544SOL    HW231092   0.677   1.149   1.023 -1.3017  0.0237 -0.7113
 6545SOL     OW31093   2.843   2.300   9.324  0.3237  0.2030 -0.4494
 6545SOL    HW131094   2.868   2.388   9.351  0.6914  0.5598 -1.9591
 6545SOL    HW231095   2.918   2.276   9.270 -0.5954  1.7008 -2.4088
 6546SOL     OW31096   4.305   0.590  14.915  0.2593  0.1546 -0.1358
 6546SOL    HW131097   4.348   0.556  14.994 -0.5546  0.9042  0.6268
 6546SOL    HW231098   4.381   0.616  14.863  0.4029 -1.5957 -0.8032
 6547SOL     OW31099   2.687   2.611   0.182  0.1648 -0.5159 -0.5434
 6547SOL    HW131100   2.775   2.574   0.173  0.8227  1.0850 -0.7633
 6547SOL    HW231101   2.671   2.605   0.277 -1.0804  1.0079 -0.6571
 6548SOL     OW31102   0.458   2.044   6.160  0.4065 -0.4522  0.2254
 6548SOL    HW131103   0.416   2.043   6.246 -1.0301  0.1947 -0.4632
 6548SOL    HW231104   0.401   2.106   6.115  2.1933  2.1678  1.6084
 6549SOL     OW31105   3.080   2.104  10.270 -0.1733  0.0998  1.1433
 6549SOL    HW131106   3.051   2.016  10.246  1.1789  0.0969 -0.4687
 6549SOL    HW231107   3.135   2.135  10.198 -0.9725 -1.6824 -0.2257
 6550SOL     OW31108   3.478   4.531   2.485 -0.5349 -0.6076 -0.7903
 6550SOL    HW131109   3.479   4.529   2.581 -2.0720  1.4763 -0.7276
 6550SOL    HW231110   3.560   4.575   2.463 -1.6283  1.8047 -0.1103
 6551SOL     OW31111   1.943   2.482  17.439 -0.3612  0.3686 -0.1882
 6551SOL    HW131112   2.011   2.416  17.451 -0.8703  0.2262  1.9014
 6551SOL    HW231113   1.870   2.421  17.426 -0.4146 -0.0500  2.1287
 6552SOL     OW31114   0.194   3.515   5.336 -0.0676 -0.3790  0.0740
 6552SOL    HW131115   0.240   3.519   5.420  1.7229 -0.1383 -0.9246
 6552SOL    HW231116   0.265   3.511   5.272 -1.1760  0.5885 -1.2240
 6553SOL     OW31117   0.379   0.001   0.036 -0.1243 -0.2025  0.0619
 6553SOL    HW131118   0.332   4.645   0.030  0.9741 -0.8115 -0.2323
 6553SOL    HW231119   0.466   4.698   0.009 -0.4284 -0.8716 -0.1793
 6554SOL     OW31120   2.209   3.249   6.600 -0.1267  0.0768  0.2361
 6554SOL    HW131121   2.292   3.262   6.555 -1.1862 -0.0612 -1.7468
 6554SOL    HW231122   2.247   3.201   6.674 -2.6343  0.1019  1.5421
 6555SOL     OW31123   1.442   3.629   4.629  0.4212  0.9032 -0.4218
 6555SOL    HW131124   1.438   3.536   4.610 -1.3606  1.0378 -0.6711
 6555SOL    HW231125   1.412   3.637   4.720 -2.0961  0.1796 -1.1978
 6556SOL     OW31126   0.080   0.751   0.089 -0.7980 -0.1079  0.1527
 6556SOL    HW131127   0.157   0.751   0.145  0.1686  2.5212 -1.1969
 6556SOL    HW231128   0.113   0.783   0.005  2.2659 -0.3640  1.2701
 6557SOL     OW31129   4.599   1.198   5.641  0.2305 -0.3457  0.0907
 6557SOL    HW131130   4.522   1.234   5.598 -0.3169 -0.3014  1.1062
 6557SOL    HW231131   4.562   1.112   5.662 -1.2497  0.6501  1.4917
 6558SOL     OW31132   1.611   3.519   2.802  0.4632 -0.0579 -0.4920
 6558SOL    HW131133   1.530   3.528   2.853 -0.6919  0.8036 -2.4637
 6558SOL    HW231134   1.566   3.514   2.717 -1.1561  0.1665  0.3484
 6559SOL     OW31135   1.084   3.118   3.149  0.3708  0.5419  0.5100
 6559SOL    HW131136   1.073   3.043   3.208  0.5166  1.8992  2.2451
 6559SOL    HW231137   1.156   3.167   3.188  1.0550 -1.2214  1.4692
 6560SOL     OW31138   1.510   0.159  14.697 -0.0991 -0.0963 -0.3158
 6560SOL    HW131139   1.542   0.228  14.755 -1.3631 -0.7577  1.1593
 6560SOL    HW231140   1.554   0.077  14.722  2.1141  0.6957 -1.5957
 6561SOL     OW31141   2.523   2.139   2.873  0.6884  0.4356  0.3180
 6561SOL    HW131142   2.479   2.115   2.955  0.2347 -1.0626 -0.3574
 6561SOL    HW231143   2.583   2.065   2.863  1.6490  1.0129  1.8935
 6562SOL     OW31144   3.180   3.077   5.758 -0.2070  0.5369 -0.2249
 6562SOL    HW131145   3.169   3.038   5.845  2.9302 -0.6934 -0.4026
 6562SOL    HW231146   3.090   3.094   5.731 -0.3558  0.7651  0.4023
 6563SOL     OW31147   4.010   4.442   8.990  0.2519 -0.0167  0.0328
 6563SOL    HW131148   4.083   4.383   9.010 -0.2968 -0.2141  1.4479
 6563SOL    HW231149   3.964   4.396   8.920 -1.6158  1.1078  0.5260
 6564SOL     OW31150   3.052   2.695   0.491 -1.0013 -0.5032 -0.0758
 6564SOL    HW131151   3.030   2.766   0.430  0.2986 -0.7536 -0.8335
 6564SOL    HW231152   3.147   2.704   0.500 -1.0737 -0.1695  0.3644
 6565SOL     OW31153   1.709   3.728   9.591 -0.0451 -0.7270  0.3858
 6565SOL    HW131154   1.768   3.709   9.664  0.0319  0.3558  0.6007
 6565SOL    HW231155   1.745   3.666   9.527  0.5098 -0.9836  0.9436
 6566SOL     OW31156   3.513   2.966  10.178 -0.1105 -0.3730 -0.2039
 6566SOL    HW131157   3.423   2.941  10.159  0.0889 -0.4163 -1.0782
 6566SOL    HW231158   3.555   2.890  10.218  2.1656  0.3226 -1.2574
 6567SOL     OW31159   1.934   1.194   0.699  0.2333  0.1772  0.2531
 6567SOL    HW131160   1.863   1.174   0.638  0.1536  0.9849  0.0793
 6567SOL    HW231161   1.887   1.165   0.777  0.3703 -0.6555  0.0296
 6568SOL     OW31162   1.897   4.351   6.896  0.2979  0.1141 -0.1136
 6568SOL    HW131163   1.971   4.406   6.869  1.5766 -1.1025  0.9549
 6568SOL    HW231164   1.902   4.287   6.826 -0.1460  0.8887 -0.8633
 6569SOL     OW31165   2.710   3.780  15.032  0.1753  0.5068 -0.7288
 6569SOL    HW131166   2.762   3.777  14.952 -1.6760  1.5597 -1.9735
 6569SOL    HW231167   2.622   3.761  15.001  0.2555 -1.7348  0.4274
 6570SOL     OW31168   1.788   3.252   2.691 -0.1813  0.5685 -0.0466
 6570SOL    HW131169   1.707   3.291   2.658  0.4975 -1.2729 -3.9224
 6570SOL    HW231170   1.856   3.278   2.629  0.9400 -0.8182  0.5783
 6571SOL     OW31171   3.125   0.112   3.034 -0.2815  0.5723  0.4594
 6571SOL    HW131172   3.193   0.087   2.971  0.2405 -1.0262  1.6913
 6571SOL    HW231173   3.163   0.189   3.076  1.1976 -0.7977  1.5853
 6572SOL     OW31174   4.363   3.611   8.117  0.0308  0.0417  0.1496
 6572SOL    HW131175   4.452   3.644   8.121  0.1778 -0.3431  0.0598
 6572SOL    HW231176   4.377   3.517   8.106 -1.3296 -0.1687  0.1265
 6573SOL     OW31177   3.005   1.205   0.171  0.1965 -0.2114  0.4207
 6573SOL    HW131178   2.982   1.209   0.264 -0.2896  1.1070  0.2380
 6573SOL    HW231179   3.087   1.159   0.190  0.3622  0.4823  1.4023
 6574SOL     OW31180   0.732   0.041   4.113  0.3641  0.2000  0.3917
 6574SOL    HW131181   0.784   4.692   4.139  2.5321  1.5592 -0.0838
 6574SOL    HW231182   0.766   0.068   4.028  0.1873 -0.3805  0.1353
 6575SOL     OW31183   1.855   2.748   4.447  0.0906  0.1081 -0.7416
 6575SOL    HW131184   1.762   2.742   4.468 -0.0994  1.0186 -1.3052
 6575SOL    HW231185   1.894   2.734   4.533  1.4221 -1.2123 -1.5461
 6576SOL     OW31186   1.656   2.867   3.831 -0.0056  0.3178  0.0426
 6576SOL    HW131187   1.640   2.927   3.757 -0.7520 -0.5414 -0.4951
 6576SOL    HW231188   1.703   2.918   3.897  1.0516 -2.2864  1.2993
 6577SOL     OW31189   3.664   4.460   9.331  0.5864 -0.5187 -0.4914
 6577SOL    HW131190   3.717   4.494   9.403 -2.2506 -1.9629  2.3366
 6577SOL    HW231191   3.577   4.488   9.359  1.3766  2.8593 -1.3990
 6578SOL     OW31192   3.656   1.050   4.703 -0.5179  0.1031 -0.1516
 6578SOL    HW131193   3.737   1.100   4.713 -1.4459  1.3972  0.8758
 6578SOL    HW231194   3.598   1.119   4.671 -2.8406 -2.8161 -2.2715
 6579SOL     OW31195   2.174   0.375   5.486  0.3423 -0.2470 -0.2942
 6579SOL    HW131196   2.121   0.361   5.565  0.2381 -0.5141 -0.4130
 6579SOL    HW231197   2.128   0.448   5.445 -1.3880 -0.7818  0.6939
 6580SOL     OW31198   4.421   4.154   2.037 -0.2334 -0.3644  0.7769
 6580SOL    HW131199   4.344   4.194   1.996  0.6604  1.6004  1.0279
 6580SOL    HW231200   4.405   4.065   2.006  3.5900 -0.7749 -0.0581
 6581SOL     OW31201   2.114   1.188   4.486  0.2178  0.2422  0.6739
 6581SOL    HW131202   2.101   1.097   4.511 -3.4082 -0.3649 -3.4184
 6581SOL    HW231203   2.024   1.214   4.467  0.8843  2.2578  0.2667
 6582SOL     OW31204   2.920   2.983   3.054 -0.0808  0.3492 -0.0340
 6582SOL    HW131205   2.859   3.006   2.984 -0.8156 -3.5986 -0.6741
 6582SOL    HW231206   2.994   3.035   3.024 -0.9254  0.7479 -1.4334
 6583SOL     OW31207   2.531   1.742   6.742 -0.2386  0.0155  0.3898
 6583SOL    HW131208   2.581   1.682   6.687  0.0643 -0.1924  0.8970
 6583SOL    HW231209   2.444   1.702   6.731 -1.2653  2.0612  1.0351
 6584SOL     OW31210   1.589   0.642  12.499  0.5265  0.5662  0.7675
 6584SOL    HW131211   1.651   0.710  12.472  2.5315 -0.7149  2.1673
 6584SOL    HW231212   1.614   0.568  12.443  2.0896  2.1190 -0.5914
 6585SOL     OW31213   4.045   4.625   8.214  0.3889 -0.6018 -0.0510
 6585SOL    HW131214   4.080   4.552   8.265 -0.2538 -1.0934 -0.3061
 6585SOL    HW231215   4.027   4.580   8.132 -0.1135  0.2914 -0.4366
 6586SOL     OW31216   4.593   2.501   8.211  0.2325  0.2863 -0.0212
 6586SOL    HW131217   4.582   2.406   8.204  2.8618  0.0295 -0.4220
 6586SOL    HW231218   4.560   2.525   8.298 -0.4119  0.7729 -0.4015
 6587SOL     OW31219   2.543   2.379   3.155 -0.9682 -0.6771  0.0579
 6587SOL    HW131220   2.515   2.450   3.096  1.6928 -2.3832 -3.2925
 6587SOL    HW231221   2.473   2.318   3.130  0.2167 -1.4118 -1.5205
 6588SOL     OW31222   1.246   0.608   6.857  0.5834  0.2822  0.1711
 6588SOL    HW131223   1.302   0.531   6.863  0.8697  0.6041  1.4920
 6588SOL    HW231224   1.311   0.678   6.856  0.6187  0.2270 -1.6939
 6589SOL     OW31225   2.281   3.277  13.274 -1.0872  0.5655 -0.3834
 6589SOL    HW131226   2.306   3.348  13.332 -0.6401 -0.5132  0.7335
 6589SOL    HW231227   2.225   3.322  13.209  0.7357  0.6171 -1.9242
 6590SOL     OW31228   1.426   2.883  13.810  0.1647  0.1107 -0.3340
 6590SOL    HW131229   1.402   2.801  13.854 -0.1730  0.5680  0.3274
 6590SOL    HW231230   1.518   2.896  13.836 -0.2528  1.4566  0.4208
 6591SOL     OW31231   1.424   2.913  13.373 -0.0192  0.4994  0.5208
 6591SOL    HW131232   1.443   2.969  13.448  0.6010 -0.1295  0.8422
 6591SOL    HW231233   1.480   2.943  13.302 -0.3435  2.0894  0.9370
 6592SOL     OW31234   1.798   0.628   1.832  0.0363  0.4984 -0.4642
 6592SOL    HW131235   1.804   0.552   1.774 -1.4826 -0.1115  0.1748
 6592SOL    HW231236   1.723   0.671   1.790  0.6075  1.8430 -0.0996
 6593SOL     OW31237   1.497   0.771  13.264  0.2741  0.1973  0.8572
 6593SOL    HW131238   1.532   0.859  13.274 -0.2027  0.7220 -1.8587
 6593SOL    HW231239   1.569   0.729  13.311  0.9045  0.8847  0.5001
 6594SOL     OW31240   0.324   4.199   8.418  0.2228 -0.2131  0.3102
 6594SOL    HW131241   0.294   4.109   8.431  0.7239 -0.5041 -0.5575
 6594SOL    HW231242   0.364   4.220   8.502 -0.2592  1.2902  0.1682
 6595SOL     OW31243   2.211   4.047   5.558  0.1725  0.3082 -0.6043
 6595SOL    HW131244   2.263   4.008   5.489  0.7459  0.0834 -0.0484
 6595SOL    HW231245   2.134   4.082   5.513 -1.0639 -0.2525  1.0729
 6596SOL     OW31246   0.551   3.619   9.319  0.0460  0.2716 -0.0996
 6596SOL    HW131247   0.587   3.531   9.328  0.3028  0.1948 -2.0031
 6596SOL    HW231248   0.545   3.648   9.410  0.1239 -0.5573  0.1711
 6597SOL     OW31249   2.920   2.149   6.825 -0.1088 -0.6167 -0.0802
 6597SOL    HW131250   2.996   2.205   6.841 -0.6420  0.4023 -1.1218
 6597SOL    HW231251   2.851   2.215   6.838  0.7567  0.0780  0.9531
 6598SOL     OW31252   3.700   1.869  14.566 -0.1994 -0.0012  0.3310
 6598SOL    HW131253   3.756   1.944  14.548  0.1433 -0.1125  0.9146
 6598SOL    HW231254   3.763   1.810  14.609 -0.3798 -0.1860  0.3436
 6599SOL     OW31255   0.364   0.304   1.463 -0.2878  0.9728  0.2101
 6599SOL    HW131256   0.308   0.381   1.473 -2.5134 -0.4500 -1.3854
 6599SOL    HW231257   0.410   0.301   1.547  0.4949  1.0316 -0.2089
 6600SOL     OW31258   3.251   2.788   8.595 -0.3522 -0.1184  0.6019
 6600SOL    HW131259   3.311   2.733   8.546  1.2411  1.7537  0.4678
 6600SOL    HW231260   3.316   2.836   8.647 -1.0385  1.6697 -0.2103
 6601SOL     OW31261   2.531   3.498   1.826  0.5636 -0.2553  0.1838
 6601SOL    HW131262   2.620   3.463   1.821  1.0789  1.1430 -0.3269
 6601SOL    HW231263   2.471   3.423   1.816  2.0485 -1.2097 -1.4754
 6602SOL     OW31264   1.899   4.701   2.211  0.1754 -0.3063 -0.7579
 6602SOL    HW131265   1.889   0.026   2.131  0.3381 -1.2748 -1.3981
 6602SOL    HW231266   1.807   4.677   2.226 -0.2963  0.3347 -2.6073
 6603SOL     OW31267   1.945   3.838   3.563 -0.3562  0.2688 -0.3813
 6603SOL    HW131268   1.956   3.879   3.478  2.6946  0.7265  0.2398
 6603SOL    HW231269   1.981   3.906   3.620 -0.5645  2.6031 -3.0647
 6604SOL     OW31270   1.764   2.039   5.229 -0.1164  0.1243  0.0522
 6604SOL    HW131271   1.762   2.004   5.318 -0.7165 -1.6759 -0.6582
 6604SOL    HW231272   1.697   1.980   5.193  1.2381 -1.0026 -0.6028
 6605SOL     OW31273   0.900   1.832  13.709 -0.2256  0.3868 -0.5718
 6605SOL    HW131274   0.948   1.769  13.655 -0.4598 -0.9601  0.8007
 6605SOL    HW231275   0.923   1.922  13.683 -1.6522  1.0653  0.4993
 6606SOL     OW31276   1.155   3.164   6.098  0.4844 -0.4275  0.1494
 6606SOL    HW131277   1.103   3.193   6.023  0.6041  1.5294  0.8176
 6606SOL    HW231278   1.191   3.246   6.134 -3.8080  1.6358 -0.2263
 6607SOL     OW31279   2.161   0.375   4.240  0.0813  0.5627  0.1747
 6607SOL    HW131280   2.189   0.453   4.288  2.6233  1.2436 -2.4098
 6607SOL    HW231281   2.091   0.326   4.284  0.4722  0.9596  1.2269
 6608SOL     OW31282   0.930   2.452  14.378  0.3981  0.1799  0.2589
 6608SOL    HW131283   0.989   2.474  14.451  2.3032  0.9150 -1.5019
 6608SOL    HW231284   0.981   2.381  14.340 -2.1938 -1.5894  0.0893
 6609SOL     OW31285   0.577   3.089   4.724  0.3350  0.1967 -0.4672
 6609SOL    HW131286   0.575   3.155   4.794 -1.8401 -0.1636 -0.1797
 6609SOL    HW231287   0.653   3.120   4.676  0.2325 -0.7773 -1.2570
 6610SOL     OW31288   2.627   2.752   0.856  0.0521  0.0190  0.1376
 6610SOL    HW131289   2.617   2.717   0.767  1.1515  0.1517 -0.0400
 6610SOL    HW231290   2.580   2.835   0.851  0.2558  0.0972 -0.4420
 6611SOL     OW31291   3.730   1.377   2.828  0.0377  0.5625  0.5476
 6611SOL    HW131292   3.763   1.326   2.903  1.0311  2.3490  1.3274
 6611SOL    HW231293   3.801   1.441   2.813  0.5111  0.2307  1.3855
 6612SOL     OW31294   0.536   1.444   4.692  0.1501  0.1958  0.2725
 6612SOL    HW131295   0.469   1.512   4.684 -0.1940 -0.1365  0.3436
 6612SOL    HW231296   0.530   1.419   4.784 -0.8531 -0.3884  0.0420
 6613SOL     OW31297   4.276   3.349   7.333  0.6084  0.5798 -0.1797
 6613SOL    HW131298   4.249   3.273   7.281  0.2763  0.6212 -0.0662
 6613SOL    HW231299   4.305   3.415   7.269 -1.4744 -2.1265 -3.9667
 6614SOL     OW31300   1.679   3.817   3.489  0.2364  0.2413  0.1932
 6614SOL    HW131301   1.635   3.861   3.562 -0.1752  1.0233 -0.5355
 6614SOL    HW231302   1.767   3.851   3.505 -0.0371  0.9646  0.1433
 6615SOL     OW31303   3.402   0.006   9.126 -0.3884  0.3535 -0.4574
 6615SOL    HW131304   3.332   4.715   9.188 -1.8285  1.0777 -1.8792
 6615SOL    HW231305   3.420   0.098   9.145 -0.9236  0.6404 -1.3337
 6616SOL     OW31306   4.137   2.184  17.011  0.2106  0.2144 -0.2679
 6616SOL    HW131307   4.230   2.159  17.009 -0.4718 -2.2606 -0.9963
 6616SOL    HW231308   4.127   2.190  17.106  0.7743 -2.8287 -0.0132
 6617SOL     OW31309   2.422   1.461   8.223 -0.0353  0.1977  0.0649
 6617SOL    HW131310   2.393   1.400   8.291  4.3376 -2.1977 -0.2171
 6617SOL    HW231311   2.374   1.541   8.244  1.2856  0.5692  1.6646
 6618SOL     OW31312   2.353   1.852  10.077 -0.0286 -0.8049  0.0230
 6618SOL    HW131313   2.411   1.848  10.153  1.0490  2.3390 -0.6508
 6618SOL    HW231314   2.289   1.798  10.124 -0.9945 -0.1281 -0.5041
 6619SOL     OW31315   4.635   0.049  11.585 -0.1343  0.5798  0.1076
 6619SOL    HW131316   4.695   0.113  11.547  2.7084 -2.7158 -0.9170
 6619SOL    HW231317   4.655   0.074  11.675  1.5263  2.8892 -0.8886
 6620SOL     OW31318   2.885   2.017  15.131  0.2524 -0.2504 -0.1864
 6620SOL    HW131319   2.914   1.929  15.155 -2.1888 -1.1481 -0.5353
 6620SOL    HW231320   2.897   2.076  15.205 -0.7922  0.4554 -0.5636
 6621SOL     OW31321   0.764   0.941   5.342 -0.1338  0.1645  0.1414
 6621SOL    HW131322   0.740   0.858   5.382  0.6565  0.1160  0.5145
 6621SOL    HW231323   0.770   0.997   5.419 -0.1705  2.3594 -1.4473
 6622SOL     OW31324   4.312   4.486   7.076  0.1763 -0.3621 -0.4129
 6622SOL    HW131325   4.312   4.393   7.098  0.7578 -0.2438  0.0530
 6622SOL    HW231326   4.218   4.497   7.060  0.0448  1.1996  1.3904
 6623SOL     OW31327   0.533   3.396   6.790  0.2384  0.2487  0.1153
 6623SOL    HW131328   0.601   3.347   6.837 -1.1321 -1.7970 -0.0907
 6623SOL    HW231329   0.470   3.421   6.858  0.5308  2.9781 -0.5916
 6624SOL     OW31330   3.697   0.890  11.318  0.5566  0.2722  0.1944
 6624SOL    HW131331   3.748   0.870  11.396  0.9878 -2.3213 -0.7374
 6624SOL    HW231332   3.719   0.813  11.265 -0.2873  0.3298 -0.2416
 6625SOL     OW31333   0.143   3.269  14.696 -0.2087  0.1289 -0.6787
 6625SOL    HW131334   0.222   3.229  14.733 -1.2880 -1.4927 -0.1488
 6625SOL    HW231335   0.178   3.285  14.608  2.7038 -0.0274  0.4507
 6626SOL     OW31336   0.412   1.339   9.102  0.7608  0.2648 -0.4480
 6626SOL    HW131337   0.381   1.392   9.028  0.3753 -0.4758 -0.8266
 6626SOL    HW231338   0.462   1.278   9.048  1.6011  1.2446 -0.7728
 6627SOL     OW31339   2.333   4.036   1.478  0.4735 -0.0757  0.2842
 6627SOL    HW131340   2.394   3.966   1.503 -0.1428  0.5090  3.4090
 6627SOL    HW231341   2.255   3.987   1.454  0.4629 -0.3786  0.9429
 6628SOL     OW31342   1.633   0.553   7.924 -0.3067  0.1120  0.3078
 6628SOL    HW131343   1.676   0.620   7.872 -0.9349  0.3795  0.1258
 6628SOL    HW231344   1.557   0.602   7.956  1.2256  1.6725  1.5256
 6629SOL     OW31345   3.779   0.936   0.584  0.5755  0.0912 -0.4071
 6629SOL    HW131346   3.851   0.932   0.648  0.0335  1.3094  0.2716
 6629SOL    HW231347   3.753   0.844   0.594 -0.8558  0.8590  2.6829
 6630SOL     OW31348   1.994   2.702  13.460 -0.5059 -0.0788  0.3089
 6630SOL    HW131349   2.044   2.715  13.541 -3.0243  0.6785  1.7460
 6630SOL    HW231350   1.904   2.717  13.490 -0.4413  1.5115 -0.3154
 6631SOL     OW31351   1.886   1.708   1.130  0.1452 -0.0668  0.0954
 6631SOL    HW131352   1.884   1.623   1.172  1.0965  0.8230  1.9457
 6631SOL    HW231353   1.813   1.749   1.178  1.7417  0.7035  1.8891
 6632SOL     OW31354   2.602   3.278   3.342 -0.1249  0.1344 -0.1987
 6632SOL    HW131355   2.683   3.328   3.354 -0.7228  0.8828  0.7149
 6632SOL    HW231356   2.615   3.214   3.412 -2.2530  2.3531  2.2185
 6633SOL     OW31357   2.651   0.234  10.667  0.0164 -0.3685 -0.0515
 6633SOL    HW131358   2.661   0.150  10.622  0.5663 -0.3739  0.0788
 6633SOL    HW231359   2.682   0.299  10.604 -1.9603 -1.7746 -2.4703
 6634SOL     OW31360   2.548   4.320  15.682 -0.1584  0.2880 -0.2437
 6634SOL    HW131361   2.495   4.391  15.720 -0.3202  0.3595 -0.6008
 6634SOL    HW231362   2.598   4.368  15.617 -1.8744  0.8305 -1.1622
 6635SOL     OW31363   2.276   0.927  12.461 -0.5338  0.0364  0.0163
 6635SOL    HW131364   2.299   0.855  12.401 -0.8783  1.5115 -1.8866
 6635SOL    HW231365   2.344   0.914  12.527 -1.6686 -1.8608  0.8088
 6636SOL     OW31366   4.090   0.626   6.135  0.1803  0.0874  0.3197
 6636SOL    HW131367   4.040   0.578   6.201 -0.7875  2.6389  1.4436
 6636SOL    HW231368   4.155   0.656   6.198  2.4480 -0.4748 -1.7573
 6637SOL     OW31369   4.365   3.378   1.183  0.3118  0.1694 -0.0101
 6637SOL    HW131370   4.319   3.333   1.113 -1.5702 -0.7242  1.8405
 6637SOL    HW231371   4.458   3.366   1.160  0.0159 -2.1913  0.0723
 6638SOL     OW31372   3.558   4.470   6.104  0.2189  0.5886 -0.6120
 6638SOL    HW131373   3.543   4.414   6.028  3.2145 -1.6948  0.4866
 6638SOL    HW231374   3.611   4.537   6.061  0.7779 -0.2273 -1.1838
 6639SOL     OW31375   4.346   0.982   4.761  0.3202 -0.8938 -0.1122
 6639SOL    HW131376   4.440   0.987   4.747  0.1847 -1.2933 -1.1447
 6639SOL    HW231377   4.347   1.030   4.844 -2.8808  3.9671 -2.9262
 6640SOL     OW31378   4.244   2.522  12.399 -0.4451 -0.0111  0.7009
 6640SOL    HW131379   4.290   2.569  12.329 -3.2376 -2.0922 -2.5265
 6640SOL    HW231380   4.315   2.510  12.462  0.1470 -0.4724 -0.0425
 6641SOL     OW31381   1.576   2.042   6.322 -0.0050  0.5706  0.8362
 6641SOL    HW131382   1.564   1.961   6.373  1.0859  1.0750  1.9051
 6641SOL    HW231383   1.666   2.028   6.295 -0.2644  0.0550  0.2511
 6642SOL     OW31384   2.326   0.658   3.359  0.1231 -0.1681  0.0912
 6642SOL    HW131385   2.387   0.583   3.360  0.2667 -0.0375  0.9304
 6642SOL    HW231386   2.387   0.730   3.374  0.1206  0.0923 -1.0898
 6643SOL     OW31387   3.974   2.946   2.092  0.8104 -0.3606 -0.0214
 6643SOL    HW131388   3.948   2.985   2.009 -0.5025 -0.6327  0.2639
 6643SOL    HW231389   3.946   2.857   2.071 -1.9814  0.3044  0.8755
 6644SOL     OW31390   0.779   0.533   1.790 -0.2871 -0.1317 -0.6622
 6644SOL    HW131391   0.783   0.475   1.866 -2.6908  0.0403 -0.4078
 6644SOL    HW231392   0.858   0.511   1.740 -0.4515 -0.2900 -0.8539
 6645SOL     OW31393   0.056   4.582   8.070 -0.4149  0.3879  0.1193
 6645SOL    HW131394   0.128   4.613   8.126 -2.3219  1.9480  1.6988
 6645SOL    HW231395   0.045   4.490   8.094  0.9644  0.9012  2.6868
 6646SOL     OW31396   0.544   3.698   1.543 -0.4085 -1.1929  0.7584
 6646SOL    HW131397   0.594   3.780   1.541  0.4237 -1.7906 -2.6532
 6646SOL    HW231398   0.469   3.727   1.492  1.0851 -4.3939 -3.2260
 6647SOL     OW31399   1.857   0.655   2.117 -0.1418 -0.2436 -0.0983
 6647SOL    HW131400   1.781   0.714   2.117 -1.6529 -2.1664  1.9831
 6647SOL    HW231401   1.854   0.624   2.026  1.8991  1.2969 -0.6807
 6648SOL     OW31402   0.866   1.670   8.093 -0.3348 -0.6461  0.1916
 6648SOL    HW131403   0.884   1.763   8.076  0.4550 -0.6217  1.1265
 6648SOL    HW231404   0.945   1.650   8.144  0.8879 -1.9738 -2.2130
 6649SOL     OW31405   4.573   3.708   4.591 -0.1220  0.0183  0.1879
 6649SOL    HW131406   4.618   3.700   4.675  1.9246  1.3266 -0.7795
 6649SOL    HW231407   4.483   3.689   4.618 -0.1307  2.1077  1.6240
 6650SOL     OW31408   2.622   1.333   0.237  0.0528 -0.4150  0.3990
 6650SOL    HW131409   2.636   1.426   0.253 -1.4159 -0.2034  0.4846
 6650SOL    HW231410   2.646   1.335   0.145  2.1989 -0.0697  0.9755
 6651SOL     OW31411   0.160   0.509  17.701 -0.2698  0.0740 -0.0012
 6651SOL    HW131412   0.239   0.496   0.047 -0.7615 -1.2532  0.4257
 6651SOL    HW231413   0.139   0.599   0.021  0.3751  0.2289 -0.0256
 6652SOL     OW31414   1.140   1.596   7.756 -0.0440  0.8405 -0.1680
 6652SOL    HW131415   1.129   1.520   7.812 -2.8766  0.5702 -1.0983
 6652SOL    HW231416   1.122   1.565   7.667  2.2309 -1.2951  0.1346
 6653SOL     OW31417   1.839   2.156  15.834 -0.1246  0.0158  0.4142
 6653SOL    HW131418   1.872   2.092  15.771  0.0610  1.3339 -0.7934
 6653SOL    HW231419   1.762   2.188  15.789  0.6406  0.2470 -0.7108
 6654SOL     OW31420   3.006   0.147   6.715 -1.0097  0.6604 -0.2728
 6654SOL    HW131421   3.016   0.177   6.624  0.7143  0.4270 -0.1669
 6654SOL    HW231422   3.090   0.107   6.739 -1.8223  0.5452  2.2885
 6655SOL     OW31423   4.187   3.811   0.933 -0.3791 -0.2884  0.4573
 6655SOL    HW131424   4.252   3.813   1.003 -1.5723  1.3964  1.5026
 6655SOL    HW231425   4.164   3.718   0.933 -1.6772  0.0400 -0.7165
 6656SOL     OW31426   3.895   3.424   1.114 -0.1779  0.0694  0.8522
 6656SOL    HW131427   3.872   3.354   1.053 -1.5769  1.1729  0.1206
 6656SOL    HW231428   3.812   3.448   1.155 -0.1618 -0.1762  1.0263
 6657SOL     OW31429   4.534   3.108   7.276  0.6102 -0.4631 -0.0364
 6657SOL    HW131430   4.493   3.023   7.264  0.9759 -0.5201 -0.8446
 6657SOL    HW231431   4.524   3.145   7.188 -1.0568  1.5821  0.9788
 6658SOL     OW31432   2.517   3.585  11.390  0.6099 -0.5347  0.4303
 6658SOL    HW131433   2.470   3.634  11.457  0.4851  0.5129 -0.4280
 6658SOL    HW231434   2.607   3.595  11.421  0.2383 -0.3351  1.4316
 6659SOL     OW31435   0.864   2.357   6.488  0.3133  0.4517  0.0788
 6659SOL    HW131436   0.904   2.284   6.441 -0.6503  0.7537 -1.1975
 6659SOL    HW231437   0.863   2.313   6.573 -0.7397 -1.3254 -0.8486
 6660SOL     OW31438   0.760   2.459   7.232  0.2743  0.4726  0.1214
 6660SOL    HW131439   0.798   2.530   7.283  0.3764  0.8208 -0.4355
 6660SOL    HW231440   0.833   2.398   7.223 -0.9755 -0.9547 -0.5155
 6661SOL     OW31441   2.696   4.411   2.498  0.5974  0.4660 -0.4270
 6661SOL    HW131442   2.631   4.374   2.557 -1.0960  3.9033 -0.1513
 6661SOL    HW231443   2.771   4.354   2.517  0.3545  0.7636  1.3855
 6662SOL     OW31444   1.675   4.003  16.813  0.0911 -0.5243  0.0760
 6662SOL    HW131445   1.635   3.918  16.832  0.5266 -1.0028 -1.1271
 6662SOL    HW231446   1.692   3.996  16.719  1.3547  0.2469  0.2408
 6663SOL     OW31447   3.987   4.267  17.679 -0.0835  0.2533  0.0605
 6663SOL    HW131448   4.005   4.175  17.699  0.3204  0.4311  0.5002
 6663SOL    HW231449   4.076   4.302  17.683  0.4180 -0.8806 -1.1173
 6664SOL     OW31450   4.407   2.355   6.566  0.0447 -0.7999  0.4467
 6664SOL    HW131451   4.422   2.264   6.592  2.8298 -0.3549  0.4557
 6664SOL    HW231452   4.393   2.394   6.652  1.1890 -2.2254  1.2733
 6665SOL     OW31453   1.866   3.423   4.701  0.5934  0.3364 -0.1372
 6665SOL    HW131454   1.863   3.516   4.724 -0.7086  0.1464  0.4704
 6665SOL    HW231455   1.889   3.378   4.782 -0.6659  1.5248  0.8919
 6666SOL     OW31456   2.425   1.864  12.851 -0.0461 -0.6272  0.6976
 6666SOL    HW131457   2.480   1.918  12.909 -2.2975  0.8244  1.4531
 6666SOL    HW231458   2.374   1.810  12.911 -1.1275  1.7972  1.9512
 6667SOL     OW31459   2.183   1.184  10.049 -0.1940  0.0587  0.1002
 6667SOL    HW131460   2.276   1.207  10.040 -0.1019 -0.2651  0.2105
 6667SOL    HW231461   2.192   1.092  10.022  0.8586  0.6587 -1.6044
 6668SOL     OW31462   4.000   1.817   4.448 -0.3647  0.7615 -0.1637
 6668SOL    HW131463   3.962   1.822   4.360 -1.1514 -1.3960  0.0550
 6668SOL    HW231464   3.930   1.772   4.495  1.2596  0.7177  2.1741
 6669SOL     OW31465   4.510   2.994   8.655  0.4261  0.9492 -0.5581
 6669SOL    HW131466   4.464   2.998   8.571  0.2065  1.3744 -0.4135
 6669SOL    HW231467   4.440   2.977   8.718  1.0523 -2.2232 -0.7169
 6670SOL     OW31468   2.515   3.953   7.020  0.0678 -0.5812 -0.3098
 6670SOL    HW131469   2.565   3.934   6.941  1.5096  0.0962  0.4503
 6670SOL    HW231470   2.573   4.011   7.069  0.1861 -0.5040 -0.5435
 6671SOL     OW31471   1.259   4.456  10.003 -0.7264  0.0892 -0.6693
 6671SOL    HW131472   1.188   4.401   9.970  0.0666 -0.6524 -1.1314
 6671SOL    HW231473   1.297   4.497   9.925 -0.9409 -0.4544 -1.0580
 6672SOL     OW31474   0.139   0.664   5.750  0.0945 -0.6597 -0.0552
 6672SOL    HW131475   0.144   0.741   5.693 -1.1742 -0.6771 -0.1923
 6672SOL    HW231476   0.073   0.609   5.708  1.1575 -2.6159  0.8224
 6673SOL     OW31477   0.042   3.021  14.786 -0.4070 -0.0152  0.7665
 6673SOL    HW131478   4.674   3.020  14.769 -0.0145 -1.1209 -1.2272
 6673SOL    HW231479   0.054   3.109  14.751 -1.0148  0.4534  1.7118
 6674SOL     OW31480   3.966   2.796   9.285  0.4719 -0.0535  0.1525
 6674SOL    HW131481   3.903   2.726   9.297 -0.4742  0.1688 -3.5692
 6674SOL    HW231482   3.969   2.829   9.375 -0.4168 -1.8401  0.8340
 6675SOL     OW31483   2.469   3.709   4.912 -0.3569  0.2162  0.6235
 6675SOL    HW131484   2.502   3.790   4.873 -1.2462  1.0012  1.4804
 6675SOL    HW231485   2.495   3.646   4.845  1.4108  0.1343  1.3874
 6676SOL     OW31486   3.918   3.216   3.426 -0.2603 -0.1110  0.0068
 6676SOL    HW131487   3.941   3.309   3.429 -2.1044  0.3865 -1.5672
 6676SOL    HW231488   4.007   3.190   3.450  0.0113  0.0615 -0.8090
 6677SOL     OW31489   1.278   2.801   2.704  0.4447 -0.8171 -0.2764
 6677SOL    HW131490   1.339   2.841   2.765  2.3071 -1.0995 -1.9362
 6677SOL    HW231491   1.217   2.756   2.761  0.2181 -0.7748 -0.4847
 6678SOL     OW31492   1.317   4.599  11.815  0.3572  0.0621  0.3585
 6678SOL    HW131493   1.260   4.564  11.746  2.3431  2.7314 -2.6551
 6678SOL    HW231494   1.247   4.649  11.857  0.4570 -1.2402  2.0814
 6679SOL     OW31495   2.793   1.951   4.357  0.7717  0.0353 -0.1925
 6679SOL    HW131496   2.869   2.009   4.354  0.3163  0.7113  1.2480
 6679SOL    HW231497   2.727   2.006   4.314 -0.1498  0.7208  2.1173
 6680SOL     OW31498   1.414   3.930   9.373 -0.0056 -0.4591  0.0320
 6680SOL    HW131499   1.449   3.860   9.427 -1.9878 -0.4809  1.2864
 6680SOL    HW231500   1.483   3.996   9.374  1.2837 -1.8668  1.6809
 6681SOL     OW31501   1.366   4.415   6.461  0.0130 -0.1218  0.2021
 6681SOL    HW131502   1.355   4.348   6.528 -1.2953  0.9370  1.0609
 6681SOL    HW231503   1.351   4.355   6.388  1.3516 -1.3800  0.9634
 6682SOL     OW31504   3.424   4.187  15.901  0.7452  0.1837 -0.5373
 6682SOL    HW131505   3.335   4.174  15.866  1.0109  0.6399 -1.3778
 6682SOL    HW231506   3.441   4.273  15.862  0.8589  0.0708 -0.7389
 6683SOL     OW31507   3.778   0.329   3.209 -0.0252 -0.2042  0.1434
 6683SOL    HW131508   3.729   0.260   3.164  0.0675 -1.8974  2.6431
 6683SOL    HW231509   3.869   0.318   3.182 -0.1578 -0.3232 -0.2691
 6684SOL     OW31510   1.529   4.479   0.398  0.1895  0.4799 -0.6953
 6684SOL    HW131511   1.611   4.428   0.399 -0.7847 -1.0563  0.9707
 6684SOL    HW231512   1.537   4.537   0.474  0.6518 -2.5988  1.6442
 6685SOL     OW31513   0.757   2.450  13.926 -0.1435  0.0468 -0.1964
 6685SOL    HW131514   0.662   2.439  13.936 -0.1687  0.2221 -0.2490
 6685SOL    HW231515   0.785   2.375  13.874  1.3495 -0.4770  1.3597
 6686SOL     OW31516   2.615   0.389   6.963 -0.3194 -0.8760 -0.4215
 6686SOL    HW131517   2.672   0.352   6.897  0.0783 -1.8184  0.4510
 6686SOL    HW231518   2.538   0.337   6.939  2.1651 -3.6371 -2.3340
 6687SOL     OW31519   1.317   1.146   5.006 -0.6350 -0.2170  0.6003
 6687SOL    HW131520   1.399   1.106   5.037 -0.0139 -3.2194 -4.9517
 6687SOL    HW231521   1.298   1.220   5.064  2.0113  0.5128  0.5794
 6688SOL     OW31522   0.521   2.389   3.896 -0.4464  0.4142 -0.0632
 6688SOL    HW131523   0.604   2.385   3.850 -0.0518 -0.1137  0.6809
 6688SOL    HW231524   0.506   2.481   3.877  0.1013  0.4386 -0.3683
 6689SOL     OW31525   3.806   2.133   1.938 -0.1167 -0.0681 -0.2919
 6689SOL    HW131526   3.804   2.182   1.855 -1.4984  0.0963 -0.1588
 6689SOL    HW231527   3.862   2.063   1.905  2.0168  0.4293  2.2909
 6690SOL     OW31528   4.343   3.492   1.951 -0.5997  0.7225 -0.4352
 6690SOL    HW131529   4.347   3.574   2.001 -3.4528  0.4158  0.3060
 6690SOL    HW231530   4.437   3.500   1.934 -0.2755  1.5334  1.6625
 6691SOL     OW31531   0.593   3.894  16.945  0.5187 -0.5949  0.3903
 6691SOL    HW131532   0.612   3.972  16.893 -0.6153 -0.2838  0.4404
 6691SOL    HW231533   0.601   3.830  16.874 -0.9131 -0.4740  0.1125
 6692SOL     OW31534   2.214   2.257   4.011 -0.4403  0.5426  0.8397
 6692SOL    HW131535   2.197   2.181   3.954 -1.7673  1.1955  0.3560
 6692SOL    HW231536   2.127   2.297   4.014 -1.3534 -1.3450 -0.1038
 6693SOL     OW31537   1.988   2.655   6.049  0.2518  0.2466 -0.6339
 6693SOL    HW131538   2.018   2.730   5.998  0.9654  0.9431  0.7766
 6693SOL    HW231539   1.895   2.653   6.026 -0.2464 -2.7643  1.6277
 6694SOL     OW31540   0.527   4.085   4.128 -0.3619  0.0368  0.0422
 6694SOL    HW131541   0.577   4.138   4.067 -0.7553 -1.0952 -1.2610
 6694SOL    HW231542   0.574   4.095   4.211  1.3876 -1.6988 -0.7217
 6695SOL     OW31543   1.586   3.096   6.946  0.1939 -0.2294  0.7362
 6695SOL    HW131544   1.504   3.129   6.983 -0.1714  0.7747 -0.9735
 6695SOL    HW231545   1.622   3.177   6.910  1.9073 -0.6103  1.6099
 6696SOL     OW31546   3.167   3.615   6.258  0.3983  0.2186 -0.0586
 6696SOL    HW131547   3.224   3.625   6.182 -0.1416  1.5302 -0.2895
 6696SOL    HW231548   3.225   3.657   6.322 -0.9886  0.4144  1.0637
 6697SOL     OW31549   2.113   4.541   4.146  0.8277  0.0520 -0.1555
 6697SOL    HW131550   2.092   4.451   4.169  0.7629  0.0435 -0.2488
 6697SOL    HW231551   2.157   4.556   4.229  0.6617 -3.3662  0.5491
 6698SOL     OW31552   3.643   0.717   3.712 -0.0107 -0.3454  0.0836
 6698SOL    HW131553   3.561   0.667   3.706 -0.7575  0.6169  2.1697
 6698SOL    HW231554   3.624   0.802   3.751  2.0226  0.2599 -0.2232
 6699SOL     OW31555   4.047   4.006   1.708 -0.4925  0.1760 -0.1784
 6699SOL    HW131556   4.030   4.006   1.614  0.8880  2.5986 -0.4189
 6699SOL    HW231557   4.013   4.094   1.725  1.6132  1.3718 -2.1791
 6700SOL     OW31558   0.979   0.420   5.277  0.1035  0.1102 -0.1032
 6700SOL    HW131559   0.923   0.350   5.244 -0.5184  0.2197  0.7125
 6700SOL    HW231560   0.938   0.497   5.237  1.0497  0.2569 -0.7871
 6701SOL     OW31561   4.715   0.286   4.268  0.3675 -0.1362 -0.2604
 6701SOL    HW131562   0.042   0.338   4.328 -1.8241  1.0018  0.6854
 6701SOL    HW231563   4.625   0.311   4.287  0.1319  0.1277 -1.6786
 6702SOL     OW31564   1.559   4.327   6.733  0.4766  0.2270 -0.0330
 6702SOL    HW131565   1.496   4.363   6.795 -0.1037  0.8339 -0.9725
 6702SOL    HW231566   1.647   4.337   6.770  1.1610 -1.8851 -1.0766
 6703SOL     OW31567   3.762   3.365   6.291  0.3343 -0.6980  0.3829
 6703SOL    HW131568   3.794   3.401   6.208 -1.6538  0.5307  0.1473
 6703SOL    HW231569   3.837   3.371   6.350  1.0324 -1.4741 -0.4409
 6704SOL     OW31570   4.606   3.075   5.090 -0.1283 -0.0587  0.6794
 6704SOL    HW131571   4.660   3.151   5.111 -0.4117  0.6622 -1.2328
 6704SOL    HW231572   4.642   3.011   5.151 -0.0442 -0.7093 -0.0525
 6705SOL     OW31573   4.380   2.440  13.848 -0.0104 -0.8755 -0.0604
 6705SOL    HW131574   4.293   2.474  13.826  0.2247 -0.4328 -0.3068
 6705SOL    HW231575   4.426   2.518  13.881  1.4313 -1.2728 -1.1302
 6706SOL     OW31576   1.554   4.147   6.368 -0.1462  0.6353 -0.1289
 6706SOL    HW131577   1.490   4.076   6.369 -1.5628  1.8661 -1.8107
 6706SOL    HW231578   1.615   4.121   6.437 -0.1128 -2.3189 -1.2648
 6707SOL     OW31579   0.100   2.246   4.992 -0.0067  0.4217 -0.1444
 6707SOL    HW131580   0.131   2.282   4.909  0.4193 -0.0585 -0.1945
 6707SOL    HW231581   0.101   2.151   4.979 -1.2733  0.6784 -2.0994
 6708SOL     OW31582   1.785   4.345   1.288  0.1917  0.2059 -0.4465
 6708SOL    HW131583   1.859   4.317   1.234  1.2783  3.5758 -0.6933
 6708SOL    HW231584   1.816   4.303   1.368 -0.3824  2.4404  0.9557
 6709SOL     OW31585   3.435   4.606  14.435 -0.1167 -0.6042 -0.3207
 6709SOL    HW131586   3.484   4.565  14.507 -1.5298 -1.2606  0.2617
 6709SOL    HW231587   3.374   4.663  14.482 -0.4746  0.3547 -1.9317
 6710SOL     OW31588   1.500   2.300   8.890  0.1864 -0.0193  0.1903
 6710SOL    HW131589   1.527   2.344   8.971 -0.2519  0.6510 -0.0294
 6710SOL    HW231590   1.547   2.351   8.824 -0.4264  0.6435  0.2601
 6711SOL     OW31591   0.340   4.140   8.157 -0.2840 -0.5768 -0.9819
 6711SOL    HW131592   0.330   4.141   8.252  0.7337  1.0379 -0.8886
 6711SOL    HW231593   0.251   4.124   8.125 -0.2998 -2.0462 -0.2068
 6712SOL     OW31594   2.286   1.300   3.982 -0.0246 -0.2708 -0.1696
 6712SOL    HW131595   2.248   1.281   3.896  1.7887 -2.7271 -0.4217
 6712SOL    HW231596   2.212   1.326   4.036  0.3057 -3.3443  1.7750
 6713SOL     OW31597   1.387   2.758  12.987  0.5675 -0.8687  0.0025
 6713SOL    HW131598   1.327   2.764  13.062  0.9179 -0.9461  0.2915
 6713SOL    HW231599   1.342   2.800  12.915 -0.3966 -3.5991 -0.9876
 6714SOL     OW31600   1.853   0.631   9.149 -0.1608 -0.1382 -0.5269
 6714SOL    HW131601   1.769   0.610   9.109 -0.7191 -1.5416  1.3566
 6714SOL    HW231602   1.834   0.686   9.225  0.7136 -1.8263  0.9201
 6715SOL     OW31603   1.979   4.385   8.887  0.2959  0.1231 -0.1791
 6715SOL    HW131604   1.967   4.463   8.942  1.2478  0.6680 -0.7441
 6715SOL    HW231605   1.889   4.362   8.864  0.8534 -2.4072  0.1944
 6716SOL     OW31606   3.849   2.433   2.618  0.2184  0.2847  0.7114
 6716SOL    HW131607   3.902   2.502   2.660 -0.7003  1.5851 -0.2480
 6716SOL    HW231608   3.826   2.481   2.539 -1.7094  1.8212  2.2071
 6717SOL     OW31609   3.313   2.810   2.902  0.2847  0.3198 -0.0483
 6717SOL    HW131610   3.385   2.795   2.963 -0.4226 -1.4493  0.3757
 6717SOL    HW231611   3.332   2.901   2.881 -0.8299  1.0837  2.2600
 6718SOL     OW31612   0.534   0.185  13.821  0.2141  0.6091 -0.3789
 6718SOL    HW131613   0.628   0.176  13.805  0.4618  4.6014 -1.1714
 6718SOL    HW231614   0.516   0.138  13.902  1.3397  2.9152  1.1896
 6719SOL     OW31615   1.953   0.451   0.780 -0.5037 -0.8788 -0.0867
 6719SOL    HW131616   2.040   0.492   0.783 -2.0385  2.2273  0.7430
 6719SOL    HW231617   1.966   0.388   0.851 -0.0258  0.8014  1.2934
 6720SOL     OW31618   1.959   2.883   7.902  0.6343 -0.0925 -0.3371
 6720SOL    HW131619   2.013   2.844   7.834 -1.3357 -0.1455 -1.8977
 6720SOL    HW231620   2.025   2.906   7.966  1.0627 -1.5544 -0.2706
 6721SOL     OW31621   4.403   0.080   7.339 -0.5189 -0.3496  0.4116
 6721SOL    HW131622   4.454   0.041   7.411 -0.3765 -0.2846  0.3446
 6721SOL    HW231623   4.318   0.036   7.352 -1.5069  1.4028 -0.2068
 6722SOL     OW31624   0.977   0.065   1.800 -0.2368 -0.6626  0.1789
 6722SOL    HW131625   0.897   0.013   1.807  0.1367 -1.4509 -1.3767
 6722SOL    HW231626   0.970   0.102   1.888  1.8178 -1.0553  0.5072
 6723SOL     OW31627   0.092   3.843   9.124  0.4385 -0.7005 -0.0795
 6723SOL    HW131628   0.083   3.751   9.098 -1.0338 -0.6950  0.4128
 6723SOL    HW231629   0.186   3.852   9.135  0.7679 -0.4336 -2.9280
 6724SOL     OW31630   3.063   3.527   3.865 -0.0381 -0.1513 -0.0983
 6724SOL    HW131631   3.100   3.531   3.953 -3.5598  0.2444  1.3342
 6724SOL    HW231632   2.985   3.474   3.878 -0.6922  1.0190  0.7938
 6725SOL     OW31633   0.442   1.583   5.083  0.1246  0.4019  0.1014
 6725SOL    HW131634   0.465   1.674   5.105 -1.3889  0.5663  1.0019
 6725SOL    HW231635   0.375   1.566   5.149 -1.5937 -1.5074 -2.1397
 6726SOL     OW31636   1.015   3.780   5.320  0.0060 -0.1146 -0.3867
 6726SOL    HW131637   1.073   3.704   5.311 -0.3455 -0.5161  0.7735
 6726SOL    HW231638   1.073   3.840   5.368 -0.7946  0.2651  0.0947
 6727SOL     OW31639   4.515   2.861  12.758 -0.1834 -0.2300  0.1930
 6727SOL    HW131640   4.427   2.892  12.777  0.0978  0.2629  0.6814
 6727SOL    HW231641   4.556   2.861  12.845  0.7145 -0.0937 -0.2208
 6728SOL     OW31642   3.715   0.219  13.997 -0.4393  0.1370  0.4643
 6728SOL    HW131643   3.700   0.313  14.001  0.0854  0.2606 -0.4573
 6728SOL    HW231644   3.774   0.209  14.072  0.6946 -2.2531 -0.7385
 6729SOL     OW31645   1.262   0.673   6.027 -0.3491  0.4006 -0.1327
 6729SOL    HW131646   1.190   0.616   6.001 -1.3371  1.3174  0.5797
 6729SOL    HW231647   1.338   0.634   5.984 -0.4153  0.6482 -0.4831
 6730SOL     OW31648   4.361   1.866  11.644 -0.2034 -0.4031  0.0726
 6730SOL    HW131649   4.384   1.868  11.737 -0.2599  2.2907  0.0140
 6730SOL    HW231650   4.429   1.921  11.607 -0.3497  0.0950  0.5421
 6731SOL     OW31651   0.680   1.464   1.929  0.2211  0.3427 -0.4781
 6731SOL    HW131652   0.741   1.479   1.857 -1.7601 -2.0812 -2.6637
 6731SOL    HW231653   0.739   1.491   2.000 -0.0319  0.1823 -0.2034
 6732SOL     OW31654   1.672   0.419  17.592 -1.2175 -0.2321 -0.1779
 6732SOL    HW131655   1.667   0.408  17.497  0.6327  0.6861 -0.3902
 6732SOL    HW231656   1.656   0.326  17.608 -1.5505 -0.3953 -1.5027
 6733SOL     OW31657   2.108   2.459  11.083  0.1861 -0.3906 -0.3988
 6733SOL    HW131658   2.181   2.512  11.051  0.0325 -0.2501 -0.5148
 6733SOL    HW231659   2.147   2.420  11.161  1.1274  1.3649 -0.0054
 6734SOL     OW31660   4.521   4.097   5.131 -0.0525 -0.5887 -0.0227
 6734SOL    HW131661   4.534   4.077   5.223  2.6633  1.4377  0.0287
 6734SOL    HW231662   4.596   4.050   5.094 -1.3760 -1.4511 -1.5971
 6735SOL     OW31663   0.197   1.758  14.245  0.1633 -0.7491 -0.5050
 6735SOL    HW131664   0.156   1.686  14.197  0.2559  0.1130 -1.8751
 6735SOL    HW231665   0.125   1.820  14.247  1.0293  0.1948  0.7435
 6736SOL     OW31666   3.977   3.461  14.732  0.2037 -0.2545 -0.2215
 6736SOL    HW131667   3.929   3.391  14.687  1.0591 -1.4373  0.6988
 6736SOL    HW231668   3.912   3.531  14.726  0.7000  0.1750 -0.5990
 6737SOL     OW31669   2.589   3.834   9.750  0.0079  0.2459 -0.3000
 6737SOL    HW131670   2.675   3.793   9.742  0.6178  1.0948  1.7028
 6737SOL    HW231671   2.538   3.768   9.703 -2.2251  1.0751  0.9847
 6738SOL     OW31672   4.572   1.616   4.092  0.2964  0.0662  0.0868
 6738SOL    HW131673   4.493   1.669   4.107 -0.0080  0.2963 -2.3594
 6738SOL    HW231674   4.546   1.571   4.011  1.4067 -0.4424  0.0231
 6739SOL     OW31675   2.139   4.491  10.031 -0.2514 -0.4212  0.6148
 6739SOL    HW131676   2.139   4.463   9.939  0.2072 -1.1195  0.8279
 6739SOL    HW231677   2.055   4.452  10.052 -0.8051  0.5735  0.2403
 6740SOL     OW31678   3.639   0.894   7.578 -0.2987 -0.5973 -0.1833
 6740SOL    HW131679   3.586   0.854   7.647  0.5193  1.0909  1.4351
 6740SOL    HW231680   3.663   0.818   7.524  1.1446 -0.8437  0.7892
 6741SOL     OW31681   3.508   2.323  15.359  0.2981  0.2138 -0.2265
 6741SOL    HW131682   3.542   2.350  15.274  0.9033 -2.8251 -0.9425
 6741SOL    HW231683   3.564   2.248  15.377 -2.7773 -2.2753 -0.9950
 6742SOL     OW31684   3.609   1.143   8.241  0.0120 -0.2988  0.3986
 6742SOL    HW131685   3.518   1.131   8.267 -0.8831  3.2284 -1.1297
 6742SOL    HW231686   3.594   1.174   8.152 -0.9335 -1.5683  0.1061
 6743SOL     OW31687   1.143   0.049   4.407 -0.1263 -0.2404  0.4006
 6743SOL    HW131688   1.079   4.722   4.360 -0.8759  0.7971  0.2733
 6743SOL    HW231689   1.102   0.119   4.457 -0.5824 -0.3549  0.1830
 6744SOL     OW31690   3.178   1.907   7.264  0.0467  0.9116  0.4202
 6744SOL    HW131691   3.103   1.963   7.281 -0.7299 -0.5236  1.7330
 6744SOL    HW231692   3.254   1.957   7.297  2.1055 -0.9926 -1.4066
 6745SOL     OW31693   0.737   2.736  10.702  0.2438  0.6383 -0.2693
 6745SOL    HW131694   0.698   2.677  10.638 -1.1080  3.3348 -1.9142
 6745SOL    HW231695   0.736   2.676  10.777  0.0401  1.5826  0.4774
 6746SOL     OW31696   3.694   2.589  15.274  0.2695  0.2547  0.0303
 6746SOL    HW131697   3.691   2.496  15.250  0.9468  0.4571 -0.8552
 6746SOL    HW231698   3.771   2.611  15.220 -0.3036 -1.1031 -1.3575
 6747SOL     OW31699   2.728   3.118   8.333  0.1462  0.2284 -0.4005
 6747SOL    HW131700   2.820   3.108   8.311 -0.2655 -3.7382 -0.2923
 6747SOL    HW231701   2.728   3.118   8.429 -0.4107  1.5404 -0.3937
 6748SOL     OW31702   2.291   0.728   4.984 -0.7602  0.3542  0.0251
 6748SOL    HW131703   2.369   0.741   4.931 -2.5352 -0.1975 -2.7445
 6748SOL    HW231704   2.323   0.774   5.061  2.2166  0.6310 -1.3663
 6749SOL     OW31705   1.827   4.005  11.103  0.0282  0.0495 -1.0547
 6749SOL    HW131706   1.858   4.014  11.193  1.1063 -1.6144 -1.2675
 6749SOL    HW231707   1.814   3.911  11.095 -0.9885  0.1545 -0.7359
 6750SOL     OW31708   4.687   4.323   0.273 -0.1364  0.7353  0.5134
 6750SOL    HW131709   4.598   4.311   0.305 -0.3699 -2.9840 -1.4669
 6750SOL    HW231710   0.006   4.343   0.356  1.1250 -2.5671  0.6350
 6751SOL     OW31711   3.729   3.388   7.799  0.0390  0.3084  0.1517
 6751SOL    HW131712   3.790   3.327   7.757 -2.6031 -1.9194 -0.4768
 6751SOL    HW231713   3.686   3.435   7.728  0.5307  0.7572  0.1498
 6752SOL     OW31714   3.571   0.668   4.620 -0.2852  0.0916 -0.2644
 6752SOL    HW131715   3.500   0.731   4.607 -0.9522 -1.0534 -2.1997
 6752SOL    HW231716   3.555   0.660   4.714 -2.7233 -1.6205 -0.8336
 6753SOL     OW31717   3.386   2.076   4.762  0.3236  0.1393  0.0457
 6753SOL    HW131718   3.359   1.993   4.724 -1.4073  1.0122 -0.6673
 6753SOL    HW231719   3.443   2.112   4.694 -0.4664  1.5973  0.1359
 6754SOL     OW31720   3.455   2.143  15.632 -0.2842  0.5240  0.7092
 6754SOL    HW131721   3.532   2.197  15.650 -0.0751 -0.3846  2.5312
 6754SOL    HW231722   3.486   2.100  15.552  2.1696  4.1304 -0.2717
 6755SOL     OW31723   1.638   4.472   3.140 -0.0216  0.3860 -0.0238
 6755SOL    HW131724   1.667   4.544   3.197 -2.0453  0.9411  0.3301
 6755SOL    HW231725   1.694   4.400   3.167 -0.8331 -0.4117 -0.4679
 6756SOL     OW31726   3.978   1.105   5.042 -0.1870  0.1444  0.3191
 6756SOL    HW131727   4.012   1.030   4.993  1.0516  0.1634  1.1447
 6756SOL    HW231728   3.886   1.085   5.064  0.2387 -1.0773  1.0324
 6757SOL     OW31729   4.623   4.361  14.463  0.0501  0.0269  0.1410
 6757SOL    HW131730   4.647   4.302  14.534  0.9507  1.6610  1.2007
 6757SOL    HW231731   4.708   4.384  14.425 -0.9306  3.6208  0.0420
 6758SOL     OW31732   3.479   0.327   5.473  0.1022 -0.3918 -0.3967
 6758SOL    HW131733   3.507   0.263   5.408  3.2762 -0.5580  1.1215
 6758SOL    HW231734   3.527   0.409   5.463 -2.0035  0.8791  0.0376
 6759SOL     OW31735   1.847   4.402   5.509 -0.4429  0.4852  0.7207
 6759SOL    HW131736   1.785   4.472   5.490 -0.8858  0.5130  2.2421
 6759SOL    HW231737   1.929   4.449   5.517  0.2113 -0.4342 -0.7665
 6760SOL     OW31738   4.572   1.579   4.646  0.0141  0.3968 -0.2028
 6760SOL    HW131739   4.631   1.527   4.699 -1.5517  0.1334  1.2752
 6760SOL    HW231740   4.581   1.663   4.691  0.3626  0.0830  0.3031
 6761SOL     OW31741   1.576   3.924   7.389 -0.2553  0.0826  0.6110
 6761SOL    HW131742   1.482   3.923   7.411 -0.2086  1.2852  0.8897
 6761SOL    HW231743   1.619   3.901   7.471 -0.1069  0.8438  0.7413
 6762SOL     OW31744   2.263   0.759   6.229  0.3963  0.6639 -0.0757
 6762SOL    HW131745   2.354   0.756   6.257  0.5842  2.0775 -0.5595
 6762SOL    HW231746   2.283   0.698   6.158  1.6240  1.4561 -0.4159
 6763SOL     OW31747   4.087   3.458   1.284 -0.5346 -0.2873  0.5227
 6763SOL    HW131748   4.151   3.411   1.230 -2.0320 -1.1942 -0.4443
 6763SOL    HW231749   4.007   3.453   1.231 -0.6150  0.1054  0.6036
 6764SOL     OW31750   4.553   4.693  11.278 -0.2652 -0.0336 -0.0918
 6764SOL    HW131751   4.542   4.629  11.207  1.8794 -1.4404  0.8605
 6764SOL    HW231752   4.637   0.000  11.247 -0.8223 -1.1205 -2.7363
 6765SOL     OW31753   1.823   3.687   6.546 -0.0825  0.0277  0.4214
 6765SOL    HW131754   1.809   3.719   6.635  0.0531  3.0219 -0.6597
 6765SOL    HW231755   1.736   3.695   6.508  0.9513 -2.4624 -2.5376
 6766SOL     OW31756   0.348   4.625   3.551  0.1959 -0.0255 -0.0778
 6766SOL    HW131757   0.339   4.545   3.499 -0.8268  0.5365 -0.7580
 6766SOL    HW231758   0.335   4.586   3.638 -0.0913 -1.1550 -0.6222
 6767SOL     OW31759   2.466   1.609   2.567  0.5869  0.3577 -0.3753
 6767SOL    HW131760   2.438   1.662   2.642 -0.3871 -0.8078  0.0884
 6767SOL    HW231761   2.390   1.628   2.512  0.5202  1.2314  0.0092
 6768SOL     OW31762   3.815   1.160  16.831  0.9128 -0.8143  0.0723
 6768SOL    HW131763   3.862   1.149  16.748  0.6166  1.5342 -0.3880
 6768SOL    HW231764   3.824   1.252  16.856 -0.0883 -0.6738 -0.0685
 6769SOL     OW31765   4.640   2.152   3.180  0.7098  0.0603 -0.5752
 6769SOL    HW131766   4.690   2.126   3.103 -0.0229 -0.0744 -1.0122
 6769SOL    HW231767   4.595   2.232   3.152 -0.9998 -0.2488  1.2558
 6770SOL     OW31768   2.164   1.011   3.653 -0.0574 -0.0606 -0.1231
 6770SOL    HW131769   2.256   1.033   3.664 -0.2495  0.4084  0.5986
 6770SOL    HW231770   2.145   0.978   3.741  1.3003 -1.6957 -0.4532
 6771SOL     OW31771   1.772   0.805   0.123 -0.6487 -0.0382 -0.1073
 6771SOL    HW131772   1.753   0.732   0.182  0.8454 -0.2279  0.1421
 6771SOL    HW231773   1.685   0.823   0.087 -0.8098 -1.0451 -0.2150
 6772SOL     OW31774   1.117   2.620  15.581 -0.1942  0.3790 -0.0232
 6772SOL    HW131775   1.111   2.712  15.606 -0.7404  0.9130 -2.0998
 6772SOL    HW231776   1.089   2.584  15.665 -2.3427  1.8878 -0.1048
 6773SOL     OW31777   0.695   4.530  13.934 -1.1211 -0.2099 -0.2958
 6773SOL    HW131778   0.611   4.562  13.967 -0.6389  0.2432  0.4810
 6773SOL    HW231779   0.740   4.613  13.918 -0.5848 -0.5833 -0.7159
 6774SOL     OW31780   1.827   4.718  15.202  0.4961  0.4639 -0.1010
 6774SOL    HW131781   1.886   0.067  15.208  0.4893  0.6382 -2.0675
 6774SOL    HW231782   1.784   0.009  15.118 -1.0820  1.2063  0.8781
 6775SOL     OW31783   0.924   1.982  15.987 -0.0780 -0.2839 -0.5842
 6775SOL    HW131784   0.964   2.057  16.030 -1.1042 -0.2568  0.3128
 6775SOL    HW231785   0.883   2.023  15.910 -0.3750  0.5139 -0.0021
 6776SOL     OW31786   0.739   0.567   8.029  0.8500 -0.4489 -0.0030
 6776SOL    HW131787   0.744   0.613   7.945  1.2253  0.1036  0.3236
 6776SOL    HW231788   0.654   0.594   8.064  0.9231  0.4338 -0.5179
 6777SOL     OW31789   0.120   4.220   2.184  0.0897  0.4071  0.3840
 6777SOL    HW131790   0.189   4.284   2.166 -1.2022  1.5532 -0.5086
 6777SOL    HW231791   0.115   4.162   2.108  0.5659  3.3032 -1.8509
 6778SOL     OW31792   1.490   1.047   3.982 -0.1195 -0.2536 -0.5635
 6778SOL    HW131793   1.579   1.037   4.015 -0.5713 -3.7793 -0.4139
 6778SOL    HW231794   1.440   0.998   4.048  2.1569 -0.6174  0.8893
 6779SOL     OW31795   0.639   0.153  11.196  0.2158 -0.0203 -0.0481
 6779SOL    HW131796   0.599   0.235  11.227 -1.0587  0.1826 -2.2414
 6779SOL    HW231797   0.623   0.172  11.104 -1.8583  2.1595  0.7659
 6780SOL     OW31798   2.386   3.130   9.617 -0.7048 -0.3591  0.1598
 6780SOL    HW131799   2.408   3.038   9.605  1.5519  0.0314  1.2042
 6780SOL    HW231800   2.405   3.129   9.711  2.1823 -2.9902 -0.4345
 6781SOL     OW31801   3.843   3.728   4.195  0.3956  0.4279  0.4718
 6781SOL    HW131802   3.864   3.640   4.225 -1.9784 -0.4126 -0.2981
 6781SOL    HW231803   3.793   3.699   4.118  1.0214  0.2465  0.1350
 6782SOL     OW31804   2.150   1.060   6.894  0.3973  1.1624  0.2497
 6782SOL    HW131805   2.078   1.001   6.872  2.7356 -2.0892  1.1836
 6782SOL    HW231806   2.176   1.083   6.805 -0.3854 -1.8346 -0.7522
 6783SOL     OW31807   0.029   0.469  11.933  0.6976 -0.2304  0.3152
 6783SOL    HW131808   0.124   0.455  11.929  0.2660 -2.5950 -1.5517
 6783SOL    HW231809   0.017   0.556  11.971 -2.3831 -0.4154 -0.2317
 6784SOL     OW31810   0.557   3.684   3.389  0.4093  0.9190 -0.1618
 6784SOL    HW131811   0.617   3.731   3.446  2.1594 -0.1826 -1.1174
 6784SOL    HW231812   0.508   3.630   3.452  1.7892 -0.1594 -0.0124
 6785SOL     OW31813   2.234   2.222   1.896  0.1560  0.1555  1.0784
 6785SOL    HW131814   2.255   2.304   1.852  0.8661 -0.7206 -0.1889
 6785SOL    HW231815   2.138   2.229   1.900 -0.1656 -2.3534 -2.5003
 6786SOL     OW31816   3.571   4.688  10.143 -0.1049 -0.4726  0.4228
 6786SOL    HW131817   3.566   4.593  10.136  0.7801 -0.5448  0.8142
 6786SOL    HW231818   3.585   4.700  10.237  0.6474  1.0308  0.1179
 6787SOL     OW31819   4.191   1.532   8.728 -0.4029 -0.3792 -0.0074
 6787SOL    HW131820   4.188   1.579   8.645  0.7009 -0.9273 -0.3673
 6787SOL    HW231821   4.149   1.447   8.711  1.5415 -1.0943 -1.3213
 6788SOL     OW31822   3.820   3.074   8.388  0.2673 -0.0136  1.2682
 6788SOL    HW131823   3.848   3.099   8.476 -0.1598 -0.0290  1.4104
 6788SOL    HW231824   3.727   3.062   8.408 -0.2602 -0.9611 -1.7592
 6789SOL     OW31825   3.615   3.574   4.825 -0.4659  0.0520 -0.0766
 6789SOL    HW131826   3.632   3.559   4.732 -1.3729  0.0936 -0.2430
 6789SOL    HW231827   3.636   3.667   4.837  0.8166 -0.3551  0.8161
 6790SOL     OW31828   3.556   4.413   1.419  0.3821  0.7060  0.1468
 6790SOL    HW131829   3.524   4.463   1.494 -0.9296 -0.0305  0.0629
 6790SOL    HW231830   3.479   4.431   1.366  0.6841  2.0182  0.1422
 6791SOL     OW31831   2.989   3.391   1.942 -0.0392 -0.8964 -0.4119
 6791SOL    HW131832   3.022   3.324   2.003  2.1473 -0.3492 -0.9865
 6791SOL    HW231833   3.075   3.417   1.910  0.0066 -0.3229  0.1604
 6792SOL     OW31834   2.505   0.280   4.368  0.5293  0.1104  0.2537
 6792SOL    HW131835   2.468   0.291   4.455 -1.6868 -1.1456 -0.5318
 6792SOL    HW231836   2.485   0.367   4.333  0.6112  0.7846  1.8901
 6793SOL     OW31837   3.448   0.261   9.205 -0.4810 -0.3418 -0.1001
 6793SOL    HW131838   3.432   0.337   9.149  0.2713 -0.2001 -0.1215
 6793SOL    HW231839   3.384   0.289   9.271  0.6467  2.7965 -0.3230
 6794SOL     OW31840   4.203   3.824   5.041 -0.0540 -0.5702  0.0475
 6794SOL    HW131841   4.267   3.753   5.037 -1.2594 -1.4315 -4.1978
 6794SOL    HW231842   4.122   3.780   5.014  0.8749 -1.6243 -1.0488
 6795SOL     OW31843   4.073   3.557   0.928 -0.3830  0.9252  0.0052
 6795SOL    HW131844   4.007   3.620   0.898 -0.0380  0.9779 -0.6312
 6795SOL    HW231845   4.023   3.520   1.001  0.0462  0.8734  0.2741
 6796SOL     OW31846   2.726   0.086   5.614 -0.3450 -0.1145  0.2623
 6796SOL    HW131847   2.656   0.020   5.610  0.8249 -1.3776  0.5556
 6796SOL    HW231848   2.722   0.121   5.525  0.1525 -0.3494  0.1465
 6797SOL     OW31849   3.456   2.308   1.578 -0.5642 -0.0627  0.7316
 6797SOL    HW131850   3.475   2.401   1.567  1.9219 -0.5050  1.2550
 6797SOL    HW231851   3.442   2.298   1.672 -0.1272  0.7904  0.8925
 6798SOL     OW31852   0.412   2.361   3.528  0.2426  0.0266  0.0046
 6798SOL    HW131853   0.467   2.292   3.566  0.6015  2.1208  3.3140
 6798SOL    HW231854   0.412   2.327   3.439 -0.8052  1.0093 -0.3679
 6799SOL     OW31855   4.022   2.796   4.049 -0.4130 -0.2363  0.2193
 6799SOL    HW131856   3.995   2.804   4.140  1.0112  2.2936  0.4313
 6799SOL    HW231857   4.023   2.702   4.033  0.5714  0.3372 -3.1461
 6800SOL     OW31858   0.747   0.985   6.597  0.6713  0.1835  0.4028
 6800SOL    HW131859   0.804   0.913   6.570  1.1964  1.4940 -1.9503
 6800SOL    HW231860   0.788   1.063   6.560 -0.3887  2.0891  3.1958
 6801SOL     OW31861   0.909   2.784  14.395  0.3053 -0.3781 -0.6202
 6801SOL    HW131862   0.927   2.724  14.323 -0.6475 -0.8018 -0.5085
 6801SOL    HW231863   0.971   2.748  14.459  0.1206 -1.1145 -0.8543
 6802SOL     OW31864   1.140   1.083   3.541  0.1362  0.0992 -0.4616
 6802SOL    HW131865   1.163   0.999   3.502 -2.2157 -1.4577  1.5068
 6802SOL    HW231866   1.100   1.053   3.622 -0.3329  1.6361 -0.1219
 6803SOL     OW31867   1.116   2.698   5.745 -0.3865 -0.0032 -0.0981
 6803SOL    HW131868   1.046   2.754   5.713 -0.4921 -0.8287 -1.3285
 6803SOL    HW231869   1.083   2.616   5.708  0.7339  0.1786 -1.5046
 6804SOL     OW31870   2.694   4.438   2.998 -0.3333 -0.2307 -0.0527
 6804SOL    HW131871   2.598   4.431   3.000 -0.4522  1.7514  0.9915
 6804SOL    HW231872   2.712   4.480   3.082 -1.2003 -0.5364  0.2920
 6805SOL     OW31873   3.358   1.154   5.260 -0.1178 -0.2030  0.1069
 6805SOL    HW131874   3.385   1.236   5.217 -0.3891 -1.4553 -2.4900
 6805SOL    HW231875   3.344   1.098   5.183 -1.8622  0.4676 -0.0569
 6806SOL     OW31876   3.070   2.369   5.816  0.1739 -0.7979 -0.0486
 6806SOL    HW131877   3.078   2.284   5.860 -1.9003 -1.8619 -1.6844
 6806SOL    HW231878   2.974   2.371   5.817  0.1991  0.0998  0.4150
 6807SOL     OW31879   2.845   1.395   0.600  0.2052 -0.1150  0.6819
 6807SOL    HW131880   2.761   1.425   0.637  0.7155 -0.0507  1.8154
 6807SOL    HW231881   2.904   1.450   0.652  2.4249 -3.1142  1.3160
 6808SOL     OW31882   2.886   4.360  11.567 -0.0780 -0.0493  0.1336
 6808SOL    HW131883   2.835   4.427  11.521 -1.7119 -2.6080 -1.7964
 6808SOL    HW231884   2.953   4.415  11.606  0.4631  1.0451 -2.3144
 6809SOL     OW31885   4.202   1.750   3.874  0.9102 -0.4043 -0.4085
 6809SOL    HW131886   4.165   1.708   3.797  2.4195  1.1362 -1.9512
 6809SOL    HW231887   4.192   1.842   3.849  0.3941 -0.4815 -0.4952
 6810SOL     OW31888   4.120   1.043   1.426 -0.3998  0.4954 -0.4812
 6810SOL    HW131889   4.093   0.985   1.355 -0.0649  1.6035 -1.5180
 6810SOL    HW231890   4.110   0.982   1.499 -2.1325  0.1431 -1.0196
 6811SOL     OW31891   0.208   4.508   2.178 -0.2277 -0.1849 -0.3113
 6811SOL    HW131892   0.231   4.549   2.094  0.9102  1.4234  0.7918
 6811SOL    HW231893   0.114   4.513   2.158 -0.2073  0.7093 -0.1735
 6812SOL     OW31894   2.268   2.611   5.547 -0.8052 -0.3320 -0.2105
 6812SOL    HW131895   2.257   2.562   5.628 -0.2204 -0.5962 -0.2915
 6812SOL    HW231896   2.274   2.540   5.484  0.0959  0.9874 -1.6073
 6813SOL     OW31897   2.990   2.363   1.891  0.2692  0.1448  0.0315
 6813SOL    HW131898   3.016   2.355   1.799 -1.5173 -0.1105 -0.4511
 6813SOL    HW231899   3.031   2.291   1.938  2.3747  1.6665  0.5264
 6814SOL     OW31900   3.088   2.677   8.828 -0.4536  0.2516  0.4056
 6814SOL    HW131901   3.021   2.661   8.761  0.6350  0.2274 -0.6579
 6814SOL    HW231902   3.149   2.725   8.773 -0.7253 -1.0514 -1.0140
 6815SOL     OW31903   3.582   0.180  10.934  0.1290 -0.2473  0.3523
 6815SOL    HW131904   3.674   0.156  10.943  0.5652  1.3803  0.3229
 6815SOL    HW231905   3.590   0.273  10.912 -0.8796 -0.4777 -0.9936
 6816SOL     OW31906   1.522   0.777   9.884  0.0042  0.0178 -0.0908
 6816SOL    HW131907   1.457   0.775   9.814 -1.7628 -0.9350  1.5440
 6816SOL    HW231908   1.590   0.831   9.844  0.3639 -1.2635 -1.2182
 6817SOL     OW31909   1.181   3.412   6.544  0.3479 -0.5388 -0.0498
 6817SOL    HW131910   1.106   3.356   6.522  0.4229 -1.5601  2.2672
 6817SOL    HW231911   1.138   3.476   6.601 -0.3771 -1.6288  0.6246
 6818SOL     OW31912   1.571   2.517  10.788 -0.7157 -0.1125 -0.0015
 6818SOL    HW131913   1.504   2.534  10.722 -0.2234 -1.9430 -0.9784
 6818SOL    HW231914   1.624   2.597  10.783 -2.8220  1.2420 -0.4646
 6819SOL     OW31915   4.570   2.319  15.071  0.4168 -0.5249 -0.1292
 6819SOL    HW131916   4.577   2.397  15.127  1.1535  1.5544 -3.1066
 6819SOL    HW231917   4.666   2.313  15.066  0.0910 -2.7584 -3.2618
 6820SOL     OW31918   4.317   2.714   3.026  0.1900  0.3197  0.1773
 6820SOL    HW131919   4.294   2.623   3.004 -1.8040  0.7286  0.5580
 6820SOL    HW231920   4.259   2.752   2.960  0.6233 -0.3929 -0.6135
 6821SOL     OW31921   4.123   4.394  17.434 -0.4138 -0.1375  0.5697
 6821SOL    HW131922   4.213   4.366  17.419 -0.2251  1.1351 -0.7212
 6821SOL    HW231923   4.144   4.484  17.459 -2.0576  0.2947  0.3775
 6822SOL     OW31924   3.220   1.714   5.522 -0.8689 -0.4960  0.7406
 6822SOL    HW131925   3.244   1.800   5.557  0.4584 -1.1343  1.3765
 6822SOL    HW231926   3.269   1.711   5.440 -1.1054  3.0704  0.4826
 6823SOL     OW31927   2.625   0.519  10.200  0.8998  0.1863 -0.0362
 6823SOL    HW131928   2.650   0.488  10.113 -0.1124 -0.5638 -0.0509
 6823SOL    HW231929   2.635   0.437  10.248 -0.6216  0.1498  0.2314
 6824SOL     OW31930   0.296   0.141  12.124 -0.2729 -0.0761  0.0708
 6824SOL    HW131931   0.207   0.115  12.146 -0.5734  2.5176  2.0168
 6824SOL    HW231932   0.308   0.126  12.031 -0.4116  0.0168  0.0383
 6825SOL     OW31933   2.804   2.395   2.860  0.7203 -0.0457 -1.2276
 6825SOL    HW131934   2.845   2.372   2.776  2.2592 -2.6868  0.2596
 6825SOL    HW231935   2.867   2.351   2.917 -0.9180  2.1687  2.2824
 6826SOL     OW31936   2.785   3.293   6.468  0.5710  0.2208  0.3953
 6826SOL    HW131937   2.721   3.302   6.398 -0.0615  0.0217  0.9530
 6826SOL    HW231938   2.854   3.359   6.455  0.2884  0.6398  0.9683
 6827SOL     OW31939   1.043   0.193  11.053 -0.5925  0.5139  0.4198
 6827SOL    HW131940   0.988   0.152  11.120  1.3110 -0.5336  1.3524
 6827SOL    HW231941   0.991   0.273  11.040  0.5472  1.1450 -0.2882
 6828SOL     OW31942   3.916   3.103  16.332 -0.0993  0.3199  0.5534
 6828SOL    HW131943   3.874   3.152  16.402  0.0372  0.5189  0.4959
 6828SOL    HW231944   3.847   3.042  16.305  0.8353  0.1694 -1.5533
 6829SOL     OW31945   2.685   4.448   7.189 -0.4273  0.3610  0.2094
 6829SOL    HW131946   2.693   4.539   7.216  0.8148  0.5162 -0.6882
 6829SOL    HW231947   2.729   4.453   7.104  1.8232 -3.6274  1.1571
 6830SOL     OW31948   1.873   0.440   1.548  0.3561 -0.3558  0.4911
 6830SOL    HW131949   1.876   0.400   1.635 -3.6929 -1.8487 -0.0916
 6830SOL    HW231950   1.925   0.520   1.557 -1.9670  1.2080 -0.1887
 6831SOL     OW31951   3.229   0.944   8.641 -0.4357  0.0251  0.2100
 6831SOL    HW131952   3.208   0.887   8.567 -0.7158 -0.7545  0.9024
 6831SOL    HW231953   3.143   0.983   8.657 -0.9172 -1.1715  0.4771
 6832SOL     OW31954   4.628   2.523  15.272 -0.4197  0.3552  0.0556
 6832SOL    HW131955   4.650   2.572  15.193 -1.2427  0.7328  0.0618
 6832SOL    HW231956   4.717   2.490  15.284 -0.4850  0.0163 -0.4118
 6833SOL     OW31957   0.544   1.412  15.543 -0.1430  0.2835 -0.5117
 6833SOL    HW131958   0.623   1.456  15.576 -0.8690  0.2695  1.2413
 6833SOL    HW231959   0.554   1.431  15.449  1.4341 -0.9490 -0.5997
 6834SOL     OW31960   1.647   0.037   6.481  0.2547  0.1275  0.5009
 6834SOL    HW131961   1.632   4.703   6.408  0.4626  0.4904  0.1572
 6834SOL    HW231962   1.570   0.007   6.529 -1.7892  2.4061 -1.3297
 6835SOL     OW31963   2.930   0.999   4.670 -0.0238 -0.2395  0.2846
 6835SOL    HW131964   2.907   1.001   4.762 -0.9599 -2.0152  0.0913
 6835SOL    HW231965   2.913   0.906   4.653 -0.6213 -0.2789  1.1393
 6836SOL     OW31966   1.038   0.413  12.460 -0.7585  0.0060 -0.1197
 6836SOL    HW131967   1.029   0.318  12.464 -2.1216  0.1232 -0.5432
 6836SOL    HW231968   1.008   0.439  12.547 -0.4359 -0.4331  0.1248
 6837SOL     OW31969   2.670   0.254   7.359  0.1587 -0.2431 -0.1920
 6837SOL    HW131970   2.754   0.300   7.351 -0.5112  0.8069 -1.2711
 6837SOL    HW231971   2.606   0.314   7.321  0.9206  0.5826 -0.1720
 6838SOL     OW31972   1.202   3.844   5.593 -0.0802  0.1406 -0.2839
 6838SOL    HW131973   1.144   3.773   5.619 -1.3834  1.3194  0.0548
 6838SOL    HW231974   1.289   3.805   5.596 -0.4909 -0.8267 -0.9246
 6839SOL     OW31975   3.756   1.042   3.659  0.5406 -0.3034 -0.2593
 6839SOL    HW131976   3.828   1.002   3.708  1.2572  2.1568  0.6819
 6839SOL    HW231977   3.795   1.027   3.573 -1.4283  2.0709 -1.5350
 6840SOL     OW31978   0.663   1.092   3.316 -1.0542 -0.1233  0.2142
 6840SOL    HW131979   0.632   1.178   3.345 -1.9180 -0.0017 -1.0622
 6840SOL    HW231980   0.758   1.102   3.311 -1.3876  3.3429  0.4627
 6841SOL     OW31981   1.642   1.754   6.711 -0.3451 -0.8545  0.4492
 6841SOL    HW131982   1.727   1.755   6.755  0.8740 -0.5424 -1.9140
 6841SOL    HW231983   1.621   1.662   6.720 -0.2684 -1.0404 -1.3086
 6842SOL     OW31984   3.892   4.460   1.546  0.2104 -0.0664  0.0860
 6842SOL    HW131985   3.825   4.517   1.510  0.0180 -0.5305 -0.2860
 6842SOL    HW231986   3.888   4.389   1.482 -1.5473 -0.5459  0.7120
 6843SOL     OW31987   2.566   2.452   4.533 -0.0119  0.5468  0.5164
 6843SOL    HW131988   2.606   2.390   4.473 -0.3103  1.2908 -0.4408
 6843SOL    HW231989   2.483   2.478   4.492 -0.7071 -3.9081 -0.8716
 6844SOL     OW31990   3.231   2.976   5.421  0.3289  0.2012  0.0779
 6844SOL    HW131991   3.138   2.968   5.442  0.7161  0.2446  1.8222
 6844SOL    HW231992   3.233   2.913   5.349 -1.1430 -0.4405  0.6049
 6845SOL     OW31993   0.792   1.213   4.641 -0.0384 -0.4593 -0.5430
 6845SOL    HW131994   0.834   1.232   4.557 -0.5442 -1.5270 -1.0370
 6845SOL    HW231995   0.861   1.198   4.705  0.4089  0.1998 -0.8777
 6846SOL     OW31996   2.211   3.112  11.789 -0.1799 -0.1905  0.5673
 6846SOL    HW131997   2.205   3.185  11.727  0.5701 -2.4555 -2.1480
 6846SOL    HW231998   2.141   3.132  11.851 -1.8896 -2.6770 -0.6101
 6847SOL     OW31999   3.893   2.194  11.692 -0.5386  0.1426 -0.1593
 6847SOL    HW132000   3.895   2.108  11.734 -1.9478  0.4264  0.4863
 6847SOL    HW232001   3.847   2.245  11.759 -2.3564  2.0274 -2.8294
 6848SOL     OW32002   3.779   2.864   1.287  0.2110 -0.0688 -0.5482
 6848SOL    HW132003   3.704   2.924   1.291 -0.0364 -0.4941  1.2389
 6848SOL    HW232004   3.823   2.874   1.371 -2.6758  0.0915  0.9753
 6849SOL     OW32005   4.188   0.858   5.399  0.0158 -0.1505  0.0996
 6849SOL    HW132006   4.123   0.850   5.330  2.2857 -2.9057 -1.7358
 6849SOL    HW232007   4.201   0.765   5.416  1.4846 -0.1690 -1.0340
 6850SOL     OW32008   1.153   1.840  11.130 -0.5178  0.0361  0.4363
 6850SOL    HW132009   1.205   1.916  11.104  1.3485 -2.0205 -1.8093
 6850SOL    HW232010   1.113   1.876  11.209  0.3845  0.4035  0.7279
 6851SOL     OW32011   4.504   2.396   3.120 -0.3135 -0.1526 -0.4172
 6851SOL    HW132012   4.465   2.409   3.034  0.3487 -1.7994 -0.9667
 6851SOL    HW232013   4.491   2.482   3.160  0.2770 -0.8268  1.2581
 6852SOL     OW32014   2.043   1.146   8.171 -0.2675  0.7009  0.0722
 6852SOL    HW132015   2.064   1.238   8.156 -5.0404  1.7467  0.0198
 6852SOL    HW232016   1.954   1.145   8.136 -0.5952  0.6873  0.8956
 6853SOL     OW32017   2.906   3.339  17.269  0.4759  0.5800 -0.0065
 6853SOL    HW132018   2.897   3.256  17.220 -0.7565  0.1606  0.9426
 6853SOL    HW232019   2.996   3.360  17.244 -0.0687  0.2144 -2.3564
 6854SOL     OW32020   1.354   1.717   8.821 -0.2153 -0.1358  0.3223
 6854SOL    HW132021   1.410   1.767   8.881 -0.9240 -0.3569  1.1684
 6854SOL    HW232022   1.276   1.771   8.811  0.1865  0.1429 -1.2629
 6855SOL     OW32023   3.869   2.161  15.155  0.5995 -0.3903  0.6548
 6855SOL    HW132024   3.811   2.164  15.232  0.7023 -0.9587  0.7498
 6855SOL    HW232025   3.935   2.096  15.180  2.1199  1.0532  0.3783
 6856SOL     OW32026   3.245   0.026   8.692  0.4578 -0.7582 -0.3144
 6856SOL    HW132027   3.275   0.111   8.724 -2.0452  0.6349 -1.6862
 6856SOL    HW232028   3.243   4.707   8.777 -3.6753 -1.1646 -0.6496
 6857SOL     OW32029   3.268   0.973  16.203 -0.0273 -0.2038 -0.6685
 6857SOL    HW132030   3.205   1.018  16.147  0.2680  1.1445  0.0806
 6857SOL    HW232031   3.224   0.991  16.287  0.4061 -3.0437  0.1845
 6858SOL     OW32032   4.212   0.056   4.082 -0.1524 -0.3407  0.3437
 6858SOL    HW132033   4.119   0.050   4.100 -0.5333 -0.4627 -1.6558
 6858SOL    HW232034   4.247   0.076   4.169 -0.6997  1.0175  0.2429
 6859SOL     OW32035   2.667   1.130   7.548 -0.1232  0.0663  0.3996
 6859SOL    HW132036   2.722   1.069   7.597  0.4368  0.6661  0.5282
 6859SOL    HW232037   2.719   1.211   7.550 -0.4706  0.2869  0.6178
 6860SOL     OW32038   0.754   1.494  14.303 -0.0163 -0.1013 -0.1713
 6860SOL    HW132039   0.730   1.409  14.338  2.2666 -0.1907  1.2207
 6860SOL    HW232040   0.703   1.550  14.361 -0.5749 -0.8545  0.0606
 6861SOL     OW32041   3.877   4.493   2.591 -0.1236 -0.9936  0.4608
 6861SOL    HW132042   3.820   4.543   2.532  0.4232 -1.5556 -0.5640
 6861SOL    HW232043   3.816   4.442   2.643 -0.4388 -1.2737 -0.1804
 6862SOL     OW32044   0.660   2.583   6.139 -0.2987  0.5347 -0.9325
 6862SOL    HW132045   0.680   2.515   6.202  0.2939  0.5265 -1.1231
 6862SOL    HW232046   0.584   2.546   6.094  0.3269  1.5084 -2.8345
 6863SOL     OW32047   4.530   0.605  15.672 -0.4525  0.0276  0.1426
 6863SOL    HW132048   4.488   0.691  15.680 -1.3343 -0.5532  1.6473
 6863SOL    HW232049   4.541   0.606  15.577  3.2758 -0.5258  0.5580
 6864SOL     OW32050   4.704   4.004   3.774 -0.4113  0.4590 -0.2682
 6864SOL    HW132051   4.691   3.942   3.846 -0.1252 -0.4374 -0.9783
 6864SOL    HW232052   4.642   4.072   3.801 -0.8398  0.3788 -1.0702
 6865SOL     OW32053   4.480   3.138   8.389 -0.2490 -1.0879 -1.0870
 6865SOL    HW132054   4.514   3.226   8.369 -1.6413  0.7231  4.3600
 6865SOL    HW232055   4.391   3.162   8.413 -0.4471 -0.4197 -2.4811
 6866SOL     OW32056   1.335   1.293   3.005 -0.0983 -0.0239 -0.2860
 6866SOL    HW132057   1.335   1.313   3.098 -0.1689  1.9432 -0.6922
 6866SOL    HW232058   1.382   1.362   2.958 -1.9718 -0.0951 -2.3051
 6867SOL     OW32059   1.736   3.635  16.756  0.1865  0.3459  0.0477
 6867SOL    HW132060   1.684   3.702  16.801  0.0297  0.1283  0.1867
 6867SOL    HW232061   1.777   3.680  16.681  2.5671 -1.1409  0.4810
 6868SOL     OW32062   1.940   0.825  12.238  0.1588 -0.0354 -0.2252
 6868SOL    HW132063   1.921   0.769  12.313 -0.9671 -0.0414 -0.5145
 6868SOL    HW232064   1.943   0.751  12.178 -1.5635 -1.8173  1.8676
 6869SOL     OW32065   3.705   0.230   7.739  0.5298  0.4057 -0.6389
 6869SOL    HW132066   3.710   0.320   7.706  2.8746  0.3912 -0.3362
 6869SOL    HW232067   3.636   0.197   7.682  1.4793 -2.0295 -0.3919
 6870SOL     OW32068   1.625   4.626   6.249  0.3575 -0.4878 -0.1805
 6870SOL    HW132069   1.633   4.532   6.265  0.4605 -0.6704 -1.3089
 6870SOL    HW232070   1.647   4.625   6.155  0.8877 -0.4762 -0.0570
 6871SOL     OW32071   1.254   2.562  14.800 -0.2448 -0.0590  0.0910
 6871SOL    HW132072   1.329   2.526  14.848  0.0113 -1.3003 -1.2352
 6871SOL    HW232073   1.190   2.563  14.871 -0.2098 -1.0063  0.1417
 6872SOL     OW32074   4.571   1.818  14.069 -0.5536  0.1751  0.2288
 6872SOL    HW132075   4.553   1.731  14.104 -2.4689  0.6497  0.4087
 6872SOL    HW232076   4.543   1.881  14.136  0.6418  0.7213  0.2201
 6873SOL     OW32077   2.413   1.324  12.412  0.3119 -0.0669  0.0280
 6873SOL    HW132078   2.391   1.400  12.466  0.6871  0.2567 -0.2656
 6873SOL    HW232079   2.489   1.288  12.457 -0.4285 -0.3539  1.0390
 6874SOL     OW32080   0.167   0.783   9.684 -0.3667 -0.4084  0.3377
 6874SOL    HW132081   0.073   0.764   9.675  0.3498 -4.6501  1.9257
 6874SOL    HW232082   0.177   0.857   9.624 -0.6366  0.1535  0.9908
 6875SOL     OW32083   2.673   3.814   8.342  0.2804 -0.0189 -0.6211
 6875SOL    HW132084   2.655   3.787   8.432 -2.3430  2.4650 -0.4211
 6875SOL    HW232085   2.746   3.876   8.352 -0.1895  0.4978 -0.3588
 6876SOL     OW32086   2.248   3.357  10.088  0.0620  0.0741 -0.0418
 6876SOL    HW132087   2.233   3.296  10.161  1.1548 -0.5459 -0.3300
 6876SOL    HW232088   2.340   3.377  10.110  0.2154  0.5619 -1.1553
 6877SOL     OW32089   4.150   2.993  17.187 -0.0297 -0.0934  0.0192
 6877SOL    HW132090   4.099   2.928  17.236 -1.2977  1.7131  1.1222
 6877SOL    HW232091   4.228   2.943  17.164  0.0461  0.1957 -0.3550
 6878SOL     OW32092   4.247   4.314   0.042  0.0879  0.0315  0.4439
 6878SOL    HW132093   4.260   4.350   0.130 -1.6565 -1.9877  1.5368
 6878SOL    HW232094   4.334   4.310   0.003 -0.9300 -0.7654 -1.7583
 6879SOL     OW32095   1.950   1.655   0.845  0.3957 -0.6814 -0.2020
 6879SOL    HW132096   1.881   1.589   0.850  1.1196 -1.2714  1.9354
 6879SOL    HW232097   1.936   1.698   0.929 -1.8018 -0.3334 -0.7504
 6880SOL     OW32098   3.793   4.725   8.064 -0.1571 -0.4183  0.2469
 6880SOL    HW132099   3.781   0.000   7.969  4.2755 -3.3866 -0.3482
 6880SOL    HW232100   3.872   4.671   8.068 -0.3424 -0.5727  1.8449
 6881SOL     OW32101   1.584   1.987   0.090  0.3958 -0.2142 -0.0072
 6881SOL    HW132102   1.607   2.080   0.097 -1.2405  0.3576 -2.0915
 6881SOL    HW232103   1.638   1.959   0.016  0.4317  0.7787 -0.3640
 6882SOL     OW32104   2.256   1.679   8.264  0.2233 -0.4546 -0.2852
 6882SOL    HW132105   2.175   1.697   8.311 -0.3449  0.1657 -1.5129
 6882SOL    HW232106   2.302   1.761   8.280 -0.3337 -0.2836  0.4232
 6883SOL     OW32107   1.573   4.562   4.055  0.2309 -0.2395 -0.2539
 6883SOL    HW132108   1.653   4.514   4.032  0.3915  0.0683 -0.3375
 6883SOL    HW232109   1.610   4.625   4.116 -0.0894 -3.3503  3.1365
 6884SOL     OW32110   0.664   0.999   5.060 -0.5322  0.1076 -0.0918
 6884SOL    HW132111   0.635   0.910   5.038  1.9801 -0.8040  0.2184
 6884SOL    HW232112   0.660   0.987   5.155 -1.0832 -2.1452 -0.3823
 6885SOL     OW32113   4.599   1.297  14.116  0.1103  0.1244 -0.3239
 6885SOL    HW132114   4.689   1.264  14.117  0.3470  0.7973  1.7933
 6885SOL    HW232115   4.552   1.214  14.104 -0.4244  0.2178  1.0872
 6886SOL     OW32116   1.437   3.193   1.582 -0.3900  0.0755  0.1542
 6886SOL    HW132117   1.519   3.161   1.618  0.7610  2.7444 -0.1362
 6886SOL    HW232118   1.463   3.284   1.569 -0.2278  0.0922  0.6135
 6887SOL     OW32119   1.852   1.511   7.802  0.4358  0.6222  0.2054
 6887SOL    HW132120   1.897   1.588   7.837  1.4302 -0.2813  0.9083
 6887SOL    HW232121   1.825   1.467   7.883  0.7829  0.1266  0.0479
 6888SOL     OW32122   1.592   0.464   4.841  0.0968 -0.0549 -0.3046
 6888SOL    HW132123   1.562   0.402   4.907  2.1172 -1.4885 -0.7164
 6888SOL    HW232124   1.664   0.516   4.877 -0.8235  0.9138  0.1376
 6889SOL     OW32125   2.150   3.993   4.126  0.4922 -0.5636 -0.1048
 6889SOL    HW132126   2.059   3.963   4.124 -0.1221  1.0355  4.4376
 6889SOL    HW232127   2.187   3.955   4.046 -0.3429 -1.5224 -0.0316
 6890SOL     OW32128   3.778   0.818  10.712  0.2593  0.2620 -0.1817
 6890SOL    HW132129   3.699   0.765  10.724 -0.1834  0.7781 -0.7678
 6890SOL    HW232130   3.757   0.894  10.767  1.7367  0.5634 -0.0282
 6891SOL     OW32131   2.924   1.783   4.191 -0.1228  0.1733 -0.4149
 6891SOL    HW132132   2.895   1.843   4.260  0.8038 -0.4799  0.5449
 6891SOL    HW232133   2.974   1.846   4.139  0.3292  0.3006  0.1667
 6892SOL     OW32134   3.915   0.868   4.293 -0.0194 -0.2962 -0.4747
 6892SOL    HW132135   3.848   0.861   4.361  2.0593  1.0813  1.7212
 6892SOL    HW232136   3.954   0.955   4.302 -2.3302  0.6217  0.7933
 6893SOL     OW32137   3.839   0.944   5.999  0.1758  0.0611  0.2209
 6893SOL    HW132138   3.926   0.907   6.010  0.4567  0.2404 -1.4569
 6893SOL    HW232139   3.847   0.946   5.904  1.8576 -1.9370  0.3406
 6894SOL     OW32140   1.982   2.652  10.905  0.8025  0.3433 -0.4575
 6894SOL    HW132141   1.930   2.574  10.925  0.3850  0.6376 -0.4019
 6894SOL    HW232142   2.050   2.655  10.972 -0.6066  0.5667  0.9461
 6895SOL     OW32143   4.661   3.901   4.400 -0.5806  0.1935 -1.1585
 6895SOL    HW132144   4.622   3.824   4.441 -0.0078  0.8164  0.5605
 6895SOL    HW232145   4.640   3.962   4.470 -2.8254 -1.1899 -0.6273
 6896SOL     OW32146   4.027   3.503   5.889 -0.0910 -0.2699 -0.5048
 6896SOL    HW132147   3.952   3.498   5.948  0.8886 -0.1934  0.7389
 6896SOL    HW232148   4.041   3.597   5.878 -0.2712  0.0671  2.1713
 6897SOL     OW32149   3.925   0.586  10.663 -0.2033 -0.0631  0.1061
 6897SOL    HW132150   3.955   0.570  10.573 -0.4242  1.0247 -0.1516
 6897SOL    HW232151   3.881   0.669  10.644 -1.4193 -0.2459  2.2401
 6898SOL     OW32152   4.335   3.447  10.108 -1.3360 -0.5780 -0.0498
 6898SOL    HW132153   4.319   3.401  10.190  2.2774  1.1850  1.6452
 6898SOL    HW232154   4.393   3.393  10.055 -0.5741  1.5441 -1.3890
 6899SOL     OW32155   1.621   4.032  11.446 -0.4237 -0.2816  0.6921
 6899SOL    HW132156   1.581   3.991  11.522  1.1858  1.0939  2.2606
 6899SOL    HW232157   1.711   4.005  11.463  0.0374  1.3747  0.8265
 6900SOL     OW32158   1.361   4.725   5.341  0.1428  0.2905 -0.2695
 6900SOL    HW132159   1.399   4.649   5.297  0.9332  1.1653 -1.0615
 6900SOL    HW232160   1.268   4.702   5.351  0.3467 -0.1657  0.6440
 6901SOL     OW32161   3.381   1.878  17.047 -0.2316  0.2131 -0.0602
 6901SOL    HW132162   3.304   1.934  17.058  1.4158  3.0561 -2.9727
 6901SOL    HW232163   3.337   1.803  17.006 -1.5409  0.4257  0.9478
 6902SOL     OW32164   3.848   3.414   4.051 -0.9385  0.1755 -0.1531
 6902SOL    HW132165   3.786   3.477   4.014  0.2486  0.3603 -1.8374
 6902SOL    HW232166   3.808   3.331   4.023 -1.6507  0.2470  0.6511
 6903SOL     OW32167   0.375   4.208   1.044  0.6261 -0.3830  0.6894
 6903SOL    HW132168   0.455   4.256   1.022  0.6508  0.0311  1.6758
 6903SOL    HW232169   0.394   4.124   1.004  0.7935  0.0144 -0.0668
 6904SOL     OW32170   3.543   0.484   3.375 -0.0455  0.2623  0.0486
 6904SOL    HW132171   3.547   0.418   3.444  2.7524  1.3207  0.9037
 6904SOL    HW232172   3.632   0.496   3.342  0.5572  0.3180  1.6718
 6905SOL     OW32173   1.949   4.275  15.034  0.1122  0.1110  0.2741
 6905SOL    HW132174   1.963   4.345  14.970  1.0107  1.1603  1.6229
 6905SOL    HW232175   1.858   4.248  15.017  1.1808 -4.1109  1.2083
 6906SOL     OW32176   0.245   2.833   1.726 -0.4922 -0.1954  0.1656
 6906SOL    HW132177   0.193   2.768   1.678 -1.1584 -0.6737  1.5315
 6906SOL    HW232178   0.207   2.821   1.813 -1.0459 -0.7920 -0.1606
 6907SOL     OW32179   1.277   1.278  12.154  0.0618  0.2319 -0.0482
 6907SOL    HW132180   1.312   1.224  12.083 -0.5568 -1.0541  0.6224
 6907SOL    HW232181   1.214   1.332  12.106  1.1906  3.1512  1.7807
 6908SOL     OW32182   0.418   0.416   1.229  0.5284  0.4528  0.3517
 6908SOL    HW132183   0.429   0.378   1.316 -0.4573 -1.7459 -0.4930
 6908SOL    HW232184   0.394   0.332   1.190  3.0646 -0.4386  0.7209
 6909SOL     OW32185   1.376   1.637  12.528 -0.3312 -0.0574  0.0723
 6909SOL    HW132186   1.284   1.636  12.499 -0.6055 -0.5862  0.9666
 6909SOL    HW232187   1.371   1.580  12.605 -1.9028 -0.3402 -0.2365
 6910SOL     OW32188   2.673   3.763   5.377  0.1809 -0.2600  0.7299
 6910SOL    HW132189   2.614   3.758   5.453 -0.4747  2.3146  0.3660
 6910SOL    HW232190   2.701   3.671   5.380 -0.9738 -0.5954  1.3579
 6911SOL     OW32191   3.894   0.816   7.813 -0.0496 -0.0885  0.2044
 6911SOL    HW132192   3.802   0.842   7.809 -0.2969 -1.1598 -1.0341
 6911SOL    HW232193   3.941   0.899   7.815  0.9440 -0.6489 -0.0299
 6912SOL     OW32194   3.498   1.806   8.390 -0.2457  0.3497 -0.2783
 6912SOL    HW132195   3.561   1.855   8.443  2.2660 -1.2049 -1.8678
 6912SOL    HW232196   3.547   1.751   8.329  0.0172  0.3439 -0.0597
 6913SOL     OW32197   1.531   2.218   4.897  0.3450  0.2554 -0.5231
 6913SOL    HW132198   1.509   2.279   4.827  0.3616 -0.1395 -0.8751
 6913SOL    HW232199   1.482   2.136   4.899  1.6417 -0.5558 -2.2476
 6914SOL     OW32200   0.597   1.587  14.088  0.5468 -0.3836  0.6565
 6914SOL    HW132201   0.661   1.578  14.158  1.5292 -0.1165 -0.2083
 6914SOL    HW232202   0.654   1.575  14.012  0.4665  2.9005  0.0704
 6915SOL     OW32203   1.750   4.159   5.300  0.2512  0.4457 -0.2344
 6915SOL    HW132204   1.757   4.150   5.205  1.5700  1.9756 -0.2686
 6915SOL    HW232205   1.676   4.219   5.296 -0.2893 -0.0153  3.0432
 6916SOL     OW32206   1.494   3.841   5.608 -0.1317 -0.7547  0.2526
 6916SOL    HW132207   1.501   3.903   5.681  0.2034 -2.2943  1.5508
 6916SOL    HW232208   1.579   3.797   5.599 -0.0862 -0.2337 -1.8436
 6917SOL     OW32209   0.794   2.986   3.992  0.1309 -0.0521  0.2335
 6917SOL    HW132210   0.884   2.974   3.962  0.6724  1.2258  1.3463
 6917SOL    HW232211   0.754   2.907   3.956 -3.0356  2.2122 -1.2186
 6918SOL     OW32212   1.565   2.479   3.540 -0.1516 -0.0595  0.7534
 6918SOL    HW132213   1.619   2.522   3.606 -1.2429 -0.0016  1.6222
 6918SOL    HW232214   1.587   2.533   3.465 -1.1086 -0.2137  0.3568
 6919SOL     OW32215   0.827   3.060   6.341  0.0192  0.0153  0.3412
 6919SOL    HW132216   0.742   3.044   6.298  0.3986 -0.1140 -0.3581
 6919SOL    HW232217   0.804   3.037   6.431  0.7446 -0.2943  0.4425
 6920SOL     OW32218   1.314   4.690   2.381 -0.6816  0.2750 -0.1753
 6920SOL    HW132219   1.248   4.717   2.445 -0.9961 -1.1453  0.0884
 6920SOL    HW232220   1.258   4.656   2.311  1.5784  0.3286 -2.0117
 6921SOL     OW32221   1.177   0.857  12.197 -0.4028 -0.0447 -0.2585
 6921SOL    HW132222   1.093   0.903  12.187 -0.4399  0.4266  2.2896
 6921SOL    HW232223   1.180   0.819  12.108 -0.9624 -1.7983  0.4556
 6922SOL     OW32224   4.001   1.252   6.614 -0.0342 -0.0863 -0.1106
 6922SOL    HW132225   4.013   1.244   6.519 -0.9301  0.3802 -0.2631
 6922SOL    HW232226   3.922   1.306   6.617 -1.0323 -1.5169 -0.8661
 6923SOL     OW32227   1.992   1.026   7.315  0.4934  0.4232  0.8177
 6923SOL    HW132228   2.086   1.007   7.310  0.5135  1.0572 -1.2588
 6923SOL    HW232229   1.969   1.029   7.223 -1.4816  0.9194  1.3325
 6924SOL     OW32230   3.947   0.448   2.840 -0.0784 -0.0829 -0.0748
 6924SOL    HW132231   3.868   0.397   2.858  0.2593 -1.2298 -1.7911
 6924SOL    HW232232   3.966   0.499   2.919 -0.5472 -0.6447  0.3984
 6925SOL     OW32233   1.474   2.356   5.832 -0.0053  0.4973 -0.4479
 6925SOL    HW132234   1.457   2.446   5.860  0.8371  0.6544 -0.4637
 6925SOL    HW232235   1.506   2.370   5.743  0.8027 -0.2441 -0.2643
 6926SOL     OW32236   2.438   2.570   4.739 -0.3668  0.7621 -0.1565
 6926SOL    HW132237   2.355   2.525   4.719 -1.1993  2.8264 -1.2948
 6926SOL    HW232238   2.495   2.526   4.676 -0.8488  1.3886 -1.0248
 6927SOL     OW32239   3.225   0.538  17.611  0.4809  0.0011 -0.2565
 6927SOL    HW132240   3.230   0.449  17.647  1.8164 -0.4863 -1.6508
 6927SOL    HW232241   3.299   0.531  17.550 -0.7526 -1.8168 -1.5602
 6928SOL     OW32242   0.625   1.773  10.531  0.0642 -0.2685  0.6560
 6928SOL    HW132243   0.574   1.757  10.611 -0.6038 -0.2533  0.2310
 6928SOL    HW232244   0.558   1.818  10.480 -0.3313 -1.2172  0.3286
 6929SOL     OW32245   1.726   1.987   2.658 -0.1528 -0.7631 -0.8317
 6929SOL    HW132246   1.676   2.023   2.585  2.8790  1.7200 -1.7304
 6929SOL    HW232247   1.811   2.025   2.633 -0.7048  1.9579  1.3453
 6930SOL     OW32248   4.129   0.032   2.761  0.5015  0.0957  0.2993
 6930SOL    HW132249   4.119   4.664   2.770 -2.8249  0.6277  1.9732
 6930SOL    HW232250   4.219   0.039   2.729  0.9367  0.8478  1.6888
 6931SOL     OW32251   0.089   2.779   6.694  0.0294 -0.1043 -0.1046
 6931SOL    HW132252   0.038   2.718   6.748 -0.1652  0.6941  0.6177
 6931SOL    HW232253   0.167   2.779   6.750 -0.7413  3.1565  0.9777
 6932SOL     OW32254   3.886   2.388   7.924  0.3220 -0.4529  0.4173
 6932SOL    HW132255   3.860   2.421   7.838  0.8538 -0.9625  0.0709
 6932SOL    HW232256   3.918   2.474   7.952  0.2804 -0.9404  1.9576
 6933SOL     OW32257   2.860   3.351   3.925  0.0432  0.6737  0.4606
 6933SOL    HW132258   2.783   3.362   3.982  1.2187  1.8715  1.7870
 6933SOL    HW232259   2.872   3.256   3.923 -1.2848  0.4566  3.0630
 6934SOL     OW32260   1.902   2.736   3.390  0.2856  0.1738 -0.1378
 6934SOL    HW132261   1.912   2.695   3.304 -0.1676  0.7834 -0.4848
 6934SOL    HW232262   1.923   2.662   3.447 -2.6430 -0.1617  0.5065
 6935SOL     OW32263   2.504   0.833   4.810 -0.3348  0.4356 -0.1324
 6935SOL    HW132264   2.476   0.869   4.726  1.9674 -0.2903 -1.2077
 6935SOL    HW232265   2.589   0.790   4.798  0.3605  1.2540  1.8993
 6936SOL     OW32266   2.408   0.835   1.368 -0.1094 -0.1629  0.3525
 6936SOL    HW132267   2.453   0.761   1.327  1.5769  0.9153  0.2745
 6936SOL    HW232268   2.452   0.844   1.452 -1.1730  1.5446  0.7365
 6937SOL     OW32269   3.245   0.535  11.286  0.3983  0.0637  0.5615
 6937SOL    HW132270   3.236   0.459  11.344  1.0712  0.5520  1.2976
 6937SOL    HW232271   3.151   0.554  11.284  0.6195  1.1520  0.1591
 6938SOL     OW32272   1.228   3.606   8.651  1.0078 -0.3052 -0.1824
 6938SOL    HW132273   1.202   3.519   8.681 -0.2454  0.2181  0.2650
 6938SOL    HW232274   1.239   3.650   8.735 -0.4205  1.7789 -1.0862
 6939SOL     OW32275   0.682   2.344   5.969  0.6699  0.0450  0.0765
 6939SOL    HW132276   0.777   2.352   5.982  0.9099 -0.9589 -1.0050
 6939SOL    HW232277   0.659   2.314   6.057  1.1255 -1.3209 -0.2750
 6940SOL     OW32278   2.510   4.420   3.848  0.7229 -0.1694  0.5925
 6940SOL    HW132279   2.484   4.328   3.837  2.2743 -0.4613 -0.6924
 6940SOL    HW232280   2.553   4.416   3.933  1.0870 -3.7818  0.2586
 6941SOL     OW32281   4.051   2.467   6.076 -0.5342 -0.6060 -0.7448
 6941SOL    HW132282   4.041   2.556   6.043 -0.0891 -0.6615 -1.0286
 6941SOL    HW232283   4.013   2.477   6.163 -0.8994 -0.6082 -0.9035
 6942SOL     OW32284   1.611   0.879   6.144  0.0502 -0.1516 -0.3568
 6942SOL    HW132285   1.518   0.884   6.164  0.3309  0.2956  0.8567
 6942SOL    HW232286   1.651   0.919   6.222 -1.7282  3.3430 -1.2512
 6943SOL     OW32287   4.223   3.437   9.712 -0.2948  0.2659  0.1867
 6943SOL    HW132288   4.127   3.444   9.714 -0.3314  0.0163 -0.6949
 6943SOL    HW232289   4.261   3.517   9.747  1.4075  0.1586 -1.4329
 6944SOL     OW32290   1.883   3.195   5.593 -0.5461 -0.0927 -0.3055
 6944SOL    HW132291   1.886   3.160   5.682  0.3323 -3.2507 -1.5691
 6944SOL    HW232292   1.956   3.141   5.563 -0.7121  0.6456 -2.0009
 6945SOL     OW32293   1.029   3.041   2.131 -1.0583  0.1982 -0.4140
 6945SOL    HW132294   0.958   3.023   2.069 -1.5042  0.3096  0.0595
 6945SOL    HW232295   1.038   2.954   2.169 -4.4739  0.7501  1.7227
 6946SOL     OW32296   2.229   0.152   6.678 -0.0443 -0.0320 -0.0997
 6946SOL    HW132297   2.225   0.229   6.622  2.9794  0.1278 -0.0943
 6946SOL    HW232298   2.186   0.087   6.622  1.4362 -1.2811  0.2007
 6947SOL     OW32299   0.913   3.781   7.813 -0.2072 -0.0085  0.4866
 6947SOL    HW132300   0.821   3.755   7.809 -0.0870 -0.5453  1.2426
 6947SOL    HW232301   0.925   3.742   7.899 -0.5348 -0.5156  0.3073
 6948SOL     OW32302   0.190   4.536  17.187 -0.2057  0.7324 -0.1460
 6948SOL    HW132303   0.269   4.503  17.144  1.1800  2.3086  1.2127
 6948SOL    HW232304   0.230   4.526  17.274 -1.5548  0.4728  0.4541
 6949SOL     OW32305   1.585   0.450   4.223 -0.2406  0.0403  0.2386
 6949SOL    HW132306   1.549   0.539   4.221 -0.3929 -0.0446 -0.5619
 6949SOL    HW232307   1.535   0.419   4.299  0.5953 -0.1919  0.6960
 6950SOL     OW32308   2.149   3.215   9.478 -0.1804 -0.0684  0.5790
 6950SOL    HW132309   2.087   3.240   9.546 -1.0756 -1.2963  0.2181
 6950SOL    HW232310   2.217   3.174   9.531  1.5442  1.6171 -0.3239
 6951SOL     OW32311   4.477   1.333  11.395 -0.0699  0.2198 -0.1765
 6951SOL    HW132312   4.394   1.353  11.438  0.4537 -2.2683  2.0009
 6951SOL    HW232313   4.530   1.400  11.438  0.8759 -1.1820  0.8359
 6952SOL     OW32314   3.602   2.079   6.826 -0.3887  0.3666  0.1915
 6952SOL    HW132315   3.560   2.085   6.912 -1.0912 -0.4516 -0.0882
 6952SOL    HW232316   3.690   2.106   6.850 -0.2864 -0.7957  1.1135
 6953SOL     OW32317   2.737   0.468  15.620  0.0940 -0.0617  0.2133
 6953SOL    HW132318   2.641   0.459  15.615 -0.0731  0.4459  2.4403
 6953SOL    HW232319   2.742   0.557  15.586 -0.9227  0.4120  1.2978
 6954SOL     OW32320   1.077   0.062  16.826  0.4557 -0.3974  0.6829
 6954SOL    HW132321   1.038   0.149  16.830 -0.3197 -0.8732  3.3553
 6954SOL    HW232322   1.124   0.062  16.742  0.3462 -2.4118  0.6005
 6955SOL     OW32323   1.385   2.589   8.825 -0.1114 -0.0530 -0.3224
 6955SOL    HW132324   1.467   2.577   8.777 -0.0046 -1.4696  0.2275
 6955SOL    HW232325   1.418   2.644   8.897  0.2380  1.0567 -1.3288
 6956SOL     OW32326   0.649   0.171  17.574 -0.0489  0.3776  0.3559
 6956SOL    HW132327   0.742   0.195  17.581 -0.5523  2.4541 -0.2250
 6956SOL    HW232328   0.654   0.088  17.621 -2.4046 -0.0242 -0.1045
 6957SOL     OW32329   4.215   0.818   8.674  0.2701  0.0666  0.2630
 6957SOL    HW132330   4.267   0.882   8.721  1.7212  0.1242 -1.4157
 6957SOL    HW232331   4.262   0.735   8.682  1.1034  0.3466 -1.7736
 6958SOL     OW32332   1.871   3.448   1.811 -0.3563 -0.0560  0.0988
 6958SOL    HW132333   1.847   3.522   1.866  0.3135  0.5804 -0.4539
 6958SOL    HW232334   1.876   3.490   1.725 -0.7292  0.0359  0.1221
 6959SOL     OW32335   3.347   3.835  12.699 -0.9073  0.2024  0.1572
 6959SOL    HW132336   3.416   3.901  12.710 -0.7405  0.1391 -0.5454
 6959SOL    HW232337   3.343   3.819  12.605  2.2133  2.3877 -0.3386
 6960SOL     OW32338   0.737   1.455   0.611  0.2571 -0.5362  0.1510
 6960SOL    HW132339   0.650   1.460   0.570  0.2600  1.7858  0.4020
 6960SOL    HW232340   0.759   1.365   0.590 -1.4797 -0.8660 -0.3090
 6961SOL     OW32341   4.590   3.884   7.525  0.5198 -0.2107  0.3199
 6961SOL    HW132342   4.675   3.920   7.502  0.2478 -1.0035 -1.8912
 6961SOL    HW232343   4.552   3.858   7.441 -0.7841  0.6080  0.6515
 6962SOL     OW32344   3.433   1.512   3.115  0.0499 -0.1153  0.5688
 6962SOL    HW132345   3.432   1.477   3.026  0.7051 -0.4898  0.7069
 6962SOL    HW232346   3.519   1.486   3.148  0.3671  1.0682  0.6542
 6963SOL     OW32347   2.732   4.146   1.895 -0.1815 -0.0061 -0.2375
 6963SOL    HW132348   2.712   4.222   1.951  1.7082 -0.2762  0.7816
 6963SOL    HW232349   2.809   4.106   1.935  0.2164  1.9829  1.0073
 6964SOL     OW32350   4.310   3.635   4.649 -0.5389  0.2883 -0.7793
 6964SOL    HW132351   4.299   3.596   4.736  1.9849  0.4741 -0.3750
 6964SOL    HW232352   4.260   3.580   4.589 -3.6097  0.6440  1.4374
 6965SOL     OW32353   1.996   4.575   3.068  0.1911 -0.0752  0.1771
 6965SOL    HW132354   2.039   4.605   3.148 -1.8337 -2.2308  2.0708
 6965SOL    HW232355   2.070   4.583   3.008 -0.7108  0.5990 -0.8261
 6966SOL     OW32356   0.231   2.275   4.748 -0.8312  0.5935  0.3623
 6966SOL    HW132357   0.267   2.358   4.716 -2.5856  0.8233 -1.0096
 6966SOL    HW232358   0.158   2.249   4.692  1.2549 -1.9619 -1.1415
 6967SOL     OW32359   0.556   0.660   1.433  0.5953 -0.1396  0.3322
 6967SOL    HW132360   0.483   0.689   1.379  0.2681 -1.4506  0.0886
 6967SOL    HW232361   0.520   0.669   1.521  2.1829  0.9775  0.8798
 6968SOL     OW32362   3.197   4.309  15.346  0.1051  0.2627  0.6366
 6968SOL    HW132363   3.161   4.229  15.306  1.9607 -0.3542  0.2129
 6968SOL    HW232364   3.289   4.299  15.323 -0.6815 -3.5147 -1.0151
 6969SOL     OW32365   1.691   2.780   8.391 -0.1627  0.8108 -0.5558
 6969SOL    HW132366   1.748   2.850   8.359  1.4703 -0.0201  0.5528
 6969SOL    HW232367   1.644   2.824   8.462 -0.4695  0.6155 -0.6338
 6970SOL     OW32368   2.285   1.573   0.025 -0.1351  0.4655  0.3323
 6970SOL    HW132369   2.263   1.659   0.060 -0.5547 -0.5616  2.5737
 6970SOL    HW232370   2.272   1.522   0.105  0.7215  1.0913  0.8598
 6971SOL     OW32371   4.105   1.129   5.908  0.1834  0.2509  0.3605
 6971SOL    HW132372   4.126   1.147   5.816  2.3950 -0.4078  0.7239
 6971SOL    HW232373   4.132   1.038   5.915  3.4218  1.2500  0.8733
 6972SOL     OW32374   0.456   2.555   7.182 -0.4015  0.2101  0.3038
 6972SOL    HW132375   0.490   2.555   7.092  0.2719 -4.5790  0.5047
 6972SOL    HW232376   0.362   2.546   7.167 -0.5435 -0.6630  1.6656
 6973SOL     OW32377   1.996   3.216  13.300 -0.5525  0.3636 -0.1751
 6973SOL    HW132378   1.967   3.302  13.272 -2.4087 -0.2160 -0.0294
 6973SOL    HW232379   1.944   3.161  13.241 -0.4523  1.6023 -1.3855
 6974SOL     OW32380   0.815   1.628  11.191  0.0448  0.1040 -0.0945
 6974SOL    HW132381   0.757   1.682  11.245  0.9241  1.8474 -0.8990
 6974SOL    HW232382   0.770   1.630  11.107  0.7548 -1.3090 -0.5113
 6975SOL     OW32383   2.849   2.568   9.436  0.4168 -0.3102  0.3814
 6975SOL    HW132384   2.773   2.597   9.386 -0.0605  0.5899  1.6460
 6975SOL    HW232385   2.898   2.650   9.442  2.1318 -1.1820 -1.4982
 6976SOL     OW32386   4.313   3.075   5.881  0.2918  0.1540  0.4863
 6976SOL    HW132387   4.396   3.121   5.888 -0.1179  1.2468 -1.7028
 6976SOL    HW232388   4.271   3.083   5.967 -0.5145  1.2606 -0.0111
 6977SOL     OW32389   2.589   0.421   8.082 -0.2831  0.0307  0.4744
 6977SOL    HW132390   2.498   0.401   8.061 -0.6596  3.2174 -0.9460
 6977SOL    HW232391   2.572   0.494   8.142  0.0103  0.7095 -0.2588
 6978SOL     OW32392   0.401   1.931   2.554  0.2427  0.4454 -0.1444
 6978SOL    HW132393   0.340   1.857   2.553  0.0773  0.5854 -0.4004
 6978SOL    HW232394   0.336   1.994   2.586 -1.5503 -2.1746  1.3257
 6979SOL     OW32395   2.655   2.544   7.320 -0.3041  0.6698  0.1232
 6979SOL    HW132396   2.562   2.554   7.298 -0.4131  3.4939  1.9424
 6979SOL    HW232397   2.671   2.454   7.289  0.6723  0.4154  1.3893
 6980SOL     OW32398   0.116   0.371   9.871 -0.1595  0.3735  0.2651
 6980SOL    HW132399   0.172   0.439   9.832 -1.6235  1.4737  0.0428
 6980SOL    HW232400   0.149   0.350   9.958 -0.3766 -2.2924 -0.3111
 6981SOL     OW32401   3.679   0.303   5.757  0.3323  0.0587 -0.0609
 6981SOL    HW132402   3.657   0.397   5.756  1.1916  0.2389 -3.2058
 6981SOL    HW232403   3.774   0.304   5.748  0.2669 -0.5931 -0.8219
 6982SOL     OW32404   3.636   0.541   9.245  0.1287 -0.6344 -0.8506
 6982SOL    HW132405   3.665   0.489   9.319  2.1597 -0.7058 -1.6882
 6982SOL    HW232406   3.698   0.612   9.261 -0.0626 -0.0554 -2.5955
 6983SOL     OW32407   4.704   2.554   1.905 -0.1827 -0.7253  0.0828
 6983SOL    HW132408   4.666   2.519   1.824 -2.0100  3.1625 -0.7427
 6983SOL    HW232409   0.057   2.580   1.858 -0.4764 -2.0519 -1.1341
 6984SOL     OW32410   0.142   1.168  14.048  0.5689  0.3863 -0.2116
 6984SOL    HW132411   0.207   1.190  13.981  0.6889  0.2147 -0.1518
 6984SOL    HW232412   0.070   1.128  13.999  0.5496 -0.9217  0.8840
 6985SOL     OW32413   2.735   2.188   1.286 -0.3530 -0.0277 -0.2120
 6985SOL    HW132414   2.762   2.135   1.211 -1.2507  0.3412 -0.7870
 6985SOL    HW232415   2.665   2.139   1.330  0.4563 -1.2662 -0.2958
 6986SOL     OW32416   0.756   1.099  10.708  0.1428 -0.7278  0.2286
 6986SOL    HW132417   0.724   1.021  10.753 -0.0657 -0.1747  1.0386
 6986SOL    HW232418   0.710   1.087  10.624 -1.3159  1.0903  0.7840
 6987SOL     OW32419   3.808   4.017   2.466 -0.4344  0.1555 -0.5143
 6987SOL    HW132420   3.726   4.021   2.516 -0.3960  3.3611 -0.7044
 6987SOL    HW232421   3.769   4.025   2.378 -0.7067 -3.0342 -0.6618
 6988SOL     OW32422   2.745   2.252   8.811  0.4699  0.0700 -0.0391
 6988SOL    HW132423   2.734   2.343   8.838 -1.4327 -1.1509  3.3964
 6988SOL    HW232424   2.821   2.221   8.860  0.0070 -1.4778 -0.2751
 6989SOL     OW32425   0.784   0.151   6.119  0.1666  0.1665 -0.6241
 6989SOL    HW132426   0.706   0.103   6.089 -1.6177  1.9221  1.2142
 6989SOL    HW232427   0.842   0.075   6.120 -2.0221 -1.5617 -2.9282
 6990SOL     OW32428   3.465   4.417   4.857  0.2820  0.1408 -0.3215
 6990SOL    HW132429   3.409   4.467   4.798  0.3452  0.1862 -0.3432
 6990SOL    HW232430   3.469   4.338   4.802 -0.0005 -0.1956  0.1362
 6991SOL     OW32431   2.041   3.786   6.406  0.1527 -0.0075 -0.2556
 6991SOL    HW132432   2.097   3.709   6.412 -0.5387 -0.6800 -2.4015
 6991SOL    HW232433   1.952   3.758   6.428  0.0209 -0.2993 -1.1431
 6992SOL     OW32434   2.810   2.540   0.478  0.0168  0.1875  0.0787
 6992SOL    HW132435   2.843   2.464   0.431  0.8057 -0.2889  1.3898
 6992SOL    HW232436   2.888   2.595   0.482  0.7828 -0.7719 -1.4766
 6993SOL     OW32437   0.087   2.368  11.234  0.5472 -0.5441 -0.6116
 6993SOL    HW132438   0.075   2.397  11.325 -0.2681  1.6644 -1.4096
 6993SOL    HW232439   0.111   2.452  11.195 -1.7742  0.8915  0.9832
 6994SOL     OW32440   3.921   3.138   7.878 -0.3677 -0.1813  0.0192
 6994SOL    HW132441   3.895   3.072   7.942 -0.0155 -1.8210 -1.5386
 6994SOL    HW232442   3.996   3.175   7.925 -0.8526  0.7619  0.0488
 6995SOL     OW32443   4.514   4.426   1.938  0.1612 -0.4415  0.5897
 6995SOL    HW132444   4.526   4.332   1.945 -0.8682 -0.6318 -0.2149
 6995SOL    HW232445   4.542   4.460   2.024 -1.5792 -0.5691  1.2164
 6996SOL     OW32446   3.932   4.105   5.616 -0.3853  0.6727 -0.5410
 6996SOL    HW132447   4.027   4.094   5.630 -0.4688 -1.5531 -1.7671
 6996SOL    HW232448   3.894   4.019   5.634 -0.4460  0.7969 -0.0614
 6997SOL     OW32449   3.880   4.012   0.221  0.5134 -0.2190  0.0606
 6997SOL    HW132450   3.855   3.977   0.135  2.5702  0.1824 -0.6999
 6997SOL    HW232451   3.963   4.055   0.201 -1.6588  3.9405 -0.1519
 6998SOL     OW32452   0.312   0.104  10.041 -0.4985  0.1924 -0.2665
 6998SOL    HW132453   0.392   0.148  10.014 -0.5519  1.1615  1.1620
 6998SOL    HW232454   0.262   0.182  10.066  2.2851  2.1407 -0.7773
 6999SOL     OW32455   2.754   4.255   1.655  0.0542 -0.0846  0.1273
 6999SOL    HW132456   2.754   4.215   1.742  0.1520  1.1415  0.6906
 6999SOL    HW232457   2.664   4.285   1.651  0.0199 -0.1167  0.6061
 7000SOL     OW32458   4.326   4.118  11.624 -1.0279 -0.2854 -0.7958
 7000SOL    HW132459   4.321   4.127  11.529 -2.2259  1.0616 -0.6116
 7000SOL    HW232460   4.308   4.209  11.648  1.0836  0.3546 -1.6284
 7001SOL     OW32461   4.377   4.487   3.911 -1.0184  0.0615  0.1056
 7001SOL    HW132462   4.336   4.474   3.997 -0.4512  1.2097  0.5408
 7001SOL    HW232463   4.310   4.532   3.860  0.2994  1.0610 -0.7390
 7002SOL     OW32464   2.145   2.302   6.529 -0.1255  0.1489  0.6763
 7002SOL    HW132465   2.191   2.386   6.530 -0.7030  0.4719 -0.0043
 7002SOL    HW232466   2.209   2.251   6.578  0.3893  0.5430  0.4117
 7003SOL     OW32467   2.811   2.400   7.720  0.0428  0.0745 -0.4500
 7003SOL    HW132468   2.899   2.370   7.744  0.9734  3.0220 -0.2361
 7003SOL    HW232469   2.777   2.320   7.680 -1.3743  1.4752 -2.0359
 7004SOL     OW32470   1.870   3.989   2.038 -0.0084  0.0758  0.0786
 7004SOL    HW132471   1.921   4.023   2.112 -1.8206 -0.1748  1.4342
 7004SOL    HW232472   1.943   3.962   1.982 -0.7953 -0.1873 -0.8173
 7005SOL     OW32473   3.243   1.554   6.261 -0.1163 -0.0020  0.5589
 7005SOL    HW132474   3.243   1.573   6.355 -0.1383 -1.2089  0.8020
 7005SOL    HW232475   3.290   1.471   6.263  0.1242  0.1640  2.0209
 7006SOL     OW32476   1.430   2.818   6.958  0.3089 -0.3367  0.2134
 7006SOL    HW132477   1.383   2.827   7.041  1.2568 -0.4077  0.7518
 7006SOL    HW232478   1.455   2.910   6.946  1.5435 -0.7354 -0.1934
 7007SOL     OW32479   4.076   1.003  12.912 -0.5199 -0.1059 -0.1044
 7007SOL    HW132480   3.991   0.959  12.903 -1.6097  2.2272 -1.1313
 7007SOL    HW232481   4.111   1.009  12.824  0.5255  0.9123  0.3793
 7008SOL     OW32482   1.413   0.495   7.653 -0.4379 -0.2810 -0.9471
 7008SOL    HW132483   1.323   0.496   7.619 -1.5846  1.4872  2.1148
 7008SOL    HW232484   1.448   0.575   7.615  2.8090 -1.2477  0.0195
 7009SOL     OW32485   4.677   2.004   5.236 -0.1178 -0.3498  0.2349
 7009SOL    HW132486   4.722   2.008   5.320 -0.7659  0.4286  0.5490
 7009SOL    HW232487   4.689   2.092   5.200  2.6975 -0.6491  0.4747
 7010SOL     OW32488   4.049   0.051   0.661 -0.2635  0.1141  0.0688
 7010SOL    HW132489   3.968   0.040   0.711  0.9595 -0.5684  1.8938
 7010SOL    HW232490   4.072   4.685   0.660  2.2948  0.7109  1.8813
 7011SOL     OW32491   1.267   1.633  13.831 -0.3363  0.9288 -0.2138
 7011SOL    HW132492   1.359   1.638  13.804  0.0002  1.1915  1.0005
 7011SOL    HW232493   1.265   1.701  13.898  0.2260  1.1716 -0.4382
 7012SOL     OW32494   0.351   1.752   0.769 -0.3360 -0.1834 -0.1333
 7012SOL    HW132495   0.372   1.668   0.729 -0.6881  0.1844 -1.0806
 7012SOL    HW232496   0.386   1.728   0.855  0.3079  0.3701 -0.2391
 7013SOL     OW32497   1.195   3.092   9.828  0.4056 -0.5200 -0.0895
 7013SOL    HW132498   1.177   2.998   9.829 -1.0249 -0.2361 -0.1666
 7013SOL    HW232499   1.277   3.091   9.778  0.0495 -0.4450 -0.6656
 7014SOL     OW32500   4.605   3.176   9.541 -0.4988  0.4563 -0.5359
 7014SOL    HW132501   4.658   3.125   9.603  0.8844  2.2372 -0.2633
 7014SOL    HW232502   4.523   3.184   9.590  0.0927  0.3474  0.4771
 7015SOL     OW32503   1.662   2.429  12.657 -0.2313 -0.4396 -0.0382
 7015SOL    HW132504   1.627   2.342  12.637  1.0829 -1.3452  1.6083
 7015SOL    HW232505   1.629   2.444  12.746  1.5525  0.0202  0.5537
 7016SOL     OW32506   3.562   1.422   6.946  0.1034 -0.2974  0.2453
 7016SOL    HW132507   3.569   1.327   6.958 -1.0357 -0.0404  2.9677
 7016SOL    HW232508   3.536   1.459   7.030  1.0548 -1.2601  0.9564
 7017SOL     OW32509   4.488   0.732   1.607  0.2886 -0.2502  0.3023
 7017SOL    HW132510   4.567   0.681   1.594 -3.3448 -4.9765 -3.3630
 7017SOL    HW232511   4.526   0.793   1.670 -0.3502  2.9929 -2.4832
 7018SOL     OW32512   3.918   1.622   2.814  0.5828  0.4567 -0.6623
 7018SOL    HW132513   3.970   1.569   2.754  1.5775  1.6412 -0.8395
 7018SOL    HW232514   3.868   1.676   2.753  0.0236 -0.7905 -1.3157
 7019SOL     OW32515   1.433   0.726   0.423 -0.0732 -0.2478 -0.1161
 7019SOL    HW132516   1.341   0.716   0.399  0.4601 -1.2437 -1.6932
 7019SOL    HW232517   1.422   0.705   0.516  0.0912 -1.4860 -0.3828
 7020SOL     OW32518   4.488   3.933   6.744  0.1124 -0.2584 -0.2424
 7020SOL    HW132519   4.514   4.024   6.730  0.1536 -0.4674 -1.4870
 7020SOL    HW232520   4.406   3.950   6.791 -0.0567 -0.9087 -0.3106
 7021SOL     OW32521   0.961   2.924  10.778 -0.3801  1.1868 -0.0717
 7021SOL    HW132522   0.909   2.967  10.846 -0.9516  1.5478 -0.7366
 7021SOL    HW232523   0.894   2.867  10.740  1.6420 -0.6228 -0.9668
 7022SOL     OW32524   1.369   3.536   7.705  0.2889 -0.2150 -0.3791
 7022SOL    HW132525   1.369   3.453   7.753 -1.0191  0.2875  0.4723
 7022SOL    HW232526   1.337   3.598   7.770  3.2766  0.4812  0.4468
 7023SOL     OW32527   3.120   4.498  11.629  0.4544  0.4074  0.2953
 7023SOL    HW132528   3.171   4.578  11.642 -0.4453  0.7555  1.6841
 7023SOL    HW232529   3.170   4.453  11.561 -0.2434 -1.8178  1.2578
 7024SOL     OW32530   2.440   2.937  11.639 -0.8708 -0.0836  0.6517
 7024SOL    HW132531   2.478   2.850  11.643  0.6025  0.6138  1.9614
 7024SOL    HW232532   2.493   2.992  11.581  0.2232 -1.5885  0.2528
 7025SOL     OW32533   0.468   3.029   7.326 -0.3969  0.3660  0.1830
 7025SOL    HW132534   0.477   3.109   7.274  0.4587 -0.8215 -1.4685
 7025SOL    HW232535   0.476   3.053   7.419 -1.1733 -0.2785  0.4205
 7026SOL     OW32536   4.325   0.532  11.499  0.3642  0.0784  0.1177
 7026SOL    HW132537   4.324   0.493  11.412  2.9472 -1.3245  0.6987
 7026SOL    HW232538   4.233   0.524  11.522 -0.1187  0.6171 -1.6569
 7027SOL     OW32539   1.389   2.498   6.992 -0.1732  0.2880  0.0569
 7027SOL    HW132540   1.350   2.495   6.904  1.0435 -2.1396 -0.4138
 7027SOL    HW232541   1.418   2.589   6.986  1.2974 -0.2117 -0.2804
 7028SOL     OW32542   3.846   3.006   1.853 -0.0635  0.1978 -0.2921
 7028SOL    HW132543   3.803   3.047   1.929  0.1568 -2.0438  1.0505
 7028SOL    HW232544   3.832   3.083   1.798 -2.0357 -0.5653 -0.8554
 7029SOL     OW32545   1.806   3.614   5.862  0.4933  0.0450  0.1551
 7029SOL    HW132546   1.719   3.602   5.901  1.1275 -1.2265  1.1706
 7029SOL    HW232547   1.830   3.699   5.899  0.3852  0.6284 -1.0930
 7030SOL     OW32548   2.629   4.041   8.633  0.0377  0.1227 -0.7586
 7030SOL    HW132549   2.598   4.106   8.570 -2.0837  0.4204  0.6059
 7030SOL    HW232550   2.702   4.015   8.577 -0.5825 -1.2608 -0.9420
 7031SOL     OW32551   4.128   2.874   8.316 -0.0911  0.0164 -0.0308
 7031SOL    HW132552   4.103   2.783   8.331  2.4176 -0.3459  1.8485
 7031SOL    HW232553   4.136   2.908   8.405  0.1367  0.4255 -0.2111
 7032SOL     OW32554   3.142   2.548   6.350  0.4537  0.1561  0.1700
 7032SOL    HW132555   3.110   2.509   6.431  1.0229  0.3498  0.4920
 7032SOL    HW232556   3.169   2.480   6.289  0.3792  0.9972 -0.7925
 7033SOL     OW32557   3.386   0.471   7.554 -0.3769  0.3093 -0.6652
 7033SOL    HW132558   3.297   0.502   7.536 -0.7283 -0.4815 -0.2897
 7033SOL    HW232559   3.422   0.491   7.467 -1.2768  1.0483 -0.8644
 7034SOL     OW32560   3.688   4.371   7.098 -1.0419 -0.2409  0.5685
 7034SOL    HW132561   3.682   4.278   7.117  2.0794 -0.7555 -0.8871
 7034SOL    HW232562   3.594   4.391   7.101 -0.9352  0.6269 -1.8976
 7035SOL     OW32563   0.405   2.045   0.775 -0.3870 -0.2055  0.1156
 7035SOL    HW132564   0.406   1.949   0.784 -3.6602 -0.1987  0.4227
 7035SOL    HW232565   0.405   2.085   0.862 -0.7055 -0.9648  0.4644
 7036SOL     OW32566   3.689   2.178   7.620  0.0517 -0.8469 -0.7126
 7036SOL    HW132567   3.745   2.103   7.641 -0.3579 -0.5986  1.2953
 7036SOL    HW232568   3.670   2.209   7.709 -0.9128 -0.0886 -1.1821
 7037SOL     OW32569   0.413   1.432  10.386  0.6992  0.1665 -0.3482
 7037SOL    HW132570   0.389   1.521  10.361 -1.5502 -0.2223  0.4588
 7037SOL    HW232571   0.406   1.441  10.481  2.9314  2.6895 -0.4143
 7038SOL     OW32572   3.611   3.039   1.375  0.2411 -0.5161 -0.5441
 7038SOL    HW132573   3.625   3.051   1.469  0.4200 -2.2875 -0.3329
 7038SOL    HW232574   3.520   3.061   1.358 -0.1528 -1.3748  0.4355
 7039SOL     OW32575   1.708   3.660  10.143 -0.4059 -0.8733 -0.3337
 7039SOL    HW132576   1.793   3.626  10.171 -0.1996 -2.2962 -2.7553
 7039SOL    HW232577   1.640   3.597  10.165 -0.3348 -0.4356  1.1519
 7040SOL     OW32578   2.533   2.027   6.827 -0.0454  0.0972 -0.0409
 7040SOL    HW132579   2.593   2.019   6.901  1.4457 -0.8555 -1.3621
 7040SOL    HW232580   2.493   1.940   6.821  0.4330 -0.0907 -0.5247
 7041SOL     OW32581   2.344   2.893  14.978  0.0133 -0.0417  0.0745
 7041SOL    HW132582   2.306   2.836  15.045  1.8179  0.3317  1.3873
 7041SOL    HW232583   2.297   2.975  14.992  0.5383  0.0118  1.4071
 7042SOL     OW32584   3.654   1.946   0.156  0.3725  0.0293  0.3413
 7042SOL    HW132585   3.735   1.911   0.120  1.1286  1.9781  0.1964
 7042SOL    HW232586   3.609   1.976   0.077 -0.4631  0.2633  0.9098
 7043SOL     OW32587   0.553   0.397  15.526 -0.3742  0.0575  0.0134
 7043SOL    HW132588   0.559   0.383  15.620 -0.3740  1.6169  0.2351
 7043SOL    HW232589   0.625   0.339  15.500  0.8876  1.6471 -0.0361
 7044SOL     OW32590   3.204   2.374   9.503 -0.0057 -0.0840 -0.4101
 7044SOL    HW132591   3.150   2.383   9.582  0.3484 -1.6279  0.0158
 7044SOL    HW232592   3.257   2.454   9.506 -2.8825  1.7917  0.1341
 7045SOL     OW32593   3.736   0.665   8.002  0.1245  0.1830  0.0827
 7045SOL    HW132594   3.666   0.716   8.042 -0.5935  1.9493 -3.4015
 7045SOL    HW232595   3.807   0.725   7.978 -1.8517  1.9609 -1.2235
 7046SOL     OW32596   3.155   0.340   5.129  0.4365  0.1815 -0.0528
 7046SOL    HW132597   3.061   0.332   5.111  0.2605  0.0716  0.8947
 7046SOL    HW232598   3.163   0.397   5.206 -0.1301 -1.3576  1.1465
 7047SOL     OW32599   0.743   0.879  10.870  0.5645  0.6048 -0.2544
 7047SOL    HW132600   0.793   0.871  10.951 -0.3467  1.2528  0.3730
 7047SOL    HW232601   0.775   0.805  10.819 -1.1736  0.3884 -1.0528
 7048SOL     OW32602   0.780   4.704  14.823  0.0767  0.0846  0.4090
 7048SOL    HW132603   0.865   4.718  14.865  0.6678 -3.4503  0.4085
 7048SOL    HW232604   0.735   4.689  14.905  2.1653 -0.3670  1.4859
 7049SOL     OW32605   3.812   1.042   7.461 -0.0934  0.4774  0.2319
 7049SOL    HW132606   3.763   1.004   7.534 -0.3372  0.3492  0.0021
 7049SOL    HW232607   3.766   0.995   7.392 -1.3381  0.8149  0.8342
 7050SOL     OW32608   3.998   0.040   5.888  0.1690  0.0875  0.4867
 7050SOL    HW132609   4.002   4.671   5.892  1.4728  0.0818 -1.0454
 7050SOL    HW232610   4.090   0.060   5.905 -0.8319  4.9333  0.3322
 7051SOL     OW32611   4.149   1.711   1.365 -0.0056 -0.1482 -0.4415
 7051SOL    HW132612   4.086   1.663   1.312  1.9821 -1.5153 -1.5763
 7051SOL    HW232613   4.087   1.772   1.404 -0.0219  0.0088 -0.7087
 7052SOL     OW32614   0.268   1.688   2.428 -0.2105  1.0186  0.3912
 7052SOL    HW132615   0.285   1.701   2.335  1.3649 -0.1248  0.5301
 7052SOL    HW232616   0.332   1.623   2.455 -0.0579  1.0773  0.1670
 7053SOL     OW32617   3.790   3.488   9.282 -0.3551  0.4512 -0.0350
 7053SOL    HW132618   3.741   3.552   9.334 -0.8848 -0.4055  0.5327
 7053SOL    HW232619   3.830   3.434   9.349 -0.7912 -1.0583 -0.9909
 7054SOL     OW32620   4.324   1.828   5.434  0.4818 -0.2210  0.2405
 7054SOL    HW132621   4.335   1.889   5.361 -3.3603 -0.5415 -0.6230
 7054SOL    HW232622   4.351   1.869   5.516  1.4894 -2.5740  1.0746
 7055SOL     OW32623   3.327   2.182   9.205 -0.0620 -0.4964 -0.8727
 7055SOL    HW132624   3.332   2.087   9.204 -0.3547 -0.4977 -1.8742
 7055SOL    HW232625   3.418   2.204   9.184  0.3592 -0.8382  0.6259
 7056SOL     OW32626   0.541   1.688   0.970 -0.3680 -0.5244 -0.4640
 7056SOL    HW132627   0.593   1.716   0.895  1.6977  0.3592  1.3070
 7056SOL    HW232628   0.594   1.703   1.048  0.2998  1.2765 -1.2622
 7057SOL     OW32629   2.878   2.571   8.690 -0.0161 -0.1521 -0.1111
 7057SOL    HW132630   2.821   2.564   8.613  0.7508 -2.7812 -0.4140
 7057SOL    HW232631   2.809   2.565   8.756  0.7711  0.4141  0.7657
 7058SOL     OW32632   0.753   4.393   6.263  0.4454  0.1727  0.2807
 7058SOL    HW132633   0.828   4.396   6.322  1.5228  0.1836 -1.1106
 7058SOL    HW232634   0.783   4.321   6.208  0.1322 -0.0832  0.4421
 7059SOL     OW32635   0.811   1.490   4.819  0.1799  0.0897 -0.1746
 7059SOL    HW132636   0.772   1.407   4.845 -1.0420  0.2216 -1.5892
 7059SOL    HW232637   0.733   1.546   4.822 -0.6331 -1.1074  0.8688
 7060SOL     OW32638   4.155   3.789   6.547 -0.5345  1.2119 -0.4093
 7060SOL    HW132639   4.168   3.722   6.480  2.3877  2.0757 -0.6954
 7060SOL    HW232640   4.183   3.739   6.623 -1.5157 -1.3108 -1.7072
 7061SOL     OW32641   3.804   3.873   5.729  0.0248 -0.8251  0.2719
 7061SOL    HW132642   3.855   3.834   5.800 -0.1752 -0.8301  0.4132
 7061SOL    HW232643   3.779   3.789   5.689  1.3251 -1.5513  0.9716
 7062SOL     OW32644   0.811   1.093  15.969 -0.2901  0.6003 -0.3473
 7062SOL    HW132645   0.810   1.188  15.959  0.5362  1.1003  4.3269
 7062SOL    HW232646   0.816   1.100  16.065  0.6955  0.3043 -0.3744
 7063SOL     OW32647   4.004   1.179   7.346 -0.2512 -0.8694  0.1324
 7063SOL    HW132648   3.930   1.151   7.399 -0.5017  2.7360  1.6899
 7063SOL    HW232649   3.950   1.232   7.287  1.5365 -1.1476 -1.7514
 7064SOL     OW32650   3.836   1.581   5.089 -0.3424 -0.2974  0.3310
 7064SOL    HW132651   3.777   1.622   5.153  1.3674  2.0460  0.4254
 7064SOL    HW232652   3.915   1.633   5.102  0.1067 -1.1071  0.8344
 7065SOL     OW32653   2.418   1.885   8.015 -0.5215 -0.4008  0.2868
 7065SOL    HW132654   2.479   1.844   7.954 -1.5677  1.1406 -1.8003
 7065SOL    HW232655   2.453   1.886   8.104 -0.2587  2.2267  0.1514
 7066SOL     OW32656   4.238   3.999   4.788  0.7249  0.3969  0.6605
 7066SOL    HW132657   4.272   3.927   4.841  0.0970 -1.1236 -1.0161
 7066SOL    HW232658   4.152   3.966   4.762  0.5424  1.7305 -0.4547
 7067SOL     OW32659   1.329   3.563   6.899 -0.0476 -0.0316  0.1065
 7067SOL    HW132660   1.290   3.502   6.961  1.7995  0.7747  2.0695
 7067SOL    HW232661   1.396   3.501   6.871 -0.1605 -0.4552  0.7809
 7068SOL     OW32662   0.671   1.278  11.829  0.0285  0.3646  0.1598
 7068SOL    HW132663   0.679   1.296  11.922  0.9619 -0.1668  0.1786
 7068SOL    HW232664   0.757   1.238  11.816  0.7466  2.0073 -0.2467
 7069SOL     OW32665   3.984   0.121   8.615 -0.1474 -0.2985  0.2595
 7069SOL    HW132666   4.073   0.157   8.616 -0.7030  1.0756  0.1278
 7069SOL    HW232667   3.956   0.164   8.696 -1.9412 -0.9634 -0.0154
 7070SOL     OW32668   3.860   0.148   0.845 -0.3731 -0.0694  0.2042
 7070SOL    HW132669   3.911   0.156   0.926 -0.0343  0.4348 -0.0592
 7070SOL    HW232670   3.802   0.224   0.851 -1.0144 -0.4486 -1.2719
 7071SOL     OW32671   3.584   2.273   9.155  0.3287  0.3784  0.4920
 7071SOL    HW132672   3.598   2.250   9.063 -0.3377 -0.7174  0.6677
 7071SOL    HW232673   3.669   2.284   9.199  0.1051 -0.1402  1.0537
 7072SOL     OW32674   1.330   1.106   8.739  0.1197 -0.4049 -0.6307
 7072SOL    HW132675   1.334   1.168   8.812 -2.7080 -2.5309  1.3267
 7072SOL    HW232676   1.420   1.072   8.739  0.3014  0.0810 -1.3192
 7073SOL     OW32677   3.871   4.095   9.751 -0.2044 -0.2004  0.3902
 7073SOL    HW132678   3.944   4.156   9.767 -0.5535  0.3952 -0.2852
 7073SOL    HW232679   3.866   4.094   9.656 -3.1058 -0.5286  0.5505
 7074SOL     OW32680   2.500   1.688   1.510  0.0917 -0.0113 -0.5179
 7074SOL    HW132681   2.520   1.613   1.566  0.2960  0.5881  0.2198
 7074SOL    HW232682   2.527   1.762   1.565 -0.4865  1.3932 -2.1382
 7075SOL     OW32683   2.285   2.588   0.230 -0.3656  0.0585  0.6645
 7075SOL    HW132684   2.290   2.558   0.321  1.2192 -0.0704  0.5206
 7075SOL    HW232685   2.210   2.647   0.232  0.0895  0.6497  0.1571
 7076SOL     OW32686   4.551   1.262   7.678  0.3340 -0.1461 -0.3611
 7076SOL    HW132687   4.503   1.336   7.641  0.5686 -1.5428 -3.4341
 7076SOL    HW232688   4.514   1.198   7.618  0.6646  0.1172 -0.8487
 7077SOL     OW32689   3.594   0.080   1.056 -0.4965  0.3873  0.1795
 7077SOL    HW132690   3.510   0.121   1.038 -0.4181 -0.0472 -1.1784
 7077SOL    HW232691   3.638   0.160   1.085  2.3574 -0.4824 -1.7557
 7078SOL     OW32692   2.505   1.148   8.441 -0.0949  0.0795  0.3208
 7078SOL    HW132693   2.594   1.181   8.435  0.3883 -0.7770  2.9915
 7078SOL    HW232694   2.482   1.141   8.348 -2.0241  1.2535  0.7008
 7079SOL     OW32695   4.703   4.577  14.255  0.6288  0.4110  0.2469
 7079SOL    HW132696   4.650   4.620  14.322  0.6297  0.8240 -0.0181
 7079SOL    HW232697   0.041   4.526  14.305  1.8647  0.1741 -1.6092
 7080SOL     OW32698   0.356   3.849   9.193 -0.2291  0.3134 -0.2668
 7080SOL    HW132699   0.410   3.791   9.246  1.1755  0.0263 -2.0061
 7080SOL    HW232700   0.378   3.819   9.105  1.6204 -0.2747  0.4007
 7081SOL     OW32701   0.865   1.768   9.943 -0.1481  0.3736 -0.2254
 7081SOL    HW132702   0.878   1.740  10.034 -1.4759  1.5994  0.3413
 7081SOL    HW232703   0.792   1.709   9.923  0.2577  0.1458 -1.0344
 7082SOL     OW32704   0.405   3.523   1.905 -0.5961 -0.0046 -0.0081
 7082SOL    HW132705   0.381   3.435   1.935  2.6276 -0.4216  1.3017
 7082SOL    HW232706   0.444   3.502   1.820  1.1202 -0.5701  0.9197
 7083SOL     OW32707   3.964   1.613   6.690  0.3125  0.8801 -0.3756
 7083SOL    HW132708   3.904   1.538   6.694  1.8672 -0.4094 -1.0230
 7083SOL    HW232709   3.993   1.614   6.598  0.3014  2.0035 -0.3562
 7084SOL     OW32710   4.108   0.114   9.198  0.2830  0.7546 -0.1994
 7084SOL    HW132711   4.019   0.082   9.214 -1.1438  4.5130 -0.5743
 7084SOL    HW232712   4.116   0.065   9.116  0.1328 -0.4669  0.5097
 7085SOL     OW32713   3.843   1.648  14.686 -0.1960  0.0725 -0.2080
 7085SOL    HW132714   3.879   1.617  14.770  0.4525  1.1647 -0.0893
 7085SOL    HW232715   3.880   1.582  14.627 -0.6820  1.5095 -2.1072
 7086SOL     OW32716   4.591   2.458   8.839  0.5569 -0.3909 -0.0118
 7086SOL    HW132717   4.635   2.537   8.871  1.4876 -0.7748 -0.3690
 7086SOL    HW232718   4.611   2.454   8.746  1.3197  1.3789  0.0791
 7087SOL     OW32719   0.899   1.719   7.507 -0.2971  0.7362 -0.1830
 7087SOL    HW132720   0.828   1.781   7.522 -0.0844  1.4095 -2.0102
 7087SOL    HW232721   0.966   1.783   7.483 -0.5640  0.7465 -0.8933
 7088SOL     OW32722   4.638   1.383   9.246  0.0802 -0.7148 -0.5603
 7088SOL    HW132723   4.579   1.328   9.299 -0.0029 -0.2721 -0.1953
 7088SOL    HW232724   4.722   1.342   9.266  0.2569 -0.0083  0.1288
 7089SOL     OW32725   0.554   2.637   9.376 -0.0472 -0.0387  0.1195
 7089SOL    HW132726   0.633   2.599   9.336 -1.3104 -0.2829 -2.1843
 7089SOL    HW232727   0.535   2.575   9.446  1.0998  1.0013  1.3283
 7090SOL     OW32728   1.379   3.224   0.819 -0.3749  0.1172  0.3737
 7090SOL    HW132729   1.433   3.261   0.749 -2.0675  2.8474  0.5430
 7090SOL    HW232730   1.416   3.136   0.812 -0.0520  0.3457 -0.8420
 7091SOL     OW32731   3.677   1.345   4.943 -0.7764 -0.2505  0.1078
 7091SOL    HW132732   3.761   1.332   4.900 -0.8441  1.7503 -0.6437
 7091SOL    HW232733   3.666   1.438   4.922 -0.6576 -0.5385 -1.2040
 7092SOL     OW32734   3.437   4.673   1.883 -0.5969  0.2035  0.1316
 7092SOL    HW132735   3.462   0.038   1.874  1.2781 -0.1409  1.7451
 7092SOL    HW232736   3.424   4.668   1.978  0.4048  2.4296  0.3834
 7093SOL     OW32737   3.172   3.958   5.972  0.2947  0.6167  0.3031
 7093SOL    HW132738   3.210   4.009   5.901  2.0673 -1.1679 -0.0413
 7093SOL    HW232739   3.246   3.922   6.021 -0.6541 -1.7676 -0.0374
 7094SOL     OW32740   3.193   2.506   7.071 -0.4694 -0.1110  0.2487
 7094SOL    HW132741   3.162   2.436   7.130  0.3106  0.5380  1.4368
 7094SOL    HW232742   3.288   2.494   7.079 -0.4643  0.5674  1.1562
 7095SOL     OW32743   3.009   0.921   1.733 -0.0264 -0.2208 -0.1467
 7095SOL    HW132744   3.054   0.947   1.813  1.2663  2.0622 -1.6301
 7095SOL    HW232745   3.075   0.877   1.681  0.2419 -0.0500  0.0525
 7096SOL     OW32746   0.361   3.047  13.421  0.3458  0.0421  0.1905
 7096SOL    HW132747   0.452   3.077  13.412  1.1252 -1.4296  2.9337
 7096SOL    HW232748   0.377   2.954  13.404  1.3268 -0.0274  1.4933
 7097SOL     OW32749   0.989   4.272   0.015 -0.2248  0.2910  0.2830
 7097SOL    HW132750   1.079   4.287  17.691  0.2474 -0.2412  1.4363
 7097SOL    HW232751   1.005   4.183   0.048 -0.9749 -0.2538 -0.7979
 7098SOL     OW32752   3.970   2.799  17.302  0.0717 -0.3305 -0.2055
 7098SOL    HW132753   3.899   2.811  17.365  2.7300 -0.8753  2.9144
 7098SOL    HW232754   3.946   2.719  17.254 -0.6173 -1.2715  1.7000
 7099SOL     OW32755   1.728   4.698   4.248 -0.1150 -0.1646  0.2466
 7099SOL    HW132756   1.694   4.675   4.334  0.0182  1.8431  0.8583
 7099SOL    HW232757   1.694   0.061   4.239  0.0551 -0.1697 -0.4748
 7100SOL     OW32758   0.481   4.708   8.964 -0.6122  0.0376 -0.3387
 7100SOL    HW132759   0.411   4.645   8.947  0.9318 -1.6588 -0.4116
 7100SOL    HW232760   0.551   4.651   8.996 -1.0480 -0.0049  0.5372
 7101SOL     OW32761   1.507   3.031   9.680 -0.1546  0.0534  0.4083
 7101SOL    HW132762   1.601   3.023   9.660 -0.3768 -0.6225 -0.3740
 7101SOL    HW232763   1.482   2.949   9.723 -0.3051  0.2760  0.7470
 7102SOL     OW32764   2.779   2.800   6.302  0.1345 -0.3863 -0.4182
 7102SOL    HW132765   2.714   2.774   6.367  0.1862  1.1083  0.2232
 7102SOL    HW232766   2.748   2.776   6.214 -1.4898 -0.8502  0.2877
 7103SOL     OW32767   1.061   4.383   6.811 -0.4212  0.3341  0.4954
 7103SOL    HW132768   1.011   4.385   6.893  1.2343  0.4346  1.4970
 7103SOL    HW232769   1.024   4.301   6.779  1.2656  0.0845 -0.7976
 7104SOL     OW32770   1.809   0.297  13.113  0.1649  0.3175 -0.3675
 7104SOL    HW132771   1.739   0.309  13.178  1.0399 -1.2145  0.8495
 7104SOL    HW232772   1.788   0.378  13.066 -2.8462  0.6024  1.4464
 7105SOL     OW32773   4.551   3.910   8.799 -0.0626 -0.3409 -0.0170
 7105SOL    HW132774   4.636   3.898   8.756  0.4016  1.4319  0.4126
 7105SOL    HW232775   4.517   3.978   8.739  0.4956 -2.8595 -3.2157
 7106SOL     OW32776   1.813   2.568  15.741 -0.7252 -0.5761 -0.1654
 7106SOL    HW132777   1.762   2.570  15.660 -0.9871 -2.4720 -0.0539
 7106SOL    HW232778   1.746   2.539  15.803 -1.2275  0.5668 -0.1796
 7107SOL     OW32779   0.277   4.013   1.954 -0.1255 -0.1209 -0.2550
 7107SOL    HW132780   0.258   4.004   1.861  1.4634  1.4841 -0.7341
 7107SOL    HW232781   0.331   4.092   1.958 -0.1344 -0.1164 -0.2195
 7108SOL     OW32782   2.732   2.854  17.376  0.0299 -0.0527  0.0923
 7108SOL    HW132783   2.692   2.935  17.405  0.0081 -0.3416  0.8540
 7108SOL    HW232784   2.784   2.830  17.452  0.5299  1.4765  0.2309
 7109SOL     OW32785   1.337   0.467   1.790 -0.3519  0.5446 -0.2857
 7109SOL    HW132786   1.271   0.435   1.729 -0.7170 -2.0166  1.4175
 7109SOL    HW232787   1.321   0.560   1.778  2.4842  1.0112 -0.6209
 7110SOL     OW32788   0.894   1.514   5.581  0.0006  0.3715  0.1120
 7110SOL    HW132789   0.911   1.514   5.486  1.8855  2.4724  0.4535
 7110SOL    HW232790   0.894   1.421   5.604  0.7553 -0.4547 -3.1224
 7111SOL     OW32791   2.660   3.117   3.857 -0.1141  0.7907 -0.6594
 7111SOL    HW132792   2.589   3.104   3.794  0.6752  1.6100 -1.7208
 7111SOL    HW232793   2.613   3.098   3.938 -0.6121  2.9573 -0.4271
 7112SOL     OW32794   1.184   4.570   3.622 -0.4687  0.5231  0.0913
 7112SOL    HW132795   1.120   4.581   3.693  2.3666  2.4844  2.3338
 7112SOL    HW232796   1.241   4.499   3.651  0.9712  1.4257 -0.5815
 7113SOL     OW32797   1.527   2.194   3.242  0.1329 -0.2073 -0.0599
 7113SOL    HW132798   1.559   2.162   3.157 -0.4955 -0.2806 -0.2704
 7113SOL    HW232799   1.604   2.191   3.298 -0.3724 -2.6400  0.5104
 7114SOL     OW32800   1.767   4.148   3.590  0.0644 -0.2174 -0.5146
 7114SOL    HW132801   1.692   4.146   3.649 -1.7098  1.1316 -2.7475
 7114SOL    HW232802   1.732   4.096   3.518 -3.0849  1.7914 -0.4220
 7115SOL     OW32803   4.419   4.349   5.211  0.9321 -0.0731  0.6188
 7115SOL    HW132804   4.325   4.360   5.200  0.9090 -0.7392  0.0888
 7115SOL    HW232805   4.421   4.261   5.172  0.0973  0.8206 -1.4284
 7116SOL     OW32806   3.127   2.932   1.904 -0.0454 -0.0847  0.6469
 7116SOL    HW132807   3.182   2.887   1.839 -0.8512  1.6953 -1.2672
 7116SOL    HW232808   3.051   2.878   1.921 -1.3298  1.7291  0.6895
 7117SOL     OW32809   3.440   3.056   9.193 -0.3034  0.0601 -0.0766
 7117SOL    HW132810   3.529   3.063   9.226 -0.3477 -0.7735  0.2235
 7117SOL    HW232811   3.450   2.971   9.151  1.8548  0.9600 -1.3361
 7118SOL     OW32812   3.393   1.804   9.503 -0.0545 -0.2084 -0.1957
 7118SOL    HW132813   3.365   1.714   9.518 -0.6597 -0.2254 -1.4247
 7118SOL    HW232814   3.317   1.849   9.540 -1.7783 -2.3329 -1.1259
 7119SOL     OW32815   0.926   3.250  12.112 -0.2940  0.0130  0.1434
 7119SOL    HW132816   0.913   3.323  12.172  0.0733 -0.0671  0.3208
 7119SOL    HW232817   0.878   3.180  12.157  0.9898 -0.3892  0.8753
 7120SOL     OW32818   1.012   0.005   8.733 -0.0389  0.0101  0.4117
 7120SOL    HW132819   0.994   4.661   8.671 -3.8480 -0.1185  1.6414
 7120SOL    HW232820   1.028   0.076   8.671  0.3267 -0.4980 -0.0836
 7121SOL     OW32821   4.409   3.006   9.016 -0.7230  0.5622  0.2683
 7121SOL    HW132822   4.335   2.954   9.047  0.4303 -1.8620 -0.9725
 7121SOL    HW232823   4.455   3.024   9.097 -0.4326  1.4197 -0.0862
 7122SOL     OW32824   0.748   2.856  15.331 -0.1336  0.0169 -0.4676
 7122SOL    HW132825   0.831   2.810  15.346  0.3232  1.2624  0.8219
 7122SOL    HW232826   0.775   2.945  15.309 -0.7083 -0.3118 -2.4696
 7123SOL     OW32827   0.190   3.011   4.666 -0.4758 -0.6025  0.2013
 7123SOL    HW132828   0.257   2.967   4.615 -0.0213  0.1120  0.1809
 7123SOL    HW232829   0.144   3.057   4.596  1.8345 -1.5401 -1.9539
 7124SOL     OW32830   1.607   3.277   7.851  0.4894  0.6644 -0.8050
 7124SOL    HW132831   1.633   3.240   7.935 -0.2846  0.1534 -0.7878
 7124SOL    HW232832   1.514   3.279   7.871  0.8758  4.1718  0.6919
 7125SOL     OW32833   3.923   2.259   3.478 -0.0008 -0.2679  0.5429
 7125SOL    HW132834   3.842   2.238   3.525  0.0632  0.1188  0.8268
 7125SOL    HW232835   3.946   2.172   3.444  2.2864  0.1727  0.9543
 7126SOL     OW32836   0.134   3.509   4.571 -0.4257  0.0128 -0.3278
 7126SOL    HW132837   0.177   3.427   4.545  1.2322  1.0678 -0.8849
 7126SOL    HW232838   0.208   3.559   4.603 -1.6225  1.1937  0.5647
 7127SOL     OW32839   4.239   4.614   3.426 -0.2599  0.5533  0.0245
 7127SOL    HW132840   4.329   4.624   3.394  0.1645 -2.0175  0.4260
 7127SOL    HW232841   4.200   4.702   3.422 -1.3198  0.0977  0.4819
 7128SOL     OW32842   2.364   2.508   3.453 -0.0318  0.2173 -0.9009
 7128SOL    HW132843   2.405   2.595   3.448 -0.8382  0.5306 -1.8810
 7128SOL    HW232844   2.370   2.485   3.546  1.8940 -0.0933 -1.0985
 7129SOL     OW32845   1.889   3.533  12.947  0.2666  0.1933 -0.4408
 7129SOL    HW132846   1.803   3.536  12.988  0.6006 -2.4784  0.4191
 7129SOL    HW232847   1.899   3.628  12.945 -1.5679  0.4260  0.9921
 7130SOL     OW32848   0.803   0.581   2.902  0.4362 -0.3528 -0.1564
 7130SOL    HW132849   0.781   0.668   2.934 -0.3687  0.6324 -3.3306
 7130SOL    HW232850   0.724   0.547   2.861  0.0788  1.2057 -0.7653
 7131SOL     OW32851   1.922   4.186  11.657  0.5751 -0.2917  0.0567
 7131SOL    HW132852   1.846   4.227  11.698  0.1094 -0.8771 -0.2291
 7131SOL    HW232853   1.940   4.128  11.731 -0.2133 -0.5638  0.0362
 7132SOL     OW32854   0.504   4.568   7.657 -0.1635  0.4729  0.5057
 7132SOL    HW132855   0.434   4.632   7.654 -1.5961 -1.1251 -0.2569
 7132SOL    HW232856   0.585   4.613   7.633  1.2720 -1.8479  0.9395
 7133SOL     OW32857   1.348   4.345   6.000 -0.3794 -0.4316  0.2468
 7133SOL    HW132858   1.336   4.294   5.920 -0.2756  1.7507 -1.1757
 7133SOL    HW232859   1.439   4.318   6.013 -0.6107 -0.2489  2.1700
 7134SOL     OW32860   1.257   3.656   8.915 -0.0314 -0.2165  0.3195
 7134SOL    HW132861   1.321   3.684   8.980 -1.3053  3.1042  0.1274
 7134SOL    HW232862   1.242   3.570   8.953  1.3900  0.0787  1.5517
 7135SOL     OW32863   0.099   3.519   8.028 -0.2956 -0.1602 -0.0405
 7135SOL    HW132864   0.158   3.588   8.057  0.8337 -0.8769 -0.6263
 7135SOL    HW232865   0.115   3.466   8.107  2.7738 -0.8388 -1.1289
 7136SOL     OW32866   2.019   3.653  13.260  0.4382 -0.0556 -0.1710
 7136SOL    HW132867   1.930   3.656  13.226  0.3417 -0.0532  0.0798
 7136SOL    HW232868   2.019   3.658  13.356 -2.5362  1.8249 -0.2915
 7137SOL     OW32869   0.529   3.932   1.245 -0.6023 -0.5798  0.4798
 7137SOL    HW132870   0.499   3.959   1.159 -0.9731  2.6274  1.6300
 7137SOL    HW232871   0.625   3.935   1.240 -0.7957  2.1510 -1.1864
 7138SOL     OW32872   3.016   1.529   1.225 -0.4060 -0.2206 -0.0044
 7138SOL    HW132873   3.112   1.522   1.221 -0.2275  2.5025 -0.6930
 7138SOL    HW232874   3.002   1.507   1.317 -0.3447  0.5924  0.1986
 7139SOL     OW32875   1.788   1.422   8.080  0.2002  0.3599 -0.0998
 7139SOL    HW132876   1.833   1.483   8.140  1.1517 -0.8273  0.3813
 7139SOL    HW232877   1.713   1.481   8.068  0.2024  0.5718  0.9235
 7140SOL     OW32878   1.658   0.772  12.938 -0.1116 -1.0927 -0.0577
 7140SOL    HW132879   1.721   0.823  12.989  0.6601 -0.5656 -1.5241
 7140SOL    HW232880   1.578   0.783  12.989  0.9512 -0.0326  1.3833
 7141SOL     OW32881   1.940   1.403   4.672 -0.6106  0.1573 -0.3477
 7141SOL    HW132882   1.947   1.407   4.577 -0.0771  1.5737 -0.2479
 7141SOL    HW232883   1.931   1.496   4.692  1.4054  0.4806 -0.9780
 7142SOL     OW32884   2.510   4.150  14.506  0.0945  0.4488 -0.3180
 7142SOL    HW132885   2.452   4.226  14.502 -1.1596 -0.5153 -0.0280
 7142SOL    HW232886   2.500   4.125  14.414 -0.7635 -0.6323  0.0766
 7143SOL     OW32887   0.980   3.690  17.138  0.6943  0.3184 -0.2364
 7143SOL    HW132888   0.924   3.767  17.132  1.1254  0.9104  3.1407
 7143SOL    HW232889   0.911   3.628  17.160  0.1409  0.7124 -0.8604
 7144SOL     OW32890   0.831   1.545   4.163  0.3949 -0.1740 -0.0631
 7144SOL    HW132891   0.801   1.611   4.100 -0.3985 -1.1217 -0.6841
 7144SOL    HW232892   0.763   1.481   4.140 -1.7828  1.8101  0.9052
 7145SOL     OW32893   1.388   3.020   6.044  0.0887  0.3960  0.3020
 7145SOL    HW132894   1.323   3.086   6.066 -2.0509 -2.1544  1.5713
 7145SOL    HW232895   1.333   2.943   6.033  0.8010  0.4539 -3.6613
 7146SOL     OW32896   2.994   4.046   1.800  0.5111  0.2125 -0.0763
 7146SOL    HW132897   3.014   3.954   1.815 -2.3407 -0.1402  1.5584
 7146SOL    HW232898   2.988   4.074   1.891 -0.8680  1.7641 -0.6438
 7147SOL     OW32899   0.139   1.151   6.156 -0.0068 -0.0707  0.1114
 7147SOL    HW132900   0.137   1.065   6.114  0.0252  0.6816 -1.4492
 7147SOL    HW232901   0.210   1.133   6.217 -1.7039 -0.1513  2.0577
 7148SOL     OW32902   0.861   1.368  15.717  0.1866 -0.5482 -0.1266
 7148SOL    HW132903   0.812   1.450  15.719  1.0146 -0.0720  0.5901
 7148SOL    HW232904   0.914   1.384  15.795 -0.0394 -1.0363  0.1294
 7149SOL     OW32905   3.788   3.428   8.173  0.5826  0.5417 -0.4849
 7149SOL    HW132906   3.811   3.461   8.260  0.2245 -1.7267  0.4811
 7149SOL    HW232907   3.721   3.368   8.206 -0.2519  1.7741  0.0817
 7150SOL     OW32908   0.530   2.267   5.067 -0.4495 -0.9081 -0.0649
 7150SOL    HW132909   0.486   2.218   4.997 -0.5524 -3.2722  1.6493
 7150SOL    HW232910   0.619   2.233   5.074  0.1119  1.2835  3.3709
 7151SOL     OW32911   3.526   4.354   5.606 -0.0072  0.0591  0.2990
 7151SOL    HW132912   3.555   4.343   5.516  0.9725 -0.9317  0.7368
 7151SOL    HW232913   3.433   4.343   5.589  0.0487 -0.5385  0.3658
 7152SOL     OW32914   3.324   1.712  10.160 -0.0116  0.0425  0.3901
 7152SOL    HW132915   3.262   1.704  10.233 -0.9802 -0.5356 -0.5081
 7152SOL    HW232916   3.313   1.804  10.137  0.1677  0.2677  1.1782
 7153SOL     OW32917   3.842   1.207   2.996 -0.0026 -0.4462  0.0205
 7153SOL    HW132918   3.906   1.165   2.938 -0.8928 -0.7635 -0.7313
 7153SOL    HW232919   3.896   1.244   3.065 -1.0187  1.6473 -0.2822
 7154SOL     OW32920   3.637   3.131   4.180 -0.1882 -0.3594 -0.4959
 7154SOL    HW132921   3.672   3.116   4.092  0.9472 -0.5626 -0.0050
 7154SOL    HW232922   3.600   3.043   4.188  1.4596 -1.0051  0.0050
 7155SOL     OW32923   1.181   2.784   3.517 -0.0540 -0.0206  0.6821
 7155SOL    HW132924   1.143   2.819   3.437 -0.8332 -0.1341  1.0041
 7155SOL    HW232925   1.125   2.709   3.540 -1.5784  0.6845 -0.7084
 7156SOL     OW32926   1.946   0.399   5.666  0.4195 -0.6859  0.1877
 7156SOL    HW132927   1.943   0.317   5.714 -0.1313 -0.1956  0.9937
 7156SOL    HW232928   1.980   0.458   5.734 -0.4094  0.3825 -0.3241
 7157SOL     OW32929   4.557   4.539   0.445  0.2500  0.1649 -0.1306
 7157SOL    HW132930   4.636   4.575   0.484 -1.4424  3.6022  0.1617
 7157SOL    HW232931   4.518   4.487   0.514  2.4784  1.4344  2.0762
 7158SOL     OW32932   2.976   1.687   6.879  0.4351  0.5680 -0.0718
 7158SOL    HW132933   2.963   1.608   6.931  1.2294 -0.1533 -0.9817
 7158SOL    HW232934   2.936   1.654   6.798  3.1889  1.1760 -1.6534
 7159SOL     OW32935   3.831   4.167  16.432  0.3396 -0.1581  0.1723
 7159SOL    HW132936   3.794   4.180  16.519 -0.8036 -1.6825 -0.0906
 7159SOL    HW232937   3.828   4.259  16.407 -0.7125 -0.5558 -1.2155
 7160SOL     OW32938   1.087   1.889   7.428  0.5186  0.3048  0.0211
 7160SOL    HW132939   1.170   1.897   7.381 -0.2905  1.8184 -1.1565
 7160SOL    HW232940   1.116   1.905   7.517  1.0471 -0.4825 -0.0113
 7161SOL     OW32941   0.771   1.777   2.761 -0.3344 -0.2295 -0.0812
 7161SOL    HW132942   0.843   1.840   2.759 -1.7770  1.3634 -2.1374
 7161SOL    HW232943   0.794   1.718   2.689  0.5863  1.5889 -1.2595
 7162SOL     OW32944   1.936   3.544  16.484  0.9110 -0.1575  0.3795
 7162SOL    HW132945   1.847   3.543  16.448  0.1844  1.2033  2.1904
 7162SOL    HW232946   1.951   3.450  16.479 -0.9083 -0.4218 -0.1197
 7163SOL     OW32947   3.972   3.473  12.674 -0.0065 -0.1562  0.1757
 7163SOL    HW132948   4.000   3.520  12.596  1.5442  0.3427  1.0233
 7163SOL    HW232949   3.898   3.429  12.634  0.0051 -0.3329  0.3468
 7164SOL     OW32950   3.784   0.726   9.376  0.4804 -0.2335  0.3305
 7164SOL    HW132951   3.738   0.809   9.370 -1.1032 -1.1617 -0.3760
 7164SOL    HW232952   3.769   0.705   9.468  0.2609 -1.9974 -0.0930
 7165SOL     OW32953   3.340   1.842  13.827  0.2663 -0.5077  0.1405
 7165SOL    HW132954   3.380   1.759  13.801  0.9471 -0.3496  0.6784
 7165SOL    HW232955   3.376   1.901  13.760  0.6036  0.3292  1.0721
 7166SOL     OW32956   2.854   4.022   2.309  0.0671 -0.5970  0.2209
 7166SOL    HW132957   2.913   4.092   2.336 -0.4479 -0.0769 -0.0011
 7166SOL    HW232958   2.836   3.987   2.397  2.9234  1.6350  1.6706
 7167SOL     OW32959   1.890   0.741   2.785 -0.1918 -0.4295 -0.1330
 7167SOL    HW132960   1.826   0.808   2.809 -0.7220 -0.4572 -1.5389
 7167SOL    HW232961   1.837   0.666   2.760  0.8054 -1.0211 -0.4645
 7168SOL     OW32962   2.906   1.790   1.450 -0.0011  0.3667 -0.0292
 7168SOL    HW132963   2.943   1.847   1.383  0.0795  1.0290  0.5811
 7168SOL    HW232964   2.935   1.701   1.427  1.5074  0.9549 -0.4337
 7169SOL     OW32965   2.955   1.200  16.641 -0.2129 -0.4226 -1.1293
 7169SOL    HW132966   2.914   1.115  16.659  2.9469 -2.1358 -1.8479
 7169SOL    HW232967   2.895   1.226  16.571  1.2712  1.2853 -1.7590
 7170SOL     OW32968   4.258   0.973   4.339 -0.1027 -0.3801 -0.4048
 7170SOL    HW132969   4.282   1.046   4.281 -0.5648  0.1413  0.0535
 7170SOL    HW232970   4.194   0.933   4.280 -1.5822  0.1994  0.8246
 7171SOL     OW32971   3.801   4.174   5.399  0.0307 -0.0204 -0.1416
 7171SOL    HW132972   3.865   4.169   5.471 -0.3476 -1.0431  0.1265
 7171SOL    HW232973   3.858   4.142   5.328  1.1240  1.5244  0.0416
 7172SOL     OW32974   0.583   3.638   2.045  0.4485 -0.0855  0.0222
 7172SOL    HW132975   0.511   3.585   2.011 -0.0881  1.3040 -1.0185
 7172SOL    HW232976   0.585   3.707   1.979 -0.8339  2.1956  2.3555
 7173SOL     OW32977   2.442   1.096   6.239 -0.9502 -0.4684 -0.1937
 7173SOL    HW132978   2.528   1.117   6.201 -2.8155  1.0715 -3.5189
 7173SOL    HW232979   2.462   1.085   6.332 -1.4071 -0.2562 -0.0757
 7174SOL     OW32980   0.609   0.521   4.805 -0.5094 -0.2782  0.0167
 7174SOL    HW132981   0.581   0.456   4.740 -0.0181  1.0671 -1.5234
 7174SOL    HW232982   0.662   0.466   4.863  1.5787  2.3645  0.5760
 7175SOL     OW32983   0.262   4.481  17.672  0.3485 -0.6284 -0.3281
 7175SOL    HW132984   0.282   4.389  17.657  0.3353 -0.5423 -0.8690
 7175SOL    HW232985   0.169   4.467  17.691  0.5380 -0.9694  0.3601
 7176SOL     OW32986   0.243   1.430   1.861 -0.1537  0.1862 -0.3192
 7176SOL    HW132987   0.254   1.396   1.772 -0.2240 -1.4516  0.2976
 7176SOL    HW232988   0.150   1.413   1.876 -0.0563 -0.4648 -0.4634
 7177SOL     OW32989   2.166   1.004   6.316  0.0713 -0.3326 -0.9725
 7177SOL    HW132990   2.235   1.063   6.288 -0.6229  1.0005  0.1484
 7177SOL    HW232991   2.201   0.922   6.282 -1.5010 -0.2300 -2.8361
 7178SOL     OW32992   2.449   2.048   7.103 -0.2240 -0.0498 -0.0574
 7178SOL    HW132993   2.407   1.991   7.038 -0.0485 -0.7224  0.4223
 7178SOL    HW232994   2.463   2.119   7.040  1.5779  0.3591  0.8083
 7179SOL     OW32995   2.660   3.124  11.536  0.0824  0.5865  0.0693
 7179SOL    HW132996   2.675   3.147  11.445  2.1754  2.4172  0.8603
 7179SOL    HW232997   2.609   3.199  11.567 -0.6355  0.7469 -1.4938
 7180SOL     OW32998   1.440   2.088   4.108 -0.4386  0.3157 -0.3446
 7180SOL    HW132999   1.403   2.123   4.189 -0.0776  0.7619 -0.3749
 7180SOL    HW233000   1.492   2.018   4.147  0.0300  0.5906 -0.4789
 7181SOL     OW33001   0.625   2.254   2.863 -0.2656 -0.1380  0.0622
 7181SOL    HW133002   0.618   2.212   2.777  0.6626  0.6040 -0.3781
 7181SOL    HW233003   0.694   2.202   2.904 -0.9683 -0.3912  0.9196
 7182SOL     OW33004   4.022   0.438   1.623 -0.0574 -0.2879  0.3552
 7182SOL    HW133005   4.028   0.358   1.572 -0.6445  0.5452 -1.0297
 7182SOL    HW233006   4.112   0.462   1.646  0.4810 -0.4657 -1.5313
 7183SOL     OW33007   2.976   3.034   8.942  0.0130 -0.3069  0.5505
 7183SOL    HW133008   2.964   2.967   8.874 -1.1121  0.1495  0.2990
 7183SOL    HW233009   3.059   3.078   8.924 -0.9955  1.0434 -0.7867
 7184SOL     OW33010   0.568   1.260  10.851  0.1370  0.5020  0.0186
 7184SOL    HW133011   0.631   1.191  10.831 -1.9114 -1.9494  1.9411
 7184SOL    HW233012   0.497   1.202  10.879  0.8295 -0.2510  0.2197
 7185SOL     OW33013   0.615   4.497   3.718 -0.3460  0.7365  0.0590
 7185SOL    HW133014   0.634   4.426   3.656 -0.8777  1.4602 -0.9448
 7185SOL    HW233015   0.679   4.485   3.788 -1.0738  1.7688  0.8872
 7186SOL     OW33016   0.525   1.132   0.570 -0.3508  0.6018  0.0969
 7186SOL    HW133017   0.611   1.142   0.609  0.8952  1.0558 -2.7599
 7186SOL    HW233018   0.470   1.147   0.646  1.2010 -1.6089  1.6389
 7187SOL     OW33019   3.751   0.708   6.172  0.4528  0.1512 -0.3435
 7187SOL    HW133020   3.805   0.644   6.218  0.4988  0.9702  0.7278
 7187SOL    HW233021   3.799   0.790   6.185  0.7826  0.3159 -2.5188
 7188SOL     OW33022   2.504   0.501  17.209  0.2398 -0.4577  0.6076
 7188SOL    HW133023   2.500   0.502  17.305  1.5831 -2.5012  0.6913
 7188SOL    HW233024   2.597   0.520  17.194  0.0481 -0.7487 -0.8657
 7189SOL     OW33025   2.743   2.551   5.625 -0.6020 -1.0729 -0.3617
 7189SOL    HW133026   2.790   2.469   5.635  0.2004 -0.4547  0.9235
 7189SOL    HW233027   2.775   2.597   5.547  0.6241 -1.8093 -0.2725
 7190SOL     OW33028   3.089   1.684   0.792  0.1931 -0.4779  0.2155
 7190SOL    HW133029   3.131   1.701   0.876  1.5861  1.6605 -0.9132
 7190SOL    HW233030   3.061   1.593   0.805 -0.2663 -0.2282  1.0192
 7191SOL     OW33031   2.261   0.465   2.339  0.0277  0.3878 -0.6484
 7191SOL    HW133032   2.315   0.435   2.266  0.5540 -1.7480  0.5972
 7191SOL    HW233033   2.180   0.428   2.304  0.2036 -0.8801  0.2627
 7192SOL     OW33034   4.431   2.628   1.550  0.1266 -0.2882  0.5271
 7192SOL    HW133035   4.489   2.553   1.531 -2.2025 -1.9173 -0.1096
 7192SOL    HW233036   4.383   2.628   1.467  0.2908 -0.2349  0.4318
 7193SOL     OW33037   0.139   0.500   7.108  0.5268  0.1065 -0.2207
 7193SOL    HW133038   0.119   0.571   7.047 -0.9896 -1.4581 -1.5505
 7193SOL    HW233039   0.108   0.420   7.066  1.6927  0.3417 -1.5552
 7194SOL     OW33040   3.017   1.549   5.583 -0.2068  0.0593 -0.1867
 7194SOL    HW133041   2.980   1.607   5.650 -0.5974  0.4079 -0.7140
 7194SOL    HW233042   3.109   1.575   5.577 -0.2615  0.8290  2.0547
 7195SOL     OW33043   1.013   0.888  17.616 -0.3158 -0.1712  0.6328
 7195SOL    HW133044   0.934   0.893  17.562 -0.1254 -0.8757  0.2986
 7195SOL    HW233045   1.062   0.965  17.587 -0.2419 -0.4691 -0.0416
 7196SOL     OW33046   1.105   4.063   5.155 -0.0416 -0.4914  0.4324
 7196SOL    HW133047   1.163   4.133   5.187  1.1819 -0.8452 -1.0018
 7196SOL    HW233048   1.022   4.103   5.182  0.9701  0.5445  1.9997
 7197SOL     OW33049   4.689   4.592   3.883 -0.1624 -0.6683  0.0533
 7197SOL    HW133050   4.651   4.672   3.848  1.3505 -0.2897 -0.7261
 7197SOL    HW233051   4.627   4.529   3.847 -1.3833  0.0136  0.9832
 7198SOL     OW33052   2.666   2.023   9.781 -0.1478 -0.2562 -0.1867
 7198SOL    HW133053   2.708   1.994   9.700 -0.4193  1.4901 -0.9294
 7198SOL    HW233054   2.576   1.994   9.768  0.4187 -1.8559 -0.6328
 7199SOL     OW33055   3.757   1.341   4.211 -0.2664  0.2882 -0.4559
 7199SOL    HW133056   3.821   1.411   4.202 -1.1752  1.0853 -0.7372
 7199SOL    HW233057   3.822   1.271   4.210 -1.0860 -0.4825  0.1538
 7200SOL     OW33058   2.973   1.295  17.617 -0.0219 -0.2002  0.1722
 7200SOL    HW133059   3.027   1.225  17.580  2.2187  0.3933  2.3513
 7200SOL    HW233060   2.973   1.272   0.004 -2.4058  2.6111  0.8573
 7201SOL     OW33061   3.352   4.002   3.741 -0.3024 -0.3071  0.2714
 7201SOL    HW133062   3.373   4.011   3.648  0.9376 -0.1886  0.5625
 7201SOL    HW233063   3.292   4.076   3.750  1.2621  0.8908  0.8919
 7202SOL     OW33064   3.144   0.397  10.370 -0.3927 -0.0943 -0.4263
 7202SOL    HW133065   3.232   0.421  10.343 -0.3418 -0.0737 -0.2374
 7202SOL    HW233066   3.149   0.315  10.420 -0.4724  0.4327  0.4373
 7203SOL     OW33067   0.508   4.346  17.586  0.1555  0.2085  0.6437
 7203SOL    HW133068   0.521   4.387  17.672  0.8942  0.6368  0.3297
 7203SOL    HW233069   0.596   4.344  17.548 -0.6069  1.9327 -1.2297
 7204SOL     OW33070   0.469   3.761   2.277  0.0685 -1.0362 -0.4203
 7204SOL    HW133071   0.537   3.717   2.226 -0.1461 -0.5174 -1.1431
 7204SOL    HW233072   0.399   3.781   2.216 -0.5863 -0.6225  0.4584
 7205SOL     OW33073   3.891   4.222   6.386  0.3685  0.1724 -0.2402
 7205SOL    HW133074   3.800   4.241   6.363  0.1291 -1.2115 -0.4029
 7205SOL    HW233075   3.896   4.127   6.383  2.4833  0.2127  1.7499
 7206SOL     OW33076   0.218   1.452   5.712 -0.4918  0.0385 -0.0775
 7206SOL    HW133077   0.274   1.528   5.725  2.0160 -2.2757  2.6985
 7206SOL    HW233078   0.144   1.456   5.773  0.7957  2.0036  1.3337
 7207SOL     OW33079   2.202   1.896   6.657 -0.1240  0.0344  0.3664
 7207SOL    HW133080   2.257   1.940   6.592 -0.2302 -0.8779 -0.3381
 7207SOL    HW233081   2.227   1.805   6.646  0.4011  0.8591 -5.0366
 7208SOL     OW33082   3.733   4.106   9.098 -0.4083 -0.1761 -0.3246
 7208SOL    HW133083   3.691   4.093   9.183 -3.0279  0.5802 -1.4836
 7208SOL    HW233084   3.696   4.035   9.045 -1.7839 -1.8971  2.9879
 7209SOL     OW33085   1.661   1.924  11.373  0.1615  0.1394  0.7157
 7209SOL    HW133086   1.715   1.914  11.451  0.3487 -2.2760  0.2674
 7209SOL    HW233087   1.569   1.918  11.398  0.5716 -2.1799  1.6595
 7210SOL     OW33088   4.671   3.349   4.963  0.0325  0.1393  0.1913
 7210SOL    HW133089   4.725   3.337   5.042 -0.8004  0.9738  0.8872
 7210SOL    HW233090   4.587   3.358   5.007 -0.7151 -0.3405 -1.1672
 7211SOL     OW33091   0.449   1.186   6.780  0.2322  0.1013  0.0838
 7211SOL    HW133092   0.483   1.229   6.859  0.4849 -0.5730  0.3414
 7211SOL    HW233093   0.379   1.247   6.759  2.8845  3.5566  1.3054
 7212SOL     OW33094   1.699   2.087  16.556  0.5595  0.5309  0.1391
 7212SOL    HW133095   1.636   2.015  16.559 -0.8175  1.6867 -0.8405
 7212SOL    HW233096   1.732   2.093  16.646  0.9683  1.8834 -0.0965
 7213SOL     OW33097   4.370   2.440  15.402  0.2603 -0.0656  0.1111
 7213SOL    HW133098   4.388   2.345  15.405  0.4508  0.0253  2.2188
 7213SOL    HW233099   4.457   2.477  15.384  0.4124 -0.4297  0.0921
 7214SOL     OW33100   1.944   2.856   3.153  0.3642 -0.1042 -0.2817
 7214SOL    HW133101   1.858   2.828   3.121  0.1210 -2.1281  2.1621
 7214SOL    HW233102   1.927   2.880   3.244  3.3490  3.6362 -0.7340
 7215SOL     OW33103   2.536   3.271   2.121  0.4778  0.0066 -0.7182
 7215SOL    HW133104   2.557   3.183   2.149  0.4827  0.1835 -0.1763
 7215SOL    HW233105   2.622   3.305   2.099  0.2916  1.0424  0.1832
 7216SOL     OW33106   1.703   0.993   2.898 -0.5156 -0.9528  0.1481
 7216SOL    HW133107   1.639   0.921   2.903  0.2252 -1.6276 -0.1096
 7216SOL    HW233108   1.656   1.070   2.866 -1.2895  0.1218  3.8987
 7217SOL     OW33109   4.377   4.296   2.324  0.2341  0.3482 -0.0447
 7217SOL    HW133110   4.284   4.320   2.333  0.6658  0.9913  2.8765
 7217SOL    HW233111   4.370   4.201   2.332 -2.3363  0.5747  0.4636
 7218SOL     OW33112   2.422   0.366   0.914  0.7579 -0.5357  0.1475
 7218SOL    HW133113   2.514   0.385   0.900  0.1476  1.2298 -1.3781
 7218SOL    HW233114   2.386   0.423   0.846 -3.1136 -2.4081  0.6227
 7219SOL     OW33115   0.205   1.255   5.306 -0.1154 -0.1336 -0.0316
 7219SOL    HW133116   0.232   1.264   5.215 -0.5416  1.5910  0.0001
 7219SOL    HW233117   0.212   1.344   5.342  1.3324 -0.4635  0.4916
 7220SOL     OW33118   4.298   0.779   7.666 -0.9507 -0.0232  0.0144
 7220SOL    HW133119   4.304   0.866   7.706  0.0021  0.5906 -1.4416
 7220SOL    HW233120   4.235   0.792   7.594 -0.8622  0.0906 -0.0435
 7221SOL     OW33121   3.751   0.112  16.293 -0.1420  0.8654  0.6407
 7221SOL    HW133122   3.817   0.181  16.299  0.3859  0.4231 -0.1837
 7221SOL    HW233123   3.679   0.167  16.262  0.7626  2.1970  0.8896
 7222SOL     OW33124   1.781   3.055  11.103 -0.3648 -0.3803 -0.1244
 7222SOL    HW133125   1.827   3.012  11.031  1.7413  0.7732  0.5200
 7222SOL    HW233126   1.715   3.097  11.047  0.2787 -0.5515 -1.0149
 7223SOL     OW33127   0.049   4.478   0.759 -0.7617  0.4527  0.0865
 7223SOL    HW133128   0.090   4.437   0.835  1.8928  1.6643 -0.7191
 7223SOL    HW233129   0.099   4.436   0.689  0.9448  0.7524  1.1372
 7224SOL     OW33130   0.699   4.409   4.267 -0.7706 -1.0021  0.3546
 7224SOL    HW133131   0.604   4.406   4.255 -0.7397 -0.4769 -0.0177
 7224SOL    HW233132   0.703   4.374   4.357 -0.5741  0.2147  0.8222
 7225SOL     OW33133   1.691   2.790   6.994 -0.5478 -0.3488  0.3164
 7225SOL    HW133134   1.600   2.771   6.973 -0.8662  0.1236  1.2639
 7225SOL    HW233135   1.700   2.875   7.036  0.1980 -0.3134  0.0930
 7226SOL     OW33136   3.640   2.169  17.552  0.2213 -0.1329 -0.2056
 7226SOL    HW133137   3.588   2.158  17.631 -0.7568 -1.7317 -1.0817
 7226SOL    HW233138   3.665   2.079  17.529 -1.9183 -0.5667 -0.7976
 7227SOL     OW33139   4.458   1.856   3.232 -0.2967 -0.0020  0.2526
 7227SOL    HW133140   4.412   1.809   3.163 -1.5492  0.6823  0.6023
 7227SOL    HW233141   4.546   1.858   3.196 -1.2297 -0.9586 -2.0964
 7228SOL     OW33142   4.458   0.284  14.941  0.0927  0.4177 -0.3390
 7228SOL    HW133143   4.473   0.208  14.998 -0.7991  1.3167  1.0704
 7228SOL    HW233144   4.420   0.344  15.005  0.8484  0.8505 -0.2926
 7229SOL     OW33145   0.478   2.990   2.045  0.2724 -0.7380 -0.3884
 7229SOL    HW133146   0.494   2.907   2.000  1.9166  0.9296 -2.8597
 7229SOL    HW233147   0.386   2.977   2.065 -0.0113  2.2397  0.1587
 7230SOL     OW33148   1.235   3.447   6.112 -0.4577  0.6455  0.4680
 7230SOL    HW133149   1.327   3.444   6.138 -0.2178  1.8487 -0.2263
 7230SOL    HW233150   1.188   3.409   6.186  1.6102 -1.1856  0.8257
 7231SOL     OW33151   4.564   2.180   4.139  0.0830  0.5925  0.9099
 7231SOL    HW133152   4.560   2.086   4.157  0.3510  0.2739 -0.7630
 7231SOL    HW233153   4.631   2.217   4.197  0.0936  1.5914  0.2659
 7232SOL     OW33154   1.918   4.128   6.077  0.0704  0.3884  0.0537
 7232SOL    HW133155   1.854   4.190   6.112 -1.9003 -1.5480 -0.1374
 7232SOL    HW233156   1.894   4.117   5.985 -0.8267 -2.6258  0.6669
 7233SOL     OW33157   1.665   2.377   4.070  0.5686  0.1454 -0.4836
 7233SOL    HW133158   1.612   2.366   4.149  0.5480 -2.1330 -0.7978
 7233SOL    HW233159   1.636   2.463   4.039 -0.4522 -0.5100 -1.3551
 7234SOL     OW33160   0.154   3.260   7.430  0.4577  0.8390  0.6049
 7234SOL    HW133161   0.196   3.250   7.515 -0.6852 -1.1294  0.9204
 7234SOL    HW233162   0.234   3.291   7.386 -0.1051  1.6039  0.1080
 7235SOL     OW33163   0.583   2.782  17.555 -0.2935  0.8327 -0.4254
 7235SOL    HW133164   0.561   2.689  17.546 -0.5046  0.8101  0.3671
 7235SOL    HW233165   0.510   2.829  17.515 -0.7653  1.0793  0.7283
 7236SOL     OW33166   1.438   1.866   8.453 -0.2018 -0.0531 -0.3055
 7236SOL    HW133167   1.484   1.790   8.420  0.8419 -0.8605  2.9588
 7236SOL    HW233168   1.349   1.838   8.472 -0.0213  0.2142  0.9980
 7237SOL     OW33169   0.637   1.797   1.661  0.1137 -0.2874  0.3859
 7237SOL    HW133170   0.622   1.890   1.674  2.4208 -0.0239  1.1419
 7237SOL    HW233171   0.551   1.759   1.640  0.2553  0.0026 -0.6886
 7238SOL     OW33172   0.163   1.134   8.098  0.9303 -0.3194  0.2963
 7238SOL    HW133173   0.210   1.138   8.015 -0.8155 -0.0292 -0.6933
 7238SOL    HW233174   0.073   1.119   8.068  0.5707 -0.8808  1.6550
 7239SOL     OW33175   0.428   2.686   8.817  0.1126 -0.0980 -0.4526
 7239SOL    HW133176   0.398   2.601   8.785 -0.9501 -0.3861  1.3386
 7239SOL    HW233177   0.507   2.662   8.866  0.5599  1.1585 -0.5638
 7240SOL     OW33178   0.197   2.249  16.606  0.7104  0.5586 -0.2956
 7240SOL    HW133179   0.140   2.325  16.597  0.2414 -0.0603 -2.6848
 7240SOL    HW233180   0.230   2.271  16.693 -0.9698 -1.2850  0.8223
 7241SOL     OW33181   0.041   2.606   6.065  0.1550 -0.0365 -0.3213
 7241SOL    HW133182   0.090   2.545   6.121 -0.6857 -1.6818 -1.3694
 7241SOL    HW233183   0.116   2.637   6.014 -1.2657  0.2802 -2.1904
 7242SOL     OW33184   3.614   0.696  17.314 -0.2435  0.1560  0.7071
 7242SOL    HW133185   3.521   0.705  17.291  0.5620  0.6674 -2.3497
 7242SOL    HW233186   3.646   0.621  17.264  1.0171  0.6576  0.7643
 7243SOL     OW33187   4.126   0.596   3.806 -0.5913 -0.6201 -0.1432
 7243SOL    HW133188   4.153   0.525   3.864  0.7640  1.5583  1.9235
 7243SOL    HW233189   4.033   0.588   3.787 -0.5752 -0.0709 -0.4476
 7244SOL     OW33190   3.752   3.980   4.013  0.1390 -0.0246  0.0350
 7244SOL    HW133191   3.836   3.945   3.983 -0.8232 -1.1050 -1.4470
 7244SOL    HW233192   3.789   4.059   4.052 -0.9772  0.2391  0.5501
 7245SOL     OW33193   1.748   4.616   9.300 -0.0487  0.0840 -0.3952
 7245SOL    HW133194   1.684   4.673   9.257  1.6422  2.4848  0.2531
 7245SOL    HW233195   1.733   4.638   9.392  0.0460  0.0422 -0.3699
 7246SOL     OW33196   4.486   1.471  10.304  0.0722 -0.1532 -0.0583
 7246SOL    HW133197   4.422   1.444  10.371 -0.3593 -0.4626 -0.5987
 7246SOL    HW233198   4.458   1.562  10.293  1.8753  0.2586 -1.0661
 7247SOL     OW33199   1.488   3.097   2.788  0.0498  0.2702 -0.2789
 7247SOL    HW133200   1.583   3.083   2.782 -0.1348 -1.2943  0.6136
 7247SOL    HW233201   1.458   3.090   2.697 -1.4457  0.5639  0.2001
 7248SOL     OW33202   0.439   4.284   1.423 -0.3865 -0.5243  0.0577
 7248SOL    HW133203   0.481   4.336   1.354  1.6838 -1.1146  0.8531
 7248SOL    HW233204   0.480   4.311   1.505 -0.3252  2.0743 -0.8311
 7249SOL     OW33205   4.188   2.814   2.809 -0.1638  0.4490 -0.0821
 7249SOL    HW133206   4.116   2.840   2.866  0.2436  0.4767  0.4139
 7249SOL    HW233207   4.207   2.895   2.761  1.7302  0.2429  0.3259
 7250SOL     OW33208   3.925   0.782   6.831 -0.0491  0.3820  0.5877
 7250SOL    HW133209   3.879   0.796   6.914 -1.9309  0.4282 -0.4623
 7250SOL    HW233210   3.997   0.733   6.871 -1.6999 -0.6138  2.4015
 7251SOL     OW33211   3.929   1.067   8.506 -0.1208  0.0595 -0.1522
 7251SOL    HW133212   4.023   1.083   8.498  0.3733 -1.2894  2.8661
 7251SOL    HW233213   3.924   0.972   8.513 -0.9371  0.0856 -0.3440
 7252SOL     OW33214   2.080   1.823  12.240  0.1668  0.5261 -0.2427
 7252SOL    HW133215   2.052   1.732  12.247 -0.6320  0.6516 -2.0279
 7252SOL    HW233216   2.167   1.811  12.202  0.0706 -0.8980 -0.0203
 7253SOL     OW33217   3.962   2.110   4.459  0.1873 -0.5169 -0.4139
 7253SOL    HW133218   3.998   2.162   4.387 -2.0129  0.6696 -0.6756
 7253SOL    HW233219   3.999   2.022   4.457  1.8879  0.1571  1.6606
 7254SOL     OW33220   2.753   3.096   2.868 -0.3875 -0.1984  0.0286
 7254SOL    HW133221   2.744   3.081   2.774 -0.2205 -1.4975  0.2234
 7254SOL    HW233222   2.788   3.185   2.866 -0.0342 -0.3721 -1.7563
 7255SOL     OW33223   4.530   0.927  12.114 -0.2501 -0.3410 -0.0703
 7255SOL    HW133224   4.473   0.986  12.064  1.9432  1.2491 -0.6798
 7255SOL    HW233225   4.545   0.994  12.180 -1.0314 -2.7151  2.5283
 7256SOL     OW33226   3.753   3.597   8.791  0.5405  0.9127  0.1540
 7256SOL    HW133227   3.790   3.509   8.800  1.1871  1.0953 -0.6340
 7256SOL    HW233228   3.721   3.610   8.880 -1.2840  0.6338 -0.4772
 7257SOL     OW33229   1.612   3.898  11.699  0.3799 -0.4785  0.6031
 7257SOL    HW133230   1.525   3.866  11.722  0.9781 -1.4697  1.5084
 7257SOL    HW233231   1.641   3.907  11.789  1.5554 -0.2589  0.1958
 7258SOL     OW33232   3.627   1.638  15.843 -0.2001  0.2366  0.5259
 7258SOL    HW133233   3.718   1.613  15.827  0.1268  2.3871 -0.9434
 7258SOL    HW233234   3.636   1.656  15.936 -0.8031 -1.4412  0.9162
 7259SOL     OW33235   1.969   3.632   8.628 -0.0323 -0.3985 -0.5876
 7259SOL    HW133236   1.904   3.680   8.678  1.2748 -0.4258  1.1375
 7259SOL    HW233237   2.050   3.669   8.664 -1.0213 -0.5450  1.7331
 7260SOL     OW33238   4.017   1.292   1.530 -0.2833  0.0270 -0.2771
 7260SOL    HW133239   4.008   1.339   1.448  1.6680 -1.7205 -1.4858
 7260SOL    HW233240   4.056   1.211   1.497 -0.6367  0.2190 -1.1456
 7261SOL     OW33241   1.946   4.434   0.157  0.6841 -0.0102  0.1017
 7261SOL    HW133242   2.016   4.368   0.154 -0.0437 -0.7532 -0.4932
 7261SOL    HW233243   2.003   4.506   0.131 -0.6621  1.7341  1.9847
 7262SOL     OW33244   1.712   0.789   6.719  0.3951  0.0286  0.7077
 7262SOL    HW133245   1.705   0.860   6.655  1.9874 -2.7907 -2.6203
 7262SOL    HW233246   1.632   0.741   6.700  1.2644 -1.6967  1.3906
 7263SOL     OW33247   2.977   1.166   3.562 -0.7443 -0.2528  0.5459
 7263SOL    HW133248   3.008   1.206   3.644  2.1431  0.5461 -0.9647
 7263SOL    HW233249   2.955   1.077   3.588 -0.6268  0.1691  2.1165
 7264SOL     OW33250   3.263   2.482   4.862 -0.2698 -0.3234 -1.0238
 7264SOL    HW133251   3.310   2.408   4.900  1.1701  1.1761  0.1248
 7264SOL    HW233252   3.271   2.544   4.935 -1.7743  1.0412 -2.0285
 7265SOL     OW33253   3.126   1.917   6.054 -0.5466 -0.7838  0.2251
 7265SOL    HW133254   3.220   1.915   6.072 -0.2195 -0.4237 -1.3652
 7265SOL    HW233255   3.101   1.854   6.121 -1.0645  1.0151  1.7271
 7266SOL     OW33256   3.454   1.445   9.025  0.1933  0.0578  0.2505
 7266SOL    HW133257   3.476   1.514   9.087 -2.3555  2.2351 -1.2132
 7266SOL    HW233258   3.533   1.444   8.971 -0.9975  0.8936 -1.5363
 7267SOL     OW33259   4.717   0.649   6.606  0.1578  0.0092  0.3039
 7267SOL    HW133260   4.629   0.650   6.568  0.4940  3.5053 -0.4331
 7267SOL    HW233261   0.000   0.565   6.649 -3.5287  0.4521  1.9897
 7268SOL     OW33262   3.966   3.544   9.711 -0.4036  0.3823  0.2901
 7268SOL    HW133263   3.980   3.635   9.686  1.2409  0.0387 -0.0379
 7268SOL    HW233264   3.927   3.501   9.636  1.6631  0.2074 -0.6860
 7269SOL     OW33265   0.728   2.855   2.279 -0.3086 -0.1039  0.5850
 7269SOL    HW133266   0.734   2.947   2.305 -2.2013 -0.4367  2.2953
 7269SOL    HW233267   0.818   2.829   2.299 -0.4655 -1.2748 -0.2576
 7270SOL     OW33268   3.213   2.367   0.373  0.0228  0.3661  0.2211
 7270SOL    HW133269   3.256   2.314   0.306  1.0012  1.8568 -0.3118
 7270SOL    HW233270   3.150   2.413   0.317  0.7552  1.3888  0.2443
 7271SOL     OW33271   1.027   2.478  13.506 -0.6975  0.8748  0.3167
 7271SOL    HW133272   0.948   2.433  13.478  0.4963 -1.8357  1.2687
 7271SOL    HW233273   1.096   2.412  13.497 -1.5998 -0.0838  0.4885
 7272SOL     OW33274   0.543   1.021   4.665  0.7235  0.3259 -0.2845
 7272SOL    HW133275   0.463   1.040   4.616 -0.4084  0.6927  1.7131
 7272SOL    HW233276   0.601   1.097   4.657 -0.7382  1.7298  2.6825
 7273SOL     OW33277   1.334   2.375   3.090  0.2988  0.3193  0.8194
 7273SOL    HW133278   1.382   2.293   3.102  0.7007  0.3987 -0.2862
 7273SOL    HW233279   1.386   2.442   3.134 -0.3662  0.1369  1.8952
 7274SOL     OW33280   1.498   4.461  14.966  0.0752  0.0022  0.1739
 7274SOL    HW133281   1.579   4.413  14.985  0.4637  0.9499  0.9052
 7274SOL    HW233282   1.511   4.552  14.992 -0.8275  0.6798 -1.7831
 7275SOL     OW33283   0.057   0.300   3.628  0.7294 -0.1060 -0.0394
 7275SOL    HW133284   0.065   0.356   3.550 -0.5223 -2.2053 -1.6983
 7275SOL    HW233285   0.148   0.286   3.654  1.3392 -1.2782 -2.7629
 7276SOL     OW33286   3.375   3.567   2.903 -0.0917 -0.2524 -0.7706
 7276SOL    HW133287   3.470   3.565   2.889  0.3638 -0.9019  2.3273
 7276SOL    HW233288   3.377   3.546   2.996 -0.7511  1.6897 -0.3084
 7277SOL     OW33289   3.010   3.611  10.766 -0.3214 -0.3914  0.2584
 7277SOL    HW133290   3.018   3.704  10.745 -0.4658 -0.1283  1.3627
 7277SOL    HW233291   3.102   3.585  10.758 -0.0278  1.5817 -2.8160
 7278SOL     OW33292   0.288   4.003   9.662  0.3537 -0.5485  0.5137
 7278SOL    HW133293   0.376   3.977   9.688  0.3166 -0.4019  0.7905
 7278SOL    HW233294   0.265   3.942   9.592 -1.5230 -0.1056  0.7284
 7279SOL     OW33295   3.584   0.743  17.601  0.1032  0.1942 -0.2350
 7279SOL    HW133296   3.489   0.756  17.602  0.0433 -0.2682 -0.0403
 7279SOL    HW233297   3.603   0.702  17.517  1.5130 -0.8436  0.5951
 7280SOL     OW33298   1.909   2.285   6.280 -0.5360  0.3851  0.1691
 7280SOL    HW133299   1.979   2.293   6.345 -2.2708  0.0342  2.0927
 7280SOL    HW233300   1.889   2.192   6.279 -2.1743  0.7720 -2.4610
 7281SOL     OW33301   3.005   0.018   3.774  0.0476 -0.2786 -0.1401
 7281SOL    HW133302   2.941   4.674   3.786  0.3824 -0.0412  2.9234
 7281SOL    HW233303   2.943   0.091   3.774 -2.3322 -2.3063  2.0132
 7282SOL     OW33304   0.782   1.049   6.874  0.5886 -0.6343 -0.2440
 7282SOL    HW133305   0.755   1.046   6.782  0.4220 -2.2555 -0.1459
 7282SOL    HW233306   0.823   0.965   6.895  1.2143 -0.2809 -0.0499
 7283SOL     OW33307   3.591   0.123  12.150  0.0242 -0.1902 -0.1467
 7283SOL    HW133308   3.596   0.069  12.229  2.6276  2.9730  1.8466
 7283SOL    HW233309   3.564   0.058  12.085 -0.1623 -1.1698  0.9185
 7284SOL     OW33310   1.862   3.772   6.170  0.3808 -0.2643  0.0031
 7284SOL    HW133311   1.842   3.815   6.087  1.1518  1.5457  0.7510
 7284SOL    HW233312   1.922   3.837   6.208 -2.9854  3.0123 -0.2721
 7285SOL     OW33313   1.994   0.405  17.633 -0.1762  0.3683  0.0260
 7285SOL    HW133314   1.929   0.475  17.621  2.9315  2.9649 -1.6808
 7285SOL    HW233315   2.064   0.458  17.673  0.4779  0.9700 -1.9307
 7286SOL     OW33316   1.617   3.708   1.824 -0.2282 -0.4486  0.3166
 7286SOL    HW133317   1.711   3.722   1.808 -0.7322  1.9595 -0.5089
 7286SOL    HW233318   1.587   3.793   1.858 -0.5287  0.0722 -1.2741
 7287SOL     OW33319   3.881   1.716   4.192 -0.0865 -0.1515 -0.5729
 7287SOL    HW133320   3.934   1.636   4.197  0.8975  0.4154 -2.0622
 7287SOL    HW233321   3.826   1.705   4.113 -0.2154  0.0448 -0.5098
 7288SOL     OW33322   1.883   3.238   6.801 -0.1334 -0.0407  0.0633
 7288SOL    HW133323   1.913   3.307   6.741  2.3782 -1.0535  0.1581
 7288SOL    HW233324   1.810   3.281   6.845 -0.6505 -0.2825 -0.5617
 7289SOL     OW33325   2.310   2.969   2.204  0.3990 -0.6174 -0.2369
 7289SOL    HW133326   2.218   2.971   2.178  0.1193 -0.5210  0.7374
 7289SOL    HW233327   2.356   2.935   2.127  2.2999  0.2894  0.4942
 7290SOL     OW33328   3.800   4.548  12.089 -0.4408  0.3107 -0.6848
 7290SOL    HW133329   3.741   4.500  12.147  0.9871  0.0117  0.5333
 7290SOL    HW233330   3.731   4.586  12.036 -1.4986  0.5577  0.8540
 7291SOL     OW33331   3.569   1.148   7.649  0.0691  0.3786  0.2090
 7291SOL    HW133332   3.614   1.069   7.678  1.0152  1.3096  1.3131
 7291SOL    HW233333   3.554   1.192   7.733 -0.9031  2.2483 -0.9344
 7292SOL     OW33334   1.348   0.894   5.881 -0.1587 -0.3915 -0.6386
 7292SOL    HW133335   1.355   0.814   5.829 -3.6347 -1.2344  0.1527
 7292SOL    HW233336   1.316   0.857   5.963  2.9298 -0.3547  0.5822
 7293SOL     OW33337   2.914   1.657   5.881  0.3850  0.8013  0.1793
 7293SOL    HW133338   2.930   1.614   5.964  0.6571 -0.2447 -0.4161
 7293SOL    HW233339   2.820   1.646   5.867  0.6442  0.3172 -1.2454
 7294SOL     OW33340   0.627   1.986   9.085 -0.4495 -0.1807  0.1132
 7294SOL    HW133341   0.697   1.986   9.020 -0.8430  0.3612 -0.3064
 7294SOL    HW233342   0.674   1.930   9.147 -0.8725 -1.1378 -0.4244
 7295SOL     OW33343   1.579   1.669  12.256  0.3237 -0.2616 -0.4166
 7295SOL    HW133344   1.575   1.764  12.243 -0.2595 -0.3047 -0.5296
 7295SOL    HW233345   1.512   1.650  12.191 -1.8132  0.6496  1.4847
 7296SOL     OW33346   2.857   1.499   8.526 -0.3519  0.2024 -0.1841
 7296SOL    HW133347   2.822   1.574   8.574 -1.8707  1.1668 -2.8071
 7296SOL    HW233348   2.947   1.523   8.502 -0.9888  1.5961 -1.1857
 7297SOL     OW33349   2.414   0.701   2.111  0.0029 -0.1713 -0.4001
 7297SOL    HW133350   2.379   0.612   2.113 -1.5768  0.4231 -1.6421
 7297SOL    HW233351   2.328   0.743   2.118  0.3655  0.4964  0.1121
 7298SOL     OW33352   1.940   4.189   9.494  0.5200  0.5018 -0.1633
 7298SOL    HW133353   1.892   4.206   9.413 -1.5958  0.9024  1.1681
 7298SOL    HW233354   2.005   4.258   9.490 -0.3317  1.3762  0.9445
 7299SOL     OW33355   1.326   3.827   6.899  0.6124  0.1336 -0.5405
 7299SOL    HW133356   1.293   3.821   6.809 -1.7758  0.8750  0.2796
 7299SOL    HW233357   1.327   3.734   6.922  0.8536 -0.0441 -1.2570
 7300SOL     OW33358   1.800   0.486   4.057  0.1779 -0.2742  0.1259
 7300SOL    HW133359   1.725   0.465   4.113 -2.2317  1.3071 -2.4885
 7300SOL    HW233360   1.862   0.423   4.094  1.7021  0.5912 -0.9542
 7301SOL     OW33361   0.177   3.363   2.649 -0.8836  0.0501 -0.4221
 7301SOL    HW133362   0.263   3.372   2.609 -0.8733 -0.7259 -0.5705
 7301SOL    HW233363   0.138   3.300   2.588  0.7893 -2.2813  0.9339
 7302SOL     OW33364   0.659   3.739   6.493  0.0599  0.0891 -0.0984
 7302SOL    HW133365   0.683   3.805   6.428  3.0983 -0.4309  0.4873
 7302SOL    HW233366   0.718   3.669   6.466 -1.4587 -0.6890 -1.3692
 7303SOL     OW33367   0.726   4.652   1.508  0.0396  0.1916 -0.0599
 7303SOL    HW133368   0.700   0.017   1.491  1.2476  0.6083  0.3383
 7303SOL    HW233369   0.821   4.653   1.518  0.0403 -0.6997 -0.0425
 7304SOL     OW33370   4.264   3.981   2.868 -0.0141 -0.0452  0.4210
 7304SOL    HW133371   4.330   4.036   2.910 -0.1101  0.5662 -0.2410
 7304SOL    HW233372   4.185   3.985   2.921  1.1445  1.4224  2.0205
 7305SOL     OW33373   3.468   0.230  11.313  0.8038  0.3695  0.1917
 7305SOL    HW133374   3.431   0.199  11.230 -0.1176  1.1041  0.3323
 7305SOL    HW233375   3.402   0.224  11.382  0.9969  1.2127  0.4474
 7306SOL     OW33376   2.013   0.776   8.972 -0.0046  0.2420 -0.3842
 7306SOL    HW133377   1.951   0.755   9.041  1.7921 -3.8391  0.0285
 7306SOL    HW233378   2.013   0.871   8.961  0.1365  0.4163  1.1056
 7307SOL     OW33379   4.227   3.372   8.246 -0.1957  0.9568 -0.0056
 7307SOL    HW133380   4.159   3.370   8.178  1.0051  0.1687 -1.1910
 7307SOL    HW233381   4.247   3.464   8.257 -1.1105  1.6248 -3.7271
 7308SOL     OW33382   3.458   1.950   5.278 -0.0206 -0.7035 -0.2451
 7308SOL    HW133383   3.507   1.965   5.359 -0.0805  0.9145 -0.4987
 7308SOL    HW233384   3.422   2.035   5.254 -0.7559 -1.2486 -1.0592
 7309SOL     OW33385   2.122   3.217   4.799 -0.0129 -0.5908 -0.4242
 7309SOL    HW133386   2.199   3.237   4.852  0.2542  2.1191 -1.8122
 7309SOL    HW233387   2.064   3.165   4.855 -1.1660 -0.0731 -1.1260
 7310SOL     OW33388   1.192   3.955   2.887 -0.2064  0.1341  0.6751
 7310SOL    HW133389   1.259   3.887   2.890 -0.9322 -0.5370  1.4452
 7310SOL    HW233390   1.176   3.970   2.793 -0.0603 -1.2572  0.4334
 7311SOL     OW33391   0.983   3.484   9.704 -0.6873 -0.2593 -0.5513
 7311SOL    HW133392   0.986   3.554   9.769 -1.6875 -0.4040 -0.3531
 7311SOL    HW233393   0.935   3.530   9.635 -0.9616 -2.3962 -1.8212
 7312SOL     OW33394   1.354   3.453  10.558 -0.0888  0.2521  0.6943
 7312SOL    HW133395   1.291   3.476  10.627 -3.0631 -0.7414 -1.6854
 7312SOL    HW233396   1.307   3.393  10.501  1.6072  0.3004 -0.7169
 7313SOL     OW33397   0.571   1.480   2.808 -0.1212  0.2161  0.1791
 7313SOL    HW133398   0.485   1.471   2.767 -0.1766  1.9665 -0.0842
 7313SOL    HW233399   0.609   1.491   2.721  1.8775  1.9980  1.2778
 7314SOL     OW33400   0.391   2.182  13.418 -0.0461  0.3164  0.3927
 7314SOL    HW133401   0.359   2.177  13.508  0.6456 -3.1925  0.4339
 7314SOL    HW233402   0.391   2.091  13.390  1.9586  1.4118 -3.2064
 7315SOL     OW33403   0.800   1.605   5.264  0.6012  0.0666  0.2970
 7315SOL    HW133404   0.826   1.683   5.216  1.7448  0.4164  1.4797
 7315SOL    HW233405   0.715   1.631   5.300 -1.0181 -1.3504 -2.5149
 7316SOL     OW33406   1.020   4.060  13.253 -0.6104 -0.5684 -0.3585
 7316SOL    HW133407   1.094   4.120  13.266 -0.1551 -1.4409  1.0153
 7316SOL    HW233408   1.033   3.984  13.310  0.0472  1.0977  1.7191
 7317SOL     OW33409   1.378   1.854   2.019  0.4662 -0.0713  0.2582
 7317SOL    HW133410   1.373   1.838   1.925 -0.2854  1.2277  0.0840
 7317SOL    HW233411   1.286   1.858   2.047  1.2851 -0.8216  3.0470
 7318SOL     OW33412   2.016   2.663   6.319 -0.7025 -0.3486  0.0014
 7318SOL    HW133413   2.006   2.649   6.225 -0.6552  0.4664 -0.1253
 7318SOL    HW233414   2.105   2.631   6.332 -0.7553 -0.3243  0.4399
 7319SOL     OW33415   1.634   4.726  11.592 -0.3664  0.3246  0.1452
 7319SOL    HW133416   1.720   0.003  11.633  0.2499 -0.7029 -1.0482
 7319SOL    HW233417   1.587   0.025  11.672 -3.7798 -3.1364 -0.7348
 7320SOL     OW33418   2.474   2.489  17.164 -0.2879 -0.2205  0.3242
 7320SOL    HW133419   2.488   2.584  17.166 -0.4995 -0.1655 -0.7416
 7320SOL    HW233420   2.557   2.474  17.119 -1.2632 -0.8754 -1.2402
 7321SOL     OW33421   0.905   0.141  11.275  0.1066  0.6018 -0.6000
 7321SOL    HW133422   0.814   0.152  11.246 -0.8229  0.0499  2.1748
 7321SOL    HW233423   0.906   0.170  11.366  1.4364 -0.6120 -0.2356
 7322SOL     OW33424   0.273   3.064   5.127 -0.0033  0.2589 -0.5371
 7322SOL    HW133425   0.239   2.978   5.152  0.5731  0.0046 -0.6430
 7322SOL    HW233426   0.281   3.053   5.032 -0.0121 -0.0679 -0.5003
 7323SOL     OW33427   4.185   1.438   5.435  0.1064  0.1412  0.0067
 7323SOL    HW133428   4.141   1.373   5.380  1.6919 -0.7988 -0.1784
 7323SOL    HW233429   4.183   1.392   5.519  1.7256  1.0464  0.5368
 7324SOL     OW33430   0.123   0.593   4.720  0.2129  0.1590  0.1167
 7324SOL    HW133431   0.183   0.566   4.789 -1.3682  0.8178  1.7410
 7324SOL    HW233432   0.174   0.663   4.679  1.2096 -0.9580 -0.5547
 7325SOL     OW33433   0.884   2.820   8.767  0.0927 -0.1870 -0.0163
 7325SOL    HW133434   0.979   2.804   8.766 -0.2403 -2.1767  0.0706
 7325SOL    HW233435   0.863   2.795   8.677 -0.6708  0.8243 -0.1126
 7326SOL     OW33436   1.906   3.946  13.685  0.3223 -0.0433  0.0359
 7326SOL    HW133437   1.813   3.927  13.697  0.6385 -1.6582 -0.1082
 7326SOL    HW233438   1.909   4.030  13.639 -1.0237  0.8167  1.5109
 7327SOL     OW33439   3.862   2.161   7.049  0.0546  0.0321  0.3909
 7327SOL    HW133440   3.872   2.256   7.048  2.4926 -0.2192  0.4013
 7327SOL    HW233441   3.787   2.151   7.107 -0.8140  1.6543 -0.4567
 7328SOL     OW33442   1.516   0.136   7.512  0.4257  0.3173  0.5340
 7328SOL    HW133443   1.426   0.164   7.491  0.7835 -0.1812 -1.6111
 7328SOL    HW233444   1.494   0.099   7.598 -0.7156  0.2799  0.2252
 7329SOL     OW33445   4.305   3.088   9.305  0.3263  0.3546 -0.1542
 7329SOL    HW133446   4.330   3.023   9.371 -0.6148 -1.0080 -1.1256
 7329SOL    HW233447   4.214   3.113   9.324 -0.5532 -1.3157 -2.1988
 7330SOL     OW33448   2.292   3.682   7.657 -0.4024 -0.4001  0.0905
 7330SOL    HW133449   2.209   3.663   7.702 -0.5114 -1.7879 -0.7143
 7330SOL    HW233450   2.324   3.594   7.674 -0.3612 -0.2113  1.0439
 7331SOL     OW33451   2.449   1.140   4.845  0.4236 -0.0174  0.5913
 7331SOL    HW133452   2.510   1.163   4.775 -1.2319 -0.4290 -0.9765
 7331SOL    HW233453   2.386   1.212   4.846 -0.0485 -0.4340  0.7375
 7332SOL     OW33454   4.283   2.968   0.831 -0.5932 -0.1907 -0.1751
 7332SOL    HW133455   4.268   3.041   0.772 -2.8553  0.7965  1.6624
 7332SOL    HW233456   4.193   2.947   0.855 -0.4691  0.7443  1.0748
 7333SOL     OW33457   4.058   3.999  10.910 -0.4075  0.0637  0.3203
 7333SOL    HW133458   4.065   3.904  10.898  1.9478 -0.0273  2.4800
 7333SOL    HW233459   3.990   4.025  10.847 -0.3149 -1.4449 -0.3956
 7334SOL     OW33460   4.560   4.048   5.386  0.6864 -0.1424 -0.5222
 7334SOL    HW133461   4.569   4.140   5.413 -0.3138 -0.7055  1.7221
 7334SOL    HW233462   4.470   4.026   5.409  1.0321 -1.3542 -0.3522
 7335SOL     OW33463   4.591   1.810   4.794 -0.2204  0.1538  0.2289
 7335SOL    HW133464   4.601   1.895   4.751 -0.3900 -0.0024 -0.1219
 7335SOL    HW233465   4.514   1.827   4.848 -2.3732  1.1210 -3.1160
 7336SOL     OW33466   1.467   0.275   4.453  0.4208 -0.1596 -0.4201
 7336SOL    HW133467   1.468   0.229   4.538  0.4918 -1.1144 -0.9301
 7336SOL    HW233468   1.424   0.206   4.402  1.8580 -1.1505 -0.2913
 7337SOL     OW33469   4.457   3.157   2.507 -0.2883  0.1640 -0.3888
 7337SOL    HW133470   4.547   3.128   2.492 -1.6026 -3.2383 -1.7425
 7337SOL    HW233471   4.427   3.187   2.421  1.3811  0.8382 -0.7484
 7338SOL     OW33472   2.125   3.497   8.427  0.1394  0.2322  0.3028
 7338SOL    HW133473   2.063   3.537   8.489  1.1654  1.4518  0.5298
 7338SOL    HW233474   2.196   3.481   8.489 -2.9546 -2.1355  3.2472
 7339SOL     OW33475   2.243   2.256   4.291 -1.4487  0.7315 -0.5203
 7339SOL    HW133476   2.221   2.230   4.202 -0.5319 -0.2257 -0.4695
 7339SOL    HW233477   2.193   2.335   4.311 -1.8038  0.2027  0.7290
 7340SOL     OW33478   2.387   1.307  10.395 -0.4794  0.4770 -0.3304
 7340SOL    HW133479   2.389   1.313  10.490  0.1080  1.8121 -0.4170
 7340SOL    HW233480   2.336   1.227  10.383  1.2454 -0.4918 -1.1062
 7341SOL     OW33481   4.639   0.848  15.469  0.3794 -0.5192  0.3659
 7341SOL    HW133482   4.720   0.883  15.429 -1.1343  0.9266 -1.4326
 7341SOL    HW233483   4.634   0.881  15.558 -0.9647 -0.6650  0.3426
 7342SOL     OW33484   2.037   2.871  17.554  0.1196 -0.9724 -0.1940
 7342SOL    HW133485   2.126   2.897  17.579  1.0895 -3.4865 -1.0694
 7342SOL    HW233486   2.008   2.824  17.633  0.2103  1.4232  1.2576
 7343SOL     OW33487   0.167   0.953   5.953  0.4917 -0.1328 -0.2126
 7343SOL    HW133488   0.251   0.925   5.917 -0.4661 -1.1684 -1.6598
 7343SOL    HW233489   0.140   1.027   5.897 -3.2239 -0.0127  1.7809
 7344SOL     OW33490   3.199   1.909  14.713  0.1640 -0.0260  0.4406
 7344SOL    HW133491   3.177   1.990  14.668  3.0524 -0.7827 -2.3309
 7344SOL    HW233492   3.292   1.927  14.725  0.0585  1.4032 -0.8700
 7345SOL     OW33493   4.385   1.829   2.552 -0.1441 -0.1124 -0.1225
 7345SOL    HW133494   4.378   1.855   2.460 -1.2236 -0.8085 -0.2395
 7345SOL    HW233495   4.380   1.913   2.599  1.0897 -0.1131  0.0103
 7346SOL     OW33496   0.044   2.101   2.913  0.7651  0.0090 -0.1092
 7346SOL    HW133497   4.714   2.073   2.840  1.3568 -1.4313 -0.0317
 7346SOL    HW233498   0.129   2.100   2.868  0.2735 -0.0187 -1.0325
 7347SOL     OW33499   4.549   2.956   2.905  0.0787  0.0896  0.2542
 7347SOL    HW133500   4.484   3.003   2.853  1.6626  2.2267  0.1525
 7347SOL    HW233501   4.569   2.901   2.829 -0.3493  0.0088  0.2007
 7348SOL     OW33502   1.639   3.300   0.680 -0.7571 -0.5872 -0.3389
 7348SOL    HW133503   1.667   3.260   0.598 -1.1460  0.1566 -0.8368
 7348SOL    HW233504   1.672   3.240   0.747  0.8700  0.1696 -0.4518
 7349SOL     OW33505   2.060   0.215   6.388 -0.2558 -0.5982  0.0920
 7349SOL    HW133506   2.098   0.272   6.455 -1.1602  1.3065 -1.0281
 7349SOL    HW233507   2.005   0.152   6.435  0.0662  0.0547  1.3473
 7350SOL     OW33508   1.990   3.732   4.942 -0.1821  0.1226 -0.1998
 7350SOL    HW133509   2.052   3.660   4.929  1.5488  1.7523 -1.0618
 7350SOL    HW233510   2.049   3.801   4.909 -0.9468  0.6143 -0.5263
 7351SOL     OW33511   1.271   1.448   3.843  0.1351 -0.5984  0.5206
 7351SOL    HW133512   1.181   1.469   3.818 -0.0436 -2.1134 -0.1239
 7351SOL    HW233513   1.254   1.358   3.872 -0.1483 -0.4760  0.7317
 7352SOL     OW33514   2.946   4.634   5.620 -0.1237 -0.4396 -0.4112
 7352SOL    HW133515   2.879   4.701   5.605  0.9688  0.6787 -0.2738
 7352SOL    HW233516   3.018   4.692   5.645 -1.0175  1.0073 -1.1876
 7353SOL     OW33517   0.358   4.356   7.228  0.0864  0.1042  0.0120
 7353SOL    HW133518   0.272   4.384   7.199  0.0687  0.8687  0.8077
 7353SOL    HW233519   0.388   4.434   7.276  0.5906 -0.2033  0.2064
 7354SOL     OW33520   0.893   1.548   2.622  0.0433  0.0913  0.2600
 7354SOL    HW133521   0.891   1.490   2.698  0.2259 -0.0879  0.1276
 7354SOL    HW233522   0.984   1.576   2.617  0.1095  0.0087  0.9364
 7355SOL     OW33523   0.135   0.946   4.896 -0.1120 -0.0983  0.0257
 7355SOL    HW133524   0.146   0.956   4.990 -1.4437 -0.5878  0.2361
 7355SOL    HW233525   0.220   0.971   4.861 -0.1997  1.7840  1.1850
 7356SOL     OW33526   3.584   2.867   4.141  0.7304  0.6464  0.6154
 7356SOL    HW133527   3.628   2.805   4.083 -0.2732 -0.8294  1.4411
 7356SOL    HW233528   3.494   2.836   4.134  0.6256  1.2273 -0.5697
 7357SOL     OW33529   2.994   3.750   6.026  0.5173 -0.1016  0.6392
 7357SOL    HW133530   3.069   3.800   5.996  1.1882 -2.6632 -1.9106
 7357SOL    HW233531   3.038   3.670   6.054  0.5509 -0.5723 -0.7610
 7358SOL     OW33532   1.744   4.194  12.916  0.1819  0.3524  0.6576
 7358SOL    HW133533   1.750   4.112  12.967 -0.2036 -0.6523 -0.9215
 7358SOL    HW233534   1.826   4.234  12.942  1.3108 -0.1919 -2.1388
 7359SOL     OW33535   4.190   3.480   2.230  0.1472 -0.2390 -0.0309
 7359SOL    HW133536   4.177   3.527   2.312 -0.4053 -0.5552  0.0629
 7359SOL    HW233537   4.182   3.553   2.168 -0.0747  0.7654  1.1878
 7360SOL     OW33538   4.441   3.583   0.245 -0.2520  0.0041 -0.3208
 7360SOL    HW133539   4.489   3.513   0.290  2.1924  1.7197 -0.2607
 7360SOL    HW233540   4.422   3.539   0.162  0.5009  1.0709 -1.0549
 7361SOL     OW33541   4.689   0.394   1.320 -0.1301 -0.6235 -0.7086
 7361SOL    HW133542   4.620   0.345   1.275 -1.3910  0.6415 -0.1278
 7361SOL    HW233543   0.026   0.322   1.317 -0.4129 -0.8773 -0.5728
 7362SOL     OW33544   4.080   1.307  13.535  0.0645  0.0255  0.4369
 7362SOL    HW133545   4.106   1.243  13.469 -0.8378 -1.0458  1.1078
 7362SOL    HW233546   3.996   1.273  13.567  0.0846  0.5502  1.0550
 7363SOL     OW33547   0.460   0.030  11.504 -0.1849  0.9227  0.1492
 7363SOL    HW133548   0.494   0.035  11.593 -0.3433  1.8092  0.1565
 7363SOL    HW233549   0.515   4.687  11.467 -2.4921 -1.0027  0.3027
 7364SOL     OW33550   2.262   2.478  10.051 -0.2295  0.1398 -1.3639
 7364SOL    HW133551   2.337   2.428  10.018 -0.1389 -0.9923  0.5520
 7364SOL    HW233552   2.217   2.419  10.112  3.1659  0.3473  1.3837
 7365SOL     OW33553   2.616   4.152   6.362 -0.2112  0.0420  0.2671
 7365SOL    HW133554   2.571   4.071   6.385  0.7482 -1.5386 -3.3310
 7365SOL    HW233555   2.591   4.171   6.271 -1.5107 -0.1088  0.5849
 7366SOL     OW33556   3.021   3.165   3.456  0.4585  0.3877  0.1628
 7366SOL    HW133557   2.962   3.239   3.445  1.5188  1.2597  0.3018
 7366SOL    HW233558   3.100   3.215   3.477  0.5440 -0.1273  1.0589
 7367SOL     OW33559   4.648   0.301   5.845  0.1888 -0.0461 -0.0414
 7367SOL    HW133560   0.015   0.276   5.843  0.6817  1.7597  1.0003
 7367SOL    HW233561   4.658   0.350   5.763 -0.5046  1.4769  0.7991
 7368SOL     OW33562   4.346   0.851   2.071 -0.1991  0.5925  0.3946
 7368SOL    HW133563   4.379   0.778   2.018  0.8453  0.0230  1.8545
 7368SOL    HW233564   4.274   0.876   2.012  0.2965  2.3512  0.5415
 7369SOL     OW33565   2.828   0.288   1.690 -0.8632 -0.2610  0.5877
 7369SOL    HW133566   2.855   0.220   1.752  0.6748 -0.6543 -0.5256
 7369SOL    HW233567   2.911   0.308   1.648 -0.6700  0.6819  1.4143
 7370SOL     OW33568   0.297   1.252   0.387 -0.1777 -0.0336 -0.5113
 7370SOL    HW133569   0.382   1.242   0.431 -0.8263  0.6270  0.9106
 7370SOL    HW233570   0.316   1.315   0.317 -0.3231  2.1588  1.3978
 7371SOL     OW33571   4.535   4.316  17.076  0.4917  0.3871 -0.2263
 7371SOL    HW133572   4.450   4.332  17.035  0.5128  1.9276  0.3043
 7371SOL    HW233573   4.552   4.395  17.128  0.3320 -1.2226  2.2785
 7372SOL     OW33574   4.154   4.089   5.327  0.3093  0.1747 -0.9791
 7372SOL    HW133575   4.186   4.017   5.273 -0.3777 -1.3838  0.6843
 7372SOL    HW233576   4.167   4.057   5.417 -2.2183  0.0441 -0.6549
 7373SOL     OW33577   2.674   3.767   7.266  0.2153  0.2061 -0.8531
 7373SOL    HW133578   2.670   3.859   7.239 -1.0700  0.5661  0.5439
 7373SOL    HW233579   2.768   3.760   7.252  0.4931 -0.8804  1.7197
 7374SOL     OW33580   0.673   4.617   5.818 -0.1166  0.1643 -0.0914
 7374SOL    HW133581   0.616   4.674   5.870 -1.6958 -2.6527  1.2873
 7374SOL    HW233582   0.606   4.583   5.759 -1.3899 -0.0540  1.4793
 7375SOL     OW33583   1.968   2.398   4.036  0.4136 -0.2780  0.1364
 7375SOL    HW133584   1.881   2.357   4.029  0.0733 -0.0848  3.4202
 7375SOL    HW233585   1.946   2.481   3.994 -3.0827 -1.2672  0.0048
 7376SOL     OW33586   0.723   4.194   6.999 -0.2727  0.4283  0.2610
 7376SOL    HW133587   0.642   4.200   7.049  0.0332 -0.7171  0.8952
 7376SOL    HW233588   0.799   4.223   7.048 -1.0073  1.7341  0.6321
 7377SOL     OW33589   4.091   1.179   8.190  0.2666 -0.2878 -0.1134
 7377SOL    HW133590   4.183   1.168   8.215  0.7100 -0.7789 -1.9687
 7377SOL    HW233591   4.052   1.196   8.276  1.0935 -0.1125  0.2199
 7378SOL     OW33592   1.841   0.627  17.633 -0.2381 -0.1680  0.1660
 7378SOL    HW133593   1.760   0.577  17.631 -0.5399  0.3027  0.6780
 7378SOL    HW233594   1.825   0.700  17.693  1.6391  0.8338 -0.5261
 7379SOL     OW33595   0.578   0.650   1.030  0.2551  0.2393  0.2851
 7379SOL    HW133596   0.494   0.645   1.075 -1.5478 -0.1820 -3.1350
 7379SOL    HW233597   0.612   0.560   1.028 -0.4338 -0.0597  1.6287
 7380SOL     OW33598   2.345   2.458  10.375  0.7216 -0.3063 -0.3560
 7380SOL    HW133599   2.289   2.436  10.450 -1.0093 -0.7228 -1.7875
 7380SOL    HW233600   2.295   2.414  10.307  0.7218  1.3415 -1.4228
 7381SOL     OW33601   2.528   2.063  12.991  0.1056  0.0284  0.1850
 7381SOL    HW133602   2.552   2.122  13.062  1.9317 -0.8796  0.3034
 7381SOL    HW233603   2.555   2.121  12.919 -1.3181 -0.7212 -0.9648
 7382SOL     OW33604   0.023   3.436   6.582  0.2134  0.5601  0.0986
 7382SOL    HW133605   4.707   3.518   6.554  0.9196  0.7839 -0.3029
 7382SOL    HW233606   0.104   3.473   6.618  0.4518  0.4368 -0.3201
 7383SOL     OW33607   4.680   2.875   5.239  0.2269 -0.2070 -0.6844
 7383SOL    HW133608   4.604   2.833   5.199  0.4429  0.7751 -2.1107
 7383SOL    HW233609   4.655   2.858   5.330 -1.1752 -1.5914 -1.3262
 7384SOL     OW33610   0.872   2.852   3.044  0.1521  0.4173 -0.2280
 7384SOL    HW133611   0.840   2.942   3.047  0.0051  0.2766  1.9661
 7384SOL    HW233612   0.808   2.803   3.096  1.8812 -1.6990 -0.0897
 7385SOL     OW33613   0.796   2.674   8.524  0.4080 -0.1033 -0.1705
 7385SOL    HW133614   0.727   2.668   8.458  0.5402  0.6378 -0.3835
 7385SOL    HW233615   0.769   2.612   8.592  0.9637  0.7771  0.8651
 7386SOL     OW33616   2.997   2.080  10.750 -0.0304  0.5064 -0.0132
 7386SOL    HW133617   2.977   2.105  10.660  1.9948 -1.8067 -1.1036
 7386SOL    HW233618   3.001   1.986  10.736 -4.1146  0.3699 -0.3086
 7387SOL     OW33619   1.175   4.669  17.324  0.1328 -0.3722 -0.3102
 7387SOL    HW133620   1.182   4.706  17.236 -0.6357 -0.4106 -0.3912
 7387SOL    HW233621   1.226   0.006  17.375  0.0271 -0.4069 -0.1587
 7388SOL     OW33622   0.821   0.559   2.326 -0.8505  0.2287 -0.1630
 7388SOL    HW133623   0.763   0.563   2.402  2.4409  1.9229  2.2686
 7388SOL    HW233624   0.880   0.490   2.358  0.1895  2.8399  3.5845
 7389SOL     OW33625   2.255   4.121  16.948 -0.0786  0.0546  0.0819
 7389SOL    HW133626   2.279   4.141  16.858 -1.8993  1.3189 -0.1374
 7389SOL    HW233627   2.198   4.047  16.930  1.8334 -1.7251  1.3611
 7390SOL     OW33628   3.100   0.834   7.362  0.3976  0.1951 -0.2866
 7390SOL    HW133629   3.070   0.783   7.437 -0.0433  0.4980 -0.2592
 7390SOL    HW233630   3.193   0.822   7.378  0.0197  0.4572  2.0616
 7391SOL     OW33631   4.018   3.304   4.683  0.2194  0.1309 -0.4126
 7391SOL    HW133632   4.090   3.245   4.704 -0.7389 -1.6746 -2.2033
 7391SOL    HW233633   4.022   3.311   4.588  1.9490  0.3115 -0.3193
 7392SOL     OW33634   3.566   1.858  16.752 -0.7951 -0.3727  0.5959
 7392SOL    HW133635   3.495   1.885  16.810 -0.2688  0.2076  0.9778
 7392SOL    HW233636   3.572   1.941  16.704  1.3362 -1.1967 -0.5744
 7393SOL     OW33637   0.602   4.480   6.996  0.2847  0.3592  0.5491
 7393SOL    HW133638   0.571   4.477   7.087 -0.7456 -2.3813  0.1175
 7393SOL    HW233639   0.694   4.501   7.010  0.1984  1.2204 -0.1939
 7394SOL     OW33640   2.231   0.290   3.973 -0.5388  0.3432 -0.1856
 7394SOL    HW133641   2.214   0.308   4.066 -0.3255  0.4890 -0.1754
 7394SOL    HW233642   2.264   0.200   3.968 -1.6829 -0.0194 -1.0572
 7395SOL     OW33643   2.428   0.060   6.460 -0.1192  0.2802 -0.6310
 7395SOL    HW133644   2.477   0.071   6.541 -0.8232  0.5526 -0.2380
 7395SOL    HW233645   2.452   0.133   6.402 -0.3292 -0.5252 -1.7229
 7396SOL     OW33646   1.847   3.810  11.369  0.0611 -0.2819  0.1258
 7396SOL    HW133647   1.808   3.723  11.365 -3.4338  1.2669  0.4699
 7396SOL    HW233648   1.919   3.807  11.306 -1.7955  2.5695 -2.1354
 7397SOL     OW33649   4.020   0.303   3.111 -0.1602  0.2539  0.3753
 7397SOL    HW133650   4.046   0.222   3.066 -0.2907 -1.0612  2.6381
 7397SOL    HW233651   4.105   0.342   3.129 -0.3739  0.4772  0.8921
 7398SOL     OW33652   0.861   1.302   2.850 -0.0817 -0.3372 -0.5924
 7398SOL    HW133653   0.875   1.339   2.937 -0.4218  1.3096 -1.2518
 7398SOL    HW233654   0.949   1.281   2.818 -0.2215 -1.1829 -0.4209
 7399SOL     OW33655   4.329   3.818   0.008 -0.1420 -0.1073  0.4749
 7399SOL    HW133656   4.291   3.851  17.633 -1.2453  1.1203  1.4959
 7399SOL    HW233657   4.366   3.734  17.686 -2.2907 -0.9625  0.2639
 7400SOL     OW33658   1.902   1.742  17.332  0.0004  0.2056  0.5854
 7400SOL    HW133659   1.992   1.743  17.300  0.0971  2.2691  0.9624
 7400SOL    HW233660   1.886   1.649  17.314 -2.0390  1.0561 -1.8687
 7401SOL     OW33661   1.292   4.630  12.427  0.1371 -0.7255 -0.1127
 7401SOL    HW133662   1.292   4.564  12.357 -1.0407 -2.2423  1.3195
 7401SOL    HW233663   1.349   4.588  12.491  0.1210 -1.7191 -0.7447
 7402SOL     OW33664   1.185   1.375   5.921  0.1895 -0.0405  0.0981
 7402SOL    HW133665   1.152   1.426   5.847  2.5875  1.8966  0.3567
 7402SOL    HW233666   1.207   1.445   5.982 -1.8747 -0.5133  1.3668
 7403SOL     OW33667   4.631   0.652  15.908 -0.1508 -0.8079 -0.2888
 7403SOL    HW133668   4.634   0.562  15.942 -1.0015  0.0350  2.0567
 7403SOL    HW233669   4.592   0.641  15.821 -1.8293 -1.4193  0.5362
 7404SOL     OW33670   1.644   3.107   5.328 -0.3669 -0.3329  0.2814
 7404SOL    HW133671   1.615   3.041   5.390  0.9190 -0.5028  0.7116
 7404SOL    HW233672   1.567   3.150   5.291 -0.1548  0.6387  0.9764
 7405SOL     OW33673   0.136   1.784  11.528  0.5387 -0.9099  0.2144
 7405SOL    HW133674   0.118   1.775  11.621 -0.3222 -1.0107  0.0371
 7405SOL    HW233675   0.061   1.752  11.479  0.2934  2.4984 -1.6698
 7406SOL     OW33676   1.648   3.430   7.433 -0.0263 -0.3376 -0.2289
 7406SOL    HW133677   1.690   3.376   7.500 -0.2844 -2.8915 -2.1230
 7406SOL    HW233678   1.696   3.512   7.442 -0.5830 -0.0749  0.2937
 7407SOL     OW33679   0.679   3.873  15.861  0.6322 -1.0417 -0.1933
 7407SOL    HW133680   0.659   3.821  15.939 -3.9737  1.6713  0.4254
 7407SOL    HW233681   0.699   3.803  15.800 -0.8563 -0.6535 -1.1268
 7408SOL     OW33682   0.893   0.868   2.191  0.5988 -0.5019  0.0060
 7408SOL    HW133683   0.872   0.868   2.098 -0.7049  3.5008  0.3021
 7408SOL    HW233684   0.855   0.789   2.229  1.1480  0.1606  1.9674
 7409SOL     OW33685   3.571   0.451   6.522  0.5485  0.3304  0.3776
 7409SOL    HW133686   3.542   0.370   6.478  1.7519 -0.7791  1.6110
 7409SOL    HW233687   3.485   0.479   6.552 -0.1032 -0.6882 -0.5408
 7410SOL     OW33688   3.309   0.569   2.863 -0.6359  0.3008 -0.9427
 7410SOL    HW133689   3.338   0.660   2.853 -1.0778  0.7243  1.5559
 7410SOL    HW233690   3.213   0.572   2.865 -0.4865  3.7635  2.3001
 7411SOL     OW33691   4.661   2.580   4.907 -0.1894  0.1434 -0.2523
 7411SOL    HW133692   4.714   2.582   4.987 -1.4137 -2.7550  0.6070
 7411SOL    HW233693   4.724   2.605   4.840 -1.1642  2.2787 -0.3921
 7412SOL     OW33694   0.503   3.511   5.444  0.2461  0.3979  0.0086
 7412SOL    HW133695   0.489   3.416   5.446 -0.7001  0.5048 -1.2407
 7412SOL    HW233696   0.466   3.534   5.359 -0.5056 -2.9430 -0.5756
 7413SOL     OW33697   0.492   0.446   8.291 -0.4592 -0.3582  0.2634
 7413SOL    HW133698   0.474   0.388   8.217 -2.0644 -0.4732  0.7442
 7413SOL    HW233699   0.448   0.527   8.267  3.5681  1.0622 -2.3125
 7414SOL     OW33700   2.442   4.611   9.809 -0.3561 -0.9244 -0.0940
 7414SOL    HW133701   2.485   4.564   9.880 -0.5529  1.2749  1.4817
 7414SOL    HW233702   2.446   4.704   9.831  0.2989 -1.2842  1.2695
 7415SOL     OW33703   3.506   3.034   2.867 -0.1371 -0.0383 -0.3440
 7415SOL    HW133704   3.555   2.963   2.827 -0.7505 -0.4075 -0.4513
 7415SOL    HW233705   3.580   3.080   2.907  0.5996 -1.7634  0.3054
 7416SOL     OW33706   3.464   0.372  12.193  0.1612  0.3359  0.4640
 7416SOL    HW133707   3.490   0.280  12.199  0.4189  0.4770  1.5273
 7416SOL    HW233708   3.461   0.383  12.098  1.3969  0.6551  0.4631
 7417SOL     OW33709   1.369   0.513  15.676 -0.3388  0.3357 -0.1713
 7417SOL    HW133710   1.290   0.556  15.644  0.9390  1.1731 -2.1723
 7417SOL    HW233711   1.346   0.425  15.647  0.1999 -0.4782  1.8514
 7418SOL     OW33712   0.539   1.321   3.438  0.3254 -0.1062  0.2329
 7418SOL    HW133713   0.460   1.352   3.481 -0.0539  1.7774 -1.8276
 7418SOL    HW233714   0.573   1.403   3.402  0.5348 -0.5799 -0.6721
 7419SOL     OW33715   4.149   0.694   4.377  0.0056  0.4342 -0.2144
 7419SOL    HW133716   4.229   0.646   4.357 -0.0524 -0.6532  2.2054
 7419SOL    HW233717   4.170   0.726   4.464 -1.3632 -1.2323  0.7327
 7420SOL     OW33718   2.856   2.633  15.641  1.0385  0.5156 -0.4809
 7420SOL    HW133719   2.775   2.672  15.608  0.9539  0.6241 -0.1495
 7420SOL    HW233720   2.872   2.575  15.566  0.7721  0.1071 -0.2247
 7421SOL     OW33721   0.471   0.991   6.043  0.2243 -0.1830 -0.1363
 7421SOL    HW133722   0.447   1.076   6.079 -2.2134 -1.5895  1.5673
 7421SOL    HW233723   0.537   0.967   6.108  0.8687  0.8487 -0.4173
 7422SOL     OW33724   3.483   1.569  13.708  0.3792 -0.7529 -0.2876
 7422SOL    HW133725   3.510   1.620  13.632 -2.0632 -2.5185 -2.3610
 7422SOL    HW233726   3.565   1.554  13.755  0.2083  0.9720  0.5396
 7423SOL     OW33727   4.448   3.854   7.238 -0.2693  0.1303  0.0219
 7423SOL    HW133728   4.364   3.879   7.277  0.5318  1.3597  0.9356
 7423SOL    HW233729   4.461   3.917   7.167  0.1166  0.1372  0.0976
 7424SOL     OW33730   1.585   3.995   6.615 -0.3747 -0.1104 -0.3523
 7424SOL    HW133731   1.511   3.938   6.594 -1.1529  1.0498 -0.7542
 7424SOL    HW233732   1.561   4.009   6.706  0.0413  1.7381 -0.5222
 7425SOL     OW33733   3.223   4.405  14.347  0.0893  0.3201  0.1949
 7425SOL    HW133734   3.128   4.419  14.351 -0.0728  0.2689 -3.0710
 7425SOL    HW233735   3.269   4.488  14.358  0.9122 -0.1012 -0.1007
 7426SOL     OW33736   1.834   1.010  11.996 -0.1900 -0.8094  0.2105
 7426SOL    HW133737   1.868   0.944  12.057 -2.6042 -2.4702 -0.2438
 7426SOL    HW233738   1.777   1.065  12.050  2.1595  1.4106  0.4303
 7427SOL     OW33739   3.757   0.500   7.218  0.0823 -0.1085 -0.3965
 7427SOL    HW133740   3.846   0.534   7.210 -0.3985  1.0518 -0.7523
 7427SOL    HW233741   3.767   0.407   7.199 -1.1550 -0.5643  1.1573
 7428SOL     OW33742   0.503   1.284   0.155  0.0135 -0.3730  0.0731
 7428SOL    HW133743   0.547   1.250   0.233  2.2779 -0.5749 -1.3216
 7428SOL    HW233744   0.491   1.378   0.170  0.6557 -0.2495 -0.2106
 7429SOL     OW33745   2.141   4.588   3.486  0.2527  0.5313 -0.0937
 7429SOL    HW133746   2.117   4.662   3.431 -2.9723 -0.0631  0.4800
 7429SOL    HW233747   2.067   4.531   3.465  0.7983 -0.4971  0.7398
 7430SOL     OW33748   4.389   4.273   5.661 -0.3299 -0.2427  0.3399
 7430SOL    HW133749   4.475   4.311   5.641 -0.5383  1.2543  2.2962
 7430SOL    HW233750   4.327   4.343   5.643 -0.2222 -0.2237  0.0497
 7431SOL     OW33751   3.156   1.303   3.741  0.5533 -0.0109 -0.6839
 7431SOL    HW133752   3.225   1.238   3.756 -1.1720 -1.7536 -0.2548
 7431SOL    HW233753   3.118   1.307   3.829  2.0861 -1.0665  0.0306
 7432SOL     OW33754   1.360   3.911   7.545 -0.2151 -0.1974 -0.7978
 7432SOL    HW133755   1.272   3.872   7.543 -0.4857  0.3652  0.5817
 7432SOL    HW233756   1.406   3.864   7.614 -1.2930  0.8381  0.6243
 7433SOL     OW33757   2.982   0.712   6.297 -0.2164 -0.2825 -0.6255
 7433SOL    HW133758   3.076   0.731   6.302 -0.4243  1.4512 -2.9835
 7433SOL    HW233759   2.947   0.798   6.322  1.1378 -0.3703  1.5313
 7434SOL     OW33760   0.634   2.122   2.614  0.1183 -0.5433  0.6982
 7434SOL    HW133761   0.570   2.051   2.618  1.1291 -1.4001  1.8569
 7434SOL    HW233762   0.620   2.158   2.526 -0.3308  1.4045  1.5730
 7435SOL     OW33763   4.415   0.357  10.742 -0.5529 -0.0019  0.5373
 7435SOL    HW133764   4.492   0.387  10.791 -0.0662  0.4478 -0.4986
 7435SOL    HW233765   4.404   0.271  10.784  0.0378  0.2382  1.1795
 7436SOL     OW33766   3.488   3.644   7.977  0.5096  0.2059  0.0603
 7436SOL    HW133767   3.491   3.640   8.072 -1.4889 -1.1895  0.0705
 7436SOL    HW233768   3.582   3.638   7.959  0.4924 -1.1252  0.4084
 7437SOL     OW33769   2.416   4.578   8.529 -0.2788  0.4209  0.1678
 7437SOL    HW133770   2.357   4.638   8.482 -1.7170 -2.1870 -1.3563
 7437SOL    HW233771   2.359   4.540   8.596 -0.3899  1.1141  0.4667
 7438SOL     OW33772   1.216   2.159   7.362  0.2776 -0.4012  0.2099
 7438SOL    HW133773   1.218   2.243   7.407 -1.2561 -0.1147 -0.2792
 7438SOL    HW233774   1.268   2.111   7.426  0.8531 -0.1686 -0.0825
 7439SOL     OW33775   1.571   4.695  10.311 -0.2386  0.1676 -0.5770
 7439SOL    HW133776   1.654   4.648  10.325  0.5246  0.7560 -3.0745
 7439SOL    HW233777   1.510   4.632  10.274 -1.9737  1.1428  0.6407
 7440SOL     OW33778   3.569   1.734  10.038 -0.1394  0.2506  0.2017
 7440SOL    HW133779   3.478   1.758  10.055  0.3387  0.9627  1.7645
 7440SOL    HW233780   3.625   1.801  10.077 -0.5495  1.1330 -0.7132
 7441SOL     OW33781   3.634   3.604   1.699 -0.1669  0.0214  0.6232
 7441SOL    HW133782   3.610   3.612   1.791 -0.6579 -0.5340  0.5415
 7441SOL    HW233783   3.548   3.589   1.660 -0.5791 -0.5934  1.7753
 7442SOL     OW33784   4.454   1.633   8.509 -0.0110 -0.6568  0.5303
 7442SOL    HW133785   4.504   1.581   8.573  2.6040  0.4954 -0.6062
 7442SOL    HW233786   4.466   1.592   8.424  0.0208  0.8045 -0.1610
 7443SOL     OW33787   0.605   2.249   7.824  0.1390  0.4026  0.0543
 7443SOL    HW133788   0.586   2.247   7.918  1.0552 -1.1799  0.2201
 7443SOL    HW233789   0.645   2.335   7.814  0.1820  0.3495 -0.2295
 7444SOL     OW33790   0.080   2.674  10.957  0.1565 -0.3217 -0.1667
 7444SOL    HW133791   0.100   2.751  11.010  0.4812 -0.0443 -0.6931
 7444SOL    HW233792   0.153   2.618  10.982  2.5213  2.2507 -1.4113
 7445SOL     OW33793   1.575   3.807  13.828 -0.5337 -0.4959 -0.0400
 7445SOL    HW133794   1.503   3.771  13.776  0.2874 -1.7270 -0.3274
 7445SOL    HW233795   1.603   3.873  13.765 -1.0547 -1.0363 -0.8240
 7446SOL     OW33796   1.882   3.689   5.369  0.2228  0.2278  0.2624
 7446SOL    HW133797   1.866   3.729   5.454  1.6006  2.4748 -0.5504
 7446SOL    HW233798   1.879   3.596   5.394 -3.1810 -0.0847 -1.2321
 7447SOL     OW33799   4.699   1.564  11.485  0.3323  0.1601  0.0037
 7447SOL    HW133800   0.000   1.523  11.567  1.8921  0.7603 -0.2107
 7447SOL    HW233801   0.011   1.501  11.424  0.6314  0.2415  0.1020
 7448SOL     OW33802   1.630   2.825   1.023 -0.1467 -0.2580 -0.2044
 7448SOL    HW133803   1.689   2.785   1.088  1.0720 -1.0761 -1.8160
 7448SOL    HW233804   1.637   2.761   0.952  0.7150 -1.5523  1.0291
 7449SOL     OW33805   2.291   0.461   3.573  0.4513 -0.1180 -0.2851
 7449SOL    HW133806   2.364   0.483   3.514  0.1883 -1.9797 -1.3172
 7449SOL    HW233807   2.314   0.485   3.662 -1.0041  0.5424 -0.0918
 7450SOL     OW33808   4.588   4.656   7.893  0.1150  0.3991 -0.5114
 7450SOL    HW133809   4.641   4.588   7.934  0.0465  0.1784 -0.7951
 7450SOL    HW233810   4.628   0.006   7.936  1.9486 -1.0780  0.3699
 7451SOL     OW33811   4.119   3.362   4.426  0.5871 -0.0474  0.0849
 7451SOL    HW133812   4.194   3.407   4.387  0.2435  1.8731  1.6523
 7451SOL    HW233813   4.110   3.296   4.357 -1.4733  0.1624  0.1534
 7452SOL     OW33814   1.446   1.369   7.855 -0.6028  0.1453 -0.0929
 7452SOL    HW133815   1.438   1.395   7.763 -0.7298 -0.4068 -0.2366
 7452SOL    HW233816   1.353   1.370   7.877 -0.3743  0.8379  0.8086
 7453SOL     OW33817   0.112   1.575  10.848  1.1184 -0.1527  0.1329
 7453SOL    HW133818   0.100   1.662  10.808 -0.6977 -0.1590  0.6738
 7453SOL    HW233819   0.040   1.530  10.803  1.0375  0.7339 -0.6221
 7454SOL     OW33820   3.626   1.154  14.568  0.4468  0.3628 -0.8355
 7454SOL    HW133821   3.650   1.078  14.515  1.0014 -0.5247  0.6752
 7454SOL    HW233822   3.699   1.213  14.549  1.0613  0.2329  1.1565
 7455SOL     OW33823   1.886   3.824  11.688 -0.3300 -0.3278  0.4154
 7455SOL    HW133824   1.793   3.819  11.665 -0.2778 -0.3587  0.2121
 7455SOL    HW233825   1.880   3.833  11.783 -0.6772  0.3915  0.3280
 7456SOL     OW33826   0.177   3.691   2.483 -0.1985 -0.7782 -0.4126
 7456SOL    HW133827   0.091   3.723   2.511 -0.1136 -1.2624  0.3818
 7456SOL    HW233828   0.203   3.775   2.443 -0.4032 -1.4508 -1.9617
 7457SOL     OW33829   4.233   1.385   3.096 -0.1432  0.4409 -0.7382
 7457SOL    HW133830   4.290   1.412   3.023 -0.7460 -1.2048 -1.8033
 7457SOL    HW233831   4.146   1.417   3.071 -0.5001  0.0290 -0.0330
 7458SOL     OW33832   3.308   0.349   6.668  0.0281  0.0681  0.4057
 7458SOL    HW133833   3.294   0.293   6.592  2.7506  0.5718 -0.4579
 7458SOL    HW233834   3.254   0.424   6.644 -1.9318 -1.1597  1.0238
 7459SOL     OW33835   4.648   0.277   5.539 -0.0645 -0.0354 -0.6031
 7459SOL    HW133836   4.578   0.226   5.580  0.5441 -0.0083  0.4434
 7459SOL    HW233837   4.687   0.210   5.482 -0.7870  0.6709 -1.9486
 7460SOL     OW33838   3.408   2.708  12.688  0.1111 -0.1277 -0.6150
 7460SOL    HW133839   3.436   2.734  12.600  1.6432  0.2643 -0.0010
 7460SOL    HW233840   3.379   2.620  12.660 -0.6580 -0.9728  2.8304
 7461SOL     OW33841   4.726   3.338   9.072  0.4844  0.2602  0.6391
 7461SOL    HW133842   4.659   3.283   9.113  1.5364 -0.1064  1.8701
 7461SOL    HW233843   0.050   3.270   9.027  2.6721  1.8451  0.7281
 7462SOL     OW33844   0.506   3.154   3.135  0.3888  0.0098  0.0416
 7462SOL    HW133845   0.454   3.187   3.061  2.1910  0.1858 -1.1558
 7462SOL    HW233846   0.514   3.225   3.198  3.1797 -0.9482  0.7706
 7463SOL     OW33847   0.151   3.115   9.026 -0.3633 -0.5550  0.0790
 7463SOL    HW133848   0.247   3.122   9.026 -0.4069  0.1169 -1.0632
 7463SOL    HW233849   0.145   3.020   9.025 -0.9762 -0.5196  0.9251
 7464SOL     OW33850   2.232   3.455   8.679 -0.4191 -0.7025  0.0300
 7464SOL    HW133851   2.230   3.509   8.758 -0.7050  0.1837 -0.5768
 7464SOL    HW233852   2.322   3.462   8.646 -0.6457 -1.3386 -0.7252
 7465SOL     OW33853   1.415   1.951  14.467  0.2311 -0.2605 -0.0167
 7465SOL    HW133854   1.321   1.958  14.477 -0.0662 -2.4210 -1.2791
 7465SOL    HW233855   1.407   1.909  14.381 -0.9271 -0.5806  0.2564
 7466SOL     OW33856   1.323   0.848   1.001  0.3678 -0.0318  0.1557
 7466SOL    HW133857   1.312   0.871   1.093  0.2181 -2.5320  0.7645
 7466SOL    HW233858   1.270   0.769   0.998  0.8577 -0.3288 -0.7038
 7467SOL     OW33859   0.948   0.185   2.047  0.1134 -0.2415 -0.1521
 7467SOL    HW133860   1.038   0.216   2.035  0.2246 -1.2139 -1.7332
 7467SOL    HW233861   0.900   0.267   2.061  2.3219  1.1993 -0.9209
 7468SOL     OW33862   0.871   4.080   1.898 -0.0150 -0.3007  0.6361
 7468SOL    HW133863   0.863   4.103   1.805  2.6754  1.5470  0.8641
 7468SOL    HW233864   0.960   4.051   1.918 -0.2479 -0.4614  1.4377
 7469SOL     OW33865   0.098   4.322   2.429 -0.7308 -0.2095  0.3797
 7469SOL    HW133866   0.121   4.288   2.343  1.1330  1.8647  0.0599
 7469SOL    HW233867   0.121   4.255   2.493 -0.3386  0.5125  0.9963
 7470SOL     OW33868   4.331   4.236   5.979 -0.1526 -0.0851  0.1129
 7470SOL    HW133869   4.371   4.247   6.065 -2.5363 -0.4189  1.2790
 7470SOL    HW233870   4.347   4.324   5.946 -1.0835 -0.0602 -0.2630
 7471SOL     OW33871   4.323   3.977   0.740  0.2664 -0.0314 -0.1878
 7471SOL    HW133872   4.303   4.048   0.801 -0.4592 -1.2827  1.0333
 7471SOL    HW233873   4.283   3.905   0.790  0.0671 -1.2269 -2.0791
 7472SOL     OW33874   3.692   1.136   6.466 -0.1423 -0.2439  0.0640
 7472SOL    HW133875   3.651   1.211   6.509 -0.0586  1.1920 -2.3676
 7472SOL    HW233876   3.764   1.175   6.417 -0.3089 -1.2284 -0.9918
 7473SOL     OW33877   3.368   2.025   4.177  0.2543 -0.1014  0.0298
 7473SOL    HW133878   3.457   2.058   4.168  0.9896 -2.6244 -2.1179
 7473SOL    HW233879   3.374   1.959   4.108  1.8456  1.4214 -1.3019
 7474SOL     OW33880   1.333   4.684   0.310 -0.3707 -0.4045 -0.7338
 7474SOL    HW133881   1.317   0.008   0.390  2.2936  0.7116 -0.9271
 7474SOL    HW233882   1.380   4.608   0.343 -0.0614 -1.1198 -2.7968
 7475SOL     OW33883   2.019   0.082  11.010 -0.8430  0.1150 -0.5822
 7475SOL    HW133884   1.950   0.045  10.955  0.4058 -1.9391 -0.7431
 7475SOL    HW233885   1.998   0.041  11.094 -0.3756 -1.6209 -1.3043
 7476SOL     OW33886   3.650   4.434   6.367 -0.1830  0.2881 -0.1246
 7476SOL    HW133887   3.721   4.499   6.366 -1.3114  1.4933 -1.8066
 7476SOL    HW233888   3.620   4.417   6.278 -1.3090  1.7851 -0.0377
 7477SOL     OW33889   0.005   3.177   1.389 -0.4091  0.0364  0.1682
 7477SOL    HW133890   0.029   3.214   1.474 -2.3030  2.0228 -0.1776
 7477SOL    HW233891   4.694   3.256   1.351  0.2537 -0.6256 -1.8415
 7478SOL     OW33892   3.874   3.948   3.373 -0.2544 -0.0006  0.1826
 7478SOL    HW133893   3.848   3.860   3.402  2.2866 -1.7594 -2.9566
 7478SOL    HW233894   3.808   3.995   3.425 -0.2181 -1.5740  1.6770
 7479SOL     OW33895   2.000   3.255   3.115 -0.0150 -0.1933  0.1449
 7479SOL    HW133896   1.988   3.314   3.190 -0.0266 -1.2852  1.0130
 7479SOL    HW233897   1.972   3.309   3.041 -0.3342  0.5315  0.7937
 7480SOL     OW33898   0.242   3.540   3.900  0.2101 -0.4208 -0.3189
 7480SOL    HW133899   0.216   3.622   3.943 -0.1740  0.6242 -2.5423
 7480SOL    HW233900   0.152   3.507   3.894 -0.8283  1.9105  1.9119
 7481SOL     OW33901   0.684   0.557   0.721  0.3114 -0.6995 -0.6118
 7481SOL    HW133902   0.663   0.603   0.802  0.8470 -1.4286 -0.0527
 7481SOL    HW233903   0.733   0.484   0.760  1.1697  0.6570  0.8465
 7482SOL     OW33904   0.843   0.167   9.471 -0.5143  0.4507  0.7179
 7482SOL    HW133905   0.916   0.134   9.525 -0.1802  0.1306  0.0753
 7482SOL    HW233906   0.781   0.094   9.469  1.3556 -1.1128 -0.2229
 7483SOL     OW33907   4.180   3.916  17.517  0.6015 -0.1229 -0.6881
 7483SOL    HW133908   4.127   3.965  17.453 -1.7283 -2.4736 -0.5608
 7483SOL    HW233909   4.113   3.852  17.542  0.2045  1.1390  1.4290
 7484SOL     OW33910   2.753   3.123   7.289 -0.2462 -0.1630 -0.3232
 7484SOL    HW133911   2.676   3.080   7.252  0.9982 -0.3830 -2.5990
 7484SOL    HW233912   2.741   3.204   7.239  0.0415 -1.3829 -2.3596
 7485SOL     OW33913   4.528   1.154   2.669  0.3384 -0.5034  1.0528
 7485SOL    HW133914   4.601   1.212   2.647  0.2413 -0.4928  0.7642
 7485SOL    HW233915   4.553   1.074   2.623 -1.4376  0.7322 -2.0155
 7486SOL     OW33916   4.658   2.782  13.010  0.4100  0.5589 -0.0119
 7486SOL    HW133917   4.650   2.779  13.106 -0.2769 -1.0936 -0.1206
 7486SOL    HW233918   0.016   2.741  12.987 -0.4360 -1.8818  1.2382
 7487SOL     OW33919   0.961   4.378   8.894 -0.0222 -0.3011  0.6397
 7487SOL    HW133920   0.947   4.284   8.893  2.0034 -0.5943  1.7304
 7487SOL    HW233921   0.872   4.411   8.877 -0.1124 -1.4924 -1.1648
 7488SOL     OW33922   4.225   3.269  17.479 -0.3329  0.2358  0.1011
 7488SOL    HW133923   4.313   3.260  17.518 -0.6716 -0.4451  0.7020
 7488SOL    HW233924   4.229   3.228  17.393  0.7650  1.1699 -0.3057
 7489SOL     OW33925   0.500   1.738   4.164 -0.5929  0.4470  0.2392
 7489SOL    HW133926   0.478   1.777   4.079  1.8071 -0.4352 -0.7986
 7489SOL    HW233927   0.413   1.705   4.187  0.4688 -0.8509  2.3681
 7490SOL     OW33928   3.081   2.318   7.238  0.1980  0.1189  0.1198
 7490SOL    HW133929   3.026   2.240   7.253 -1.6865  1.1139 -1.5026
 7490SOL    HW233930   3.149   2.309   7.305  0.7549  1.0894 -0.3248
 7491SOL     OW33931   1.781   2.323   1.024  0.0080  0.5020  0.1696
 7491SOL    HW133932   1.806   2.358   1.110  0.9080 -0.5043  0.3141
 7491SOL    HW233933   1.692   2.357   1.018  0.2817  0.7976 -2.3540
 7492SOL     OW33934   2.514   1.859  13.200 -0.2509 -1.0008 -0.1259
 7492SOL    HW133935   2.524   1.944  13.156  0.6934 -1.9121 -1.6849
 7492SOL    HW233936   2.509   1.883  13.293  0.9871  3.1314 -1.1132
 7493SOL     OW33937   0.566   0.457  16.930  0.0811  0.2823 -0.0234
 7493SOL    HW133938   0.631   0.498  16.988 -1.8283  0.4329  2.0076
 7493SOL    HW233939   0.576   0.505  16.848  0.6492  1.0937  0.5108
 7494SOL     OW33940   1.302   0.152   5.632  0.0793 -0.1990 -0.3260
 7494SOL    HW133941   1.247   0.217   5.676  0.3303  1.4826 -2.5531
 7494SOL    HW233942   1.254   0.140   5.550  0.4813  0.1539 -0.6052
 7495SOL     OW33943   0.975   1.751  13.963  0.4408 -0.2618  0.2942
 7495SOL    HW133944   0.986   1.828  14.020 -0.1909 -0.4650  0.6875
 7495SOL    HW233945   0.955   1.791  13.879 -0.6498  4.5985  2.8323
 7496SOL     OW33946   3.491   3.939   4.799  0.6177  0.5976 -0.6395
 7496SOL    HW133947   3.580   3.911   4.819  0.0624 -0.3553  0.4883
 7496SOL    HW233948   3.442   3.909   4.876 -0.4451  1.8965 -0.7977
 7497SOL     OW33949   2.904   1.796   9.236 -0.0852  0.3488  0.1375
 7497SOL    HW133950   2.971   1.728   9.237 -0.8494 -0.3873  2.9134
 7497SOL    HW233951   2.843   1.750   9.294  0.0646  1.3982  1.1235
 7498SOL     OW33952   3.817   1.966   6.484  0.1085  0.5056 -0.2044
 7498SOL    HW133953   3.786   2.052   6.454 -2.1744 -0.7339 -1.3891
 7498SOL    HW233954   3.793   1.916   6.406  0.7034  1.0052 -0.7110
 7499SOL     OW33955   0.357   1.092  10.939 -0.2091 -0.3320  0.2559
 7499SOL    HW133956   0.343   1.002  10.967  0.8696 -0.7137 -0.4110
 7499SOL    HW233957   0.285   1.116  10.881  0.9424 -1.9186 -1.8347
 7500SOL     OW33958   0.486   0.692   8.648  0.1853 -0.1906  0.3407
 7500SOL    HW133959   0.546   0.653   8.585 -0.1996 -0.3558  0.0762
 7500SOL    HW233960   0.402   0.656   8.621  1.1758 -0.7686 -1.9895
 7501SOL     OW33961   0.600   3.261   4.926  0.8052 -0.3730  0.0155
 7501SOL    HW133962   0.527   3.319   4.904  0.7581 -0.2360  0.5339
 7501SOL    HW233963   0.672   3.324   4.916  0.5795  0.1852  1.8513
 7502SOL     OW33964   1.884   2.854  10.550  0.5601  0.2167  0.4165
 7502SOL    HW133965   1.880   2.819  10.461  0.1152  1.3428 -0.0074
 7502SOL    HW233966   1.800   2.822  10.582 -0.2811 -0.9707 -2.9760
 7503SOL     OW33967   0.791   1.325   1.362 -0.2455  0.4539 -0.6149
 7503SOL    HW133968   0.746   1.242   1.346 -0.4081  0.0048  2.1654
 7503SOL    HW233969   0.716   1.378   1.387  0.1756  1.7557 -2.1016
 7504SOL     OW33970   2.062   1.847   6.311  0.1050 -0.0995 -0.1425
 7504SOL    HW133971   2.010   1.873   6.387  1.9686  0.6561  0.8695
 7504SOL    HW233972   2.058   1.752   6.315  1.3037 -0.1156  0.5516
 7505SOL     OW33973   3.385   3.427   4.480 -0.1688 -0.1954  0.3295
 7505SOL    HW133974   3.469   3.419   4.527  2.3761 -2.1474 -4.5351
 7505SOL    HW233975   3.419   3.469   4.401 -2.1203 -2.6556 -1.7848
 7506SOL     OW33976   0.253   1.523   8.581 -0.2729  0.1238 -0.0569
 7506SOL    HW133977   0.189   1.460   8.549  0.1550 -0.4860  0.3049
 7506SOL    HW233978   0.256   1.495   8.672 -0.0352 -0.0353 -0.1148
 7507SOL     OW33979   3.131   2.126   8.756 -0.3576  0.1275 -0.1190
 7507SOL    HW133980   3.124   2.222   8.752  0.1642  0.2010  0.6886
 7507SOL    HW233981   3.168   2.119   8.844 -2.3514  0.9316  0.7790
 7508SOL     OW33982   3.904   0.844   1.774  0.7634 -0.4880 -0.7430
 7508SOL    HW133983   3.868   0.933   1.777  0.2333 -0.7979  2.4096
 7508SOL    HW233984   3.846   0.808   1.707 -0.3562  1.8457 -1.0402
 7509SOL     OW33985   2.522   1.184   7.102 -0.0654 -0.3880 -0.1444
 7509SOL    HW133986   2.605   1.204   7.058 -0.6629  1.1771 -0.5259
 7509SOL    HW233987   2.566   1.142   7.176 -1.9661  0.4252  1.4374
 7510SOL     OW33988   3.884   1.244   1.175  0.2832  0.5049  0.6734
 7510SOL    HW133989   3.853   1.179   1.238  2.1293 -1.6970 -0.6830
 7510SOL    HW233990   3.836   1.221   1.096  2.1438  0.0489 -0.3259
 7511SOL     OW33991   0.102   0.668   8.180  0.1702 -0.1142  0.4136
 7511SOL    HW133992   0.087   0.599   8.245 -1.1604 -2.9829 -2.9149
 7511SOL    HW233993   0.058   0.747   8.209  0.3968  0.2180 -0.1579
 7512SOL     OW33994   2.492   3.128   0.401  0.2618  0.5586  0.4364
 7512SOL    HW133995   2.514   3.159   0.313  0.4524  1.4349  0.7899
 7512SOL    HW233996   2.554   3.180   0.452  0.3574 -0.4014  1.3161
 7513SOL     OW33997   0.665   1.351  10.239  0.3368 -0.3854  0.4079
 7513SOL    HW133998   0.642   1.312  10.154  1.8017 -0.5542  0.0975
 7513SOL    HW233999   0.582   1.366  10.284  0.7848  2.1681  0.4166
 7514SOL     OW34000   1.505   2.949  12.339  0.2556  0.3359 -0.0782
 7514SOL    HW134001   1.420   2.918  12.369 -0.9708  2.0175 -1.7811
 7514SOL    HW234002   1.498   3.043  12.357  1.9141  0.3874  0.3038
 7515SOL     OW34003   4.340   3.237   2.243  0.1222 -0.6766  0.1516
 7515SOL    HW134004   4.413   3.267   2.188 -2.1945  2.3664 -1.2958
 7515SOL    HW234005   4.285   3.315   2.254  0.9650  0.0658 -0.8927
 7516SOL     OW34006   4.648   3.876   4.031  0.3437  0.5101  0.5627
 7516SOL    HW134007   4.563   3.841   4.058  1.1431 -1.1212  0.9321
 7516SOL    HW234008   4.673   3.935   4.102 -1.0806  0.9602  0.6905
 7517SOL     OW34009   1.809   4.534  10.298 -0.1045  0.0610  0.5789
 7517SOL    HW134010   1.757   4.454  10.309  1.5446 -1.3480 -1.8231
 7517SOL    HW234011   1.896   4.513  10.330 -0.2410 -0.4788  0.6002
 7518SOL     OW34012   2.927   2.084  14.841  0.1551  0.1849 -0.1240
 7518SOL    HW134013   2.838   2.078  14.875 -0.4698 -0.0273 -1.7561
 7518SOL    HW234014   2.968   2.050  14.920 -1.6152 -1.1198  0.2352
 7519SOL     OW34015   3.454   0.624   0.797  0.3488 -0.6388  0.6980
 7519SOL    HW134016   3.378   0.607   0.742  0.5091  0.9242 -0.0010
 7519SOL    HW234017   3.449   0.554   0.863 -0.4176  1.4015  2.8375
 7520SOL     OW34018   1.210   2.404   4.983 -0.4219 -0.1824 -0.0730
 7520SOL    HW134019   1.154   2.474   5.016  1.2006  0.8489  0.5078
 7520SOL    HW234020   1.261   2.444   4.912 -1.9883 -0.0461 -1.1313
 7521SOL     OW34021   4.258   3.181  12.500 -0.1099 -0.0210  0.1026
 7521SOL    HW134022   4.217   3.110  12.548 -0.4608  0.0444 -0.1022
 7521SOL    HW234023   4.302   3.126  12.434  0.0031  0.8064 -0.5222
 7522SOL     OW34024   1.359   4.360  15.774  0.2481  0.6710  0.5245
 7522SOL    HW134025   1.370   4.303  15.698  0.9104 -0.7376  1.6643
 7522SOL    HW234026   1.264   4.353  15.789  0.5484  0.3727  2.2495
 7523SOL     OW34027   1.875   2.015   6.217 -0.0181 -0.0177 -0.1229
 7523SOL    HW134028   1.961   1.983   6.243 -0.7082 -0.7038  1.3242
 7523SOL    HW234029   1.845   1.941   6.165 -2.2173 -0.2833  1.5445
 7524SOL     OW34030   1.981   0.943  15.549  0.0470 -0.3470 -0.0259
 7524SOL    HW134031   1.902   0.933  15.602  0.0521  0.7592  0.1833
 7524SOL    HW234032   1.948   0.903  15.469  0.1295  2.0743 -1.2562
 7525SOL     OW34033   4.489   0.372  17.694  0.0642  0.0881 -0.7113
 7525SOL    HW134034   4.501   0.277  17.693 -0.9858 -0.0763  1.1183
 7525SOL    HW234035   4.523   0.385  17.606 -0.8531 -0.6532 -1.1737
 7526SOL     OW34036   3.403   0.046   8.315  0.0364 -0.4517  0.3897
 7526SOL    HW134037   3.498   0.047   8.324 -0.0127 -2.0818  0.9477
 7526SOL    HW234038   3.385   0.139   8.331  0.2949 -0.1563 -1.0237
 7527SOL     OW34039   3.088   4.386   8.829  0.6948 -0.1411  0.0670
 7527SOL    HW134040   3.166   4.440   8.843  1.1619 -0.5083 -1.1186
 7527SOL    HW234041   3.131   4.309   8.793  1.3189 -0.5015  1.5747
 7528SOL     OW34042   2.497   0.592   7.446  0.6111 -0.3431  0.5538
 7528SOL    HW134043   2.496   0.522   7.381  0.0784  1.8009 -1.7465
 7528SOL    HW234044   2.527   0.543   7.523  2.7700 -0.1739 -0.1956
 7529SOL     OW34045   0.341   4.457  15.578  0.3986 -0.0153 -0.0162
 7529SOL    HW134046   0.292   4.477  15.658  0.0210  1.5904 -0.6608
 7529SOL    HW234047   0.263   4.446  15.523  0.8179 -1.5130 -0.3103
 7530SOL     OW34048   0.103   2.930   2.566 -0.4147  0.3865  0.1895
 7530SOL    HW134049   0.118   2.863   2.499  0.7843  2.1653 -1.3200
 7530SOL    HW234050   0.073   3.004   2.512 -1.9055 -0.7820 -0.5809
 7531SOL     OW34051   0.860   4.305  16.811  0.0198  0.1213  0.2492
 7531SOL    HW134052   0.953   4.290  16.791 -0.2013  1.7962 -2.0078
 7531SOL    HW234053   0.859   4.363  16.887 -1.6107  0.1121  0.2379
 7532SOL     OW34054   4.222   0.435   0.314 -0.3368 -0.4073  0.0990
 7532SOL    HW134055   4.276   0.487   0.255 -1.3692 -1.0982 -1.4690
 7532SOL    HW234056   4.202   0.495   0.386 -0.7253 -0.0875 -0.2657
 7533SOL     OW34057   1.309   3.772  16.644  0.4625 -0.9728  0.0722
 7533SOL    HW134058   1.240   3.809  16.589  1.5078 -0.3891 -0.8689
 7533SOL    HW234059   1.269   3.686  16.657 -0.4048 -0.6286 -0.3363
 7534SOL     OW34060   0.960   2.535   4.954  0.1349 -0.3598 -0.0856
 7534SOL    HW134061   0.894   2.501   4.893 -0.4959  0.4999  0.1154
 7534SOL    HW234062   0.914   2.567   5.032 -2.4971 -1.0332 -1.3669
 7535SOL     OW34063   4.330   4.547  17.147 -0.6979 -0.7465 -0.1247
 7535SOL    HW134064   4.307   4.471  17.094  2.2255 -1.5218 -0.3066
 7535SOL    HW234065   4.312   4.521  17.237 -0.2603 -0.9677 -0.0995
 7536SOL     OW34066   4.326   2.007   5.696 -0.2442  0.7115 -0.0959
 7536SOL    HW134067   4.363   2.094   5.710 -0.8356  0.5371  2.5536
 7536SOL    HW234068   4.232   2.027   5.697 -0.1521  1.1094  0.3065
 7537SOL     OW34069   0.504   0.664   3.329 -0.0356  0.7969  0.7597
 7537SOL    HW134070   0.587   0.651   3.375 -0.8669 -1.0318  1.7433
 7537SOL    HW234071   0.475   0.576   3.306  0.2618  1.0045 -0.4010
 7538SOL     OW34072   3.293   1.633  16.916  0.2918 -0.5097  0.2703
 7538SOL    HW134073   3.380   1.602  16.889 -0.1745 -0.0761 -1.7135
 7538SOL    HW234074   3.267   1.669  16.832 -0.3372  2.6578  1.8078
 7539SOL     OW34075   1.335   0.454  16.186  0.1273  0.4933 -0.2019
 7539SOL    HW134076   1.304   0.435  16.098  0.3778 -0.7016 -0.0381
 7539SOL    HW234077   1.423   0.416  16.186  0.4471  1.2525 -0.5482
 7540SOL     OW34078   4.011   3.761  11.942 -0.2598  0.0279 -0.2963
 7540SOL    HW134079   4.013   3.815  11.863 -1.2231  0.8503  0.2371
 7540SOL    HW234080   4.035   3.679  11.899 -0.2216 -0.7671  1.2113
 7541SOL     OW34081   2.688   2.740   3.600  0.2840  0.0819  0.4609
 7541SOL    HW134082   2.741   2.810   3.562  2.8145 -2.5139 -0.7176
 7541SOL    HW234083   2.655   2.702   3.519 -0.0670  2.6125 -0.6019
 7542SOL     OW34084   0.739   3.646   3.652 -0.8453  0.1910  0.1120
 7542SOL    HW134085   0.684   3.571   3.674 -0.4688  0.0373  0.5362
 7542SOL    HW234086   0.828   3.609   3.656 -0.3175  1.5408  1.1059
 7543SOL     OW34087   4.562   0.308  11.092 -0.1339  0.2461  0.2114
 7543SOL    HW134088   4.524   0.233  11.048  0.8259  0.6390 -1.2795
 7543SOL    HW234089   4.637   0.333  11.038 -0.1168 -1.2185 -0.4292
 7544SOL     OW34090   2.028   3.401   3.753  0.5665  0.0734 -0.0242
 7544SOL    HW134091   2.012   3.460   3.680 -0.1994 -3.8798 -3.0056
 7544SOL    HW234092   1.957   3.427   3.813 -0.1340 -1.3597 -0.2407
 7545SOL     OW34093   2.023   0.179   4.591 -0.3606  0.2357 -1.1640
 7545SOL    HW134094   1.928   0.166   4.593 -0.1385 -1.1438  1.5509
 7545SOL    HW234095   2.048   0.178   4.499  1.6075 -4.2242 -0.5902
 7546SOL     OW34096   1.383   2.755   5.602 -0.6974  0.0982 -0.4329
 7546SOL    HW134097   1.431   2.673   5.612 -1.1677 -0.2442 -0.9696
 7546SOL    HW234098   1.314   2.749   5.668 -2.3159 -1.5397 -2.2728
 7547SOL     OW34099   3.097   0.887   5.878  0.4896  0.3208  0.0422
 7547SOL    HW134100   3.156   0.914   5.808  1.9417 -0.1861  1.0679
 7547SOL    HW234101   3.123   0.945   5.949 -1.0049  1.0892 -0.0411
 7548SOL     OW34102   2.460   4.574   7.481  0.1122  0.5994  0.0997
 7548SOL    HW134103   2.380   4.525   7.500  1.7871 -2.3807 -0.4514
 7548SOL    HW234104   2.443   4.608   7.394  0.6409  1.5624  0.3765
 7549SOL     OW34105   2.032   4.684   5.019  0.4432 -0.2735 -0.1607
 7549SOL    HW134106   2.018   0.046   5.055  1.3113 -0.0158 -0.4641
 7549SOL    HW234107   2.039   4.634   5.100 -0.2649  0.2986  0.2537
 7550SOL     OW34108   2.686   1.549   7.044  0.7722  0.2671  0.1173
 7550SOL    HW134109   2.730   1.588   7.120 -0.1006  1.3807  0.0600
 7550SOL    HW234110   2.594   1.554   7.071  0.9554 -2.1109  1.1300
 7551SOL     OW34111   3.258   4.111  16.345  0.1003  0.8442 -0.2536
 7551SOL    HW134112   3.305   4.161  16.278  0.3933 -2.7743 -2.7662
 7551SOL    HW234113   3.186   4.073  16.295 -1.0949  0.2598  1.9114
 7552SOL     OW34114   2.576   3.298   8.178  0.2646  0.2341  0.5279
 7552SOL    HW134115   2.539   3.346   8.251 -2.1181 -2.3212  1.0179
 7552SOL    HW234116   2.614   3.222   8.223 -1.1775 -0.3503  0.7646
 7553SOL     OW34117   0.232   2.878  14.656 -0.2223 -0.4620 -0.7699
 7553SOL    HW134118   0.300   2.934  14.693 -1.7299 -0.4810  2.0900
 7553SOL    HW234119   0.159   2.910  14.709 -0.6225 -1.3910 -0.7567
 7554SOL     OW34120   3.082   1.015  13.777 -0.0967  0.3624  0.1604
 7554SOL    HW134121   3.034   1.075  13.834 -0.6299  0.1606 -0.0810
 7554SOL    HW234122   3.161   1.065  13.758  0.5635 -0.7114  0.1023
 7555SOL     OW34123   3.259   4.407  11.432 -0.0723 -0.6562  0.4510
 7555SOL    HW134124   3.283   4.496  11.404  0.2949 -1.6389 -2.3364
 7555SOL    HW234125   3.315   4.352  11.378 -0.9690 -0.2689 -0.8735
 7556SOL     OW34126   3.790   2.178   5.005 -0.2198  0.3403 -0.0927
 7556SOL    HW134127   3.743   2.246   4.956 -0.5902  1.3652  1.6972
 7556SOL    HW234128   3.846   2.141   4.937 -1.4722  0.1321 -1.0331
 7557SOL     OW34129   1.099   4.139   3.892 -0.0801 -0.1563  0.7170
 7557SOL    HW134130   1.128   4.081   3.962 -2.6048 -0.2985  1.6566
 7557SOL    HW234131   1.005   4.123   3.894 -0.6343  2.5762 -4.0371
 7558SOL     OW34132   1.342   3.886   6.504  0.2114  0.1829  0.2445
 7558SOL    HW134133   1.333   3.807   6.450  1.1933  0.5134 -0.3927
 7558SOL    HW234134   1.267   3.873   6.563  0.1072  3.0896  0.7450
 7559SOL     OW34135   4.044   4.420   4.678  0.1437 -0.1934  0.2824
 7559SOL    HW134136   4.040   4.502   4.628  0.0624 -0.6778 -0.5063
 7559SOL    HW234137   3.954   4.405   4.707  1.4196 -0.2319  4.1245
 7560SOL     OW34138   4.629   1.651  16.854 -0.1187 -0.3914 -0.3767
 7560SOL    HW134139   4.598   1.568  16.890  2.8108 -1.4463 -0.2628
 7560SOL    HW234140   4.620   1.649  16.759  0.8651  2.2284 -0.5139
 7561SOL     OW34141   1.731   4.203  13.193  0.4313  0.4867  0.0318
 7561SOL    HW134142   1.787   4.280  13.204  2.2246 -0.9344  0.6928
 7561SOL    HW234143   1.666   4.223  13.125 -0.7851  0.1572  1.0901
 7562SOL     OW34144   4.102   0.250   1.268 -0.4782  0.0292  0.4169
 7562SOL    HW134145   4.048   0.181   1.231  0.6617  0.9720 -2.9765
 7562SOL    HW234146   4.136   0.280   1.184 -0.2592 -2.4635 -0.3831
 7563SOL     OW34147   1.162   1.341   8.211 -0.0021 -0.2387  0.3290
 7563SOL    HW134148   1.109   1.299   8.278 -0.9409  2.0843  1.0462
 7563SOL    HW234149   1.246   1.311   8.246  0.3588  0.3805 -0.0103
 7564SOL     OW34150   2.112   0.545   9.266  0.3220  0.5864 -0.1577
 7564SOL    HW134151   2.191   0.547   9.211  0.8285  1.6727  0.6171
 7564SOL    HW234152   2.044   0.509   9.209  0.4981  2.3067 -1.4511
 7565SOL     OW34153   4.139   4.204  15.977 -0.0605  0.5678 -0.2473
 7565SOL    HW134154   4.164   4.157  16.056 -1.3811  1.1493  0.5178
 7565SOL    HW234155   4.065   4.153  15.944  0.8418 -0.7747 -0.2035
 7566SOL     OW34156   4.348   3.841   0.286 -0.4299 -0.0946 -0.8722
 7566SOL    HW134157   4.378   3.751   0.296 -2.5443 -0.5385  1.6073
 7566SOL    HW234158   4.331   3.841   0.192  0.0153  0.3301 -0.9526
 7567SOL     OW34159   3.441   2.680   2.443  0.0995 -0.0035 -0.1888
 7567SOL    HW134160   3.394   2.649   2.520  0.5738 -0.7006 -0.1887
 7567SOL    HW234161   3.529   2.679   2.480 -0.5009  0.6109  1.2298
 7568SOL     OW34162   3.576   1.475   9.778  0.6479  0.2315 -0.5397
 7568SOL    HW134163   3.567   1.506   9.868  1.4735 -2.4567  0.4586
 7568SOL    HW234164   3.670   1.469   9.764  0.5550  0.3509 -1.2407
 7569SOL     OW34165   0.186   0.109   6.721  0.2774 -0.2577  0.0207
 7569SOL    HW134166   0.277   0.139   6.721  0.2143 -0.0856  2.5210
 7569SOL    HW234167   0.138   0.177   6.673  1.5670 -0.7643 -1.9840
 7570SOL     OW34168   3.511   0.307  17.675  0.1045 -0.3895 -0.5216
 7570SOL    HW134169   3.435   0.288   0.024  1.9202 -0.5584  1.9226
 7570SOL    HW234170   3.537   0.227  17.630 -1.7352 -0.2866 -1.7837
 7571SOL     OW34171   1.354   0.854   6.280 -0.2644 -0.6612 -0.7484
 7571SOL    HW134172   1.301   0.810   6.347 -0.7163  0.3005 -0.4693
 7571SOL    HW234173   1.310   0.827   6.199  0.3637 -0.5664 -1.1196
 7572SOL     OW34174   0.853   1.289   2.414  0.4167  0.8094 -0.7541
 7572SOL    HW134175   0.790   1.303   2.343 -2.0009  2.2584  1.6819
 7572SOL    HW234176   0.821   1.349   2.481  1.4427 -0.4411  0.8339
 7573SOL     OW34177   1.270   0.175   3.934 -0.1649  0.2079 -0.9913
 7573SOL    HW134178   1.268   0.157   4.028 -1.6432  1.5327 -0.7796
 7573SOL    HW234179   1.283   0.270   3.932  2.3866 -0.0980  0.7552
 7574SOL     OW34180   1.727   2.607   8.175 -0.3846 -0.4159  0.4684
 7574SOL    HW134181   1.737   2.663   8.252  2.7395 -1.5369  0.8748
 7574SOL    HW234182   1.644   2.569   8.203  0.1798 -1.5274  0.5965
 7575SOL     OW34183   1.896   2.591  12.559 -1.1784  0.1876 -0.0681
 7575SOL    HW134184   1.807   2.562  12.578 -0.8710 -0.5346  0.2473
 7575SOL    HW234185   1.926   2.598  12.649  1.8643 -0.8552 -0.9855
 7576SOL     OW34186   2.770   3.528   3.062 -0.0933  0.1369 -0.0221
 7576SOL    HW134187   2.800   3.452   3.011  1.1375  0.4271  0.2569
 7576SOL    HW234188   2.698   3.551   3.004  0.4988  0.5822 -0.5926
 7577SOL     OW34189   0.432   4.415   4.253 -0.0848  0.3567  0.2064
 7577SOL    HW134190   0.396   4.479   4.315 -0.1164  0.7606 -0.2269
 7577SOL    HW234191   0.348   4.377   4.227  0.6631 -0.5445 -0.9116
 7578SOL     OW34192   2.002   2.356  15.859 -0.8648 -0.3416 -0.2718
 7578SOL    HW134193   1.930   2.293  15.867 -1.1959  0.0609 -0.0720
 7578SOL    HW234194   2.070   2.290  15.854  0.2510  1.0258 -3.4288
 7579SOL     OW34195   3.630   2.057  10.145 -0.1550  0.6276 -0.0394
 7579SOL    HW134196   3.651   2.135  10.196  2.4636  1.0960 -1.7870
 7579SOL    HW234197   3.592   2.000  10.212 -1.8154  1.6414 -0.1195
 7580SOL     OW34198   2.632   0.334   4.935  0.4559  0.0606 -0.2324
 7580SOL    HW134199   2.540   0.338   4.963  1.1785  0.1684  2.1373
 7580SOL    HW234200   2.622   0.380   4.852  0.3957 -0.1127 -0.3198
 7581SOL     OW34201   2.524   4.203   1.383  0.1908  0.0723  0.5879
 7581SOL    HW134202   2.520   4.259   1.461 -0.6792  1.0589 -0.1635
 7581SOL    HW234203   2.459   4.140   1.417 -0.8365  0.2410 -1.0522
 7582SOL     OW34204   0.528   3.733   2.545 -0.5710  0.1707 -1.0558
 7582SOL    HW134205   0.482   3.808   2.583  0.4734  0.6376 -0.7210
 7582SOL    HW234206   0.511   3.741   2.451 -3.2013  2.0249 -0.4415
 7583SOL     OW34207   1.510   4.649   0.906 -0.1373  0.4884  0.1115
 7583SOL    HW134208   1.558   0.001   0.933  0.3177 -0.0783  0.9658
 7583SOL    HW234209   1.552   4.583   0.962 -0.9240 -0.7084 -0.6895
 7584SOL     OW34210   1.785   2.968   9.677  0.0900  0.3073 -0.9748
 7584SOL    HW134211   1.747   2.928   9.755 -1.1975 -0.1153 -1.8111
 7584SOL    HW234212   1.856   3.016   9.720 -0.7046  1.2168 -0.6761
 7585SOL     OW34213   1.211   2.060   1.110 -0.0856  0.4265 -0.1854
 7585SOL    HW134214   1.212   2.043   1.015 -2.9869  1.0630 -0.3256
 7585SOL    HW234215   1.297   2.030   1.140 -0.5132 -1.6474 -1.0199
 7586SOL     OW34216   0.290   0.352   2.715 -0.3907  0.3277  0.1337
 7586SOL    HW134217   0.203   0.346   2.677 -0.2521  0.4744 -0.2036
 7586SOL    HW234218   0.347   0.330   2.642  0.4476  1.2647  0.5068
 7587SOL     OW34219   2.085   1.443   2.027 -0.2698 -0.2610 -0.0893
 7587SOL    HW134220   2.153   1.432   2.093  0.4354 -0.2805 -0.8220
 7587SOL    HW234221   2.007   1.430   2.080  0.0554 -0.4639  0.3380
 7588SOL     OW34222   0.279   1.686   1.833  0.5808  0.0300 -0.4457
 7588SOL    HW134223   0.280   1.591   1.828 -2.8762  0.0204 -0.6668
 7588SOL    HW234224   0.333   1.697   1.755 -0.6663 -1.2787 -1.4829
 7589SOL     OW34225   4.277   1.001   6.555 -0.3478  0.0942 -0.5271
 7589SOL    HW134226   4.244   1.031   6.640 -1.8412  0.6206 -1.2851
 7589SOL    HW234227   4.368   1.021   6.575 -0.0869 -0.4425 -1.1673
 7590SOL     OW34228   4.360   2.351   2.224  0.1774  0.5836 -0.2020
 7590SOL    HW134229   4.390   2.278   2.279 -2.2716 -0.7816 -0.6473
 7590SOL    HW234230   4.282   2.371   2.277  0.2162  0.5452 -0.1297
 7591SOL     OW34231   0.298   2.619  16.298 -0.0958  0.0087 -0.7649
 7591SOL    HW134232   0.336   2.543  16.344 -0.6421  0.1422 -0.0953
 7591SOL    HW234233   0.230   2.581  16.242 -0.6153 -1.5084  0.8697
 7592SOL     OW34234   4.432   3.226   7.501 -0.1433  0.5538 -0.0989
 7592SOL    HW134235   4.369   3.274   7.447 -0.8251 -1.6755 -1.2768
 7592SOL    HW234236   4.486   3.205   7.424  2.0689  2.5202  0.9157
 7593SOL     OW34237   2.473   0.257   0.501 -0.0799 -0.0171 -0.2115
 7593SOL    HW134238   2.527   0.216   0.568 -0.5347 -2.1411 -1.1557
 7593SOL    HW234239   2.402   0.293   0.554 -0.4142 -1.9347  0.6486
 7594SOL     OW34240   0.689   4.399  14.569  0.4774  0.1489  0.4038
 7594SOL    HW134241   0.679   4.383  14.475  1.0043 -4.8683  1.2165
 7594SOL    HW234242   0.601   4.369  14.589  1.3121 -2.1510  0.6609
 7595SOL     OW34243   1.089   3.732   3.705 -0.2817 -0.5721 -0.1718
 7595SOL    HW134244   1.031   3.715   3.779  1.4517  0.6652  1.4672
 7595SOL    HW234245   1.035   3.694   3.636 -0.8916 -0.9002  0.4822
 7596SOL     OW34246   1.105   3.866  16.500  0.1204  0.5107 -0.4850
 7596SOL    HW134247   1.072   3.955  16.494 -0.6061  0.3214  0.8966
 7596SOL    HW234248   1.177   3.862  16.436  0.3276  0.7128 -0.2659
 7597SOL     OW34249   0.258   3.924   4.837  0.2788  0.2116 -0.5314
 7597SOL    HW134250   0.251   3.882   4.922  0.5776  0.2368 -0.4942
 7597SOL    HW234251   0.268   4.012   4.872  1.3400  0.0598 -0.4647
 7598SOL     OW34252   0.193   4.385   5.592  0.2104 -0.3131 -1.0583
 7598SOL    HW134253   0.193   4.334   5.511 -1.5967 -0.4754 -0.9742
 7598SOL    HW234254   0.111   4.364   5.638  0.2735  0.0446 -0.7816
 7599SOL     OW34255   3.330   1.262   9.208 -0.2897  0.1506  0.0829
 7599SOL    HW134256   3.321   1.293   9.298 -0.1743  2.0761 -0.5744
 7599SOL    HW234257   3.373   1.336   9.165 -1.4357  2.6620  3.2579
 7600SOL     OW34258   0.965   0.005   5.549 -0.1312  0.2990 -0.9586
 7600SOL    HW134259   0.922   0.057   5.617  1.8289  0.4762  0.1446
 7600SOL    HW234260   0.899   4.714   5.482 -0.5822 -1.0010 -0.1785
 7601SOL     OW34261   1.883   3.848   2.437  0.0696  0.5054  0.3090
 7601SOL    HW134262   1.808   3.824   2.382  0.1384  0.8631  0.0564
 7601SOL    HW234263   1.944   3.890   2.376 -1.5243 -0.7477 -2.1543
 7602SOL     OW34264   0.104   1.711   6.726 -0.1969  0.1790  0.4911
 7602SOL    HW134265   0.192   1.739   6.753 -1.3011  2.8285  1.3095
 7602SOL    HW234266   0.086   1.636   6.782  0.1623 -1.6026 -1.7847
 7603SOL     OW34267   2.969   2.041   7.840  0.2217 -0.3092 -0.1064
 7603SOL    HW134268   2.995   2.120   7.793 -1.7871  0.2310 -0.2943
 7603SOL    HW234269   3.045   2.028   7.898  3.0230 -1.0055 -3.8993
 7604SOL     OW34270   4.305   2.639   2.642  0.3149 -0.0620  0.4289
 7604SOL    HW134271   4.284   2.704   2.710  0.3340  1.6543 -1.1770
 7604SOL    HW234272   4.243   2.666   2.573  0.3882  0.9842  0.7621
 7605SOL     OW34273   3.059   0.421   4.612 -0.0668 -0.4679  0.1503
 7605SOL    HW134274   3.127   0.442   4.676 -1.2036  1.9055  0.5833
 7605SOL    HW234275   3.122   0.395   4.545  0.1642 -1.1822  0.6331
 7606SOL     OW34276   3.724   3.267   4.381 -0.3915 -0.4494 -0.0711
 7606SOL    HW134277   3.792   3.199   4.375 -1.5889 -1.7832  1.4089
 7606SOL    HW234278   3.669   3.246   4.306  1.1665  1.9499 -1.9091
 7607SOL     OW34279   2.478   2.350   4.061 -0.2461  0.4055  0.0677
 7607SOL    HW134280   2.398   2.313   4.024  0.4580 -0.7222 -0.3410
 7607SOL    HW234281   2.482   2.298   4.142  0.1427 -0.5257 -0.5501
 7608SOL     OW34282   0.796   3.967   3.296 -0.2372 -0.0075 -0.0995
 7608SOL    HW134283   0.787   4.012   3.380 -1.8700  0.2598 -0.4105
 7608SOL    HW234284   0.788   4.040   3.235 -1.2593 -0.9948 -1.1380
 7609SOL     OW34285   3.059   2.775  13.358 -0.1796  0.4162  0.2070
 7609SOL    HW134286   3.074   2.857  13.407 -2.2127  0.5239  0.6333
 7609SOL    HW234287   3.029   2.721  13.431  0.8007 -0.9750 -0.4268
 7610SOL     OW34288   3.915   0.799   4.706  0.3158 -0.1459  0.1669
 7610SOL    HW134289   3.910   0.875   4.764  0.5195  0.5551 -0.7369
 7610SOL    HW234290   4.003   0.776   4.735 -0.0137 -0.3566  1.0023
 7611SOL     OW34291   0.477   2.009  13.852  0.0277 -0.2263  0.7268
 7611SOL    HW134292   0.431   2.083  13.812 -1.0048 -1.8832 -1.1263
 7611SOL    HW234293   0.410   1.948  13.883  2.1142 -2.6630  0.3940
 7612SOL     OW34294   1.339   0.443   8.266  0.0989 -0.4637 -0.0870
 7612SOL    HW134295   1.268   0.506   8.276 -0.3158 -0.4384 -3.1011
 7612SOL    HW234296   1.399   0.487   8.205 -1.5019  2.2343  0.3028
 7613SOL     OW34297   2.782   4.652   3.902 -0.0591  0.8324 -0.0243
 7613SOL    HW134298   2.695   4.689   3.921  0.2604  1.3895  0.3320
 7613SOL    HW234299   2.814   4.650   3.992  2.1586  1.7630 -0.8068
 7614SOL     OW34300   3.278   2.459  11.819 -0.4660  0.0936  0.2147
 7614SOL    HW134301   3.283   2.403  11.742  1.3651  2.1130 -1.1449
 7614SOL    HW234302   3.316   2.537  11.779  1.0043 -0.1665  1.1001
 7615SOL     OW34303   0.043   3.950   5.064 -0.2513 -0.2369  0.2663
 7615SOL    HW134304   0.085   3.939   5.149 -2.9619  1.1788  1.7854
 7615SOL    HW234305   0.073   4.037   5.038  1.0382 -0.7975 -0.1460
 7616SOL     OW34306   1.738   2.763   8.770 -0.0886  0.3614 -0.4255
 7616SOL    HW134307   1.674   2.814   8.721 -1.1299 -0.3941  0.1379
 7616SOL    HW234308   1.816   2.816   8.756 -0.1548  0.1553 -1.5843
 7617SOL     OW34309   4.158   3.189   2.907  0.5298 -0.0809  0.3093
 7617SOL    HW134310   4.201   3.191   2.992 -0.1145 -0.2419  0.6375
 7617SOL    HW234311   4.207   3.250   2.852 -0.4142  1.7290  1.4703
 7618SOL     OW34312   1.308   0.409   4.660 -0.2678 -0.1028 -0.5647
 7618SOL    HW134313   1.361   0.330   4.668 -0.8367 -0.2900  1.3724
 7618SOL    HW234314   1.344   0.456   4.585  1.3426 -0.1427  0.1785
 7619SOL     OW34315   0.513   2.900  12.159  0.0194 -0.4881 -0.2823
 7619SOL    HW134316   0.572   2.828  12.179 -0.5340 -0.5968  0.9553
 7619SOL    HW234317   0.539   2.927  12.071 -1.7270  4.4849  0.7419
 7620SOL     OW34318   2.004   3.791  16.469 -0.4622  0.6473  0.5649
 7620SOL    HW134319   1.981   3.699  16.484 -1.3412  0.9574  1.0768
 7620SOL    HW234320   2.096   3.781  16.445 -0.9288 -1.7390 -0.2201
 7621SOL     OW34321   0.538   1.248   1.863  0.2073  0.4414 -0.2850
 7621SOL    HW134322   0.581   1.334   1.861  4.4145 -1.6024  1.1497
 7621SOL    HW234323   0.609   1.196   1.826  1.6961  2.0438  0.3094
 7622SOL     OW34324   2.362   4.325   4.242 -0.1745 -0.1609  0.4243
 7622SOL    HW134325   2.343   4.411   4.280 -0.9789 -0.5241  0.8506
 7622SOL    HW234326   2.272   4.297   4.228 -0.9540  1.3120  2.4950
 7623SOL     OW34327   1.974   0.498  14.714  0.1769 -0.1125 -0.3290
 7623SOL    HW134328   1.974   0.518  14.620 -0.7657  3.2091  0.3780
 7623SOL    HW234329   2.062   0.465  14.732 -0.0351 -0.7558 -0.4651
 7624SOL     OW34330   4.026   2.514   1.059  0.6248  0.2855  0.0567
 7624SOL    HW134331   4.009   2.572   0.984  0.7894  1.3528  0.8490
 7624SOL    HW234332   4.055   2.573   1.128  1.5419 -2.5747  2.0805
 7625SOL     OW34333   2.750   1.859   6.284  0.0894 -0.1724 -0.0029
 7625SOL    HW134334   2.721   1.948   6.306  1.8531  0.0541  1.3701
 7625SOL    HW234335   2.668   1.819   6.255 -0.6374  0.8994  0.5436
 7626SOL     OW34336   2.700   1.996   7.858 -0.0606 -0.5008 -0.3452
 7626SOL    HW134337   2.795   1.991   7.870  0.0808  2.4069 -0.3961
 7626SOL    HW234338   2.669   2.069   7.911 -0.2465 -0.8138 -0.0198
 7627SOL     OW34339   0.702   2.714   3.904  0.5572 -0.6047 -0.2417
 7627SOL    HW134340   0.701   2.711   3.808  1.0854  0.2446 -0.2728
 7627SOL    HW234341   0.765   2.644   3.921  0.2250 -1.0935 -1.0052
 7628SOL     OW34342   4.454   1.252   5.421 -0.0783  0.2138 -0.1669
 7628SOL    HW134343   4.520   1.198   5.378 -0.9008  0.5967 -1.8810
 7628SOL    HW234344   4.458   1.336   5.376  0.4404 -0.6540 -1.7234
 7629SOL     OW34345   4.682   0.259   7.563 -1.0019 -0.4397  0.2639
 7629SOL    HW134346   0.017   0.255   7.490 -0.2523 -0.8240  0.9036
 7629SOL    HW234347   0.007   0.302   7.632 -1.6719  1.8665 -0.6963
 7630SOL     OW34348   2.907   4.379   7.891  0.1337 -0.1213  0.0106
 7630SOL    HW134349   2.887   4.289   7.917 -1.1741  0.5503  1.3096
 7630SOL    HW234350   2.818   4.408   7.872  0.1287  1.1210  1.9564
 7631SOL     OW34351   1.266   3.937  17.630  0.4041  0.1936 -0.2574
 7631SOL    HW134352   1.194   3.965  17.687  0.3655  2.2195 -1.2938
 7631SOL    HW234353   1.250   3.844  17.613  2.0477 -0.3836  1.3173
 7632SOL     OW34354   1.855   2.408   0.264  0.4765  0.0869  0.3437
 7632SOL    HW134355   1.860   2.408   0.360  0.6066 -2.9005  0.3332
 7632SOL    HW234356   1.941   2.388   0.228  0.5477  0.2679  0.4112
 7633SOL     OW34357   3.675   2.513   5.524  0.0052 -0.3679  0.1446
 7633SOL    HW134358   3.759   2.479   5.492  0.8015  1.5789  0.1535
 7633SOL    HW234359   3.609   2.458   5.482 -0.2592  0.5662 -0.6760
 7634SOL     OW34360   2.281   2.378   2.918  0.0456 -0.7949  0.3417
 7634SOL    HW134361   2.319   2.460   2.950 -2.5184  0.8085 -0.7501
 7634SOL    HW234362   2.334   2.354   2.842  1.0483  2.3392  0.0326
 7635SOL     OW34363   2.939   1.287   6.416 -0.2371 -0.1186 -0.3521
 7635SOL    HW134364   2.981   1.310   6.499 -2.8774  1.4075  0.5728
 7635SOL    HW234365   2.864   1.347   6.420  2.0078  2.6652 -0.3757
 7636SOL     OW34366   3.720   3.761   2.026  0.1497 -0.4701  0.8342
 7636SOL    HW134367   3.743   3.800   1.942 -1.4063 -0.2700  0.5029
 7636SOL    HW234368   3.635   3.724   2.004 -0.3833  1.1891  0.1401
 7637SOL     OW34369   2.442   2.625   2.128 -0.0915  0.4491  0.1828
 7637SOL    HW134370   2.357   2.604   2.089  1.0182 -1.7176 -1.0640
 7637SOL    HW234371   2.459   2.711   2.090 -0.9058  0.2169 -0.7177
 7638SOL     OW34372   3.049   3.095   4.273 -0.4191 -0.4931  0.1106
 7638SOL    HW134373   3.093   3.159   4.328  0.4122 -1.2814  0.3449
 7638SOL    HW234374   2.972   3.151   4.263 -0.1058 -0.0842 -0.0080
 7639SOL     OW34375   0.149   3.012   2.821 -0.2466 -0.4043 -0.4682
 7639SOL    HW134376   0.107   2.934   2.856 -0.5426 -0.0596 -0.0495
 7639SOL    HW234377   0.148   2.997   2.726  0.4056 -2.8114 -0.0967
 7640SOL     OW34378   0.253   2.712  12.351  0.4175 -0.1348 -0.1183
 7640SOL    HW134379   0.244   2.713  12.255 -2.2085 -0.2297  0.1333
 7640SOL    HW234380   0.160   2.690  12.364  0.8260 -1.2901  0.8513
 7641SOL     OW34381   2.169   2.101  13.130 -0.1600  0.3093  0.4732
 7641SOL    HW134382   2.212   2.019  13.153 -2.0812 -1.8511 -3.6771
 7641SOL    HW234383   2.193   2.168  13.194 -0.1587  1.7394 -1.0183
 7642SOL     OW34384   1.775   0.966   8.050  0.4712  0.3963  0.0216
 7642SOL    HW134385   1.742   0.894   8.105 -0.1917  0.1990 -0.6438
 7642SOL    HW234386   1.853   0.922   8.016  0.4901  0.1320  0.4073
 7643SOL     OW34387   2.807   3.127   2.297  0.0608  0.2894  0.0969
 7643SOL    HW134388   2.814   3.213   2.255  3.2589 -0.6295 -1.2424
 7643SOL    HW234389   2.893   3.088   2.281 -0.0638 -0.2562  0.7369
 7644SOL     OW34390   0.439   2.914   8.667 -0.1001  0.4928 -0.0205
 7644SOL    HW134391   0.455   2.842   8.727  2.9314 -0.2481 -1.6755
 7644SOL    HW234392   0.348   2.903   8.640 -0.6225  0.0171  1.9910
 7645SOL     OW34393   2.139   0.276   7.549  0.4316 -0.3482 -0.2466
 7645SOL    HW134394   2.053   0.246   7.579 -0.0629 -1.6568 -2.8936
 7645SOL    HW234395   2.183   0.192   7.535  0.8326 -0.3397  1.0013
 7646SOL     OW34396   4.424   4.159  12.132  0.3530  0.3370 -0.0749
 7646SOL    HW134397   4.400   4.117  12.214  1.2355  0.4061  0.2148
 7646SOL    HW234398   4.439   4.250  12.156 -0.0906  0.1476  0.8993
 7647SOL     OW34399   0.579   1.045   5.799  0.1798 -0.6573  0.2698
 7647SOL    HW134400   0.538   1.129   5.775  0.1290 -0.9380 -0.6390
 7647SOL    HW234401   0.542   1.022   5.884 -0.1436  0.4823  0.4347
 7648SOL     OW34402   1.513   0.027   3.138 -0.5834 -0.2913  0.2594
 7648SOL    HW134403   1.586   4.719   3.086 -0.4238  1.9435 -1.0042
 7648SOL    HW234404   1.441   0.019   3.075  2.0488  0.4154 -2.8842
 7649SOL     OW34405   3.968   0.375   2.105 -0.3091  0.1526  0.0499
 7649SOL    HW134406   3.969   0.331   2.020  0.3434 -1.4570  0.8900
 7649SOL    HW234407   4.062   0.368   2.123 -0.5368  0.6618  1.4083
 7650SOL     OW34408   3.591   2.496   7.361  0.0713 -0.1095  0.2906
 7650SOL    HW134409   3.522   2.553   7.394 -0.0258  0.1081 -0.2703
 7650SOL    HW234410   3.670   2.551   7.365  0.9295 -1.5013  2.4314
 7651SOL     OW34411   2.851   2.500   3.623 -0.1837 -0.1067 -0.0180
 7651SOL    HW134412   2.770   2.544   3.652 -0.4668 -0.9878  0.5284
 7651SOL    HW234413   2.876   2.550   3.545 -0.3223 -2.1045 -1.3388
 7652SOL     OW34414   1.771   0.716  15.487  0.0270 -0.5032 -0.2538
 7652SOL    HW134415   1.757   0.790  15.547 -0.2626 -0.5184 -0.3012
 7652SOL    HW234416   1.783   0.641  15.545  2.8701 -0.6894 -1.1317
 7653SOL     OW34417   0.655   1.249   6.401  0.3545  0.2601  0.5211
 7653SOL    HW134418   0.647   1.200   6.319 -0.8849  0.5185  0.4853
 7653SOL    HW234419   0.608   1.185   6.454  0.3534  0.1911  0.4355
 7654SOL     OW34420   4.196   1.961   8.068 -0.1595 -0.3362  0.1711
 7654SOL    HW134421   4.253   2.001   8.001 -1.3703 -1.8246 -1.7521
 7654SOL    HW234422   4.135   2.034   8.081  0.2561 -0.1974  1.2750
 7655SOL     OW34423   0.830   0.819   2.634 -0.2855  0.4053  1.1403
 7655SOL    HW134424   0.796   0.889   2.578  1.8280 -1.0652 -1.9870
 7655SOL    HW234425   0.748   0.781   2.667  0.2045 -1.1743  0.5579
 7656SOL     OW34426   0.858   0.186   0.168  0.1492  0.1059 -0.2239
 7656SOL    HW134427   0.876   0.276   0.195  2.9209 -0.6584  0.5499
 7656SOL    HW234428   0.947   0.160   0.192 -1.1240 -0.7385  3.4970
 7657SOL     OW34429   1.810   1.900   4.587  0.0121 -0.6824 -0.3323
 7657SOL    HW134430   1.799   1.990   4.618 -0.3567 -0.5618 -0.8048
 7657SOL    HW234431   1.718   1.872   4.582  0.3927 -1.5471 -2.5402
 7658SOL     OW34432   0.435   3.290   7.847  0.0066  0.6032 -0.3633
 7658SOL    HW134433   0.372   3.360   7.831 -0.0600  1.0784  2.0170
 7658SOL    HW234434   0.414   3.273   7.939  0.0080 -0.1668 -0.5034
 7659SOL     OW34435   2.767   1.432   8.181 -0.1619 -0.3030  0.0997
 7659SOL    HW134436   2.751   1.415   8.273 -0.2677  1.6296  0.4317
 7659SOL    HW234437   2.859   1.459   8.190 -0.4011  0.7607 -0.6714
 7660SOL     OW34438   4.491   2.102   6.586 -0.0615 -0.3801 -0.4365
 7660SOL    HW134439   4.583   2.084   6.610  0.2114  2.8663  0.9288
 7660SOL    HW234440   4.471   2.014   6.553 -0.0803 -0.4642 -0.2035
 7661SOL     OW34441   4.198   0.994   7.451  0.1784  0.1082 -0.2184
 7661SOL    HW134442   4.116   1.032   7.418  0.1499 -1.0733 -1.4928
 7661SOL    HW234443   4.208   1.026   7.541  1.8306 -1.7368  0.2270
 7662SOL     OW34444   3.873   0.492   3.468 -0.4407  0.2119 -0.2499
 7662SOL    HW134445   3.966   0.472   3.457 -0.2732  1.9274 -2.0160
 7662SOL    HW234446   3.829   0.409   3.449 -1.6138  0.5553  0.9930
 7663SOL     OW34447   3.322   1.526   8.742 -0.8998  0.2399  0.0932
 7663SOL    HW134448   3.315   1.446   8.691  1.5634  0.0030  0.1649
 7663SOL    HW234449   3.348   1.491   8.827  0.7065  0.6792 -0.2328
 7664SOL     OW34450   2.909   1.991   9.959 -0.2201 -0.1406 -0.6644
 7664SOL    HW134451   2.927   2.032   9.875 -0.2951  1.0958 -0.0857
 7664SOL    HW234452   2.817   2.009   9.980  0.0028  1.0989 -0.7528
 7665SOL     OW34453   3.520   0.990   0.652 -0.1978 -0.5760  0.0759
 7665SOL    HW134454   3.532   0.976   0.746 -0.4102  1.3919  0.4025
 7665SOL    HW234455   3.608   0.985   0.616 -1.0273 -1.6364 -1.8183
 7666SOL     OW34456   2.121   1.548   8.054  0.5933 -0.3335  0.2489
 7666SOL    HW134457   2.097   1.515   8.140 -0.5119 -0.2163 -0.0228
 7666SOL    HW234458   2.176   1.623   8.077 -2.1037  1.4241  0.9740
 7667SOL     OW34459   2.750   2.020   9.130 -0.1626  0.0656 -0.3107
 7667SOL    HW134460   2.810   1.954   9.166 -0.2968  1.0371  1.7058
 7667SOL    HW234461   2.737   1.988   9.041  2.6557 -4.8152  1.0263
 7668SOL     OW34462   3.855   2.369  10.121  0.5108 -0.0055  0.3802
 7668SOL    HW134463   3.781   2.358  10.179  0.5557 -3.1260 -0.1470
 7668SOL    HW234464   3.881   2.447  10.169 -2.6915  2.3461 -1.7628
 7669SOL     OW34465   3.379   1.557   4.216  0.0463  0.1212  0.6271
 7669SOL    HW134466   3.416   1.543   4.303 -0.4074  1.2873  1.0096
 7669SOL    HW234467   3.348   1.467   4.211 -1.0629  0.4565  1.5561
 7670SOL     OW34468   3.032   2.923   0.368  0.3905 -0.4225 -0.1039
 7670SOL    HW134469   3.121   2.949   0.392 -0.2884  1.2040  0.6740
 7670SOL    HW234470   2.976   2.993   0.401  0.5637  0.8707 -2.5503
 7671SOL     OW34471   4.584   3.345   0.087  0.3784 -0.4956  0.0994
 7671SOL    HW134472   4.584   3.337   0.182 -0.2298 -0.0764  0.1383
 7671SOL    HW234473   4.673   3.378   0.072 -0.8076  3.0869  0.8558
 7672SOL     OW34474   1.953   0.185   3.983  0.1587  0.3992  0.9237
 7672SOL    HW134475   1.921   0.211   4.069 -0.9003 -0.1295  0.6910
 7672SOL    HW234476   2.033   0.237   3.975  0.8536 -0.7316  0.6297
 7673SOL     OW34477   2.028   4.659   9.279 -0.3597 -0.3495  0.2835
 7673SOL    HW134478   2.049   0.006   9.336 -1.8447 -0.2083  0.6512
 7673SOL    HW234479   1.945   4.621   9.309 -0.4464  0.7696  1.4511
 7674SOL     OW34480   2.596   4.484   5.934 -0.3304 -0.0461  0.0630
 7674SOL    HW134481   2.677   4.534   5.928 -1.6356  1.8712 -1.5652
 7674SOL    HW234482   2.528   4.548   5.956  0.1921 -0.2222  2.1935
 7675SOL     OW34483   2.466   0.386   1.805 -0.9190  0.5022 -0.1598
 7675SOL    HW134484   2.411   0.338   1.866  0.1031  0.3255  0.6328
 7675SOL    HW234485   2.453   0.331   1.728  1.4038 -1.8004  1.1013
 7676SOL     OW34486   3.936   0.899   2.827 -0.4831 -0.0217  0.0158
 7676SOL    HW134487   3.947   0.845   2.905 -2.5544  0.0619  0.3719
 7676SOL    HW234488   4.003   0.965   2.848 -0.4491  0.0314 -0.2560
 7677SOL     OW34489   1.029   1.372   5.339  0.3103  0.3275 -0.6005
 7677SOL    HW134490   0.946   1.336   5.308  0.3094 -1.9236  1.9603
 7677SOL    HW234491   1.091   1.299   5.348  0.5873  0.7433  0.9164
 7678SOL     OW34492   4.069   3.074   4.310 -0.3909 -0.2681  0.5898
 7678SOL    HW134493   4.055   3.102   4.219  0.0681  0.4894  0.7546
 7678SOL    HW234494   4.042   2.983   4.295  2.4007 -0.9832 -0.1336
 7679SOL     OW34495   4.290   3.393   2.653  0.6686 -0.1068  0.1728
 7679SOL    HW134496   4.373   3.409   2.607 -0.2977 -0.2291 -1.6305
 7679SOL    HW234497   4.301   3.446   2.732 -0.7772  1.1865 -0.4988
 7680SOL     OW34498   1.731   4.532   7.428 -0.0476  0.9959  0.8768
 7680SOL    HW134499   1.808   4.486   7.460 -0.5373 -1.3615 -1.3475
 7680SOL    HW234500   1.664   4.472   7.459  1.0314 -0.2048  0.8720
 7681SOL     OW34501   2.686   2.385   4.804 -0.3015 -0.0552  0.2306
 7681SOL    HW134502   2.670   2.386   4.710 -3.8181  1.6372  0.8372
 7681SOL    HW234503   2.774   2.422   4.803  0.3279 -1.5523 -0.1597
 7682SOL     OW34504   2.989   2.766   6.954  0.3331  0.3261 -0.3066
 7682SOL    HW134505   2.906   2.719   6.942 -0.5451  2.2709 -1.9175
 7682SOL    HW234506   2.985   2.818   6.873  1.5582  1.0265  0.0805
 7683SOL     OW34507   2.966   3.224   5.683 -0.0975 -0.2720  0.6983
 7683SOL    HW134508   3.002   3.309   5.658  0.0697 -0.2619  0.9838
 7683SOL    HW234509   2.900   3.219   5.614 -1.6437 -0.1463  2.1638
 7684SOL     OW34510   1.346   1.907   0.558  0.2511 -0.0771 -0.7689
 7684SOL    HW134511   1.388   1.918   0.472  1.7753 -1.0850 -0.1411
 7684SOL    HW234512   1.384   1.826   0.591 -0.9070 -0.5341 -0.5590
 7685SOL     OW34513   1.805   1.621  11.411 -0.3007 -0.0994  0.5366
 7685SOL    HW134514   1.740   1.554  11.434  0.6577 -0.5711  1.8648
 7685SOL    HW234515   1.880   1.563  11.419  1.8734  2.6711  0.0035
 7686SOL     OW34516   2.059   3.269  13.641  0.7913  0.9457  0.1989
 7686SOL    HW134517   1.997   3.335  13.670 -1.1117 -0.5506 -0.5022
 7686SOL    HW234518   2.120   3.262  13.715 -1.9918  0.9213  2.4583
 7687SOL     OW34519   4.683   1.144  16.034 -0.1504  0.0076 -0.3581
 7687SOL    HW134520   0.009   1.065  16.023  0.1875  0.1771  0.0005
 7687SOL    HW234521   4.624   1.138  15.959 -0.9376 -1.1052  0.3489
 7688SOL     OW34522   4.093   1.541   7.971  0.8793  0.0774  0.4416
 7688SOL    HW134523   4.027   1.477   7.998  0.9901 -0.8786 -1.6037
 7688SOL    HW234524   4.170   1.516   8.021 -0.2034 -0.2782  1.9537
 7689SOL     OW34525   1.358   0.828  13.042 -0.1827 -0.1879 -0.3014
 7689SOL    HW134526   1.396   0.795  13.124 -2.1142 -0.2087  0.5658
 7689SOL    HW234527   1.270   0.854  13.070  1.6825  2.9542  2.7350
 7690SOL     OW34528   1.582   0.013   2.306  0.1495 -0.0301  0.3798
 7690SOL    HW134529   1.624   4.687   2.374  2.8147  1.0889 -0.4232
 7690SOL    HW234530   1.493   0.019   2.341 -0.3809  1.0186 -1.1397
 7691SOL     OW34531   3.841   4.108   2.773 -0.1661 -0.1636  0.3081
 7691SOL    HW134532   3.872   4.180   2.719  0.4530 -0.4466  0.2937
 7691SOL    HW234533   3.747   4.119   2.788 -0.3640 -0.3036 -0.8172
 7692SOL     OW34534   3.869   4.240  10.027 -0.6540  0.3311 -0.7429
 7692SOL    HW134535   3.904   4.320   9.987  0.3162  1.1973  1.8128
 7692SOL    HW234536   3.912   4.238  10.112 -2.3007  0.3091  0.0868
 7693SOL     OW34537   3.808   2.382  14.746 -0.3143 -0.3951 -0.6564
 7693SOL    HW134538   3.890   2.345  14.713 -0.0466  0.2106 -0.6748
 7693SOL    HW234539   3.818   2.473  14.718  0.9375  0.8304  3.7392
 7694SOL     OW34540   2.343   2.397  13.009 -0.5219 -0.3039  0.1950
 7694SOL    HW134541   2.328   2.322  12.951 -1.9091  1.1366 -1.2936
 7694SOL    HW234542   2.438   2.408  13.014 -0.6799  1.1610 -0.0802
 7695SOL     OW34543   1.837   4.054   6.480 -0.6339  0.1753 -0.0623
 7695SOL    HW134544   1.760   4.026   6.529  0.4364 -0.7509  1.0867
 7695SOL    HW234545   1.901   4.004   6.531  0.2480  1.4316  0.0639
 7696SOL     OW34546   1.521   3.472  15.648  0.1013 -0.3970 -0.2842
 7696SOL    HW134547   1.613   3.470  15.619  0.4582 -0.5835  0.8793
 7696SOL    HW234548   1.469   3.435  15.576 -2.3076  0.8181  0.8526
 7697SOL     OW34549   4.560   0.884   5.254  0.4790 -0.2999 -0.4201
 7697SOL    HW134550   4.598   0.971   5.260  1.7645 -0.8879 -0.1271
 7697SOL    HW234551   4.602   0.839   5.181 -0.8192 -1.7229 -0.2885
 7698SOL     OW34552   3.046   1.738   4.716  0.0210 -0.2728 -0.6262
 7698SOL    HW134553   3.009   1.684   4.646  2.0757 -4.7439  1.7959
 7698SOL    HW234554   3.096   1.675   4.768 -0.6447  1.1906  1.7954
 7699SOL     OW34555   1.127   0.739  17.246  0.6058  0.1346 -0.1134
 7699SOL    HW134556   1.044   0.692  17.254  1.9420 -2.1320  0.2828
 7699SOL    HW234557   1.168   0.729  17.332  1.9557  0.1479 -0.7476
 7700SOL     OW34558   4.451   3.221   6.509  0.0367  0.0332  0.9064
 7700SOL    HW134559   4.516   3.150   6.509  0.8584  0.7798  0.8522
 7700SOL    HW234560   4.479   3.264   6.428 -0.6071  0.2481  0.8008
 7701SOL     OW34561   3.139   3.430   4.756  0.0596 -0.1680  0.3196
 7701SOL    HW134562   3.123   3.510   4.706  1.3642 -0.2167 -0.1755
 7701SOL    HW234563   3.186   3.463   4.832  0.1188  0.4557  0.0092
 7702SOL     OW34564   2.097   4.426  11.536 -0.4179  0.5724  0.1848
 7702SOL    HW134565   2.120   4.479  11.460  0.2783  1.0332  0.7132
 7702SOL    HW234566   2.158   4.436  11.609 -1.4263 -3.3406  1.5960
 7703SOL     OW34567   4.362   3.066   2.739  0.2891  0.6227 -0.2536
 7703SOL    HW134568   4.385   3.084   2.648  1.0838 -1.2307 -0.4161
 7703SOL    HW234569   4.287   3.122   2.762 -1.2358 -1.1133 -1.0428
 7704SOL     OW34570   1.513   2.604   3.061  0.1171 -0.2944 -0.2350
 7704SOL    HW134571   1.563   2.601   2.980  0.5453 -1.7052  0.0869
 7704SOL    HW234572   1.478   2.693   3.060  1.3822  0.2101  0.5824
 7705SOL     OW34573   0.061   1.148   7.467 -0.0580 -0.5870 -0.2982
 7705SOL    HW134574   4.725   1.090   7.512 -2.0687  1.1709 -0.7724
 7705SOL    HW234575   0.122   1.174   7.536 -1.5537 -0.4287  0.9784
 7706SOL     OW34576   0.510   1.478   6.033  0.2228  0.1491 -0.5941
 7706SOL    HW134577   0.583   1.515   5.984 -0.7025  0.7822 -1.5045
 7706SOL    HW234578   0.455   1.551   6.062 -1.4241 -1.4042  0.2381
 7707SOL     OW34579   2.673   4.139   3.213 -0.5932 -0.4094  0.5029
 7707SOL    HW134580   2.609   4.186   3.265 -1.4349 -0.4192 -0.5180
 7707SOL    HW234581   2.738   4.140   3.283 -0.5048  1.0680  0.4015
 7708SOL     OW34582   3.213   0.556   7.821  0.5652  0.1625  0.1424
 7708SOL    HW134583   3.197   0.463   7.840  0.3968  0.2105  0.2373
 7708SOL    HW234584   3.195   0.559   7.727  0.4751  0.9046  0.1839
 7709SOL     OW34585   4.090   1.915   8.821 -0.4598  0.2557 -0.1681
 7709SOL    HW134586   4.052   1.932   8.908  0.8997  0.2105  0.4293
 7709SOL    HW234587   4.174   1.873   8.839  0.2149  1.2972 -0.8945
 7710SOL     OW34588   1.826   1.377  11.957  0.0012  0.0021 -0.4937
 7710SOL    HW134589   1.843   1.356  11.865 -1.5322 -0.6018 -0.6284
 7710SOL    HW234590   1.901   1.428  11.988  0.1060  0.0020 -0.7435
 7711SOL     OW34591   1.521   2.093   9.360  0.5286  0.2597  0.2663
 7711SOL    HW134592   1.498   2.010   9.318  0.4586  0.6549 -0.4625
 7711SOL    HW234593   1.617   2.086   9.361  0.5122  0.3469  2.1684
 7712SOL     OW34594   2.699   0.756   5.173 -0.7030  0.0873  0.1548
 7712SOL    HW134595   2.763   0.692   5.206  0.1677  0.4916 -0.7502
 7712SOL    HW234596   2.691   0.728   5.082 -1.6189 -1.2531  0.6466
 7713SOL     OW34597   0.911   0.381  15.586  0.1436  0.5496  0.1223
 7713SOL    HW134598   0.891   0.462  15.632 -0.6033 -0.1112  0.9760
 7713SOL    HW234599   0.953   0.405  15.503  1.8430 -1.0368  0.4964
 7714SOL     OW34600   1.304   4.560  15.389 -0.0731 -0.1373 -0.3280
 7714SOL    HW134601   1.291   4.476  15.345  1.3256 -1.5941  1.9963
 7714SOL    HW234602   1.397   4.558  15.367 -0.2176 -1.8232 -0.7869
 7715SOL     OW34603   1.866   0.340  11.872 -0.1664 -0.2655 -0.3375
 7715SOL    HW134604   1.907   0.260  11.905 -2.1204 -1.1435 -0.0251
 7715SOL    HW234605   1.942   0.381  11.829 -0.3871 -0.0917 -0.5591
 7716SOL     OW34606   1.676   1.701  12.537 -0.0634  0.1772  0.3323
 7716SOL    HW134607   1.664   1.796  12.538  0.2574  0.2361 -0.9396
 7716SOL    HW234608   1.725   1.696  12.619 -1.7286 -0.2484  1.2939
 7717SOL     OW34609   2.981   2.255   6.290  0.1457  0.7526  0.1612
 7717SOL    HW134610   2.957   2.341   6.325 -0.1184  0.6128  0.3203
 7717SOL    HW234611   3.054   2.230   6.347  0.5949  0.4210 -0.5538
 7718SOL     OW34612   3.153   4.582   0.161  0.2869  0.1352  0.0954
 7718SOL    HW134613   3.244   4.611   0.152  0.4584 -1.4834 -3.1449
 7718SOL    HW234614   3.094   4.657   0.169 -0.4524 -0.7154  2.6024
 7719SOL     OW34615   4.617   1.328   0.250  0.3355  0.0917 -0.3769
 7719SOL    HW134616   4.705   1.363   0.239 -0.3430  1.9673  0.1972
 7719SOL    HW234617   4.626   1.283   0.334 -0.1219  2.5751  1.0073
 7720SOL     OW34618   2.322   3.887   7.209  0.1841  0.0078 -0.1652
 7720SOL    HW134619   2.333   3.795   7.186 -1.4242 -0.4283  0.7715
 7720SOL    HW234620   2.382   3.929   7.148 -0.5019 -1.1152 -1.6225
 7721SOL     OW34621   2.845   1.914  16.050  0.0121  0.1457  0.4110
 7721SOL    HW134622   2.871   1.845  16.110 -0.8165 -1.6654 -1.3059
 7721SOL    HW234623   2.933   1.935  16.020  0.3419 -2.6417 -0.5269
 7722SOL     OW34624   3.924   4.423   4.382  0.1417  0.2454 -0.5106
 7722SOL    HW134625   4.013   4.400   4.354  0.5072  2.3506 -1.0224
 7722SOL    HW234626   3.953   4.481   4.453 -0.1685  1.7934 -1.6634
 7723SOL     OW34627   1.615   3.516   9.408 -0.0424  0.9157 -0.2057
 7723SOL    HW134628   1.668   3.436   9.402  1.7554  1.8490  3.3939
 7723SOL    HW234629   1.531   3.481   9.381  0.3475  0.9231 -1.4277
 7724SOL     OW34630   1.968   1.493  12.530 -0.4337  0.1596 -0.2184
 7724SOL    HW134631   1.906   1.561  12.558 -0.1169  0.1470  0.4985
 7724SOL    HW234632   1.908   1.421  12.510  0.5261 -0.3854 -1.1085
 7725SOL     OW34633   1.387   2.672   0.717 -0.2576  0.0521 -0.3044
 7725SOL    HW134634   1.351   2.709   0.636  0.7297  1.0649 -0.2865
 7725SOL    HW234635   1.347   2.713   0.793 -0.6628 -0.8656 -0.0233
 7726SOL     OW34636   2.823   3.858   6.502  0.5974 -0.5316  0.2003
 7726SOL    HW134637   2.849   3.891   6.416 -0.6593 -2.0243 -0.7556
 7726SOL    HW234638   2.739   3.814   6.487  0.1506 -0.0647  1.3205
 7727SOL     OW34639   4.423   4.256   6.231  0.5440 -0.5192 -0.0854
 7727SOL    HW134640   4.378   4.324   6.282  1.5638 -0.3844  0.6327
 7727SOL    HW234641   4.459   4.212   6.308  0.2658 -0.5936  0.0025
 7728SOL     OW34642   2.382   0.406   5.742  0.1738 -0.0799 -0.5245
 7728SOL    HW134643   2.343   0.370   5.663 -1.7187 -0.7067  0.6978
 7728SOL    HW234644   2.455   0.463   5.719 -0.8410  1.8627  1.0391
 7729SOL     OW34645   1.869   1.131   7.823 -0.0551  0.3109 -0.5901
 7729SOL    HW134646   1.841   1.082   7.745 -0.5548  1.0002 -0.8510
 7729SOL    HW234647   1.785   1.167   7.854 -1.8135  0.1637 -5.1192
 7730SOL     OW34648   4.610   3.691   8.044 -0.3411 -0.1474 -0.4106
 7730SOL    HW134649   4.591   3.724   7.957  1.5414  2.8572  0.3194
 7730SOL    HW234650   4.692   3.646   8.022  0.7464  2.5182 -1.8215
 7731SOL     OW34651   0.457   1.866   5.116  0.1968 -0.3388  0.2833
 7731SOL    HW134652   0.425   1.948   5.079  1.3045 -0.3493 -0.6752
 7731SOL    HW234653   0.409   1.872   5.199 -3.3724  1.3751 -1.9130
 7732SOL     OW34654   1.623   1.008   3.513  0.2135 -0.3315 -0.2165
 7732SOL    HW134655   1.575   0.941   3.464  0.2598 -0.7197  0.2720
 7732SOL    HW234656   1.569   1.036   3.588 -0.6978 -0.7065 -0.7281
 7733SOL     OW34657   4.226   3.223   8.483  0.0634  0.3857 -0.3323
 7733SOL    HW134658   4.243   3.306   8.527  0.5829  0.0834  0.0538
 7733SOL    HW234659   4.225   3.266   8.398 -2.3130  1.0199  0.0383
 7734SOL     OW34660   3.087   0.784   8.483  0.2615  0.0038  0.0130
 7734SOL    HW134661   3.031   0.713   8.514 -0.3828  0.3026 -0.4656
 7734SOL    HW234662   3.131   0.743   8.409  0.3767 -2.6438  1.5779
 7735SOL     OW34663   0.144   2.219   3.379 -0.2157 -0.1641 -0.3446
 7735SOL    HW134664   0.233   2.229   3.345  0.0538 -0.5326  0.2566
 7735SOL    HW234665   0.098   2.251   3.301 -2.7305 -1.5606  0.5379
 7736SOL     OW34666   0.531   1.391  11.158 -0.8539  0.6172  0.0837
 7736SOL    HW134667   0.614   1.414  11.116 -0.5796 -1.5488 -0.5602
 7736SOL    HW234668   0.472   1.434  11.096  1.3551  0.3034 -2.2062
 7737SOL     OW34669   3.373   3.577   4.227 -0.2019 -0.6144  0.3322
 7737SOL    HW134670   3.402   3.618   4.146 -1.6661 -3.2449 -1.5010
 7737SOL    HW234671   3.284   3.559   4.199 -0.0872 -0.2679 -0.2450
 7738SOL     OW34672   0.584   3.539   8.164 -0.2157  0.3433  1.0240
 7738SOL    HW134673   0.636   3.492   8.099 -1.1373  0.2979  0.3247
 7738SOL    HW234674   0.653   3.577   8.219 -0.1188 -0.7140  1.6485
 7739SOL     OW34675   1.259   4.001   7.825  0.4034  0.0642 -0.1865
 7739SOL    HW134676   1.336   4.056   7.807  1.3663 -1.2506 -0.1187
 7739SOL    HW234677   1.207   4.057   7.882 -0.4513 -2.1606  1.2162
 7740SOL     OW34678   2.696   0.718   7.153  0.1522 -0.4035 -0.1920
 7740SOL    HW134679   2.758   0.786   7.181  0.5139 -0.1271 -1.6429
 7740SOL    HW234680   2.654   0.751   7.073 -0.1628  1.9321  0.9395
 7741SOL     OW34681   0.853   1.704   4.594  0.1755  0.2726  0.0756
 7741SOL    HW134682   0.803   1.710   4.513 -0.5213  1.1080  0.5786
 7741SOL    HW234683   0.807   1.649   4.658 -2.9720 -0.0351 -2.4938
 7742SOL     OW34684   3.730   2.325   4.589 -0.5757 -0.2055  0.0484
 7742SOL    HW134685   3.672   2.367   4.525 -2.0314 -1.6797  0.4132
 7742SOL    HW234686   3.737   2.239   4.547  1.8698  0.3801 -0.7799
 7743SOL     OW34687   3.415   4.485  12.899 -0.1453  0.3446  0.3969
 7743SOL    HW134688   3.340   4.531  12.861  0.3537 -0.6116 -1.7313
 7743SOL    HW234689   3.378   4.398  12.886  1.0790  0.0573 -1.2339
 7744SOL     OW34690   3.598   0.004   7.194 -0.6429 -0.2632  0.6747
 7744SOL    HW134691   3.544   0.074   7.230  0.6968  0.6997  0.7962
 7744SOL    HW234692   3.612   4.663   7.261 -1.0221 -1.2012 -0.1882
 7745SOL     OW34693   4.688   4.197  14.835  0.1339  0.3165  0.2324
 7745SOL    HW134694   0.044   4.212  14.788 -0.3758 -0.3518 -0.8546
 7745SOL    HW234695   4.622   4.173  14.770  0.1286 -2.0015  1.1291
 7746SOL     OW34696   1.783   1.692   0.094  0.0298  0.2994 -0.0164
 7746SOL    HW134697   1.841   1.709   0.169 -1.1520 -0.9678  1.1940
 7746SOL    HW234698   1.773   1.781   0.061  0.6198 -0.1502 -1.3708
 7747SOL     OW34699   3.942   1.258   6.337 -0.3004  0.0061 -0.1104
 7747SOL    HW134700   4.014   1.197   6.318  1.4055  1.6325  1.0448
 7747SOL    HW234701   3.914   1.296   6.254 -2.4128  0.6556  0.9041
 7748SOL     OW34702   4.710   4.226  15.602  0.2771 -0.2425 -0.4047
 7748SOL    HW134703   0.037   4.283  15.658 -0.3311 -3.0368  2.9964
 7748SOL    HW234704   0.017   4.138  15.616  1.1364 -0.0316 -1.0881
 7749SOL     OW34705   4.035   3.498   3.703  0.5294  0.3179 -0.6873
 7749SOL    HW134706   4.043   3.580   3.751  2.0560 -0.6861  0.7711
 7749SOL    HW234707   3.941   3.485   3.714  0.4011  3.1832  1.4269
 7750SOL     OW34708   2.484   2.066   8.534 -0.2058 -0.4596  0.6511
 7750SOL    HW134709   2.550   2.000   8.514 -1.6731 -1.8412  0.3631
 7750SOL    HW234710   2.535   2.146   8.547  1.4624 -1.5572  0.8291
 7751SOL     OW34711   2.825   4.130  14.948 -0.2123 -0.1175  0.2723
 7751SOL    HW134712   2.772   4.082  14.885 -0.0994  1.0415 -0.7068
 7751SOL    HW234713   2.863   4.199  14.895  1.8202 -0.8741  0.7647
 7752SOL     OW34714   2.233   0.897  16.328 -0.6352 -0.2987  0.5968
 7752SOL    HW134715   2.203   0.900  16.419 -2.4326 -0.4704  0.0144
 7752SOL    HW234716   2.186   0.819  16.299  0.5364 -0.3124 -1.2909
 7753SOL     OW34717   4.077   0.386  11.205  0.5764  0.1588  0.1760
 7753SOL    HW134718   4.071   0.354  11.295 -2.1347  3.6326  1.2107
 7753SOL    HW234719   4.164   0.426  11.206  0.1476  1.0911 -0.0828
 7754SOL     OW34720   0.674   3.497   6.331 -0.1721  0.0097  0.2989
 7754SOL    HW134721   0.631   3.445   6.398 -2.4039  2.0571  0.4587
 7754SOL    HW234722   0.659   3.441   6.254  2.0528  0.8374 -0.7453
 7755SOL     OW34723   4.028   3.740   3.834  0.0221  0.7432  0.4274
 7755SOL    HW134724   4.117   3.774   3.837  0.9406 -1.6175  0.0089
 7755SOL    HW234725   3.983   3.819   3.864  0.7833  0.4908  2.2340
 7756SOL     OW34726   0.937   3.816   4.241 -0.0524 -0.0550 -0.2535
 7756SOL    HW134727   0.851   3.802   4.280 -0.9925  0.2068 -2.2335
 7756SOL    HW234728   0.963   3.731   4.205 -0.2350 -0.7936  1.3646
 7757SOL     OW34729   2.050   2.403   8.832 -0.0167  0.3524 -0.2444
 7757SOL    HW134730   2.076   2.453   8.909  0.2129 -2.2175  1.3347
 7757SOL    HW234731   2.123   2.341   8.835  0.4688  1.0793  3.0743
 7758SOL     OW34732   0.621   1.565   6.780 -0.6937 -0.5826 -0.2375
 7758SOL    HW134733   0.588   1.488   6.825  0.0646 -1.3585 -1.0096
 7758SOL    HW234734   0.543   1.621   6.776 -1.5061 -1.6465  0.9811
 7759SOL     OW34735   3.913   4.324  14.356 -0.3315  0.6018 -0.3341
 7759SOL    HW134736   3.991   4.275  14.380 -0.3382  0.9308  0.3444
 7759SOL    HW234737   3.954   4.409  14.339 -1.4424  1.1715 -0.2359
 7760SOL     OW34738   0.774   3.497   4.669  0.3538 -0.0232  0.7189
 7760SOL    HW134739   0.800   3.586   4.691 -1.2852  0.3840  1.0107
 7760SOL    HW234740   0.843   3.458   4.614  0.4949 -1.3166  1.8104
 7761SOL     OW34741   1.384   0.630   2.596  0.2300  0.7497 -0.0702
 7761SOL    HW134742   1.389   0.646   2.502  1.5309 -0.6164 -0.2326
 7761SOL    HW234743   1.473   0.655   2.620  0.4853  2.0932 -2.5555
 7762SOL     OW34744   0.437   3.990   0.717  0.2854 -0.0322 -0.0886
 7762SOL    HW134745   0.513   3.968   0.664  0.8450 -0.5376  0.9195
 7762SOL    HW234746   0.396   4.058   0.662  4.1731  0.2188 -2.6416
 7763SOL     OW34747   1.244   1.178   3.957  0.2613  0.1286 -0.0064
 7763SOL    HW134748   1.201   1.164   4.041 -1.4193  1.5521 -0.6118
 7763SOL    HW234749   1.331   1.146   3.982  0.0221  1.2947  2.3159
 7764SOL     OW34750   0.191   3.613   2.763  0.2680 -0.2405  0.2085
 7764SOL    HW134751   0.225   3.667   2.692  0.0436 -0.1786  0.1489
 7764SOL    HW234752   0.175   3.525   2.729  1.1512 -0.5128  0.4947
 7765SOL     OW34753   1.628   2.054  12.610 -0.5315  0.0638  0.3517
 7765SOL    HW134754   1.597   2.064  12.700  1.8764  0.1565  1.1477
 7765SOL    HW234755   1.551   2.029  12.558 -1.0156  0.3684  0.9172
 7766SOL     OW34756   4.398   1.935  15.228 -0.5511 -0.2627 -0.2355
 7766SOL    HW134757   4.378   1.919  15.136 -1.7069  1.6184 -0.3145
 7766SOL    HW234758   4.483   1.891  15.231 -0.1455  0.5709  0.6693
 7767SOL     OW34759   1.750   0.553   5.835  0.4571  0.0882 -0.0773
 7767SOL    HW134760   1.720   0.476   5.884  1.6011  0.2455  0.8908
 7767SOL    HW234761   1.778   0.604   5.911  1.3981  0.5310 -0.7324
 7768SOL     OW34762   1.963   4.422  11.055  0.3856 -0.1099 -0.0943
 7768SOL    HW134763   2.052   4.394  11.075  0.2197 -1.3138 -1.0743
 7768SOL    HW234764   1.946   4.362  10.982  0.9332 -0.7383  0.2974
 7769SOL     OW34765   4.426   2.380   1.169  0.0141 -0.2233  0.1688
 7769SOL    HW134766   4.473   2.460   1.145  1.0874 -0.9101  0.0032
 7769SOL    HW234767   4.341   2.419   1.191  0.7117  0.8344  1.0482
 7770SOL     OW34768   1.011   3.762   8.538  0.3969  0.6945  0.3880
 7770SOL    HW134769   0.963   3.686   8.571  1.7963 -0.9083 -1.2945
 7770SOL    HW234770   1.097   3.733   8.567  0.1137 -1.9098 -1.4172
 7771SOL     OW34771   2.902   2.130   3.450 -0.5722 -0.4817 -0.3597
 7771SOL    HW134772   2.912   2.221   3.478  1.1620 -1.2796  1.6538
 7771SOL    HW234773   2.886   2.139   3.356 -1.5871  0.4539 -0.1005
 7772SOL     OW34774   3.279   0.939  10.891 -0.3839  0.3857  0.6462
 7772SOL    HW134775   3.292   0.845  10.880 -2.5691 -0.1010  2.3183
 7772SOL    HW234776   3.232   0.965  10.812 -0.4491 -0.9270  0.2571
 7773SOL     OW34777   0.060   3.351   1.592  0.1206  0.5886  0.1782
 7773SOL    HW134778   0.085   3.397   1.672 -0.4260  1.4131 -0.1302
 7773SOL    HW234779   0.132   3.365   1.531 -0.9952 -0.2814 -1.3332
 7774SOL     OW34780   0.976   3.558  12.915  0.2964  0.3501  0.6781
 7774SOL    HW134781   1.011   3.642  12.945 -1.0719  1.0120  0.4299
 7774SOL    HW234782   0.917   3.584  12.844  0.4872  1.2827  0.8580
 7775SOL     OW34783   4.451   2.174  15.346 -0.0913  0.0544 -0.0932
 7775SOL    HW134784   4.429   2.093  15.390  0.4810  0.8386  1.6435
 7775SOL    HW234785   4.462   2.142  15.257  0.5714 -0.1497  0.0570
 7776SOL     OW34786   3.553   1.260  14.888 -0.5599  0.4343 -0.6996
 7776SOL    HW134787   3.636   1.225  14.855 -0.3722  1.2937 -1.1299
 7776SOL    HW234788   3.567   1.355  14.888 -1.5348  0.5707  0.5057
 7777SOL     OW34789   0.749   0.189  15.511 -0.4280  0.6638 -0.1098
 7777SOL    HW134790   0.837   0.226  15.517 -0.6705  1.3319 -0.6738
 7777SOL    HW234791   0.763   0.118  15.449 -3.3355  0.1258 -0.1345
 7778SOL     OW34792   1.501   4.218  10.944  0.1216 -0.0472 -0.4871
 7778SOL    HW134793   1.506   4.159  11.019 -1.2513 -0.4982 -0.7401
 7778SOL    HW234794   1.589   4.197  10.913  0.8048  0.9201  0.8338
 7779SOL     OW34795   3.671   0.052   0.357  0.1982 -0.3370 -0.4072
 7779SOL    HW134796   3.755   0.098   0.356  0.7994 -1.3018  4.9912
 7779SOL    HW234797   3.700   4.690   0.333 -1.3402 -0.7029 -0.9386
 7780SOL     OW34798   2.308   1.845   3.703  0.7390 -0.3321  0.1076
 7780SOL    HW134799   2.340   1.800   3.626 -0.7030  1.0105 -1.2722
 7780SOL    HW234800   2.318   1.773   3.765 -1.6006  0.1832  1.0997
 7781SOL     OW34801   1.638   1.184   8.160  0.1382  0.2931  0.5295
 7781SOL    HW134802   1.686   1.107   8.129 -0.9716 -0.3675  0.4448
 7781SOL    HW234803   1.685   1.255   8.117 -0.0922  0.1074 -0.0319
 7782SOL     OW34804   1.206   4.151   8.892  0.1992 -0.3911  0.1858
 7782SOL    HW134805   1.224   4.239   8.860  0.3538 -0.7103 -0.6057
 7782SOL    HW234806   1.127   4.128   8.843 -0.6723 -1.0697  1.8897
 7783SOL     OW34807   3.476   1.422   2.841 -0.0439 -0.0127 -0.0143
 7783SOL    HW134808   3.566   1.394   2.824 -0.5668 -1.9090  0.3697
 7783SOL    HW234809   3.426   1.371   2.778 -1.4779 -1.4107  2.2735
 7784SOL     OW34810   3.367   2.449   9.069  0.0766 -0.4758 -0.1248
 7784SOL    HW134811   3.298   2.386   9.092 -1.2931  2.0048  2.4552
 7784SOL    HW234812   3.445   2.414   9.113  0.1625 -0.2255 -0.0774
 7785SOL     OW34813   3.236   3.233   4.393  0.2503 -0.1260  0.3780
 7785SOL    HW134814   3.322   3.191   4.399  0.2023 -0.1512  0.9136
 7785SOL    HW234815   3.266   3.321   4.417  1.0486 -1.0781  2.9401
 7786SOL     OW34816   2.434   3.674  10.892  0.9872  0.3319  0.6357
 7786SOL    HW134817   2.473   3.629  10.817 -1.7286 -1.3133  0.2111
 7786SOL    HW234818   2.498   3.652  10.960  0.9047 -0.2793  0.5080
 7787SOL     OW34819   4.398   4.094  17.418  0.2759 -0.9744 -0.1717
 7787SOL    HW134820   4.322   4.037  17.435 -2.2870  2.5268  0.1267
 7787SOL    HW234821   4.409   4.066  17.327 -2.0861 -0.2389 -0.6888
 7788SOL     OW34822   1.540   0.726   2.155 -0.0041  0.2787  0.8248
 7788SOL    HW134823   1.580   0.811   2.172  1.7617 -0.2343 -0.7503
 7788SOL    HW234824   1.466   0.720   2.216 -0.0528 -2.6579  0.4782
 7789SOL     OW34825   4.558   1.576   5.388 -0.3179 -0.5912 -0.9980
 7789SOL    HW134826   4.558   1.668   5.359 -3.8137 -0.0623  0.7316
 7789SOL    HW234827   4.574   1.582   5.482  1.2452  0.0409 -1.2957
 7790SOL     OW34828   1.010   1.352   6.255  0.2172  0.4528  0.7442
 7790SOL    HW134829   0.952   1.393   6.319  0.0364 -0.0141  0.8794
 7790SOL    HW234830   0.948   1.287   6.221  2.5253 -0.2318 -2.1704
 7791SOL     OW34831   3.020   1.737   3.633 -0.3425 -0.2422 -0.2474
 7791SOL    HW134832   2.968   1.781   3.701  1.2547 -0.1259  0.9128
 7791SOL    HW234833   3.002   1.786   3.553  1.7974  1.4237  0.2819
 7792SOL     OW34834   4.182   4.247   2.753  0.0809  0.0328 -0.1911
 7792SOL    HW134835   4.214   4.164   2.788 -0.3091 -0.6235 -1.3803
 7792SOL    HW234836   4.120   4.236   2.681  1.0889 -1.0176 -0.8968
 7793SOL     OW34837   3.305   0.474   8.787 -0.0331 -0.0213  0.7825
 7793SOL    HW134838   3.337   0.517   8.865  2.6804  0.2370 -0.4828
 7793SOL    HW234839   3.217   0.508   8.772 -0.3032 -1.0245  0.0320
 7794SOL     OW34840   0.620   4.642  17.666 -0.1622 -0.1732 -0.6807
 7794SOL    HW134841   0.645   4.637  17.574  1.1538  0.9397 -0.3919
 7794SOL    HW234842   0.680   4.576  17.702 -2.7032 -2.0323  0.1385
 7795SOL     OW34843   2.149   3.599  11.390 -0.2877  0.1688 -0.0190
 7795SOL    HW134844   2.190   3.519  11.357 -0.1769  0.7693 -1.3602
 7795SOL    HW234845   2.098   3.633  11.316 -2.8292 -1.6409  0.9004
 7796SOL     OW34846   3.792   0.070   1.827 -0.5676  0.2955  0.7620
 7796SOL    HW134847   3.775   0.080   1.734  2.1587  0.2681  0.2502
 7796SOL    HW234848   3.732   0.135   1.864  0.5079  1.1135  1.0769
 7797SOL     OW34849   0.387   2.249   3.287 -0.1813 -0.2126  0.3379
 7797SOL    HW134850   0.411   2.156   3.280  0.5421  0.2566 -3.0904
 7797SOL    HW234851   0.404   2.279   3.198  2.0113 -1.4226  0.3346
 7798SOL     OW34852   4.195   0.567   1.246  0.2111  0.0453  0.3311
 7798SOL    HW134853   4.249   0.531   1.316 -1.6123 -3.1953  0.0702
 7798SOL    HW234854   4.222   0.512   1.173 -0.1545  1.1105 -0.6079
 7799SOL     OW34855   1.335   0.735  16.263 -0.0785 -0.2598 -0.0250
 7799SOL    HW134856   1.289   0.656  16.232 -1.9460  0.5304  0.6983
 7799SOL    HW234857   1.424   0.700  16.264  0.2301  0.5217 -0.2419
 7800SOL     OW34858   4.292   3.991   6.923 -0.5195 -0.6498 -0.1508
 7800SOL    HW134859   4.230   4.059   6.948 -2.4172 -2.6058  0.5222
 7800SOL    HW234860   4.366   4.008   6.980 -1.4831 -1.1376  1.2301
 7801SOL     OW34861   0.517   2.307  13.960  0.0534 -0.0679  0.2681
 7801SOL    HW134862   0.478   2.271  13.880  0.0559  0.3980  0.0558
 7801SOL    HW234863   0.463   2.387  13.960 -2.9159 -2.0482  0.7099
 7802SOL     OW34864   1.691   0.992   2.164 -0.5368 -0.1090  0.8093
 7802SOL    HW134865   1.685   1.069   2.221  0.4512  0.8836 -0.4124
 7802SOL    HW234866   1.626   1.016   2.098 -0.3098 -0.1680  0.5638
 7803SOL     OW34867   1.425   0.546   5.325 -0.8746  0.1541  0.4405
 7803SOL    HW134868   1.423   0.485   5.399  1.0113 -0.9418 -0.4093
 7803SOL    HW234869   1.355   0.510   5.271 -2.0540 -0.7894  2.6249
 7804SOL     OW34870   0.453   2.693   3.011 -0.3660 -0.0143 -0.0765
 7804SOL    HW134871   0.399   2.703   3.089  0.2422  0.6449  0.2551
 7804SOL    HW234872   0.396   2.637   2.958  0.5864 -1.2310  0.1732
 7805SOL     OW34873   3.137   3.822   5.149  0.0691  0.0348  0.2780
 7805SOL    HW134874   3.090   3.899   5.180  1.2635  0.7039  0.4459
 7805SOL    HW234875   3.068   3.759   5.129  0.7209 -1.0536  1.4421
 7806SOL     OW34876   3.942   2.644  15.053 -0.3812 -0.2501 -0.2098
 7806SOL    HW134877   3.963   2.559  15.016 -2.8593 -1.2339  0.6559
 7806SOL    HW234878   4.015   2.652  15.114  0.0769  0.2770 -0.8107
 7807SOL     OW34879   4.552   0.462  17.405  0.1421  0.3811  0.2678
 7807SOL    HW134880   4.621   0.401  17.430  1.0905  1.2144 -0.3231
 7807SOL    HW234881   4.527   0.412  17.327 -0.1578  2.2521 -0.8182
 7808SOL     OW34882   3.199   3.580   8.873  0.3628 -0.6590 -0.3778
 7808SOL    HW134883   3.191   3.667   8.914 -3.0370 -1.6251  0.9622
 7808SOL    HW234884   3.138   3.532   8.929 -0.7869  0.8467 -0.3473
 7809SOL     OW34885   1.125   0.241  17.287  0.2749  0.9427  0.2705
 7809SOL    HW134886   1.085   0.161  17.254  0.7297  0.4739  0.8615
 7809SOL    HW234887   1.180   0.269  17.214  2.1443 -1.4474  0.7579
 7810SOL     OW34888   0.486   3.455   1.668  0.2174 -0.4454 -0.3278
 7810SOL    HW134889   0.427   3.424   1.600 -0.3050 -0.2370  0.0277
 7810SOL    HW234890   0.512   3.530   1.614  1.7117 -0.7108  0.0027
 7811SOL     OW34891   4.006   4.186   0.758  0.4809  0.4515 -0.4482
 7811SOL    HW134892   3.967   4.176   0.845  0.0849  0.8173 -0.5835
 7811SOL    HW234893   4.098   4.208   0.775 -0.3249  2.6156  1.1175
 7812SOL     OW34894   1.905   0.667  14.952  0.1678 -0.5636  0.3224
 7812SOL    HW134895   1.885   0.579  14.984  1.0271 -0.7315  0.3826
 7812SOL    HW234896   1.977   0.637  14.896 -0.6808 -1.0595 -0.5154
 7813SOL     OW34897   2.546   1.622  16.300  0.1663 -0.8328 -0.4847
 7813SOL    HW134898   2.513   1.619  16.210  1.8120  0.9473 -1.1623
 7813SOL    HW234899   2.547   1.713  16.330 -3.1859 -1.1805  0.5632
 7814SOL     OW34900   0.533   4.272   6.667  0.3260 -0.3236 -0.4484
 7814SOL    HW134901   0.616   4.249   6.625 -0.5721  0.7333 -2.8058
 7814SOL    HW234902   0.525   4.366   6.651 -0.5350  0.0443  2.2118
 7815SOL     OW34903   1.564   2.895   6.191  0.0266 -0.2852 -0.0245
 7815SOL    HW134904   1.552   2.941   6.274 -0.8545 -0.6427  0.0467
 7815SOL    HW234905   1.503   2.944   6.135  0.1215 -2.4336 -2.0190
 7816SOL     OW34906   2.327   0.392   7.766  0.0477 -0.3118  0.5058
 7816SOL    HW134907   2.268   0.456   7.806  0.1968 -1.2215  2.1427
 7816SOL    HW234908   2.270   0.344   7.705 -1.7087 -0.6237  2.3847
 7817SOL     OW34909   2.254   1.889   2.169 -0.0136  0.2107 -0.1733
 7817SOL    HW134910   2.313   1.959   2.140 -0.3846  0.3559 -0.5896
 7817SOL    HW234911   2.177   1.944   2.176  0.8175  1.3131  0.3474
 7818SOL     OW34912   1.064   0.652  11.556  0.2034  0.0461 -0.3203
 7818SOL    HW134913   1.112   0.649  11.639  0.6324 -0.2980 -0.5824
 7818SOL    HW234914   1.144   0.663  11.505  0.8566 -1.1728  0.4269
 7819SOL     OW34915   0.444   4.024   1.491  0.1932 -0.0429 -0.4236
 7819SOL    HW134916   0.419   4.106   1.448  0.6684  0.8453  1.0069
 7819SOL    HW234917   0.486   3.977   1.419  1.1294  0.4883 -0.2199
 7820SOL     OW34918   3.204   0.765   1.602  0.0133 -0.2760 -0.5297
 7820SOL    HW134919   3.262   0.801   1.535  1.0026  0.1896  0.5824
 7820SOL    HW234920   3.140   0.719   1.547 -3.3339  3.2584  0.4642
 7821SOL     OW34921   0.994   4.206   2.628 -0.0705 -0.0554  0.2578
 7821SOL    HW134922   0.907   4.168   2.615 -0.2848  0.8167 -0.8194
 7821SOL    HW234923   0.996   4.199   2.724  0.1921  1.0216  0.3261
 7822SOL     OW34924   4.304   1.449   6.276  0.4998 -0.2011 -0.7124
 7822SOL    HW134925   4.306   1.362   6.237 -0.1945 -0.0920 -0.9800
 7822SOL    HW234926   4.342   1.502   6.206  0.2733  0.6287 -0.1988
 7823SOL     OW34927   0.795   3.758   9.976  0.1363 -0.0494 -0.1931
 7823SOL    HW134928   0.748   3.760   9.892  0.9984 -0.7826 -0.6934
 7823SOL    HW234929   0.885   3.773   9.949  0.1321 -1.0860 -0.7916
 7824SOL     OW34930   2.946   1.103   4.056 -0.1441 -0.7374 -0.2735
 7824SOL    HW134931   2.875   1.150   4.099  1.5560  1.9246 -0.3877
 7824SOL    HW234932   2.893   1.029   4.027  0.8257 -1.0488 -1.2621
 7825SOL     OW34933   3.406   3.066   1.853  0.0780  1.0520  0.0552
 7825SOL    HW134934   3.380   3.151   1.888 -4.3891 -0.1734 -0.3095
 7825SOL    HW234935   3.437   3.016   1.928  1.7482  2.3107  0.1998
 7826SOL     OW34936   0.317   1.600  15.138  1.3672 -0.1294 -0.2587
 7826SOL    HW134937   0.295   1.554  15.219  0.5181  1.8262  0.6410
 7826SOL    HW234938   0.276   1.687  15.142  0.9617 -0.3713  0.9415
 7827SOL     OW34939   3.794   2.713   1.742 -0.4673  0.0266  0.3522
 7827SOL    HW134940   3.862   2.669   1.794  0.3848 -1.4134 -1.9271
 7827SOL    HW234941   3.811   2.801   1.774 -0.4177 -0.4325  1.5976
 7828SOL     OW34942   4.258   3.611   3.467 -0.1999 -0.2535 -0.6131
 7828SOL    HW134943   4.262   3.680   3.400 -2.2166 -0.7597 -1.2439
 7828SOL    HW234944   4.336   3.561   3.442 -0.2265 -0.5216 -0.1606
 7829SOL     OW34945   2.562   4.140   2.420  0.0142  0.6199  0.1668
 7829SOL    HW134946   2.644   4.178   2.390  0.5236  0.1160  0.9255
 7829SOL    HW234947   2.596   4.096   2.498 -0.6945 -0.4347 -0.1237
 7830SOL     OW34948   3.572   2.379  14.865  0.1075 -0.0933  0.1658
 7830SOL    HW134949   3.663   2.382  14.838 -0.4570  3.2963 -1.2683
 7830SOL    HW234950   3.535   2.443  14.804 -0.5088 -0.4423  0.1673
 7831SOL     OW34951   3.883   1.076  14.228 -0.3465  0.1367 -0.1781
 7831SOL    HW134952   3.819   1.012  14.259  0.1868 -0.0917  0.4539
 7831SOL    HW234953   3.915   1.027  14.153 -1.8239 -1.9153  0.5204
 7832SOL     OW34954   4.125   1.103   2.899 -0.0273  0.0644  0.1311
 7832SOL    HW134955   4.151   1.156   2.823  1.3644 -0.0319  0.5305
 7832SOL    HW234956   4.214   1.094   2.934 -0.3687 -0.9192  0.7331
 7833SOL     OW34957   1.452   3.567   2.567  0.2856 -0.0444  0.5373
 7833SOL    HW134958   1.498   3.587   2.485 -0.9410 -0.6554 -0.2848
 7833SOL    HW234959   1.364   3.543   2.540 -0.0403  1.3172  0.4037
 7834SOL     OW34960   0.899   3.265  12.859  0.1936  0.3586 -0.2412
 7834SOL    HW134961   0.927   3.336  12.801 -1.3928  1.1130 -0.0745
 7834SOL    HW234962   0.974   3.281  12.917 -0.5430  0.0660  0.7785
 7835SOL     OW34963   1.112   2.740   2.906 -0.2049 -0.1824 -0.0553
 7835SOL    HW134964   1.032   2.790   2.922 -0.1710 -0.5458  1.2889
 7835SOL    HW234965   1.136   2.716   2.996  2.4048 -0.4375 -0.8206
 7836SOL     OW34966   3.574   1.861  11.041  0.2184 -0.2614 -0.2342
 7836SOL    HW134967   3.663   1.842  11.072  0.8682  0.8210 -1.4637
 7836SOL    HW234968   3.524   1.785  11.073  0.8644 -0.4914  0.2318
 7837SOL     OW34969   4.325   0.977  10.334 -0.4571  0.0599 -0.4047
 7837SOL    HW134970   4.270   0.919  10.387 -0.1729 -0.0548 -0.2356
 7837SOL    HW234971   4.266   1.053  10.327  0.1844  0.8944  3.3013
 7838SOL     OW34972   2.237   3.757   2.664 -0.2168 -0.0758 -0.8144
 7838SOL    HW134973   2.210   3.803   2.584 -0.1650 -1.2713 -1.5224
 7838SOL    HW234974   2.219   3.837   2.714 -1.3944 -1.1667  0.4799
 7839SOL     OW34975   0.058   1.699  10.330  0.1852  0.2935  0.2307
 7839SOL    HW134976   0.049   1.605  10.347  1.1326 -0.1738 -1.8816
 7839SOL    HW234977   4.720   1.724  10.396  0.1686 -0.5909  0.5540
 7840SOL     OW34978   3.263   3.363   5.725  0.7414 -0.2429  0.3735
 7840SOL    HW134979   3.258   3.346   5.819 -2.0818  1.4485  0.5298
 7840SOL    HW234980   3.290   3.273   5.706 -1.4642 -0.7124 -0.5983
 7841SOL     OW34981   1.730   2.102   3.411  0.2906  0.1045  0.3440
 7841SOL    HW134982   1.694   2.110   3.499 -3.7069 -0.9424 -1.2045
 7841SOL    HW234983   1.824   2.111   3.421  0.6445 -3.4911  0.2397
 7842SOL     OW34984   1.275   4.593   5.708 -0.2211  0.6655 -0.1776
 7842SOL    HW134985   1.288   4.669   5.651  2.0823 -0.8626 -1.6649
 7842SOL    HW234986   1.240   4.635   5.787 -0.0149  1.2083 -0.3689
 7843SOL     OW34987   0.949   1.422   3.076 -0.5214 -0.9066 -0.5107
 7843SOL    HW134988   1.018   1.438   3.012 -3.1063 -1.6207 -3.4929
 7843SOL    HW234989   0.975   1.346   3.127 -0.6299 -0.3519  0.3689
 7844SOL     OW34990   4.181   1.431   4.467  0.3870  0.1674  0.7072
 7844SOL    HW134991   4.240   1.359   4.491 -1.6943 -1.3702  1.2267
 7844SOL    HW234992   4.206   1.502   4.526  2.1425 -0.5720  0.8517
 7845SOL     OW34993   1.238   3.093  15.374  0.1025  0.0763  0.5961
 7845SOL    HW134994   1.334   3.094  15.379  0.2871 -0.9347 -2.8307
 7845SOL    HW234995   1.225   3.178  15.332  1.0767 -0.5833 -1.0472
 7846SOL     OW34996   0.273   2.047   0.111 -0.2731 -0.1185  1.3414
 7846SOL    HW134997   0.227   2.107   0.169 -1.1817  0.3660  0.1223
 7846SOL    HW234998   0.364   2.074   0.124 -0.1504  0.6176 -0.9817
 7847SOL     OW34999   1.098   1.055   6.747  0.2267  0.0757 -0.2786
 7847SOL    HW135000   1.132   1.040   6.836 -1.6504 -3.0491 -0.0863
 7847SOL    HW235001   1.135   0.985   6.693 -0.2961 -0.7017  0.3587
 7848SOL     OW35002   1.209   1.583   2.222 -0.2567  0.0476 -0.0642
 7848SOL    HW135003   1.243   1.604   2.309 -0.4175 -1.5260  0.3769
 7848SOL    HW235004   1.152   1.655   2.196 -1.1846 -0.7304 -0.1700
 7849SOL     OW35005   0.841   0.083   6.419 -0.9365 -0.0809 -0.0515
 7849SOL    HW135006   0.774   0.018   6.440 -1.2242 -0.7319 -3.0669
 7849SOL    HW235007   0.814   0.129   6.340 -0.0735 -0.1557 -0.3987
 7850SOL     OW35008   2.491   3.473   8.391  0.2294 -0.3680  0.6049
 7850SOL    HW135009   2.515   3.418   8.465  1.9464 -0.2491  0.1285
 7850SOL    HW235010   2.455   3.550   8.435  1.4035  0.2004  0.5661
 7851SOL     OW35011   0.572   3.658  17.334  0.4195 -0.1826  0.3142
 7851SOL    HW135012   0.632   3.620  17.269 -0.2092  0.3147 -0.5605
 7851SOL    HW235013   0.602   3.632  17.421 -1.1261  1.7862  1.4300
 7852SOL     OW35014   0.538   2.747  16.212 -0.0362 -0.2641 -0.1099
 7852SOL    HW135015   0.457   2.701  16.234 -0.7569 -0.4867 -3.2675
 7852SOL    HW235016   0.536   2.746  16.116  0.1719 -1.4608 -0.0998
 7853SOL     OW35017   3.128   2.019   1.629 -0.0979  0.7869  0.2204
 7853SOL    HW135018   3.209   1.993   1.674 -0.3703  0.0960  0.3113
 7853SOL    HW235019   3.164   2.055   1.548 -1.1968 -2.0280 -1.5157
 7854SOL     OW35020   3.417   3.187  11.033  0.0477 -0.5638 -0.5396
 7854SOL    HW135021   3.376   3.136  10.963 -0.5493 -2.1731  0.9665
 7854SOL    HW235022   3.508   3.179  11.006 -0.0155 -1.1276 -0.5918
 7855SOL     OW35023   1.069   3.738  11.802  0.7796  0.1357 -0.1594
 7855SOL    HW135024   1.021   3.687  11.867  0.0712 -0.4560 -1.1435
 7855SOL    HW235025   1.005   3.746  11.731  0.1316 -1.2232  0.2663
 7856SOL     OW35026   1.854   4.330   9.260  0.3407  0.1378  0.0957
 7856SOL    HW135027   1.772   4.354   9.216  0.6094  0.5175 -0.2030
 7856SOL    HW235028   1.864   4.413   9.305  0.2376 -1.3980  2.9315
 7857SOL     OW35029   1.056   0.993  16.619 -0.1647  0.4071 -0.1601
 7857SOL    HW135030   1.123   0.963  16.558  0.6241  0.3423  0.7372
 7857SOL    HW235031   1.055   0.930  16.691  0.1339 -0.9744 -1.3669
 7858SOL     OW35032   0.133   2.422   9.342  0.1208  0.6510  0.6304
 7858SOL    HW135033   0.166   2.505   9.307  0.5938  1.7067  3.6267
 7858SOL    HW235034   0.202   2.360   9.318 -0.5121 -0.8480  2.7731
 7859SOL     OW35035   3.796   3.516   8.426  0.0251  0.1767  0.2029
 7859SOL    HW135036   3.733   3.569   8.474 -0.7052 -0.8115  0.3406
 7859SOL    HW235037   3.844   3.477   8.499  0.2256  0.6666  0.3299
 7860SOL     OW35038   4.243   4.291   6.692  0.0418 -0.4405  0.3438
 7860SOL    HW135039   4.166   4.347   6.698  0.9453  1.0708 -2.4598
 7860SOL    HW235040   4.205   4.221   6.639  1.7899 -0.7887 -0.4564
 7861SOL     OW35041   1.093   0.922  13.517 -0.3319  0.6984  0.2687
 7861SOL    HW135042   1.187   0.908  13.526 -0.4786 -0.7954 -0.6030
 7861SOL    HW235043   1.094   1.012  13.549  0.8819 -0.1328  2.5747
 7862SOL     OW35044   2.624   1.833  13.516  0.5953  0.2944  0.4684
 7862SOL    HW135045   2.660   1.922  13.513 -0.9454  0.9021 -0.2082
 7862SOL    HW235046   2.533   1.860  13.507  0.5632 -0.3781 -1.3543
 7863SOL     OW35047   4.008   3.638   9.417 -0.5218 -0.8150 -0.0569
 7863SOL    HW135048   4.019   3.687   9.335 -0.7325 -1.8359 -0.6830
 7863SOL    HW235049   3.981   3.707   9.478  0.5041 -2.2531  2.0022
 7864SOL     OW35050   2.588   3.068  17.435  0.6223 -0.0080 -0.6061
 7864SOL    HW135051   2.502   3.072  17.478  1.2495 -0.1247  0.6565
 7864SOL    HW235052   2.578   3.156  17.399  1.3103 -0.3223 -1.5617
 7865SOL     OW35053   2.165   0.117   4.818 -0.6099  0.4102  0.0466
 7865SOL    HW135054   2.126   0.051   4.875  0.6782  1.4226  2.1295
 7865SOL    HW235055   2.108   0.121   4.742 -2.2513 -0.7439  1.2276
 7866SOL     OW35056   0.546   3.202   2.213  0.7189  0.1002 -0.0154
 7866SOL    HW135057   0.521   3.126   2.162  2.0353  0.7289 -1.6031
 7866SOL    HW235058   0.570   3.264   2.144  0.7690  0.2868  0.1711
 7867SOL     OW35059   4.092   1.899   3.194  0.7383 -0.0917 -0.4803
 7867SOL    HW135060   4.173   1.949   3.202 -0.9141  2.1712  2.1450
 7867SOL    HW235061   4.109   1.827   3.134  0.1260 -0.7664  0.1531
 7868SOL     OW35062   3.249   2.826  13.691  0.3960  0.1772  0.5124
 7868SOL    HW135063   3.325   2.850  13.639 -0.4778 -0.2675 -0.9820
 7868SOL    HW235064   3.278   2.748  13.738  0.9667  0.8832  1.3339
 7869SOL     OW35065   0.101   2.841  10.424  0.7122  0.5852 -0.0911
 7869SOL    HW135066   0.039   2.868  10.491  0.9105  0.7672  0.0188
 7869SOL    HW235067   0.060   2.871  10.343 -1.3210 -0.0442  0.7088
 7870SOL     OW35068   3.315   0.984   5.017  0.4070  0.1070  0.5427
 7870SOL    HW135069   3.250   0.929   4.974  3.0652 -0.8799 -2.2344
 7870SOL    HW235070   3.284   1.074   5.003 -0.4347 -0.0135  1.7081
 7871SOL     OW35071   0.456   1.519   3.060 -0.3072 -0.1003  0.3279
 7871SOL    HW135072   0.491   1.591   3.007 -3.5282 -0.2938 -2.0705
 7871SOL    HW235073   0.496   1.454   3.003 -0.5342 -0.7474  0.9129
 7872SOL     OW35074   1.637   3.694   9.176  0.4853  0.0716  0.0341
 7872SOL    HW135075   1.656   3.619   9.121  1.7910  0.6671 -0.3167
 7872SOL    HW235076   1.620   3.661   9.264 -0.1121 -0.1769 -0.1756
 7873SOL     OW35077   2.472   3.526   4.271 -0.2980 -0.2110 -0.6642
 7873SOL    HW135078   2.450   3.505   4.361  1.4036 -0.7516 -0.3718
 7873SOL    HW235079   2.517   3.611   4.273  0.8458 -0.8711  1.5266
 7874SOL     OW35080   0.817   0.179  13.789 -0.1477 -0.5838 -0.2505
 7874SOL    HW135081   0.879   0.124  13.740  0.0321  0.4798 -1.2191
 7874SOL    HW235082   0.854   0.266  13.776  1.4146 -0.9110  1.9530
 7875SOL     OW35083   3.484   2.353   1.873 -0.3333 -0.4827  0.2342
 7875SOL    HW135084   3.411   2.400   1.914 -0.1431  1.9502 -2.1962
 7875SOL    HW235085   3.554   2.418   1.877  0.1001 -0.9267 -0.2800
 7876SOL     OW35086   3.613   2.116   4.401 -0.3018  0.3946  0.7684
 7876SOL    HW135087   3.626   2.023   4.422  0.2511 -0.2537 -2.5354
 7876SOL    HW235088   3.656   2.117   4.316  0.1180  2.8656  1.0186
 7877SOL     OW35089   4.023   3.278   2.637 -0.1448 -0.1832  0.1602
 7877SOL    HW135090   4.104   3.322   2.609  1.7562 -1.9144  2.9206
 7877SOL    HW235091   3.966   3.355   2.639 -0.2521 -0.2972  1.4416
 7878SOL     OW35092   2.682   3.859  16.486 -0.8633  0.0108  0.5033
 7878SOL    HW135093   2.761   3.856  16.539 -0.3551 -0.5051 -0.2744
 7878SOL    HW235094   2.695   3.950  16.457 -0.1823  0.2101  1.4228
 7879SOL     OW35095   2.493   3.600   5.543 -0.1219 -0.4410 -0.1548
 7879SOL    HW135096   2.418   3.615   5.601  0.3616  0.3706  0.2504
 7879SOL    HW235097   2.445   3.555   5.473  1.6831 -1.0162 -1.0269
 7880SOL     OW35098   2.044   3.051   2.139  0.3162 -0.0070  0.0366
 7880SOL    HW135099   2.035   3.142   2.111  3.1124  0.5024  0.8419
 7880SOL    HW235100   1.984   3.012   2.076 -0.8776  1.2091  0.4253
 7881SOL     OW35101   1.472   0.680   5.796 -0.2784 -0.2100 -0.0530
 7881SOL    HW135102   1.520   0.600   5.775  2.0013  1.5467 -1.4792
 7881SOL    HW235103   1.547   0.732   5.824 -0.7625 -0.4750  1.7731
 7882SOL     OW35104   4.049   2.524  11.433  0.5853  0.9696 -0.1664
 7882SOL    HW135105   4.116   2.526  11.501  0.9842 -0.2326 -0.5199
 7882SOL    HW235106   4.010   2.438  11.446  1.6590  0.3126 -1.2302
 7883SOL     OW35107   2.877   2.485  12.919 -0.6854 -0.0716 -0.1207
 7883SOL    HW135108   2.938   2.493  12.992 -0.3788  0.2924 -0.4175
 7883SOL    HW235109   2.908   2.546  12.851  1.7857 -3.3485 -1.9482
 7884SOL     OW35110   1.983   1.543   3.885  0.5707  0.6588 -0.0337
 7884SOL    HW135111   2.011   1.461   3.925 -2.2986 -0.1437  0.3101
 7884SOL    HW235112   1.900   1.518   3.845  0.9674 -0.6067 -0.0483
 7885SOL     OW35113   2.330   0.175   1.329 -0.2584 -0.1119 -0.1553
 7885SOL    HW135114   2.381   0.254   1.309  2.4061 -2.0214 -0.9535
 7885SOL    HW235115   2.334   0.137   1.241  0.6578 -0.8296  0.1991
 7886SOL     OW35116   0.314   1.126   5.536 -0.1894 -0.6626  0.4167
 7886SOL    HW135117   0.289   1.179   5.460 -2.8455  3.3896  4.0505
 7886SOL    HW235118   0.403   1.159   5.544  0.2565 -0.2927 -6.4269
 7887SOL     OW35119   1.258   1.337   2.474  0.1030 -0.4348  0.6855
 7887SOL    HW135120   1.271   1.431   2.467  0.4220 -0.4860  0.5682
 7887SOL    HW235121   1.324   1.307   2.536 -0.2252 -0.2351  1.1283
 7888SOL     OW35122   0.089   0.561   0.427 -0.3650  0.8579 -0.2037
 7888SOL    HW135123   0.145   0.636   0.445  1.6222 -0.7213  0.1311
 7888SOL    HW235124   0.132   0.482   0.461 -0.6598 -0.5346 -3.1019
 7889SOL     OW35125   1.376   0.616   5.000 -0.4182  0.3000  0.5087
 7889SOL    HW135126   1.346   0.546   5.057 -1.2208  0.2981  0.0900
 7889SOL    HW235127   1.404   0.568   4.922 -1.1036 -0.4465  0.7339
 7890SOL     OW35128   4.533   3.542   2.528 -0.4453  0.5178 -0.2585
 7890SOL    HW135129   4.588   3.529   2.451 -0.4232 -2.5777  0.2827
 7890SOL    HW235130   4.552   3.635   2.541  0.7725 -0.0344  1.9512
 7891SOL     OW35131   3.811   2.927   7.693  0.4113 -0.2342 -0.0081
 7891SOL    HW135132   3.729   2.935   7.741  0.1668 -0.8899 -0.3269
 7891SOL    HW235133   3.853   3.011   7.712 -0.5955  0.4466 -0.8017
 7892SOL     OW35134   1.895   1.685   3.545 -0.1592 -0.8154  0.3115
 7892SOL    HW135135   1.897   1.714   3.636 -3.5772  3.8992 -1.0930
 7892SOL    HW235136   1.810   1.714   3.510 -0.4388 -0.5431  1.2263
 7893SOL     OW35137   1.701   0.780   3.982 -0.0217  0.2618 -0.0439
 7893SOL    HW135138   1.653   0.776   3.900  0.0124 -0.8864 -0.0145
 7893SOL    HW235139   1.741   0.867   3.980 -0.9497  0.6324 -1.7593
 7894SOL     OW35140   3.100   3.534   4.136  0.4992 -0.1305 -0.3692
 7894SOL    HW135141   3.005   3.532   4.151  0.9287  0.1347  2.4005
 7894SOL    HW235142   3.122   3.617   4.178  1.1108 -1.5940  2.2095
 7895SOL     OW35143   2.551   1.015   8.145 -0.0552  0.1676 -0.0637
 7895SOL    HW135144   2.463   1.048   8.162  0.5125  0.2760  2.5761
 7895SOL    HW235145   2.574   1.068   8.068  0.5000 -0.0577 -0.0515
 7896SOL     OW35146   3.876   1.968   3.972  0.8064 -0.2086 -0.0188
 7896SOL    HW135147   3.847   1.938   4.058  0.8999 -0.6948 -0.1568
 7896SOL    HW235148   3.907   2.056   3.993 -0.4863 -0.2528  2.0535
 7897SOL     OW35149   3.493   1.376   5.140  0.2841 -0.5354  0.1412
 7897SOL    HW135150   3.553   1.341   5.205 -0.9526 -2.5519  0.2172
 7897SOL    HW235151   3.539   1.363   5.056  0.3272 -0.6692  0.1858
 7898SOL     OW35152   1.259   2.174   4.297 -0.1378  0.0106 -0.0721
 7898SOL    HW135153   1.184   2.173   4.238 -0.6113  3.6271  0.4543
 7898SOL    HW235154   1.231   2.133   4.379 -0.5010 -0.1219 -0.2629
 7899SOL     OW35155   4.045   3.520  11.269 -0.3123 -0.1849 -0.3319
 7899SOL    HW135156   4.068   3.427  11.264 -0.2310 -0.2674  1.7558
 7899SOL    HW235157   4.017   3.549  11.182 -3.7635  0.7432  1.1075
 7900SOL     OW35158   2.538   2.250  13.934 -0.3767  0.0224  0.1504
 7900SOL    HW135159   2.572   2.204  13.857  0.4158 -0.3882  0.7555
 7900SOL    HW235160   2.546   2.192  14.009  0.3482  0.8497  0.7066
 7901SOL     OW35161   2.865   0.389  14.339 -0.0140 -0.5696  0.5775
 7901SOL    HW135162   2.803   0.324  14.373  0.0835 -2.5955 -3.1535
 7901SOL    HW235163   2.942   0.332  14.338 -0.3918 -1.0880  0.8198
 7902SOL     OW35164   3.911   0.101   6.580 -0.6266  0.0571 -0.5350
 7902SOL    HW135165   3.977   0.059   6.635  0.6447  0.7690 -1.5266
 7902SOL    HW235166   3.895   0.184   6.623  0.3755 -0.3156  0.5588
 7903SOL     OW35167   0.518   1.376   6.982 -0.0554  0.1295  0.2591
 7903SOL    HW135168   0.426   1.369   7.010 -0.0979 -0.3541  0.0035
 7903SOL    HW235169   0.534   1.466   7.010  0.2969  0.0806  0.2154
 7904SOL     OW35170   3.247   2.112   9.521 -0.3102  0.2584  0.9370
 7904SOL    HW135171   3.241   2.204   9.494  1.6319  0.4981  1.2762
 7904SOL    HW235172   3.329   2.091   9.475 -0.6838  1.3664 -0.2397
 7905SOL     OW35173   3.359   4.656   3.309  0.3318  0.0145 -0.4652
 7905SOL    HW135174   3.265   4.649   3.324  1.0578 -3.6324  2.2783
 7905SOL    HW235175   3.368   4.726   3.243  0.8379 -0.7000 -1.1520
 7906SOL     OW35176   2.512   0.302   3.785  0.0281 -0.0096  0.0517
 7906SOL    HW135177   2.527   0.271   3.696  0.4861  2.6892 -0.8290
 7906SOL    HW235178   2.472   0.388   3.768  1.9415  0.8384 -0.1425
 7907SOL     OW35179   4.214   0.548   8.308 -0.3798  0.0761 -0.4051
 7907SOL    HW135180   4.139   0.495   8.280  0.2921 -0.7704 -0.6292
 7907SOL    HW235181   4.260   0.559   8.224 -0.8257  2.5728 -0.3048
 7908SOL     OW35182   0.170   3.857   6.702  0.2134  0.2923  0.0865
 7908SOL    HW135183   0.167   3.952   6.699 -1.7567  0.2145 -0.9123
 7908SOL    HW235184   0.264   3.842   6.697  0.4325  1.2513  1.5033
 7909SOL     OW35185   2.377   2.872   5.662 -0.2667  0.3320  0.1560
 7909SOL    HW135186   2.465   2.845   5.692 -0.2317 -0.5741 -0.7718
 7909SOL    HW235187   2.350   2.811   5.594 -0.2892  0.2532  0.2358
 7910SOL     OW35188   4.092   3.856   7.507  0.0050 -0.5037 -0.3183
 7910SOL    HW135189   4.036   3.815   7.441 -1.1553  0.1049  0.2791
 7910SOL    HW235190   4.150   3.781   7.514  1.5883  0.7514  0.0070
 7911SOL     OW35191   0.185   0.001   7.095 -0.0472 -0.5028  0.1451
 7911SOL    HW135192   0.124   0.039   7.032 -1.7839  0.6045  2.4717
 7911SOL    HW235193   0.166   4.633   7.092  1.1382 -0.7497  0.2889
 7912SOL     OW35194   3.408   0.681   8.614  0.2895 -0.3337 -0.3630
 7912SOL    HW135195   3.493   0.639   8.601 -0.3327 -1.0804 -1.9067
 7912SOL    HW235196   3.365   0.618   8.673 -0.6852 -0.4430 -1.1840
 7913SOL     OW35197   3.962   4.412   0.221  0.3957 -0.6096  0.3580
 7913SOL    HW135198   3.961   4.347   0.151  2.7065  0.5307 -0.7314
 7913SOL    HW235199   4.052   4.406   0.254  0.8678  0.1489 -0.8214
 7914SOL     OW35200   1.749   3.394   6.505  0.5060  0.0751  0.1571
 7914SOL    HW135201   1.777   3.338   6.433  0.2054 -0.5841  0.5478
 7914SOL    HW235202   1.821   3.382   6.566 -0.8303  0.1696  1.7615
 7915SOL     OW35203   2.899   1.396   6.963  0.1267 -0.0638  0.2545
 7915SOL    HW135204   2.982   1.418   7.005  1.3479 -2.6232 -0.8188
 7915SOL    HW235205   2.827   1.440   7.009  0.7329  1.7219 -0.5201
 7916SOL     OW35206   1.900   3.446   3.319  0.1001 -0.2114 -0.0690
 7916SOL    HW135207   1.873   3.471   3.408  0.8459  1.2937 -0.2742
 7916SOL    HW235208   1.873   3.529   3.280  0.1480 -1.1251 -2.0616
 7917SOL     OW35209   0.159   1.024   6.855  0.2850 -0.3219  0.0718
 7917SOL    HW135210   0.169   0.942   6.805  0.6122 -0.4059  0.2731
 7917SOL    HW235211   0.229   1.080   6.821  0.9975  0.1274  2.2888
 7918SOL     OW35212   0.907   4.705  17.391 -0.1390  0.1948  0.0675
 7918SOL    HW135213   0.918   4.698  17.486  1.4532  1.2951 -0.0205
 7918SOL    HW235214   0.987   4.654  17.374 -0.0094 -0.0050  1.2686
 7919SOL     OW35215   2.667   2.058  14.923  0.2131 -0.3603 -0.0143
 7919SOL    HW135216   2.693   1.979  14.969 -0.0641 -0.4535 -0.0159
 7919SOL    HW235217   2.580   2.073  14.961  0.1982 -2.4771  0.7421
 7920SOL     OW35218   1.256   0.964   0.111 -0.1503 -1.1014  0.0760
 7920SOL    HW135219   1.199   1.005   0.045  1.1267  0.4264 -0.0911
 7920SOL    HW235220   1.199   0.888   0.120 -0.5970 -0.9373 -1.2341
 7921SOL     OW35221   3.434   1.109  11.023 -0.0228  0.1448  0.3460
 7921SOL    HW135222   3.371   1.071  10.962 -0.0403 -1.1556  1.1696
 7921SOL    HW235223   3.504   1.114  10.959 -1.2144 -4.6427 -1.2529
 7922SOL     OW35224   0.099   3.462   4.255 -0.0481  0.0774  0.2365
 7922SOL    HW135225   0.013   3.474   4.215 -1.0699  1.0456  2.7404
 7922SOL    HW235226   0.090   3.499   4.343  0.0533  0.1459  0.2184
 7923SOL     OW35227   0.861   2.571   2.095 -0.1805  0.6658 -0.1231
 7923SOL    HW135228   0.775   2.608   2.077 -0.0263  0.8577 -0.4534
 7923SOL    HW235229   0.906   2.642   2.141 -0.2896 -0.4748  1.7475
 7924SOL     OW35230   2.227   0.442  13.802 -0.5676  0.1183 -0.2187
 7924SOL    HW135231   2.248   0.486  13.884  1.0047 -1.5904  0.3050
 7924SOL    HW235232   2.182   0.363  13.833  0.8549 -1.6775 -2.7504
 7925SOL     OW35233   3.968   4.365   6.628 -0.6768  0.0607 -0.1179
 7925SOL    HW135234   3.892   4.309   6.642 -0.6198  0.3283  1.3517
 7925SOL    HW235235   3.976   4.357   6.533 -2.1458  1.5878 -0.3592
 7926SOL     OW35236   0.817   0.488   8.619  0.2347  0.5520 -0.5244
 7926SOL    HW135237   0.797   0.438   8.539 -0.2171 -1.1329  0.6412
 7926SOL    HW235238   0.812   0.422   8.689 -2.2696 -0.6113 -1.7851
 7927SOL     OW35239   1.592   3.747   9.915 -0.2348 -0.0112  0.6388
 7927SOL    HW135240   1.628   3.716   9.998  2.9280 -0.4867 -0.8929
 7927SOL    HW235241   1.662   3.741   9.849 -0.8959 -0.1776 -0.0450
 7928SOL     OW35242   3.955   1.597  17.487 -0.5850  0.3098  0.3350
 7928SOL    HW135243   3.999   1.523  17.529 -0.2754  0.0585 -0.4329
 7928SOL    HW235244   3.861   1.583  17.494 -0.3129 -1.5011  0.1625
 7929SOL     OW35245   2.242   3.729   4.018  0.2034  0.5329 -0.0608
 7929SOL    HW135246   2.251   3.735   3.923  0.8831  0.6402  0.0117
 7929SOL    HW235247   2.223   3.636   4.027  4.0531 -0.2523 -0.1637
 7930SOL     OW35248   0.853   4.612  14.391  0.0137 -0.2031 -0.0742
 7930SOL    HW135249   0.854   4.537  14.332  0.9968  0.4727 -0.9156
 7930SOL    HW235250   0.935   4.644  14.355  0.3750 -0.0221  0.9141
 7931SOL     OW35251   2.271   3.201   3.818 -0.1685  0.1639  0.5206
 7931SOL    HW135252   2.226   3.285   3.813  1.8610  1.1035 -1.9558
 7931SOL    HW235253   2.242   3.167   3.902  0.7452  0.3842  0.9264
 7932SOL     OW35254   1.197   4.532  11.237 -0.8600  0.2896 -0.3437
 7932SOL    HW135255   1.246   4.576  11.169 -1.7166 -0.0916 -1.2046
 7932SOL    HW235256   1.265   4.527  11.304  1.2284  1.0340 -2.4380
 7933SOL     OW35257   1.923   0.198   5.852 -0.6518 -1.0308  0.2957
 7933SOL    HW135258   1.976   0.216   5.930 -2.4865  1.2483  1.0102
 7933SOL    HW235259   1.848   0.144   5.875 -2.0371  0.5835 -0.4247
 7934SOL     OW35260   3.292   1.148   6.287  0.1059  0.5667 -0.6529
 7934SOL    HW135261   3.318   1.066   6.329  2.4647  1.2397 -0.8015
 7934SOL    HW235262   3.250   1.202   6.354 -2.4992 -1.3519 -0.7514
 7935SOL     OW35263   2.984   0.664   6.612 -0.1218 -0.2612 -0.1667
 7935SOL    HW135264   2.938   0.700   6.536 -0.4730 -0.6660 -0.1469
 7935SOL    HW235265   2.911   0.632   6.666 -1.6291  1.4951 -1.1598
 7936SOL     OW35266   3.201   0.323   8.519  0.4813 -0.8346  0.4607
 7936SOL    HW135267   3.117   0.341   8.478 -1.1789 -2.4827  3.1493
 7936SOL    HW235268   3.201   0.351   8.610  3.2827  0.1332  0.1718
 7937SOL     OW35269   0.706   2.311   3.377 -0.3731  0.3340 -0.3645
 7937SOL    HW135270   0.779   2.291   3.434 -2.6466  1.2742  2.8815
 7937SOL    HW235271   0.689   2.222   3.347  0.8015 -0.8661  2.5667
 7938SOL     OW35272   1.852   0.416   2.977  0.6802  0.3024  0.5821
 7938SOL    HW135273   1.870   0.499   3.020  1.3355  0.3894  0.1483
 7938SOL    HW235274   1.813   0.365   3.048  0.1012 -0.6031 -0.3840
 7939SOL     OW35275   1.067   0.499   3.297 -0.1580 -0.5096 -0.0274
 7939SOL    HW135276   1.151   0.525   3.335 -0.4115  0.7273 -0.3067
 7939SOL    HW235277   1.084   0.404   3.296 -2.6266 -0.9377 -0.3876
 7940SOL     OW35278   3.892   0.606  17.655 -0.3963  0.6497  0.4334
 7940SOL    HW135279   3.848   0.671   0.004 -2.4050 -1.7931  1.6594
 7940SOL    HW235280   3.839   0.529  17.674 -0.7075  0.8253  0.2802
 7941SOL     OW35281   1.164   4.647   1.930 -0.5058 -0.0442 -0.2861
 7941SOL    HW135282   1.101   4.699   1.880 -1.6911  1.1031  2.3927
 7941SOL    HW235283   1.115   4.566   1.919 -0.8036  0.3028 -1.4673
 7942SOL     OW35284   0.008   2.625   4.568 -0.1022  0.2925 -0.1868
 7942SOL    HW135285   0.067   2.626   4.492  1.2789 -0.9515  0.8563
 7942SOL    HW235286   4.680   2.701   4.549 -1.1658 -0.5216 -0.4127
 7943SOL     OW35287   1.176   3.468   8.316 -0.7071  0.8856  0.0665
 7943SOL    HW135288   1.205   3.392   8.366  0.1905  1.8048  0.9535
 7943SOL    HW235289   1.095   3.476   8.367 -0.9566  0.8831 -0.3305
 7944SOL     OW35290   1.378   3.241   2.218 -0.0173 -0.1045 -0.3408
 7944SOL    HW135291   1.376   3.165   2.160  1.3894  0.4587 -1.1371
 7944SOL    HW235292   1.417   3.310   2.164  1.0556  2.4170  3.6324
 7945SOL     OW35293   1.589   4.122   9.021 -0.0040 -0.4918 -0.4932
 7945SOL    HW135294   1.502   4.081   9.020 -0.6422  0.8517 -0.6494
 7945SOL    HW235295   1.583   4.207   9.065 -1.2945 -1.0939  0.4826
 7946SOL     OW35296   1.921   1.067   3.046  0.1540 -0.1159  0.5543
 7946SOL    HW135297   1.830   1.068   3.015  0.4113  0.0758 -0.1933
 7946SOL    HW235298   1.919   1.111   3.131 -3.3580 -0.4289  0.6502
 7947SOL     OW35299   1.946   2.238  11.422 -0.4488 -0.0842 -0.8155
 7947SOL    HW135300   1.974   2.290  11.498  0.3029 -0.0910 -1.0853
 7947SOL    HW235301   1.897   2.304  11.374 -1.1574 -0.1907 -0.2287
 7948SOL     OW35302   3.490   2.094   1.987 -0.1466 -0.2614  0.5437
 7948SOL    HW135303   3.475   2.130   2.075 -1.2351 -1.4561  0.8531
 7948SOL    HW235304   3.516   2.172   1.938 -0.6708 -1.6340 -1.9192
 7949SOL     OW35305   1.476   3.082   2.011 -0.1339 -0.2939 -0.1775
 7949SOL    HW135306   1.451   3.034   1.932 -3.1464  0.6953  0.1602
 7949SOL    HW235307   1.550   3.035   2.048  2.3417  2.7483 -1.2509
 7950SOL     OW35308   2.121   1.292   3.731 -0.3788 -0.3250  0.2108
 7950SOL    HW135309   2.096   1.338   3.651  1.1930  1.8855  0.9999
 7950SOL    HW235310   2.166   1.217   3.691  0.3860  0.9388 -1.3206
 7951SOL     OW35311   1.904   0.142  12.916 -0.5125 -0.3634 -0.0332
 7951SOL    HW135312   1.956   0.142  12.997  0.2419 -1.2690 -0.5164
 7951SOL    HW235313   1.830   0.198  12.941  1.1209  1.4156  0.8458
 7952SOL     OW35314   3.105   0.931   1.983 -0.0314  0.1855  0.2454
 7952SOL    HW135315   3.141   0.856   2.031 -0.1042  1.1114  1.7406
 7952SOL    HW235316   3.180   0.987   1.964  0.5415 -1.6118 -2.7184
 7953SOL     OW35317   4.356   0.785  11.299  0.1190  0.3136 -0.0940
 7953SOL    HW135318   4.261   0.768  11.302  0.1944  0.5302  3.0649
 7953SOL    HW235319   4.384   0.715  11.358 -0.6338 -0.9751 -1.2576
 7954SOL     OW35320   4.292   2.430   9.114  0.1297 -0.0092 -0.3769
 7954SOL    HW135321   4.268   2.495   9.048 -1.5530  0.9954  1.2500
 7954SOL    HW235322   4.288   2.476   9.197  0.6743  1.0716 -0.9497
 7955SOL     OW35323   2.622   2.484   1.369  0.3295 -0.1297  0.5379
 7955SOL    HW135324   2.664   2.457   1.287  0.8803 -2.3009  1.5532
 7955SOL    HW235325   2.692   2.505   1.430 -0.4058  1.9671  0.6630
 7956SOL     OW35326   3.961   0.125   2.585  0.2991  0.0086 -0.0773
 7956SOL    HW135327   4.015   0.084   2.653  1.5436  0.4570 -0.7917
 7956SOL    HW235328   3.998   0.212   2.593 -1.5386  0.6707  1.0768
 7957SOL     OW35329   4.594   3.656   1.164 -0.2907  0.2262  0.2152
 7957SOL    HW135330   4.642   3.734   1.193  0.2118 -0.2505  0.6777
 7957SOL    HW235331   4.575   3.686   1.075 -2.2305  3.6303  1.8102
 7958SOL     OW35332   0.564   2.506  12.837  0.6747  0.2568 -0.5304
 7958SOL    HW135333   0.545   2.589  12.881 -1.9019  0.4994 -2.1291
 7958SOL    HW235334   0.549   2.445  12.909 -1.9328  1.3473 -0.1503
 7959SOL     OW35335   2.984   1.033   8.687 -0.4366 -0.4306  0.0147
 7959SOL    HW135336   2.980   0.946   8.727  0.3277 -0.6469 -0.3937
 7959SOL    HW235337   2.961   1.092   8.759  0.5335  1.2093 -1.0167
 7960SOL     OW35338   2.419   0.903   4.566  0.2261 -0.0394 -0.3149
 7960SOL    HW135339   2.489   0.941   4.512  1.6781 -0.5537  1.2053
 7960SOL    HW235340   2.336   0.909   4.519 -0.1256  1.1420  0.4436
 7961SOL     OW35341   2.191   3.578   8.148  0.0283  0.0588 -0.0679
 7961SOL    HW135342   2.129   3.629   8.200  0.4017  0.2630  0.1697
 7961SOL    HW235343   2.238   3.519   8.207 -0.1151 -1.4677 -1.4708
 7962SOL     OW35344   0.476   1.121   2.105  0.2299 -0.3591  0.4757
 7962SOL    HW135345   0.384   1.148   2.109 -0.0340 -1.0367 -1.1513
 7962SOL    HW235346   0.503   1.142   2.016 -0.6943 -1.6838 -0.1183
 7963SOL     OW35347   1.436   1.591   8.195 -0.4214  0.4633  0.5187
 7963SOL    HW135348   1.394   1.672   8.167  1.1211  2.4637  4.0142
 7963SOL    HW235349   1.504   1.578   8.129 -2.1925  0.4179 -1.3049
 7964SOL     OW35350   0.256   3.565   8.404 -0.5907  0.1920 -0.7119
 7964SOL    HW135351   0.331   3.554   8.462 -0.8953  0.0462 -0.3473
 7964SOL    HW235352   0.200   3.605   8.470 -1.3071 -1.6779 -0.1847
 7965SOL     OW35353   3.849   0.772  17.452 -0.4089  0.0816  0.0283
 7965SOL    HW135354   3.776   0.772  17.391 -0.2485 -0.6353 -0.1674
 7965SOL    HW235355   3.848   0.685  17.493  0.4258  0.4830  0.9090
 7966SOL     OW35356   2.327   3.035   4.978 -0.4235 -0.5988  0.2301
 7966SOL    HW135357   2.376   2.967   5.024  1.0353 -1.0053 -1.9318
 7966SOL    HW235358   2.262   2.982   4.932 -0.3146 -0.6407  0.1238
 7967SOL     OW35359   4.711   1.978   5.520  0.1721 -0.0554 -0.1201
 7967SOL    HW135360   0.070   1.935   5.526 -0.8490 -2.2411 -1.2998
 7967SOL    HW235361   4.663   1.939   5.593  0.0382 -1.2323 -0.8321
 7968SOL     OW35362   2.448   2.799  16.399 -0.6488 -0.5623  0.1079
 7968SOL    HW135363   2.394   2.787  16.477 -0.5759  0.5831  0.3240
 7968SOL    HW235364   2.414   2.743  16.329 -1.5241 -0.1773  0.2213
 7969SOL     OW35365   2.474   3.232   1.848  0.2460  0.6326 -0.4575
 7969SOL    HW135366   2.470   3.138   1.832 -0.9128  0.8194 -1.2248
 7969SOL    HW235367   2.475   3.240   1.944 -1.3511 -0.9632 -0.3250
 7970SOL     OW35368   1.384   3.846   3.951 -0.0972 -0.5569 -0.0752
 7970SOL    HW135369   1.370   3.772   3.892 -0.4833 -0.7090  0.2109
 7970SOL    HW235370   1.456   3.892   3.909  1.9542 -4.2759 -0.6032
 7971SOL     OW35371   4.021   0.986   3.767 -0.0003  0.2221 -0.4296
 7971SOL    HW135372   4.031   1.081   3.774 -0.1538  0.2171 -0.1450
 7971SOL    HW235373   3.999   0.959   3.856 -1.7066  0.7921 -0.6735
 7972SOL     OW35374   2.153   0.665   2.762 -0.1640 -0.6478 -0.1959
 7972SOL    HW135375   2.180   0.586   2.810 -2.8648 -1.3171  0.2320
 7972SOL    HW235376   2.063   0.674   2.791  0.1090  0.6524  0.2090
 7973SOL     OW35377   4.202   2.583   0.694 -0.2089 -0.1419  0.2971
 7973SOL    HW135378   4.124   2.612   0.741 -1.0160 -1.3207 -0.3258
 7973SOL    HW235379   4.271   2.617   0.751  1.5228 -1.8296 -0.7986
 7974SOL     OW35380   3.993   3.976  11.177  0.5515  0.4605  0.1355
 7974SOL    HW135381   4.035   3.995  11.092 -2.2115  2.9595 -0.6523
 7974SOL    HW235382   3.920   4.035  11.159  0.7102  0.6633  0.1433
 7975SOL     OW35383   0.053   2.727   3.110 -0.3510  0.1437  0.3508
 7975SOL    HW135384   0.051   2.710   3.015 -0.1748 -3.0039  0.9119
 7975SOL    HW235385   4.691   2.761   3.127 -0.1238  1.0549 -0.2613
 7976SOL     OW35386   1.959   3.184   5.271  0.5532 -0.1484  0.0567
 7976SOL    HW135387   1.962   3.095   5.235  1.4270 -0.3112  0.5361
 7976SOL    HW235388   1.915   3.176   5.356  1.6546 -0.3894  0.6077
 7977SOL     OW35389   3.646   4.014   8.544 -0.2975 -0.2217 -0.0041
 7977SOL    HW135390   3.598   3.982   8.468  0.5555  0.7472 -0.9457
 7977SOL    HW235391   3.686   4.096   8.514 -1.8760 -0.4010 -2.5255
 7978SOL     OW35392   4.005   2.860   6.796 -0.5249  0.5985  0.3544
 7978SOL    HW135393   3.989   2.891   6.707 -2.6032 -1.5570 -0.0432
 7978SOL    HW235394   4.099   2.873   6.785 -0.9603  3.4370  0.0472
 7979SOL     OW35395   3.158   1.624   4.959 -0.2926  0.3191 -0.3181
 7979SOL    HW135396   3.068   1.644   4.983 -0.2511  1.0855 -0.8128
 7979SOL    HW235397   3.189   1.711   4.935 -0.0150  0.7234  1.5179
 7980SOL     OW35398   1.994   4.207   7.271  0.7421  0.8059  0.2843
 7980SOL    HW135399   1.978   4.259   7.349 -1.1328 -0.3571  0.6648
 7980SOL    HW235400   1.909   4.197   7.227  2.1265 -3.0028 -1.5206
 7981SOL     OW35401   3.378   3.898   6.159  0.2724  0.0959 -0.1102
 7981SOL    HW135402   3.459   3.907   6.209  0.5444 -2.2430 -0.1384
 7981SOL    HW235403   3.412   3.839   6.092  0.3253  0.1744 -0.1527
 7982SOL     OW35404   3.061   4.080   6.673  0.6382 -0.7522  0.0937
 7982SOL    HW135405   3.085   3.991   6.697 -1.8209 -2.1454 -2.6767
 7982SOL    HW235406   2.995   4.073   6.604  1.6443 -1.1114 -0.8292
 7983SOL     OW35407   3.701   3.984   2.222  0.1753  0.3558 -0.3250
 7983SOL    HW135408   3.681   3.914   2.160 -2.4493  0.6656  0.1572
 7983SOL    HW235409   3.638   4.052   2.196 -0.2563  0.4601  0.9761
 7984SOL     OW35410   0.846   1.637   1.725 -0.3104  0.2961  0.5298
 7984SOL    HW135411   0.898   1.707   1.763  1.0658  0.0779 -0.9797
 7984SOL    HW235412   0.761   1.679   1.709 -0.3955 -0.0069  0.1996
 7985SOL     OW35413   2.622   2.452  12.998 -0.1042 -0.4326 -0.1211
 7985SOL    HW135414   2.717   2.447  12.991 -0.3077 -0.7284 -2.7242
 7985SOL    HW235415   2.610   2.536  12.954 -0.4035 -1.2878 -1.6673
 7986SOL     OW35416   3.947   4.196  14.114 -0.4073  0.1352 -0.0174
 7986SOL    HW135417   3.880   4.236  14.057  0.7269  2.7119  0.4359
 7986SOL    HW235418   3.927   4.243  14.195 -3.4637  2.2597 -1.9922
 7987SOL     OW35419   4.491   1.247  10.095  0.6167 -0.0329 -0.4684
 7987SOL    HW135420   4.525   1.158  10.101  2.7087  0.7721 -0.4471
 7987SOL    HW235421   4.555   1.292  10.040  0.4629  0.4022 -0.2938
 7988SOL     OW35422   3.244   0.283   0.044 -0.0300  0.0646  0.6839
 7988SOL    HW135423   3.215   0.197   0.072  2.0085 -0.6945  0.4130
 7988SOL    HW235424   3.185   0.331   0.102  0.4709  0.8818  0.5259
 7989SOL     OW35425   4.028   3.780   4.459  0.3754 -0.1594  0.3060
 7989SOL    HW135426   3.992   3.694   4.438  1.3594 -0.1408 -1.4717
 7989SOL    HW235427   4.001   3.786   4.551  3.1958 -0.4068  1.1664
 7990SOL     OW35428   1.445   4.596   1.309 -0.7364 -0.2063  0.1884
 7990SOL    HW135429   1.506   4.535   1.267  0.2253 -0.0140  1.3008
 7990SOL    HW235430   1.359   4.557   1.290 -0.9187 -1.3318  3.3256
 7991SOL     OW35431   0.068   1.197  17.450  0.2875  0.1713 -0.2672
 7991SOL    HW135432   0.018   1.115  17.454  1.9695 -0.7481  2.1106
 7991SOL    HW235433   0.097   1.201  17.541 -0.7821 -1.9049  0.1673
 7992SOL     OW35434   4.598   1.937   4.203  0.1868 -0.0300  0.6085
 7992SOL    HW135435   4.549   1.873   4.255 -0.1528 -0.3290 -0.0782
 7992SOL    HW235436   4.685   1.936   4.244  1.0696 -0.1665 -1.3014
 7993SOL     OW35437   1.983   4.359   4.651 -0.6743 -1.0539  0.0940
 7993SOL    HW135438   2.022   4.273   4.638  0.1980 -0.5554 -0.5540
 7993SOL    HW235439   1.929   4.355   4.572 -1.7778  2.5815  0.6721
 7994SOL     OW35440   0.199   1.606   3.049 -0.4625 -0.5629  0.6594
 7994SOL    HW135441   0.290   1.579   3.059 -0.8993 -2.9744 -1.7768
 7994SOL    HW235442   0.162   1.558   3.123 -0.0642 -2.8255 -0.6097
 7995SOL     OW35443   2.612   2.254  13.184  0.2714  0.2124  0.7237
 7995SOL    HW135444   2.624   2.294  13.270  0.8462 -2.3670  1.8582
 7995SOL    HW235445   2.583   2.326  13.128 -0.1556  0.3149  1.0814
 7996SOL     OW35446   3.027   2.525  15.030  0.0874  0.1770  0.0625
 7996SOL    HW135447   3.027   2.554  14.938 -0.8924  2.7509  0.8769
 7996SOL    HW235448   2.935   2.500  15.037  0.4155 -1.2740 -0.6590
 7997SOL     OW35449   4.433   2.253   5.663 -0.1068  0.0918  0.4353
 7997SOL    HW135450   4.440   2.338   5.706 -1.6630  0.4753 -0.1080
 7997SOL    HW235451   4.517   2.239   5.619  0.1988 -0.8855  1.3190
 7998SOL     OW35452   1.143   3.585  15.163  0.2026 -0.0295  0.3200
 7998SOL    HW135453   1.194   3.597  15.083  1.4457 -0.4070  1.0517
 7998SOL    HW235454   1.075   3.644  15.132 -0.1716 -1.4349 -1.5380
 7999SOL     OW35455   2.197   3.237   0.092  0.0897  0.4772 -0.2960
 7999SOL    HW135456   2.254   3.312   0.077 -1.2243  2.4807  5.0003
 7999SOL    HW235457   2.114   3.277   0.067 -1.3166 -2.7364 -0.8182
 8000SOL     OW35458   0.865   3.393   2.409  0.3202 -0.2748  0.2681
 8000SOL    HW135459   0.780   3.437   2.404  0.1653 -0.9164 -3.0085
 8000SOL    HW235460   0.911   3.454   2.351 -1.2785  2.5968  2.0059
 8001SOL     OW35461   4.017   1.482  14.858  0.1986 -0.2140 -0.2049
 8001SOL    HW135462   4.050   1.536  14.930  0.4156  1.4141 -1.5036
 8001SOL    HW235463   4.039   1.396  14.891  1.3639  0.4090  0.6199
 8002SOL     OW35464   4.700   4.046  10.870 -0.4341 -0.0228  0.4739
 8002SOL    HW135465   0.007   3.960  10.895 -0.9324 -0.8704 -1.8366
 8002SOL    HW235466   4.608   4.046  10.897 -0.2773 -0.3245  1.0070
 8003SOL     OW35467   4.204   1.378   1.746 -0.1894  0.0906 -0.3703
 8003SOL    HW135468   4.256   1.419   1.676 -0.3429  0.7908 -0.0709
 8003SOL    HW235469   4.126   1.353   1.696  0.3736 -3.0151  0.3280
 8004SOL     OW35470   0.877   4.635  16.972 -0.1997  0.1538 -0.2789
 8004SOL    HW135471   0.881   4.606  17.063 -0.4674  0.8711 -0.0361
 8004SOL    HW235472   0.958   4.685  16.961 -1.2307  1.6217 -1.1868
 8005SOL     OW35473   1.193   1.147   6.246  0.3388 -0.8716 -0.0791
 8005SOL    HW135474   1.283   1.181   6.243 -0.0750  0.3512  1.3587
 8005SOL    HW235475   1.143   1.228   6.241 -1.3454 -1.9351 -0.3066
 8006SOL     OW35476   4.718   4.316   3.305 -0.3856  0.0437 -0.1058
 8006SOL    HW135477   0.025   4.339   3.218 -0.6159  1.7509  0.2531
 8006SOL    HW235478   0.013   4.225   3.325  3.4999  0.9989 -0.0082
 8007SOL     OW35479   3.498   2.443   5.713 -0.3237 -0.0401  0.2873
 8007SOL    HW135480   3.471   2.534   5.705 -2.1921 -0.8000 -1.8717
 8007SOL    HW235481   3.589   2.458   5.686 -0.4917  1.2614  0.4426
 8008SOL     OW35482   1.552   4.041  11.155  0.4581 -0.1042 -0.6016
 8008SOL    HW135483   1.569   4.073  11.244  0.2007 -2.0365  0.1352
 8008SOL    HW235484   1.642   4.030  11.124  1.3385  0.2653  1.7756
 8009SOL     OW35485   1.271   3.430   9.048  0.3328 -0.0804 -0.3659
 8009SOL    HW135486   1.280   3.464   9.137  0.7285 -1.8546  0.2689
 8009SOL    HW235487   1.179   3.404   9.055 -0.1879  1.8934  0.1276
 8010SOL     OW35488   0.864   1.011   1.146 -0.1802  0.1249 -0.0865
 8010SOL    HW135489   0.899   1.086   1.098  1.0844  1.0615  2.3199
 8010SOL    HW235490   0.776   1.045   1.158  0.3907  1.2358  0.8994
 8011SOL     OW35491   3.709   0.008  13.855  0.5781  0.2819 -0.1544
 8011SOL    HW135492   3.685   0.077  13.916 -2.5840 -0.7959 -0.1866
 8011SOL    HW235493   3.780   4.695  13.905  1.6975  0.6761 -1.4313
 8012SOL     OW35494   4.443   0.184   0.883 -0.1401  0.8998  0.5030
 8012SOL    HW135495   4.416   0.132   0.807 -0.2294  2.7893 -0.7510
 8012SOL    HW235496   4.538   0.180   0.883 -0.1827 -0.1303  0.4652
 8013SOL     OW35497   0.709   0.644  15.300  0.5579 -0.1037  0.1215
 8013SOL    HW135498   0.618   0.672  15.306  0.1918 -1.3981  0.5652
 8013SOL    HW235499   0.706   0.550  15.318 -0.7874 -0.8088 -3.7986
 8014SOL     OW35500   3.394   1.342  14.536 -0.2631 -0.3002 -0.2558
 8014SOL    HW135501   3.330   1.315  14.602  1.0650 -1.8941  0.3584
 8014SOL    HW235502   3.470   1.289  14.559 -0.0468  0.3999  0.6794
 8015SOL     OW35503   1.920   2.651  14.194 -0.2557 -0.0380 -0.0191
 8015SOL    HW135504   2.003   2.622  14.157  0.6776  4.7574 -1.6249
 8015SOL    HW235505   1.963   2.712  14.254  1.7152 -2.2689  0.8418
 8016SOL     OW35506   3.798   2.968  11.497  0.3661 -0.3685 -0.6439
 8016SOL    HW135507   3.803   2.873  11.490  2.8172 -0.2624 -0.3382
 8016SOL    HW235508   3.872   3.010  11.453  1.4007 -0.1831  1.2612
 8017SOL     OW35509   0.843   2.670  16.464 -0.3029  0.5390  0.2292
 8017SOL    HW135510   0.774   2.715  16.514  0.9719  4.5408 -1.5983
 8017SOL    HW235511   0.870   2.739  16.404 -0.8848 -0.3446 -1.0467
 8018SOL     OW35512   4.355   0.432   4.140 -0.0135 -0.1975  0.3249
 8018SOL    HW135513   4.415   0.501   4.110  0.4232 -0.4490  0.6095
 8018SOL    HW235514   4.404   0.394   4.213  1.8779  2.4798  0.4456
 8019SOL     OW35515   1.519   4.534   3.631 -0.0328  0.3439  0.0358
 8019SOL    HW135516   1.484   4.601   3.689 -1.3203 -1.0498  0.8651
 8019SOL    HW235517   1.514   4.573   3.544 -0.4429 -0.0008 -0.0888
 8020SOL     OW35518   2.017   1.728   5.958  0.2118 -0.0504 -0.2993
 8020SOL    HW135519   2.041   1.635   5.963 -2.8512 -0.6638  2.9811
 8020SOL    HW235520   2.026   1.753   6.050  0.2071 -0.7744 -0.0985
 8021SOL     OW35521   3.679   4.283   6.658  0.0033  0.1448  0.4686
 8021SOL    HW135522   3.700   4.350   6.723 -0.8684  1.0319 -0.1622
 8021SOL    HW235523   3.641   4.323   6.580 -1.7255  1.4929  2.0135
 8022SOL     OW35524   1.237   3.557   5.236  0.7787 -0.5439 -0.0483
 8022SOL    HW135525   1.272   3.491   5.176  0.8542  1.0632 -1.7701
 8022SOL    HW235526   1.308   3.621   5.234  0.1746  0.1119 -0.5486
 8023SOL     OW35527   1.235   2.915  14.574  0.2888 -0.1745 -0.0672
 8023SOL    HW135528   1.265   3.000  14.542 -0.8560  0.7168  1.2386
 8023SOL    HW235529   1.172   2.946  14.639 -0.8911 -2.3822 -0.1297
 8024SOL     OW35530   2.743   0.735   4.795  0.4438  0.4946  0.6858
 8024SOL    HW135531   2.818   0.689   4.833  0.8797 -0.5416 -1.4488
 8024SOL    HW235532   2.765   0.713   4.705 -0.9861 -0.3800  0.5395
 8025SOL     OW35533   4.288   3.392   0.893 -0.6392 -0.1341  0.3449
 8025SOL    HW135534   4.270   3.344   0.811 -0.5021 -0.9857  0.8109
 8025SOL    HW235535   4.208   3.441   0.912 -0.0731  1.5277 -1.4995
 8026SOL     OW35536   0.695   4.542   2.558  0.2416 -0.4188  0.2251
 8026SOL    HW135537   0.613   4.534   2.509 -0.2349 -2.0432  1.2741
 8026SOL    HW235538   0.674   4.498   2.640 -0.0436 -0.8252 -0.0675
 8027SOL     OW35539   0.358   3.172   8.562 -0.2486  0.1517  0.4162
 8027SOL    HW135540   0.372   3.088   8.606 -0.9183 -0.9707 -1.5120
 8027SOL    HW235541   0.264   3.169   8.543 -0.3757 -0.2533  1.0838
 8028SOL     OW35542   3.887   1.987   3.359  0.2079  0.1828  0.1722
 8028SOL    HW135543   3.965   1.958   3.312 -0.4478 -1.9080  0.3458
 8028SOL    HW235544   3.821   1.987   3.289  0.2584 -2.1332  0.0974
 8029SOL     OW35545   1.714   3.961  11.931 -0.0226  1.0171 -0.4339
 8029SOL    HW135546   1.733   4.055  11.925  1.2586  0.7893  0.0623
 8029SOL    HW235547   1.665   3.948  12.012  0.2885  2.5700  0.0003
 8030SOL     OW35548   1.912   4.331   2.464  0.1197 -0.7155 -0.4315
 8030SOL    HW135549   1.979   4.366   2.405 -0.1206 -0.8689 -0.8006
 8030SOL    HW235550   1.846   4.401   2.460 -1.8366 -2.6468 -2.3496
 8031SOL     OW35551   2.751   4.335   5.297  0.4725 -0.2917  0.3652
 8031SOL    HW135552   2.800   4.324   5.215 -0.7124  1.7245 -0.5970
 8031SOL    HW235553   2.680   4.274   5.275 -0.2476  0.7672 -0.2087
 8032SOL     OW35554   0.606   3.802   5.610 -0.1260 -0.5556 -0.3614
 8032SOL    HW135555   0.657   3.727   5.641  2.2351  0.9555 -0.4986
 8032SOL    HW235556   0.523   3.756   5.611  0.3744 -1.4665 -0.3709
 8033SOL     OW35557   0.121   0.339   1.883 -0.0241  0.5762  0.1023
 8033SOL    HW135558   0.173   0.343   1.802  0.1495  1.0153  0.2378
 8033SOL    HW235559   0.166   0.269   1.931  0.9945  0.3485 -1.1874
 8034SOL     OW35560   3.351   1.485   9.968 -0.0763  0.1399  0.1992
 8034SOL    HW135561   3.277   1.455  10.021  0.6269 -0.1192  1.0360
 8034SOL    HW235562   3.364   1.575   9.998  0.0222  0.1397  0.1563
 8035SOL     OW35563   3.999   4.385   3.911  0.6546 -0.5335 -0.2796
 8035SOL    HW135564   4.062   4.387   3.839  0.4594  1.3570 -0.3935
 8035SOL    HW235565   3.973   4.476   3.894  0.8204 -0.2312  1.0478
 8036SOL     OW35566   2.838   1.928   9.583  0.2151 -0.3690  0.2065
 8036SOL    HW135567   2.895   1.993   9.626  0.1160 -0.0896 -0.0852
 8036SOL    HW235568   2.826   1.974   9.500 -2.5124 -0.0941  0.7497
 8037SOL     OW35569   3.337   2.263   4.436  0.0317  0.0724 -0.6636
 8037SOL    HW135570   3.277   2.238   4.507  1.3127  0.8068  0.6851
 8037SOL    HW235571   3.395   2.189   4.420 -0.3189 -0.3526  0.0334
 8038SOL     OW35572   2.686   1.131   6.127  0.6537 -0.0354 -0.9468
 8038SOL    HW135573   2.768   1.181   6.118  0.8545 -0.2524 -0.3074
 8038SOL    HW235574   2.698   1.057   6.066  0.0875  0.1583 -1.2931
 8039SOL     OW35575   2.742   0.654   7.990  0.4198 -0.0968  0.2022
 8039SOL    HW135576   2.687   0.660   8.068 -1.7188  1.6498 -1.4059
 8039SOL    HW235577   2.688   0.584   7.954  1.9627 -1.6562  0.9329
 8040SOL     OW35578   1.560   0.827  13.841 -0.2308 -0.3295 -0.3958
 8040SOL    HW135579   1.474   0.869  13.842  0.3489  0.8630 -0.3457
 8040SOL    HW235580   1.577   0.813  13.748 -1.4209 -1.2372 -0.4863
 8041SOL     OW35581   1.811   3.010  13.439 -0.3577 -0.6433 -0.5944
 8041SOL    HW135582   1.779   3.043  13.523  0.0433 -0.8970 -0.3415
 8041SOL    HW235583   1.900   3.040  13.423 -0.3050  0.7581  2.2611
 8042SOL     OW35584   0.962   4.647   1.233 -0.6956  0.2688  0.3281
 8042SOL    HW135585   0.965   4.631   1.327 -0.2111 -1.3695  0.0437
 8042SOL    HW235586   1.055   4.633   1.214 -0.5957  1.4253 -0.0255
 8043SOL     OW35587   3.605   3.759   9.849 -0.1230  0.3751 -0.5803
 8043SOL    HW135588   3.536   3.726   9.907  1.5238  0.7118  1.5709
 8043SOL    HW235589   3.582   3.702   9.776 -4.0795  1.1506  0.0666
 8044SOL     OW35590   2.541   3.349  11.592  0.1794  0.2782  0.0484
 8044SOL    HW135591   2.486   3.381  11.663  1.2105  1.7335  0.2114
 8044SOL    HW235592   2.607   3.417  11.578  0.7444  0.1604  2.2529
 8045SOL     OW35593   4.720   2.292   4.345  0.3143 -0.2902  0.2827
 8045SOL    HW135594   0.078   2.289   4.390  1.0246 -0.4239 -1.0535
 8045SOL    HW235595   0.001   2.382   4.312  0.1139 -0.8176 -1.1838
 8046SOL     OW35596   2.564   1.929   3.436 -0.3711  0.2030  0.2392
 8046SOL    HW135597   2.577   1.932   3.531  0.1254  0.0852  0.1761
 8046SOL    HW235598   2.548   1.836   3.423 -1.4085  0.1430  2.0153
 8047SOL     OW35599   3.629   1.450   9.351 -0.0221 -0.0813 -0.2216
 8047SOL    HW135600   3.655   1.524   9.295  0.7330  0.1708  0.4674
 8047SOL    HW235601   3.634   1.500   9.432 -1.0931  0.2288 -0.3414
 8048SOL     OW35602   3.407   2.713  12.975  0.5912  0.2312 -0.6061
 8048SOL    HW135603   3.386   2.697  12.883 -0.3227 -0.9440 -0.2029
 8048SOL    HW235604   3.494   2.673  12.980  1.0003  1.1510 -0.4092
 8049SOL     OW35605   0.965   0.471   1.621 -0.0310  0.4174 -0.1564
 8049SOL    HW135606   1.012   0.554   1.629  0.7677  0.1253 -1.7495
 8049SOL    HW235607   1.030   0.402   1.634 -2.4334 -2.1076 -1.4853
 8050SOL     OW35608   2.144   3.607   1.497  0.3303  0.9226  0.1450
 8050SOL    HW135609   2.239   3.603   1.492  0.3252  0.9666  0.0255
 8050SOL    HW235610   2.126   3.570   1.584  0.9074  1.2438  0.3953
 8051SOL     OW35611   3.467   0.132   5.270 -0.0719  0.0802  0.0910
 8051SOL    HW135612   3.486   0.040   5.291  0.4404  0.2374  0.3145
 8051SOL    HW235613   3.383   0.140   5.315 -0.2973  2.3983 -0.7469
 8052SOL     OW35614   2.696   1.267   2.803  0.0993  0.3217 -0.0226
 8052SOL    HW135615   2.636   1.301   2.736  0.4304  0.8463 -0.0518
 8052SOL    HW235616   2.776   1.267   2.751 -0.1017  2.2483 -0.3253
 8053SOL     OW35617   2.974   4.475   0.621  0.5105 -0.2663 -0.1012
 8053SOL    HW135618   3.062   4.512   0.612  0.6622 -0.6590 -0.2216
 8053SOL    HW235619   2.955   4.423   0.543 -0.1479  0.4228 -0.4077
 8054SOL     OW35620   2.995   0.975   3.013  0.4234 -0.7401 -0.2611
 8054SOL    HW135621   3.035   0.975   2.926 -0.9379 -0.5290 -0.8725
 8054SOL    HW235622   2.969   1.067   3.017  0.6557 -0.5912 -2.4347
 8055SOL     OW35623   0.854   0.154   2.338  0.6284 -0.5598  0.6935
 8055SOL    HW135624   0.838   0.104   2.258 -1.2251  3.3178 -1.3368
 8055SOL    HW235625   0.824   0.099   2.410 -0.4739 -0.7016  0.1315
 8056SOL     OW35626   3.682   0.343   0.902  0.1435  0.1424 -0.2069
 8056SOL    HW135627   3.728   0.427   0.901 -1.2089  0.8940  0.8976
 8056SOL    HW235628   3.606   0.360   0.957  0.5238 -1.4887  0.8517
 8057SOL     OW35629   1.602   1.567   5.958  0.2722  0.1478 -0.5645
 8057SOL    HW135630   1.526   1.625   5.971  2.2289  2.2910  1.1896
 8057SOL    HW235631   1.668   1.620   5.913  0.6913  0.0906 -0.0147
 8058SOL     OW35632   3.451   0.838   2.083 -0.1376  0.4859  0.1196
 8058SOL    HW135633   3.487   0.787   2.155  1.7133  0.6029 -0.7349
 8058SOL    HW235634   3.384   0.878   2.138 -0.8891 -1.7651  0.8529
 8059SOL     OW35635   2.974   4.411  15.238  0.0009  0.5772  0.3080
 8059SOL    HW135636   2.969   4.499  15.274  3.2749  1.4260 -1.3686
 8059SOL    HW235637   3.061   4.389  15.271 -0.4003 -1.5581 -0.0287
 8060SOL     OW35638   2.608   3.859   1.855 -0.2775 -0.0686  0.4573
 8060SOL    HW135639   2.622   3.867   1.950  2.9006 -0.9685  0.0598
 8060SOL    HW235640   2.622   3.949   1.826  1.2131 -0.0427  1.2354
 8061SOL     OW35641   3.034   1.737   7.396 -0.0685  0.2492  0.5133
 8061SOL    HW135642   3.026   1.780   7.481 -0.5346 -2.3880  1.7917
 8061SOL    HW235643   3.087   1.795   7.340  1.5739  1.2972  3.1593
 8062SOL     OW35644   1.643   4.674   4.529 -0.0653  0.2229 -0.4556
 8062SOL    HW135645   1.678   0.017   4.585  0.0363 -0.1830 -0.0253
 8062SOL    HW235646   1.550   4.695   4.520 -0.0523  0.2090 -0.6336
 8063SOL     OW35647   0.718   2.329   6.252 -0.4205  0.2829 -0.1894
 8063SOL    HW135648   0.668   2.342   6.333  0.7141 -1.6239  0.8092
 8063SOL    HW235649   0.737   2.237   6.270  0.2443  0.9485  2.6079
 8064SOL     OW35650   2.387   3.159   4.547  0.2256 -0.8010  0.1694
 8064SOL    HW135651   2.313   3.214   4.571  1.9761  2.6610 -2.4107
 8064SOL    HW235652   2.443   3.161   4.624  1.5533  0.6683 -0.8317
 8065SOL     OW35653   4.245   1.347  10.000 -0.4544  0.6182  0.0156
 8065SOL    HW135654   4.310   1.303  10.055 -0.6991 -1.4386 -1.3282
 8065SOL    HW235655   4.288   1.433  10.009  0.6296  0.2973 -1.9599
 8066SOL     OW35656   1.750   3.299  14.209  0.0426 -0.6810  0.6093
 8066SOL    HW135657   1.837   3.317  14.173  0.5355 -1.8471  1.2180
 8066SOL    HW235658   1.747   3.364  14.279 -0.1538 -0.2052  0.1606
 8067SOL     OW35659   4.653   2.313   5.201  0.4247  0.0526 -0.0907
 8067SOL    HW135660   4.661   2.404   5.230 -2.5703  0.3215 -0.1131
 8067SOL    HW235661   0.005   2.303   5.147 -1.0132 -2.6702 -1.6728
 8068SOL     OW35662   1.114   1.287   2.802  0.2364 -0.3949 -0.2574
 8068SOL    HW135663   1.119   1.381   2.786  0.2917 -0.1484  1.2242
 8068SOL    HW235664   1.183   1.277   2.868 -0.1377  0.4174  0.2466
 8069SOL     OW35665   3.085   3.733   1.997 -0.0126  0.2330  0.0086
 8069SOL    HW135666   3.158   3.753   2.056  0.8359 -0.7039 -0.7211
 8069SOL    HW235667   3.114   3.678   1.924  0.7324  0.4208  0.1573
 8070SOL     OW35668   0.223   3.675   3.032 -0.1935 -0.1018  0.1332
 8070SOL    HW135669   0.207   3.582   3.045  1.5918  0.0768  3.6014
 8070SOL    HW235670   0.223   3.671   2.936  1.9011  1.0731  0.0765
 8071SOL     OW35671   4.687   1.184   3.124 -0.0108 -0.2293  0.1634
 8071SOL    HW135672   4.675   1.247   3.053  0.8641 -0.1438  0.0825
 8071SOL    HW235673   4.612   1.208   3.177 -0.0320 -0.0284  0.0407
 8072SOL     OW35674   3.898   2.396   5.472 -0.1725 -0.0315  0.0694
 8072SOL    HW135675   3.910   2.308   5.506 -0.0167 -0.8991 -2.2761
 8072SOL    HW235676   3.908   2.376   5.379 -0.2591  0.7281 -0.1099
 8073SOL     OW35677   2.301   4.196   2.791 -0.3062 -0.2319  0.5688
 8073SOL    HW135678   2.261   4.126   2.740 -1.8767  0.9321  0.1996
 8073SOL    HW235679   2.312   4.140   2.868  0.4194 -3.4713 -1.9289
 8074SOL     OW35680   2.284   4.402  13.466 -0.6001 -0.6064  0.1660
 8074SOL    HW135681   2.376   4.404  13.492  0.1820  1.0415 -2.6822
 8074SOL    HW235682   2.249   4.389  13.554 -0.1718  0.7993  0.5360
 8075SOL     OW35683   3.503   1.767   3.079  0.0089 -0.6769 -0.5136
 8075SOL    HW135684   3.479   1.675   3.068 -4.0405  0.3397 -0.0721
 8075SOL    HW235685   3.495   1.771   3.174 -1.4890 -0.9490 -0.6285
 8076SOL     OW35686   4.708   0.842   2.842 -0.4434  0.3620 -0.4774
 8076SOL    HW135687   4.653   0.905   2.888  0.6504 -0.0205  1.3264
 8076SOL    HW235688   4.644   0.813   2.776 -2.3770  1.9591  0.6909
 8077SOL     OW35689   1.530   0.611   6.671  0.6945 -0.5429  0.2446
 8077SOL    HW135690   1.557   0.531   6.715 -2.1048 -2.3416 -1.3554
 8077SOL    HW235691   1.483   0.577   6.595 -1.2468  1.0134  0.7539
 8078SOL     OW35692   1.496   1.308   2.592  0.2684 -0.4224 -0.1769
 8078SOL    HW135693   1.581   1.351   2.595  0.4402 -0.8010  0.4873
 8078SOL    HW235694   1.503   1.240   2.659  1.8799  0.2397  0.3362
 8079SOL     OW35695   4.407   0.708   5.048  1.1193 -0.3384  0.4270
 8079SOL    HW135696   4.498   0.717   5.018  1.0295  0.0906  0.2842
 8079SOL    HW235697   4.409   0.780   5.111  0.5764 -0.1279  0.2051
 8080SOL     OW35698   1.654   2.853  17.641 -0.2490 -0.2054 -0.0674
 8080SOL    HW135699   1.691   2.766  17.650 -1.7550 -0.8748 -0.2304
 8080SOL    HW235700   1.584   2.833  17.578 -0.2053 -0.0671 -0.1591
 8081SOL     OW35701   1.991   4.638  16.073 -0.0032  0.0677 -0.1048
 8081SOL    HW135702   2.019   4.554  16.038 -0.4574 -0.1627  0.0803
 8081SOL    HW235703   1.898   4.624  16.094  0.3207 -1.2568  0.4268
 8082SOL     OW35704   3.790   3.961   6.363 -0.5522  0.0864  0.3934
 8082SOL    HW135705   3.799   3.988   6.272  0.8020  2.2781  1.1661
 8082SOL    HW235706   3.697   3.984   6.375 -0.6409 -0.2372  0.3148
 8083SOL     OW35707   2.593   3.802   1.347  0.1080 -0.3307 -0.1104
 8083SOL    HW135708   2.547   3.831   1.268 -1.8377  1.7165  1.7715
 8083SOL    HW235709   2.651   3.740   1.303 -0.1704  0.3144 -1.4055
 8084SOL     OW35710   3.137   3.832   1.301 -0.4120 -0.4283 -0.6936
 8084SOL    HW135711   3.136   3.924   1.275 -1.4571 -0.4490 -0.7330
 8084SOL    HW235712   3.231   3.814   1.294 -0.1763  1.2621 -1.7646
 8085SOL     OW35713   2.769   1.400  10.615 -0.3170  0.3832 -0.5160
 8085SOL    HW135714   2.730   1.322  10.575  0.8648 -0.6829  0.4332
 8085SOL    HW235715   2.799   1.443  10.534  0.3511  1.0031  0.0562
 8086SOL     OW35716   1.624   0.589  16.340  0.1264 -0.0383 -0.6887
 8086SOL    HW135717   1.576   0.608  16.421  0.4837 -0.9422 -0.2611
 8086SOL    HW235718   1.606   0.496  16.331 -0.8859  0.1123 -0.2379
 8087SOL     OW35719   3.714   4.607   5.904  0.5805  0.7884 -0.3075
 8087SOL    HW135720   3.731   4.698   5.932  0.6190  0.6074  0.2695
 8087SOL    HW235721   3.656   4.624   5.830 -0.7678 -0.3260  0.4877
 8088SOL     OW35722   2.385   2.554   7.331 -0.2324 -0.2793  0.1645
 8088SOL    HW135723   2.355   2.591   7.414  0.9819 -0.9805  0.8965
 8088SOL    HW235724   2.346   2.467   7.338 -0.0651 -0.4418 -0.8759
 8089SOL     OW35725   1.638   1.003  13.340  0.0071 -0.1617  0.2947
 8089SOL    HW135726   1.699   1.072  13.314 -1.9583  0.3586 -2.8660
 8089SOL    HW235727   1.608   1.040  13.423  0.6944 -0.4707  0.6871
 8090SOL     OW35728   3.603   2.388   6.034 -0.3968 -0.1731  0.3245
 8090SOL    HW135729   3.628   2.416   6.122 -0.8720 -1.0118  0.7268
 8090SOL    HW235730   3.538   2.453   6.005 -1.2581 -1.4164 -0.5291
 8091SOL     OW35731   1.321   2.601  15.421 -0.3627  0.1094  0.0793
 8091SOL    HW135732   1.243   2.587  15.474 -1.4507 -0.6119 -1.7029
 8091SOL    HW235733   1.311   2.693  15.398 -1.4699  0.1411  0.6843
 8092SOL     OW35734   2.774   1.166   7.010 -0.2522 -0.5611 -0.4632
 8092SOL    HW135735   2.821   1.248   6.994 -0.0760 -0.5105  0.2847
 8092SOL    HW235736   2.834   1.130   7.075 -0.1750  1.0160  0.3488
 8093SOL     OW35737   2.407   2.199   4.596 -0.7172 -0.6012  0.4055
 8093SOL    HW135738   2.409   2.164   4.507 -0.5354  0.8683 -0.1666
 8093SOL    HW235739   2.478   2.264   4.596 -0.8836 -0.4121  1.1445
 8094SOL     OW35740   2.522   1.051   0.243 -0.5961  0.3774 -0.3955
 8094SOL    HW135741   2.557   0.990   0.309 -3.5766  1.4693  2.1832
 8094SOL    HW235742   2.549   1.134   0.282  0.2236  0.3067 -0.8114
 8095SOL     OW35743   0.367   0.728   0.144  0.9554 -0.1633 -0.2464
 8095SOL    HW135744   0.389   0.715   0.236  0.9062  0.4936 -0.1400
 8095SOL    HW235745   0.416   0.659   0.100  2.3707  0.7738 -0.1193
 8096SOL     OW35746   1.008   4.393   9.181 -0.4554  0.0750  0.0296
 8096SOL    HW135747   1.007   4.298   9.185 -1.5978  0.1171  0.9582
 8096SOL    HW235748   1.004   4.406   9.087  3.3933  2.9861  0.2748
 8097SOL     OW35749   1.009   3.210   5.337  0.1176 -0.0010  0.0930
 8097SOL    HW135750   0.944   3.181   5.400  0.6798  0.3151  0.8147
 8097SOL    HW235751   1.049   3.281   5.387 -0.7022  0.6143 -0.1345
 8098SOL     OW35752   3.754   1.213   0.714  0.4234  0.6596 -0.1538
 8098SOL    HW135753   3.663   1.224   0.685 -0.0472 -2.4972  0.0344
 8098SOL    HW235754   3.742   1.223   0.808  0.8740 -1.7404  0.1652
 8099SOL     OW35755   4.047   2.470   8.678 -0.2853 -0.0397 -0.6618
 8099SOL    HW135756   4.105   2.434   8.746 -0.1351 -0.1174 -0.8311
 8099SOL    HW235757   4.093   2.552   8.658  3.3825 -2.4171 -2.0248
 8100SOL     OW35758   2.020   0.848   3.184  0.1356  0.3654 -0.0999
 8100SOL    HW135759   2.001   0.922   3.127 -1.2611  2.1232  2.6953
 8100SOL    HW235760   2.048   0.880   3.269  1.9820  2.7076 -1.5948
 8101SOL     OW35761   4.253   4.480   5.577 -0.2553 -0.1560 -0.2909
 8101SOL    HW135762   4.210   4.507   5.497 -1.3017  0.2290  0.3969
 8101SOL    HW235763   4.233   4.551   5.638  0.3027  0.0336 -0.3292
 8102SOL     OW35764   1.800   1.106   5.335  0.2386  0.1938  0.3342
 8102SOL    HW135765   1.710   1.090   5.306  0.2739  0.9944 -0.2041
 8102SOL    HW235766   1.828   1.054   5.259  0.5191  0.5697  0.1803
 8103SOL     OW35767   3.207   4.419   1.879  0.2442 -0.1309  0.1722
 8103SOL    HW135768   3.229   4.367   1.802  0.0845 -1.1892  0.8237
 8103SOL    HW235769   3.249   4.499   1.849 -0.1224 -0.6017 -1.5964
 8104SOL     OW35770   2.844   1.491   2.597  1.3432 -0.3678  0.1710
 8104SOL    HW135771   2.823   1.585   2.597 -2.2915 -1.2127  1.0779
 8104SOL    HW235772   2.823   1.488   2.503  1.7429  0.3673  0.0504
 8105SOL     OW35773   2.289   3.847   6.018  0.7345  0.0068 -0.4905
 8105SOL    HW135774   2.232   3.787   5.970 -0.9374  0.5202  0.8488
 8105SOL    HW235775   2.260   3.937   6.000 -2.0388 -0.6520  0.6386
 8106SOL     OW35776   0.061   1.510  14.109  0.2136 -0.3651  0.4382
 8106SOL    HW135777   4.700   1.517  14.071  0.2247 -0.0281  0.4835
 8106SOL    HW235778   0.039   1.472  14.194 -1.4918 -0.7462 -0.1793
 8107SOL     OW35779   0.178   3.197   4.113 -0.1144  0.0115 -0.2859
 8107SOL    HW135780   0.156   3.264   4.178  1.8826 -0.0644  0.4566
 8107SOL    HW235781   0.091   3.164   4.093 -0.6257  1.5034 -0.5297
 8108SOL     OW35782   4.110   2.040  10.053  0.3711  0.0026  0.5032
 8108SOL    HW135783   4.112   1.948  10.078 -0.7274 -0.0718  0.3320
 8108SOL    HW235784   4.182   2.031   9.990 -1.0636 -2.5069 -0.7595
 8109SOL     OW35785   3.363   4.108  11.553  0.4332  0.5110 -0.3187
 8109SOL    HW135786   3.454   4.090  11.528  1.1159  1.9364  1.1323
 8109SOL    HW235787   3.352   4.141  11.463 -0.4543 -2.3811 -1.2495
 8110SOL     OW35788   1.943   0.546  15.929  0.4200 -0.0111 -0.5822
 8110SOL    HW135789   1.903   0.566  15.845 -0.5788  1.7506  0.3063
 8110SOL    HW235790   1.865   0.554  15.985  2.4128 -0.4435  2.2802
 8111SOL     OW35791   2.015   3.882   3.184 -0.4717 -0.3090 -0.1044
 8111SOL    HW135792   1.957   3.808   3.169  1.5587 -1.9331 -0.0707
 8111SOL    HW235793   2.078   3.853   3.251  1.6486 -0.9351 -2.3288
 8112SOL     OW35794   0.018   3.038   6.831 -0.1778  0.0460 -0.0477
 8112SOL    HW135795   0.068   3.119   6.829 -1.1605  0.6036 -1.9188
 8112SOL    HW235796   0.060   2.968   6.780  1.2772  1.8231 -1.2672
 8113SOL     OW35797   1.357   0.233   0.138 -0.4929  0.3214  0.3423
 8113SOL    HW135798   1.424   0.282   0.187  0.6304 -0.7625 -0.1130
 8113SOL    HW235799   1.290   0.298   0.119  0.4478  0.8320 -1.1740
 8114SOL     OW35800   3.124   1.985   9.034 -0.0390  0.0216  0.4452
 8114SOL    HW135801   3.146   1.913   8.976 -0.3368 -0.4212  0.8822
 8114SOL    HW235802   3.146   1.946   9.119  0.5766  0.1621  0.3514
 8115SOL     OW35803   3.002   2.261   0.025  0.0867  0.4029 -0.4050
 8115SOL    HW135804   2.940   2.198  17.695  0.8399 -0.7248  0.2736
 8115SOL    HW235805   3.000   2.324  17.658 -0.4821  1.8598  0.8557
 8116SOL     OW35806   3.202   4.157   2.458  0.2948 -0.0252  1.0784
 8116SOL    HW135807   3.243   4.144   2.373  1.7270 -0.4206  1.8300
 8116SOL    HW235808   3.155   4.074   2.461 -0.5833  0.4729  1.3009
 8117SOL     OW35809   4.322   3.600   2.832  0.1284 -0.0742  0.3293
 8117SOL    HW135810   4.360   3.640   2.910 -0.1275  0.1846  0.3235
 8117SOL    HW235811   4.233   3.593   2.867 -0.1746  0.3377 -0.3461
 8118SOL     OW35812   1.383   0.292   7.873  0.3876 -0.2450  0.8721
 8118SOL    HW135813   1.302   0.336   7.901  0.6252 -1.5689  3.5880
 8118SOL    HW235814   1.395   0.344   7.794  0.8294 -1.2508  0.2767
 8119SOL     OW35815   0.996   2.450   6.210 -0.2582  0.2018 -0.4202
 8119SOL    HW135816   0.988   2.542   6.233  1.3805  0.1025  0.4997
 8119SOL    HW235817   0.913   2.414   6.244  0.2822 -0.3587  0.3138
 8120SOL     OW35818   2.958   0.583   8.583 -0.0948 -0.2064 -0.1265
 8120SOL    HW135819   2.960   0.538   8.668  0.9882 -0.9261 -0.5345
 8120SOL    HW235820   2.952   0.500   8.537  0.6848  0.5612 -1.6056
 8121SOL     OW35821   2.231   0.847   4.138  0.1953 -0.2467  0.2682
 8121SOL    HW135822   2.230   0.786   4.212  3.3691 -0.3092  0.2821
 8121SOL    HW235823   2.272   0.923   4.180  0.4515 -0.9444  1.2901
 8122SOL     OW35824   0.781   2.078   7.382 -0.8917  0.0325 -0.1409
 8122SOL    HW135825   0.808   2.166   7.410 -1.2544 -0.0315  0.4168
 8122SOL    HW235826   0.843   2.055   7.313  2.4871  3.3485  1.7961
 8123SOL     OW35827   1.170   1.832   3.990  0.0335  0.2727  0.2371
 8123SOL    HW135828   1.189   1.920   3.960  1.2720 -0.7852 -2.0028
 8123SOL    HW235829   1.138   1.783   3.914  0.2666  1.0903 -0.3816
 8124SOL     OW35830   3.517   0.425   6.185  0.2353 -0.0775  0.4515
 8124SOL    HW135831   3.550   0.359   6.246 -1.1181  0.3136  1.6092
 8124SOL    HW235832   3.595   0.451   6.137 -0.2774 -0.7694 -0.7362
 8125SOL     OW35833   1.175   1.770  10.622  0.5997 -0.5244 -0.0474
 8125SOL    HW135834   1.104   1.833  10.633  0.8502 -0.3927  0.7944
 8125SOL    HW235835   1.146   1.698  10.677  0.3426 -0.4692 -0.1126
 8126SOL     OW35836   0.167   1.147  10.231 -0.1406  0.1484 -0.0692
 8126SOL    HW135837   0.093   1.111  10.183 -0.4840 -1.3583  1.6062
 8126SOL    HW235838   0.141   1.239  10.236  0.8063  0.4707 -0.9919
 8127SOL     OW35839   1.415   0.165   4.712  0.3280 -0.9845 -0.0011
 8127SOL    HW135840   1.457   0.078   4.710  1.9857 -0.2189  1.4904
 8127SOL    HW235841   1.462   0.198   4.788  0.3021 -0.8828 -0.0290
 8128SOL     OW35842   1.621   0.077   1.327  0.1052 -0.0278  0.1893
 8128SOL    HW135843   1.560   0.004   1.324  1.8860 -1.5275  0.1687
 8128SOL    HW235844   1.579   0.138   1.387 -0.8481 -0.8210  0.3316
 8129SOL     OW35845   2.277   1.458   6.356 -0.0455  0.1933  0.0124
 8129SOL    HW135846   2.364   1.425   6.333 -1.9416 -3.7231 -1.5957
 8129SOL    HW235847   2.260   1.405   6.434 -1.2015  1.5517  0.6723
 8130SOL     OW35848   1.034   1.471  16.757  0.2096  0.1398 -0.3193
 8130SOL    HW135849   0.959   1.412  16.757 -0.3520  0.8507  2.5110
 8130SOL    HW235850   1.094   1.434  16.822  0.9000  1.3543 -0.2593
 8131SOL     OW35851   1.936   3.254  11.864  0.3062  0.0267  0.4254
 8131SOL    HW135852   1.955   3.298  11.781 -2.8485  0.4513 -0.0623
 8131SOL    HW235853   1.854   3.206  11.859  1.4072 -2.1836  3.6395
 8132SOL     OW35854   0.910   4.213   4.911  0.0103 -0.4175 -0.2770
 8132SOL    HW135855   0.814   4.207   4.910  0.1284 -2.0586 -1.9098
 8132SOL    HW235856   0.921   4.223   5.005 -2.1968  0.8549 -0.1573
 8133SOL     OW35857   1.499   3.964   6.045  0.6266  0.5794  0.3317
 8133SOL    HW135858   1.423   3.923   6.003 -0.1129  1.5054  0.7874
 8133SOL    HW235859   1.527   3.901   6.111 -1.2323 -0.0832  0.4749
 8134SOL     OW35860   2.694   4.475  10.565 -0.3908 -0.3015 -0.1568
 8134SOL    HW135861   2.735   4.557  10.539  2.0499 -0.8958  1.7894
 8134SOL    HW235862   2.701   4.423  10.484 -0.9987 -1.9938  0.8781
 8135SOL     OW35863   2.826   0.635   4.205  0.4909 -0.9845 -0.2997
 8135SOL    HW135864   2.872   0.564   4.249  1.0936 -0.7723 -0.5825
 8135SOL    HW235865   2.747   0.592   4.171  1.1264 -1.2291 -1.4560
 8136SOL     OW35866   3.212   2.458   2.240 -0.1658  0.2424 -0.5910
 8136SOL    HW135867   3.141   2.473   2.178  0.4009 -0.5879 -1.4420
 8136SOL    HW235868   3.173   2.503   2.315 -1.0843 -0.5130 -0.6114
 8137SOL     OW35869   0.161   4.399   4.501 -0.5016 -0.0078  0.0576
 8137SOL    HW135870   0.173   4.355   4.417  1.6906 -0.1009  0.4126
 8137SOL    HW235871   0.077   4.443   4.484  0.8768  2.4494 -0.4771
 8138SOL     OW35872   4.665   2.276   3.875  0.0477  0.6766 -0.0578
 8138SOL    HW135873   0.011   2.339   3.872 -0.0416  0.7402 -0.9010
 8138SOL    HW235874   4.619   2.305   3.954 -0.7335 -2.0127  0.4500
 8139SOL     OW35875   4.615   4.040  17.005 -0.2326 -0.0915  0.3470
 8139SOL    HW135876   4.564   4.115  17.035 -1.0707 -1.1359  1.5303
 8139SOL    HW235877   4.583   4.022  16.917 -1.8366  2.6763  0.3471
 8140SOL     OW35878   2.736   3.647   6.960  0.0051 -0.0452 -0.7477
 8140SOL    HW135879   2.688   3.664   7.041  0.9680 -0.7975 -0.0186
 8140SOL    HW235880   2.709   3.727   6.915  0.3582  1.1074  1.1095
 8141SOL     OW35881   3.983   3.937  14.168 -0.2652  0.1856 -0.3955
 8141SOL    HW135882   4.076   3.929  14.151 -0.4632  3.0391 -2.7235
 8141SOL    HW235883   3.973   4.030  14.146 -0.6817 -0.1163 -1.4810
 8142SOL     OW35884   3.622   0.931   8.472  0.0323 -0.4351 -0.0313
 8142SOL    HW135885   3.703   0.895   8.435 -0.0984 -1.7709  0.9919
 8142SOL    HW235886   3.640   0.950   8.564 -0.1315  0.4573 -0.1793
 8143SOL     OW35887   3.861   3.310   7.217 -0.2745  0.3041  0.1141
 8143SOL    HW135888   3.811   3.237   7.181 -0.6338  0.2562  0.6959
 8143SOL    HW235889   3.953   3.291   7.201 -0.3717  0.3950 -0.5289
 8144SOL     OW35890   2.023   1.815   3.357  0.0485  0.2272  0.6034
 8144SOL    HW135891   1.981   1.773   3.432 -0.6266 -0.5445 -0.2123
 8144SOL    HW235892   2.087   1.746   3.342  0.5562  0.3413  2.2283
 8145SOL     OW35893   0.413   1.041   4.908  0.7221 -0.0433  0.2231
 8145SOL    HW135894   0.449   0.999   4.830  2.2715 -1.0278  1.4785
 8145SOL    HW235895   0.483   1.024   4.970  0.2321  1.4534  1.1795
 8146SOL     OW35896   3.502   3.593  14.405  1.3152 -0.9656  0.0872
 8146SOL    HW135897   3.550   3.641  14.472  0.9478  2.5921 -2.1698
 8146SOL    HW235898   3.415   3.591  14.443  1.0814 -0.0251 -0.3912
 8147SOL     OW35899   3.456   0.962   6.435 -0.0830 -0.0563  0.2063
 8147SOL    HW135900   3.537   1.001   6.469 -0.3438  1.5224 -0.9471
 8147SOL    HW235901   3.480   0.872   6.458  1.4780 -0.0813 -1.5330
 8148SOL     OW35902   0.780   3.940   6.943 -0.0665  0.7925  0.2004
 8148SOL    HW135903   0.823   3.911   7.024 -2.4441  3.8056  2.5413
 8148SOL    HW235904   0.756   4.030   6.962 -1.1050  0.5856 -0.1312
 8149SOL     OW35905   2.989   3.144   4.723 -0.2298 -0.3225 -0.2846
 8149SOL    HW135906   3.049   3.208   4.761 -0.4162  0.5557 -1.4689
 8149SOL    HW235907   3.041   3.066   4.702 -1.4269 -0.8595 -1.2700
 8150SOL     OW35908   3.707   2.421   3.666 -0.1076  0.1127 -0.2197
 8150SOL    HW135909   3.699   2.333   3.630  0.4886  0.1808 -0.5196
 8150SOL    HW235910   3.620   2.430   3.705 -0.3206  1.4342 -1.0080
 8151SOL     OW35911   0.397   0.121   7.233 -0.0998 -0.1486 -0.5801
 8151SOL    HW135912   0.313   0.095   7.195 -0.9631 -1.5423  2.1920
 8151SOL    HW235913   0.414   0.197   7.178 -1.1328  0.3838 -0.1568
 8152SOL     OW35914   0.962   0.578   5.496 -0.3715 -0.1911  0.4310
 8152SOL    HW135915   1.052   0.558   5.522 -0.7653 -2.1818  0.2736
 8152SOL    HW235916   0.949   0.512   5.429  3.9996  1.0543 -1.6630
 8153SOL     OW35917   1.421   0.206   6.715 -0.4548  0.0328 -0.5465
 8153SOL    HW135918   1.388   0.196   6.625  0.3938 -0.2679 -0.8193
 8153SOL    HW235919   1.370   0.150   6.773 -2.6796 -0.6640 -3.1669
 8154SOL     OW35920   2.982   2.397  10.359 -1.0590 -0.3060  0.5227
 8154SOL    HW135921   3.003   2.315  10.314 -3.7086 -0.9513  0.5075
 8154SOL    HW235922   2.917   2.429  10.297  0.8815  0.8923 -0.8957
 8155SOL     OW35923   1.389   1.371  14.031 -0.0921 -0.3653  0.4867
 8155SOL    HW135924   1.384   1.453  13.981 -1.2338 -0.2409  0.8093
 8155SOL    HW235925   1.429   1.401  14.113  3.0483 -0.3818 -1.0601
 8156SOL     OW35926   0.350   1.296   7.359  0.2644  0.4862 -0.1715
 8156SOL    HW135927   0.257   1.281   7.346  0.2144  2.0498 -1.5330
 8156SOL    HW235928   0.358   1.375   7.306 -0.0741  0.3074 -0.4847
 8157SOL     OW35929   2.533   1.921  16.258 -0.4728 -0.2610 -0.0888
 8157SOL    HW135930   2.600   1.961  16.203 -0.0466 -1.5708 -0.5110
 8157SOL    HW235931   2.516   1.995  16.317  5.0540  0.5347  0.5085
 8158SOL     OW35932   4.343   0.247   0.562 -0.5725 -0.4846  0.4587
 8158SOL    HW135933   4.261   0.296   0.555  0.4750  1.0787 -0.7823
 8158SOL    HW235934   4.401   0.314   0.600 -0.9444  1.6173 -2.6871
 8159SOL     OW35935   4.592   2.546  12.849 -0.1441  0.4109 -0.2519
 8159SOL    HW135936   4.558   2.593  12.926  1.8686 -0.2400  1.0313
 8159SOL    HW235937   4.666   2.605  12.837  1.5492 -1.3562  1.5240
 8160SOL     OW35938   2.672   4.555  15.320 -0.0645 -0.2170  0.0925
 8160SOL    HW135939   2.695   4.522  15.406 -0.0481 -2.3574 -0.7438
 8160SOL    HW235940   2.671   4.474  15.270  1.3778 -0.5172  0.5537
 8161SOL     OW35941   3.476   2.091   0.354 -0.7769  0.3205 -0.1252
 8161SOL    HW135942   3.527   2.039   0.292 -1.4843 -1.0599  0.4536
 8161SOL    HW235943   3.396   2.040   0.370  0.1591 -1.0289  0.2674
 8162SOL     OW35944   3.950   4.290  17.073 -0.1251 -0.0329 -0.5607
 8162SOL    HW135945   3.910   4.338  17.001  3.1970  2.1747 -0.9127
 8162SOL    HW235946   3.932   4.350  17.145  1.1941  2.0205 -1.9698
 8163SOL     OW35947   3.379   1.521   6.757 -0.2865  0.7939  0.1172
 8163SOL    HW135948   3.308   1.465   6.789  0.3948 -0.5339 -0.7118
 8163SOL    HW235949   3.457   1.498   6.807 -0.2512  3.2370  1.1961
 8164SOL     OW35950   0.177   4.195  14.635  0.2032 -0.4508 -0.4402
 8164SOL    HW135951   0.197   4.160  14.548 -3.2449  1.8425 -2.1522
 8164SOL    HW235952   0.204   4.285  14.618  1.3254 -0.0913  3.2281
 8165SOL     OW35953   1.635   0.380   8.109 -0.4874 -0.4379  0.2929
 8165SOL    HW135954   1.551   0.340   8.090 -1.1090  0.2174  1.6408
 8165SOL    HW235955   1.641   0.435   8.031 -1.3617 -0.9672 -0.1323
 8166SOL     OW35956   3.410   0.488   2.506 -0.4735  0.4599 -0.2867
 8166SOL    HW135957   3.467   0.514   2.578  0.2475 -0.4153 -0.5393
 8166SOL    HW235958   3.327   0.461   2.546 -0.9513  1.9090 -0.2988
 8167SOL     OW35959   2.870   4.132   3.382 -0.4136 -0.0017  0.0341
 8167SOL    HW135960   2.938   4.066   3.365 -0.6694  0.0769 -1.3121
 8167SOL    HW235961   2.916   4.214   3.398  1.2680 -0.5806 -1.7014
 8168SOL     OW35962   0.005   0.413  13.269 -0.2053  0.0836 -0.9913
 8168SOL    HW135963   4.648   0.400  13.315  0.9379 -3.7217  0.0733
 8168SOL    HW235964   0.071   0.397  13.336  2.0549  0.1730 -3.1982
 8169SOL     OW35965   3.862   2.777   3.444 -0.6997 -0.6179  0.9768
 8169SOL    HW135966   3.830   2.861   3.476 -0.3781 -0.1691  0.1286
 8169SOL    HW235967   3.813   2.719   3.502 -0.4132  1.1350  2.9628
 8170SOL     OW35968   3.756   1.079   1.801 -0.1790 -0.0916  0.0150
 8170SOL    HW135969   3.784   1.168   1.820 -1.5686  0.0703  1.3289
 8170SOL    HW235970   3.662   1.097   1.808 -0.6795 -2.4754 -0.7513
 8171SOL     OW35971   0.892   4.149  14.641  0.3435 -0.0125 -0.3095
 8171SOL    HW135972   0.897   4.166  14.547 -2.2800  0.4554 -0.3792
 8171SOL    HW235973   0.852   4.233  14.665  2.0989  0.7922 -0.2044
 8172SOL     OW35974   4.516   3.654   5.497 -0.1638 -1.1682  0.1563
 8172SOL    HW135975   4.533   3.570   5.455  0.2458 -0.3241 -1.3919
 8172SOL    HW235976   4.584   3.706   5.453  0.7900 -0.3728  2.5851
 8173SOL     OW35977   3.609   2.625   5.110  0.6826 -0.2355  0.0394
 8173SOL    HW135978   3.573   2.653   5.026  0.4248  0.9235  0.5367
 8173SOL    HW235979   3.697   2.611   5.074  0.9223  1.9807 -0.2630
 8174SOL     OW35980   4.506   4.093   6.446  0.1905 -0.0212  0.0269
 8174SOL    HW135981   4.593   4.054   6.455 -1.0378 -2.9896 -0.7567
 8174SOL    HW235982   4.487   4.128   6.533  3.7416  2.1253 -0.0693
 8175SOL     OW35983   0.249   3.298  14.452  0.3784 -0.6557 -0.0887
 8175SOL    HW135984   0.340   3.321  14.434 -0.0030 -0.2845 -1.5524
 8175SOL    HW235985   0.223   3.260  14.368  0.9910  0.1108 -0.6304
 8176SOL     OW35986   2.880   3.929   6.239 -0.2142  0.3067  0.3345
 8176SOL    HW135987   2.933   4.008   6.253  0.2465 -0.0035  0.3565
 8176SOL    HW235988   2.923   3.882   6.167 -2.2452  0.5854 -1.0369
 8177SOL     OW35989   2.772   2.051  16.622 -0.1281 -0.2944  0.2696
 8177SOL    HW135990   2.784   2.137  16.662 -0.2309  0.2320 -0.8335
 8177SOL    HW235991   2.759   2.075  16.530  0.1207  1.7966  0.7887
 8178SOL     OW35992   0.761   4.056  10.224 -0.3396  0.0402  0.2449
 8178SOL    HW135993   0.789   4.062  10.315  1.2339 -0.5426 -0.1957
 8178SOL    HW235994   0.763   3.962  10.209  0.2118  0.1277 -0.2541
 8179SOL     OW35995   2.055   2.210   2.745  0.8417  0.0921 -0.3266
 8179SOL    HW135996   1.999   2.173   2.677 -0.9345  2.0092  0.0955
 8179SOL    HW235997   2.136   2.158   2.750 -1.3245 -3.2787 -0.3965
 8180SOL     OW35998   3.988   2.779   8.945 -0.4196  0.6393 -0.0400
 8180SOL    HW135999   4.049   2.712   8.914 -0.6874  0.8351 -0.9884
 8180SOL    HW236000   3.941   2.790   8.863  1.6695 -1.6097 -1.5295
 8181SOL     OW36001   2.902   0.935   3.738  0.2009 -0.5032  0.2854
 8181SOL    HW136002   2.916   0.869   3.670 -2.9589 -2.4393  1.5303
 8181SOL    HW236003   2.992   0.929   3.772  0.8927 -0.8184 -1.5936
 8182SOL     OW36004   4.364   0.587   0.127 -0.1844  0.0196  0.2467
 8182SOL    HW136005   4.429   0.532   0.084 -0.4075  0.2088 -0.3269
 8182SOL    HW236006   4.426   0.650   0.165  1.4385 -2.3370  1.5311
 8183SOL     OW36007   1.573   3.797  16.521  0.0834  0.0567 -0.0107
 8183SOL    HW136008   1.495   3.777  16.573  1.8801 -1.9932  1.8872
 8183SOL    HW236009   1.575   3.722  16.461 -1.9835 -0.6822  0.8627
 8184SOL     OW36010   3.624   1.869   4.450  0.7237 -0.9114  0.3010
 8184SOL    HW136011   3.538   1.828   4.460 -0.1867  1.0474  0.3639
 8184SOL    HW236012   3.661   1.805   4.389 -2.2416 -0.5580 -1.8744
 8185SOL     OW36013   2.799   0.581   6.862 -0.1683  0.1406  0.3715
 8185SOL    HW136014   2.731   0.579   6.796  0.2992 -0.6716 -0.0892
 8185SOL    HW236015   2.765   0.561   6.949 -2.3398 -0.9174 -0.7523
 8186SOL     OW36016   3.545   1.471   8.419  0.1630  0.1490  0.4959
 8186SOL    HW136017   3.588   1.545   8.462  0.0049  2.3002 -3.0754
 8186SOL    HW236018   3.616   1.407   8.409  0.7688  0.6194  1.7403
 8187SOL     OW36019   4.260   1.988   7.002 -0.5230 -0.3660  0.4770
 8187SOL    HW136020   4.337   1.971   7.056  0.0457 -0.8366 -0.5051
 8187SOL    HW236021   4.269   1.910   6.948 -0.5365  0.7739 -1.1678
 8188SOL     OW36022   2.306   2.832   9.315  0.5500 -0.4792 -0.5265
 8188SOL    HW136023   2.308   2.763   9.381 -2.0089 -0.5470 -0.4982
 8188SOL    HW236024   2.223   2.810   9.272  0.6622 -2.3927  0.2503
 8189SOL     OW36025   0.669   0.804  14.988  0.1407  0.4404  0.1793
 8189SOL    HW136026   0.631   0.795  14.900  2.9794  0.3165 -1.0446
 8189SOL    HW236027   0.684   0.711  15.005  1.6074  0.2413 -2.1137
 8190SOL     OW36028   3.386   0.906   7.448  0.1647 -0.7307  0.7018
 8190SOL    HW136029   3.359   0.885   7.537  1.3308 -1.2563  0.9392
 8190SOL    HW236030   3.400   1.000   7.457 -0.1719 -0.7557  1.4637
 8191SOL     OW36031   3.154   0.314   1.907 -0.0857  0.1834 -0.6005
 8191SOL    HW136032   3.202   0.265   1.973  1.2736  2.9495  0.4994
 8191SOL    HW236033   3.090   0.249   1.878  0.1043 -0.7704  1.1657
 8192SOL     OW36034   3.804   0.577   1.163 -0.1267 -0.6484 -0.1010
 8192SOL    HW136035   3.840   0.654   1.120 -3.0396  0.9701  0.3669
 8192SOL    HW236036   3.861   0.569   1.239 -0.3337  0.4878  0.1637
 8193SOL     OW36037   4.431   3.700  17.448  0.8227 -0.2467  0.4212
 8193SOL    HW136038   4.398   3.781  17.411  1.7766 -0.5394 -1.0516
 8193SOL    HW236039   4.461   3.655  17.369  0.5166 -0.3891  0.3875
 8194SOL     OW36040   0.137   0.435   4.491 -0.0710  0.3540 -0.0394
 8194SOL    HW136041   0.123   0.495   4.564  4.2101 -0.4181  1.4269
 8194SOL    HW236042   0.214   0.386   4.519  0.3855  0.6756 -0.7267
 8195SOL     OW36043   2.702   1.829   6.934  0.2837  0.2717  1.2588
 8195SOL    HW136044   2.712   1.739   6.968 -0.4457 -0.2262  0.1378
 8195SOL    HW236045   2.665   1.809   6.849  1.9732 -0.0353  0.5933
 8196SOL     OW36046   3.606   4.038   9.850  0.5813  0.4123  0.3542
 8196SOL    HW136047   3.667   4.040   9.777 -0.8895 -1.2786 -0.9058
 8196SOL    HW236048   3.573   3.948   9.842  0.8119  0.4352 -0.8712
 8197SOL     OW36049   1.845   1.153   4.434 -0.2734  0.0742 -0.1534
 8197SOL    HW136050   1.753   1.171   4.412 -0.2291  0.2039 -0.2313
 8197SOL    HW236051   1.856   1.067   4.394 -2.0050 -0.0216 -0.4406
 8198SOL     OW36052   0.183   1.730   1.468  0.0310 -0.8244 -0.7649
 8198SOL    HW136053   0.145   1.642   1.467 -0.9188 -0.4208 -0.4567
 8198SOL    HW236054   0.109   1.781   1.499  1.1832 -0.3687  1.2515
 8199SOL     OW36055   1.406   1.032   2.203 -0.0513  0.0945  0.0103
 8199SOL    HW136056   1.466   1.033   2.278  1.0107 -1.6552 -0.8188
 8199SOL    HW236057   1.362   1.115   2.218  1.7201  0.5084  2.8913
 8200SOL     OW36058   0.786   2.478   9.327  0.9315  0.4463 -0.4199
 8200SOL    HW136059   0.790   2.433   9.411 -0.9757  1.5716  0.2844
 8200SOL    HW236060   0.787   2.398   9.275 -0.4762 -0.2243  0.6007
 8201SOL     OW36061   4.143   0.742   2.437 -0.2239  0.3770  0.2210
 8201SOL    HW136062   4.131   0.831   2.406 -0.2479  0.4771  0.5123
 8201SOL    HW236063   4.081   0.733   2.510 -2.5140  0.7545 -1.6645
 8202SOL     OW36064   1.802   0.023   3.129 -0.5038  0.0327 -0.2377
 8202SOL    HW136065   1.806   0.013   3.224 -1.1042  0.2658 -0.1856
 8202SOL    HW236066   1.849   4.671   3.100 -0.4281  0.0905 -0.2698
 8203SOL     OW36067   0.761   2.507   2.992 -0.1593  0.0477  0.0023
 8203SOL    HW136068   0.705   2.446   2.943  0.2830  0.7975 -1.4547
 8203SOL    HW236069   0.845   2.484   2.951  0.4958  1.6281  0.4877
 8204SOL     OW36070   1.259   1.467   8.745  0.1608  0.7125  0.2507
 8204SOL    HW136071   1.180   1.468   8.799 -0.8006 -1.6330 -1.1038
 8204SOL    HW236072   1.318   1.524   8.795  0.5807 -0.4462  1.0727
 8205SOL     OW36073   2.543   3.648  16.381  0.2258  0.1878 -0.0065
 8205SOL    HW136074   2.571   3.577  16.440  0.6762 -0.1597 -0.6404
 8205SOL    HW236075   2.585   3.729  16.409  1.2023 -0.2132 -0.3104
 8206SOL     OW36076   2.788   0.337   9.153  0.6005 -0.4072  0.4159
 8206SOL    HW136077   2.813   0.401   9.220  0.6706 -0.6905  0.6654
 8206SOL    HW236078   2.766   0.398   9.083  1.4747  0.9089  1.2922
 8207SOL     OW36079   3.176   4.365   4.989 -0.2615 -0.1654  0.1463
 8207SOL    HW136080   3.171   4.433   5.056  1.6384  0.5518 -0.4456
 8207SOL    HW236081   3.269   4.344   4.992 -0.1869 -0.1201 -1.7403
 8208SOL     OW36082   3.746   2.974   2.550 -0.5883  0.4637 -0.4995
 8208SOL    HW136083   3.746   2.922   2.630 -1.5957  0.9511 -0.1841
 8208SOL    HW236084   3.741   2.911   2.479  0.1513  0.0515 -0.1946
 8209SOL     OW36085   0.304   1.283   5.055 -0.3886  0.1508 -0.8605
 8209SOL    HW136086   0.360   1.354   5.023 -0.6071  0.9739  0.6116
 8209SOL    HW236087   0.324   1.208   4.999 -3.9644 -0.1802 -1.6676
 8210SOL     OW36088   2.048   3.046  10.661  0.4462 -0.2617 -0.0957
 8210SOL    HW136089   1.981   2.999  10.612  0.9108  0.4077 -1.3755
 8210SOL    HW236090   2.056   3.129  10.614 -0.2194 -0.4487 -0.5283
 8211SOL     OW36091   1.034   1.494   5.007 -0.2395 -0.3766  0.1695
 8211SOL    HW136092   0.996   1.511   5.093 -1.5066  0.4932 -0.5546
 8211SOL    HW236093   0.960   1.486   4.947 -1.9344 -0.7332  2.3345
 8212SOL     OW36094   2.599   2.278  12.317 -0.1195 -0.2989 -0.0109
 8212SOL    HW136095   2.588   2.195  12.364  1.9548 -0.6015 -0.0462
 8212SOL    HW236096   2.537   2.336  12.363 -1.9756 -1.4362 -1.0822
 8213SOL     OW36097   1.280   3.638   6.389 -0.3627 -0.3152 -0.0914
 8213SOL    HW136098   1.373   3.618   6.374 -0.5589  0.5264 -2.3797
 8213SOL    HW236099   1.244   3.556   6.422  0.9471 -1.1138 -0.6292
 8214SOL     OW36100   0.887   3.973   1.579  0.2200 -0.1920  0.1914
 8214SOL    HW136101   0.841   4.039   1.529 -0.5510 -1.0346 -0.2093
 8214SOL    HW236102   0.828   3.957   1.653  1.1129 -3.4284  0.2370
 8215SOL     OW36103   4.726   0.407  10.369  0.2712  0.4276  0.2347
 8215SOL    HW136104   4.651   0.375  10.318  0.0582  0.8465  0.2871
 8215SOL    HW236105   0.004   0.495  10.333  1.0083  0.4984  0.5050
 8216SOL     OW36106   0.167   2.197   6.631 -0.3198 -0.4172  0.0128
 8216SOL    HW136107   0.239   2.162   6.683  1.7104  0.0222 -2.5570
 8216SOL    HW236108   0.112   2.219   6.706  1.5826 -0.1652  1.3301
 8217SOL     OW36109   1.047   3.474   7.662  0.4020  0.1475 -0.3657
 8217SOL    HW136110   1.142   3.482   7.660  0.3311  1.7550  2.1080
 8217SOL    HW236111   1.033   3.504   7.752 -1.1281  0.5270 -0.7311
 8218SOL     OW36112   0.680   0.524  14.943  0.3247  0.1476  0.0683
 8218SOL    HW136113   0.602   0.537  14.889  0.4507  2.1792  0.3718
 8218SOL    HW236114   0.665   0.432  14.965 -0.6529  1.1136  3.4088
 8219SOL     OW36115   4.030   0.905   7.161  0.1287 -0.2023  0.1235
 8219SOL    HW136116   4.014   0.960   7.237  0.5852 -1.1594  0.9151
 8219SOL    HW236117   4.122   0.921   7.141 -0.4351  2.0134 -0.7000
 8220SOL     OW36118   4.707   3.616   4.847  0.6737 -0.4234  0.6088
 8220SOL    HW136119   0.062   3.652   4.884  1.8811 -1.8067 -0.7144
 8220SOL    HW236120   4.703   3.524   4.872  2.6869 -1.0417 -1.3324
 8221SOL     OW36121   3.756   3.596   7.951  0.0209 -0.5477 -0.5063
 8221SOL    HW136122   3.773   3.554   8.036 -1.0060  1.3783  0.6575
 8221SOL    HW236123   3.760   3.523   7.890  1.7257 -1.2103  0.3876
 8222SOL     OW36124   0.131   3.426   0.473  0.0673 -0.4402  0.4609
 8222SOL    HW136125   0.170   3.396   0.391 -1.1214 -2.3543  0.6095
 8222SOL    HW236126   0.164   3.367   0.541 -0.1581 -2.1702 -0.9466
 8223SOL     OW36127   3.229   0.128   7.095 -0.2434 -0.1883 -0.1809
 8223SOL    HW136128   3.252   0.206   7.045 -0.0455  0.0273  0.2518
 8223SOL    HW236129   3.157   0.163   7.148 -1.3626 -2.0451 -0.4700
 8224SOL     OW36130   3.059   1.538   9.297  0.4399  0.5606  0.3503
 8224SOL    HW136131   3.000   1.474   9.259  0.0085  1.2204 -0.0899
 8224SOL    HW236132   3.108   1.484   9.360 -0.3500  0.5895  0.9889
 8225SOL     OW36133   4.612   3.569   1.929  0.0624  0.4930 -0.1570
 8225SOL    HW136134   4.582   3.577   1.838  0.1553 -1.7729 -0.3744
 8225SOL    HW236135   4.706   3.587   1.919 -0.3650  3.0716  0.3614
 8226SOL     OW36136   1.650   0.118  17.118  0.6612 -0.1757  0.6586
 8226SOL    HW136137   1.667   0.057  17.046  0.2296 -1.2042  1.4077
 8226SOL    HW236138   1.554   0.108  17.120  0.5558  0.3235 -2.2158
 8227SOL     OW36139   0.599   1.368   1.575 -0.1723 -0.7410  0.0674
 8227SOL    HW136140   0.509   1.342   1.593 -0.8100  3.1772  2.5081
 8227SOL    HW236141   0.577   1.426   1.502  0.6818  2.6141  2.4747
 8228SOL     OW36142   3.492   1.957   8.856  0.0193 -0.3162 -0.2472
 8228SOL    HW136143   3.415   1.905   8.835 -0.6231  0.4256  0.2514
 8228SOL    HW236144   3.505   1.930   8.947  2.5297 -0.7952 -0.7405
 8229SOL     OW36145   3.635   0.389   2.159 -0.3191 -0.0310 -0.0243
 8229SOL    HW136146   3.599   0.310   2.198  1.3645 -1.7779 -2.0420
 8229SOL    HW236147   3.604   0.403   2.069 -1.5728  1.8640  0.6983
 8230SOL     OW36148   1.708   0.550  16.079 -0.0431  0.1654  0.8436
 8230SOL    HW136149   1.657   0.580  16.004 -0.0590 -1.8216  0.0521
 8230SOL    HW236150   1.682   0.616  16.143  1.3897 -1.9453  3.6044
 8231SOL     OW36151   2.886   3.063   9.669 -0.6141 -0.0639  0.4205
 8231SOL    HW136152   2.872   3.145   9.716 -3.1466 -0.6736  0.7405
 8231SOL    HW236153   2.915   3.012   9.745  0.6457 -0.1906 -0.1462
 8232SOL     OW36154   4.680   1.489   2.474 -0.3733 -0.2294  0.1571
 8232SOL    HW136155   0.006   1.541   2.413 -0.3777  0.2246  0.5432
 8232SOL    HW236156   4.649   1.410   2.430  1.0626 -0.1627 -0.9926
 8233SOL     OW36157   3.641   3.721  14.215  0.4116 -0.0008 -0.1523
 8233SOL    HW136158   3.574   3.788  14.222 -0.6196 -0.9413 -0.9523
 8233SOL    HW236159   3.605   3.650  14.268 -1.6466  0.4052 -1.0376
 8234SOL     OW36160   0.602   1.564   7.453  0.1823 -0.0702 -0.0310
 8234SOL    HW136161   0.679   1.513   7.479  0.0632 -1.9492 -3.2482
 8234SOL    HW236162   0.545   1.557   7.529  1.7829  0.1179  1.1914
 8235SOL     OW36163   3.489   0.393   4.228 -0.9121  0.4983  0.2714
 8235SOL    HW136164   3.480   0.382   4.322  0.2934 -0.4432  0.2819
 8235SOL    HW236165   3.526   0.482   4.224  0.1154 -0.0765 -3.1866
 8236SOL     OW36166   1.791   3.059   7.112 -0.4893 -0.4286 -0.5370
 8236SOL    HW136167   1.771   3.142   7.156 -2.3468 -1.2982  0.2475
 8236SOL    HW236168   1.723   3.068   7.046 -0.0611 -1.3566 -1.1006
 8237SOL     OW36169   1.863   1.809  13.566 -0.6568 -0.3082 -0.5042
 8237SOL    HW136170   1.936   1.749  13.549 -0.5267  0.5353 -2.9114
 8237SOL    HW236171   1.891   1.855  13.645 -0.6894 -0.4310 -0.4200
 8238SOL     OW36172   4.691   1.249  13.467  0.2684  0.4533  0.1114
 8238SOL    HW136173   4.720   1.321  13.524  0.9714 -0.9658  1.5502
 8238SOL    HW236174   0.017   1.174  13.496 -1.2207 -0.2525  0.9679
 8239SOL     OW36175   2.657   0.923   6.927 -1.0630  0.2447  0.5219
 8239SOL    HW136176   2.573   0.967   6.915 -1.1283 -0.0490 -0.1010
 8239SOL    HW236177   2.711   0.994   6.961  2.6688 -1.4637 -1.8496
 8240SOL     OW36178   1.002   4.717   3.175 -0.2820 -0.1228  0.2554
 8240SOL    HW136179   1.005   4.666   3.094 -0.4048  0.2091  0.0391
 8240SOL    HW236180   1.047   4.661   3.237  0.1142 -1.1847 -0.9976
 8241SOL     OW36181   1.935   4.600   7.921  0.2568 -0.2099  0.0490
 8241SOL    HW136182   1.891   4.533   7.973  0.4029 -0.8208 -0.6089
 8241SOL    HW236183   1.982   4.658   7.980 -1.0445  2.0687 -1.1553
 8242SOL     OW36184   3.666   2.390   2.187  0.0314 -0.1004  0.2026
 8242SOL    HW136185   3.603   2.373   2.117 -0.3633  0.1951  0.4776
 8242SOL    HW236186   3.739   2.340   2.151 -1.7502 -1.4463 -1.5318
 8243SOL     OW36187   3.577   4.634  11.977  0.1743  0.2720  0.2463
 8243SOL    HW136188   3.526   4.560  11.944 -1.0609 -0.0607  2.8323
 8243SOL    HW236189   3.578   4.692  11.901 -0.3925  0.8398  0.6713
 8244SOL     OW36190   0.957   3.964   5.885 -0.4037  0.4282  0.1087
 8244SOL    HW136191   0.883   3.942   5.942 -0.0015 -2.3107 -0.4355
 8244SOL    HW236192   0.995   3.876   5.886  0.8535  0.9989  1.4656
 8245SOL     OW36193   1.292   4.518   8.243 -0.1913  0.1064 -0.1984
 8245SOL    HW136194   1.282   4.590   8.305 -0.5768 -0.5107  0.4552
 8245SOL    HW236195   1.335   4.561   8.169 -0.6448  0.9023 -0.0038
 8246SOL     OW36196   1.541   3.471   1.712 -0.5668  0.1924  0.1667
 8246SOL    HW136197   1.456   3.507   1.685  0.1028  1.3833 -0.3519
 8246SOL    HW236198   1.581   3.553   1.740  1.3557 -0.5057 -0.5334
 8247SOL     OW36199   0.592   2.229   2.363 -0.3179  0.4029 -0.5464
 8247SOL    HW136200   0.638   2.276   2.293  0.2838 -1.9048 -1.6911
 8247SOL    HW236201   0.580   2.140   2.330  2.3792 -0.1155 -0.1706
 8248SOL     OW36202   4.372   3.209   9.698 -0.3302 -0.2238  0.4532
 8248SOL    HW136203   4.425   3.240   9.771  1.2349 -1.9958  0.0574
 8248SOL    HW236204   4.310   3.279   9.679  2.5165  2.3793  0.8712
 8249SOL     OW36205   1.429   1.052  11.554  0.3109  0.3515  0.5152
 8249SOL    HW136206   1.423   1.134  11.505  0.2247  1.4313  2.2946
 8249SOL    HW236207   1.489   1.001  11.500 -0.0519  0.0907  0.3587
 8250SOL     OW36208   1.987   1.378   2.846 -0.2848 -0.0307 -0.1793
 8250SOL    HW136209   2.080   1.359   2.863  0.0618  0.1572 -1.8431
 8250SOL    HW236210   1.968   1.449   2.907 -2.2496 -0.5122 -0.2401
 8251SOL     OW36211   1.796   2.260   8.878 -0.3850  0.3247 -0.0147
 8251SOL    HW136212   1.878   2.308   8.886  0.3739 -1.1940  1.5898
 8251SOL    HW236213   1.741   2.328   8.840  1.1045  0.8889 -1.1434
 8252SOL     OW36214   1.605   2.763  14.278  0.2204  0.1381 -0.8674
 8252SOL    HW136215   1.597   2.859  14.275 -0.7041  0.0627 -0.6765
 8252SOL    HW236216   1.680   2.762  14.339 -1.5360 -2.2598  1.2351
 8253SOL     OW36217   0.488   1.398   9.712  0.5078  0.1486 -0.1219
 8253SOL    HW136218   0.424   1.443   9.656 -2.0701 -1.6584  1.3848
 8253SOL    HW236219   0.560   1.406   9.650  1.0125 -1.3729  0.2566
 8254SOL     OW36220   0.795   3.938  15.145 -0.5854 -0.1185  0.2564
 8254SOL    HW136221   0.792   3.971  15.055 -0.3728  0.1658  0.3552
 8254SOL    HW236222   0.762   4.006  15.203  0.1060  0.2786  0.1775
 8255SOL     OW36223   1.844   4.103   2.590  0.6363 -0.6006 -0.3843
 8255SOL    HW136224   1.865   4.185   2.544 -1.6130  0.1709 -0.0219
 8255SOL    HW236225   1.851   4.023   2.537 -1.3738 -0.6244 -0.6129
 8256SOL     OW36226   1.141   0.622  15.566 -0.2936 -0.2354 -0.4097
 8256SOL    HW136227   1.141   0.657  15.477  1.6856 -2.0567 -1.1081
 8256SOL    HW236228   1.061   0.660  15.604  0.5323 -0.5730  1.7127
 8257SOL     OW36229   2.256   3.016   6.807  0.3017 -0.2575  0.3871
 8257SOL    HW136230   2.319   3.080   6.838 -2.4797  2.4060  0.5307
 8257SOL    HW236231   2.179   3.025   6.863  0.2342 -1.1697  0.4410
 8258SOL     OW36232   2.555   4.447  10.002 -0.4683 -0.3876  0.3098
 8258SOL    HW136233   2.575   4.376  10.063 -0.7538 -0.3259  0.4780
 8258SOL    HW236234   2.592   4.407   9.924 -2.4168 -1.5862 -0.0087
 8259SOL     OW36235   2.194   1.283   4.770 -0.5628  0.2113 -0.5870
 8259SOL    HW136236   2.160   1.231   4.697 -0.5464  0.0904 -0.5076
 8259SOL    HW236237   2.124   1.347   4.781  0.6835  1.7152 -1.3381
 8260SOL     OW36238   0.064   3.229   3.628  0.1803 -0.2501  0.1885
 8260SOL    HW136239   4.706   3.254   3.590  0.6023 -1.2754 -1.4071
 8260SOL    HW236240   0.031   3.151   3.672 -2.1332  1.5010  1.5443
 8261SOL     OW36241   2.929   0.027   5.004  0.5118 -0.1400 -0.5714
 8261SOL    HW136242   2.982   4.678   5.030 -0.6806 -0.7966 -0.0001
 8261SOL    HW236243   2.942   0.028   4.909  0.0430 -2.1390 -0.6564
 8262SOL     OW36244   2.824   3.065  11.914 -0.6169  0.3047 -0.0878
 8262SOL    HW136245   2.735   3.098  11.922 -0.2529  2.0264 -3.4403
 8262SOL    HW236246   2.831   3.006  11.989 -0.5967  2.3673  1.5098
 8263SOL     OW36247   2.676   3.348   8.766 -0.4487 -0.0426  0.4706
 8263SOL    HW136248   2.756   3.301   8.791  0.7464  1.2021 -0.9927
 8263SOL    HW236249   2.645   3.290   8.697  1.8146  0.1252 -0.6913
 8264SOL     OW36250   1.934   0.900  11.668  0.0179  0.3020  0.3092
 8264SOL    HW136251   1.880   0.844  11.724 -0.9417  1.5778  0.6603
 8264SOL    HW236252   2.013   0.903  11.721  0.3375  0.1609 -0.1608
 8265SOL     OW36253   1.555   3.669  14.677  0.2892  0.1670 -0.6014
 8265SOL    HW136254   1.487   3.725  14.714  1.0177 -0.1809  1.2451
 8265SOL    HW236255   1.595   3.717  14.604  2.0517 -0.5679 -0.1232
 8266SOL     OW36256   4.005   3.809   4.737 -0.0031  0.4169  0.5200
 8266SOL    HW136257   3.994   3.756   4.816  0.2704 -0.5064 -0.0556
 8266SOL    HW236258   3.912   3.821   4.721 -0.2082 -3.2999 -1.1139
 8267SOL     OW36259   2.520   0.183   5.825  0.1054  0.2291 -0.0605
 8267SOL    HW136260   2.597   0.175   5.769 -1.2269 -1.8926 -1.5509
 8267SOL    HW236261   2.471   0.256   5.787  1.0446  0.0141 -1.6859
 8268SOL     OW36262   0.562   2.245   4.126 -0.1499  0.3309 -0.1417
 8268SOL    HW136263   0.637   2.263   4.184  2.2037 -1.4309 -2.6372
 8268SOL    HW236264   0.545   2.319   4.067 -0.9896 -0.1243 -0.4565
 8269SOL     OW36265   1.255   0.338   5.837  0.0887  0.0320  0.3497
 8269SOL    HW136266   1.180   0.393   5.860  0.6696  0.6888  0.6679
 8269SOL    HW236267   1.308   0.331   5.916  0.0165  1.1197  0.4870
 8270SOL     OW36268   4.398   3.046   4.606 -0.2008  0.3340 -0.4190
 8270SOL    HW136269   4.456   3.095   4.665  0.4762 -1.0882  0.0963
 8270SOL    HW236270   4.319   3.097   4.622  0.2931  1.4964 -1.6547
 8271SOL     OW36271   2.238   0.682   8.564 -0.5455 -0.3044 -0.5523
 8271SOL    HW136272   2.143   0.694   8.570 -0.4534  0.4005 -0.4391
 8271SOL    HW236273   2.254   0.639   8.648  2.1406 -1.3619 -1.6085
 8272SOL     OW36274   2.472   2.429   3.740 -0.1130  0.0938 -0.1205
 8272SOL    HW136275   2.549   2.445   3.795  0.1579 -0.2299 -0.4076
 8272SOL    HW236276   2.404   2.459   3.801  2.0029 -0.0240  2.2886
 8273SOL     OW36277   3.682   0.325   9.044 -0.1947 -0.1616  0.3557
 8273SOL    HW136278   3.668   0.370   8.961 -0.4340 -0.8944 -0.0007
 8273SOL    HW236279   3.671   0.396   9.107 -2.4731 -0.1043 -0.0970
 8274SOL     OW36280   4.249   1.887  16.709  0.2016  0.0376 -0.4537
 8274SOL    HW136281   4.305   1.879  16.785 -0.1280  0.6386 -0.1447
 8274SOL    HW236282   4.266   1.977  16.680 -2.2309  0.9462  0.9332
 8275SOL     OW36283   1.916   0.964   6.193 -0.3736 -0.7042  0.3257
 8275SOL    HW136284   1.854   1.022   6.238 -0.0046 -1.0145  1.2346
 8275SOL    HW236285   1.998   0.974   6.240  0.2062 -0.1265 -0.8214
 8276SOL     OW36286   4.430   1.468   7.457  0.2517 -0.1560 -0.0828
 8276SOL    HW136287   4.341   1.443   7.434 -0.0537  0.8449  0.0524
 8276SOL    HW236288   4.471   1.481   7.372  1.4617  2.5597  0.9248
 8277SOL     OW36289   0.881   1.545   6.813  0.3088 -0.4257  0.2629
 8277SOL    HW136290   0.888   1.480   6.883 -2.3575 -1.6340 -0.6020
 8277SOL    HW236291   0.786   1.552   6.799  0.4629  0.2002 -0.4752
 8278SOL     OW36292   0.682   3.047   8.265 -0.7541 -0.0632 -0.4464
 8278SOL    HW136293   0.590   3.025   8.251 -0.5764 -0.6362 -0.6884
 8278SOL    HW236294   0.726   2.967   8.238  0.4428  0.4241  0.0894
 8279SOL     OW36295   2.687   3.527  17.338 -0.2800  0.0639 -0.1061
 8279SOL    HW136296   2.765   3.472  17.344 -0.5507 -0.2422  0.6383
 8279SOL    HW236297   2.735   3.609  17.324 -1.5407  0.9880  0.9344
 8280SOL     OW36298   0.502   0.982   2.927 -0.2762  0.4267  0.0650
 8280SOL    HW136299   0.422   1.015   2.884 -1.7370 -0.7509  1.8925
 8280SOL    HW236300   0.545   1.067   2.918 -1.0180  0.6983 -1.0148
 8281SOL     OW36301   3.093   1.777   9.828 -0.2351  0.2821 -0.4186
 8281SOL    HW136302   3.003   1.809   9.822  0.4347  2.3155  0.5573
 8281SOL    HW236303   3.147   1.856   9.821  0.1335 -0.1293 -2.0381
 8282SOL     OW36304   0.797   1.718   3.963  0.3835  0.4892  0.5034
 8282SOL    HW136305   0.738   1.747   3.894  1.4742 -1.4691 -1.2336
 8282SOL    HW236306   0.812   1.805   4.000  0.4597  0.3998  0.6818
 8283SOL     OW36307   1.460   1.285  13.247 -0.4011 -0.3816  0.4734
 8283SOL    HW136308   1.499   1.349  13.307 -1.0801  1.0992 -0.6701
 8283SOL    HW236309   1.376   1.256  13.283 -0.5479  0.2221  0.6151
 8284SOL     OW36310   2.770   0.176   0.157 -0.5289 -0.2386 -0.5551
 8284SOL    HW136311   2.747   0.241   0.091  3.5107  2.7717  0.9991
 8284SOL    HW236312   2.829   0.112   0.117  0.8851  1.8892 -1.8880
 8285SOL     OW36313   0.110   0.393   6.120  0.0807  0.5878  0.1213
 8285SOL    HW136314   0.058   0.469   6.145 -0.6690 -0.4348  1.7155
 8285SOL    HW236315   0.167   0.435   6.056 -0.9036  0.1703 -1.0196
 8286SOL     OW36316   2.437   1.538   9.979  0.8077  0.3051  0.0348
 8286SOL    HW136317   2.515   1.592   9.964  1.7322 -0.2052  2.8597
 8286SOL    HW236318   2.432   1.564  10.071  2.6552 -0.6558  0.4221
 8287SOL     OW36319   4.371   1.508   3.898  0.0686 -0.1742  0.0306
 8287SOL    HW136320   4.333   1.466   3.976  0.2819  0.3445  0.4068
 8287SOL    HW236321   4.324   1.590   3.915 -1.1595 -0.1481 -3.3663
 8288SOL     OW36322   2.963   2.150   2.377 -0.2226 -0.1933  0.0770
 8288SOL    HW136323   3.052   2.119   2.360 -0.8688 -0.5470 -2.5748
 8288SOL    HW236324   2.926   2.092   2.311  0.3081  2.0455 -2.1829
 8289SOL     OW36325   0.199   0.451  17.281  0.0192  0.0176  0.1652
 8289SOL    HW136326   0.193   0.368  17.234 -0.7301 -0.4541  1.0836
 8289SOL    HW236327   0.147   0.438  17.361 -0.4164 -0.7882 -0.2514
 8290SOL     OW36328   3.134   0.012   2.098 -0.0540 -0.1413 -0.5136
 8290SOL    HW136329   3.118   0.023   2.004  2.7945  1.5810 -0.7688
 8290SOL    HW236330   3.130   0.104   2.124 -1.5281 -0.0652 -0.9824
 8291SOL     OW36331   1.467   0.473  11.769 -0.7562  0.5419  0.4346
 8291SOL    HW136332   1.502   0.397  11.815 -2.1000 -0.5871 -0.4423
 8291SOL    HW236333   1.529   0.470  11.696 -1.1481 -0.7467  0.1629
 8292SOL     OW36334   0.417   2.024   8.457 -0.2079  0.2014 -0.3966
 8292SOL    HW136335   0.399   2.010   8.364 -1.7694 -1.2836  0.1309
 8292SOL    HW236336   0.500   1.978   8.470 -0.7523 -0.8277 -0.5175
 8293SOL     OW36337   2.961   4.006   4.135  0.2223  0.1852 -0.2857
 8293SOL    HW136338   2.985   3.917   4.161  0.1163  0.3695  0.4604
 8293SOL    HW236339   3.046   4.027   4.098 -0.3525 -0.4693 -1.9718
 8294SOL     OW36340   3.365   3.218   3.937  0.0254 -0.2085 -0.1572
 8294SOL    HW136341   3.311   3.140   3.952 -2.6282  1.6062 -0.2871
 8294SOL    HW236342   3.304   3.292   3.939  1.1070  0.7944 -4.0532
 8295SOL     OW36343   2.201   1.686  17.320 -0.2725  0.1790 -0.0761
 8295SOL    HW136344   2.296   1.672  17.318 -0.4622 -1.1119 -0.0733
 8295SOL    HW236345   2.179   1.690  17.228 -1.6291  1.0785  0.3031
 8296SOL     OW36346   0.644   2.534  10.532 -0.0332 -0.0005  0.8664
 8296SOL    HW136347   0.709   2.491  10.476  0.3544  0.5237  0.9141
 8296SOL    HW236348   0.573   2.559  10.473  0.4732  1.1153  0.7415
 8297SOL     OW36349   4.485   0.454   9.758  0.2601 -0.1958  0.2929
 8297SOL    HW136350   4.542   0.532   9.753 -0.6927  0.3578 -1.8563
 8297SOL    HW236351   4.424   0.479   9.827  0.6921  0.4687  0.4361
 8298SOL     OW36352   2.900   2.770   6.604  0.0859 -0.1813 -0.3910
 8298SOL    HW136353   2.922   2.803   6.517  0.0661 -1.0106 -0.7057
 8298SOL    HW236354   2.811   2.736   6.614  0.1626 -0.5083 -0.8163
 8299SOL     OW36355   1.948   1.702   0.317  0.1884 -0.0993 -0.3479
 8299SOL    HW136356   1.937   1.735   0.406  0.7092 -0.3217 -0.2002
 8299SOL    HW236357   2.043   1.706   0.314  0.1449  0.4430 -0.8776
 8300SOL     OW36358   2.855   2.592  16.684 -0.1354 -0.5007  0.1865
 8300SOL    HW136359   2.895   2.600  16.597  0.3283  0.1757  0.4603
 8300SOL    HW236360   2.901   2.660  16.733  1.1691 -1.9341  0.9761
 8301SOL     OW36361   3.700   0.397  10.825 -0.0340 -0.5823  0.0277
 8301SOL    HW136362   3.777   0.358  10.784  0.6238 -0.8143  1.4944
 8301SOL    HW236363   3.632   0.391  10.757 -0.9789 -0.5179  0.9721
 8302SOL     OW36364   0.625   2.519   7.811 -0.3051 -0.5562 -0.2205
 8302SOL    HW136365   0.554   2.547   7.868  0.6576  0.1693  0.6274
 8302SOL    HW236366   0.659   2.601   7.775 -0.1689 -1.1816 -1.5353
 8303SOL     OW36367   4.338   3.552   7.155  0.1006 -0.0658 -0.4282
 8303SOL    HW136368   4.388   3.552   7.073 -2.5127  1.0808 -2.0063
 8303SOL    HW236369   4.286   3.627   7.125  0.4588  0.3467 -0.0206
 8304SOL     OW36370   0.452   3.142   4.165  0.0653 -0.9029  0.1501
 8304SOL    HW136371   0.356   3.139   4.168 -0.0445  0.9217 -1.7598
 8304SOL    HW236372   0.453   3.229   4.125 -1.4118 -1.1896 -0.5147
 8305SOL     OW36373   2.958   3.604   6.594 -0.6519  0.0599  0.0849
 8305SOL    HW136374   2.967   3.555   6.512  0.8528 -0.0388  0.3163
 8305SOL    HW236375   2.935   3.693   6.568 -0.4117 -0.3744 -1.6071
 8306SOL     OW36376   2.058   1.054  12.340 -0.1626  0.5660  0.1417
 8306SOL    HW136377   2.004   0.987  12.298  0.9168  0.7555 -1.5726
 8306SOL    HW236378   2.129   1.000  12.375  0.7408 -0.1251 -2.6786
 8307SOL     OW36379   0.336   1.087   6.322 -0.1996 -0.3269  0.3865
 8307SOL    HW136380   0.385   1.085   6.404 -0.6640  0.9696  0.6919
 8307SOL    HW236381   0.389   1.146   6.268 -1.4810 -0.8540 -1.4611
 8308SOL     OW36382   4.105   0.588   6.929  0.0563  0.5240  0.0532
 8308SOL    HW136383   4.052   0.510   6.916  0.4614  0.1562  0.6221
 8308SOL    HW236384   4.082   0.595   7.021 -1.2026  0.2613 -0.2365
 8309SOL     OW36385   0.160   4.381  15.389 -0.1296 -0.3354 -0.0668
 8309SOL    HW136386   0.113   4.312  15.342  0.9394 -0.6161 -0.7176
 8309SOL    HW236387   0.145   4.458  15.333 -0.3582  0.0747  0.5533
 8310SOL     OW36388   4.690   0.133   5.089  0.3663 -0.0867  0.4795
 8310SOL    HW136389   4.626   0.092   5.031  2.1551 -1.6638 -0.3904
 8310SOL    HW236390   0.040   0.121   5.032  0.8565  0.2069  1.0671
 8311SOL     OW36391   3.370   4.230   3.123 -0.4586  0.1593  0.3108
 8311SOL    HW136392   3.421   4.301   3.164 -0.2983 -0.0680  0.5054
 8311SOL    HW236393   3.430   4.211   3.051 -3.1326  1.4486 -2.2553
 8312SOL     OW36394   1.975   4.023   8.734 -0.1652 -0.0718  0.7111
 8312SOL    HW136395   2.060   3.990   8.705  0.3655  2.1622 -0.3057
 8312SOL    HW236396   1.979   4.114   8.703 -2.0346  0.6118  2.4828
 8313SOL     OW36397   2.222   3.999  16.496 -0.1791 -0.1796  0.5429
 8313SOL    HW136398   2.131   4.012  16.524 -0.8250 -0.4865 -1.4010
 8313SOL    HW236399   2.208   3.947  16.417  0.2885  1.5315 -0.6633
 8314SOL     OW36400   4.644   2.660  12.390 -0.3996 -0.0417  0.0782
 8314SOL    HW136401   4.595   2.610  12.456  1.5915 -0.7559  1.0295
 8314SOL    HW236402   4.643   2.604  12.313  4.1500  1.9748 -1.4431
 8315SOL     OW36403   0.744   3.570   5.535  0.4944  0.1922  0.1825
 8315SOL    HW136404   0.732   3.587   5.442  1.4721  1.5869  0.3159
 8315SOL    HW236405   0.652   3.549   5.549  0.2710 -0.8151 -2.8860
 8316SOL     OW36406   4.460   2.478   7.846  0.1665 -0.9170  0.1827
 8316SOL    HW136407   4.487   2.434   7.765  1.1137  0.7073 -0.3887
 8316SOL    HW236408   4.437   2.565   7.815  0.3364 -1.4936 -1.5856
 8317SOL     OW36409   0.872   3.740   1.865  0.2337  0.4163  0.0391
 8317SOL    HW136410   0.801   3.776   1.918  0.1421  1.7386 -0.9872
 8317SOL    HW236411   0.878   3.648   1.892 -1.6265  0.5692  0.9806
 8318SOL     OW36412   1.906   1.214  12.502  0.4901  0.1811  0.5236
 8318SOL    HW136413   1.880   1.146  12.564 -0.0989 -0.5913 -0.5754
 8318SOL    HW236414   1.955   1.163  12.438 -1.3136  2.2344 -2.4859
 8319SOL     OW36415   1.569   1.134   7.845  0.4220 -0.0422  0.3197
 8319SOL    HW136416   1.533   1.219   7.868 -0.6082  0.3639 -2.7023
 8319SOL    HW236417   1.514   1.073   7.895 -2.0132  2.0699  0.2510
 8320SOL     OW36418   1.992   3.811   7.585  0.2141  0.0744  0.8658
 8320SOL    HW136419   2.050   3.832   7.658  0.4389 -2.5794  1.4710
 8320SOL    HW236420   2.044   3.780   7.511 -3.4898 -1.6603 -0.9827
 8321SOL     OW36421   2.384   2.108   2.428  0.0467 -0.6732 -0.7060
 8321SOL    HW136422   2.311   2.052   2.454 -1.3246  0.5653 -1.8763
 8321SOL    HW236423   2.450   2.039   2.426  0.1795 -0.5631 -0.0480
 8322SOL     OW36424   2.685   3.531   4.589 -0.0494  0.1530  0.1285
 8322SOL    HW136425   2.750   3.462   4.575 -1.8952 -1.6835  0.6701
 8322SOL    HW236426   2.718   3.602   4.534  0.6140 -0.7501 -0.6320
 8323SOL     OW36427   2.123   2.065   7.751 -0.5553 -0.2620  0.4256
 8323SOL    HW136428   2.139   2.017   7.832  0.9003 -0.8182 -0.1988
 8323SOL    HW236429   2.138   2.156   7.779  1.8055 -0.1392 -1.2755
 8324SOL     OW36430   4.660   4.057  10.146 -0.2758 -0.7416  0.1850
 8324SOL    HW136431   4.608   4.027  10.221 -1.2063 -0.5114 -0.3746
 8324SOL    HW236432   0.016   4.025  10.184 -0.7168 -2.2379 -0.0942
 8325SOL     OW36433   4.133   2.175  10.447 -0.3155  0.0363 -0.1730
 8325SOL    HW136434   4.041   2.203  10.449  0.0015  0.9265  1.2645
 8325SOL    HW236435   4.154   2.196  10.538 -1.4152 -2.8427  0.7196
 8326SOL     OW36436   0.103   2.743   7.795 -0.0095 -0.6710 -0.0418
 8326SOL    HW136437   0.094   2.673   7.860  2.2164 -0.2758  0.6648
 8326SOL    HW236438   0.190   2.728   7.757 -0.3183  1.0848 -1.4375
 8327SOL     OW36439   3.430   3.536   6.682 -0.3079 -0.3581 -0.3916
 8327SOL    HW136440   3.476   3.538   6.598  2.9891  0.6025  1.4089
 8327SOL    HW236441   3.496   3.587   6.729 -0.3727 -1.1474  0.5662
 8328SOL     OW36442   0.319   3.342   3.407  0.1913 -0.3673  0.5630
 8328SOL    HW136443   0.333   3.326   3.501 -0.5011  1.3399  0.9688
 8328SOL    HW236444   0.259   3.272   3.382 -0.2796  0.3328 -0.2897
 8329SOL     OW36445   2.306   4.422   2.503 -0.1307 -0.4119 -0.1237
 8329SOL    HW136446   2.303   4.434   2.408  0.0038  1.7171  0.1358
 8329SOL    HW236447   2.341   4.334   2.507 -0.0707 -0.3514  0.6635
 8330SOL     OW36448   2.006   0.347   2.688  0.3895  0.4963  0.5991
 8330SOL    HW136449   2.090   0.392   2.703  0.7290 -0.9962  3.1734
 8330SOL    HW236450   2.023   0.267   2.737  0.6426  0.5094  0.5336
 8331SOL     OW36451   3.809   3.227  11.589  0.1504  0.2349  0.1788
 8331SOL    HW136452   3.809   3.134  11.564  2.2156  0.1952  0.3641
 8331SOL    HW236453   3.804   3.270  11.504  0.9508 -1.3717 -0.6867
 8332SOL     OW36454   2.940   1.132   8.101  0.0049 -0.1173  0.2455
 8332SOL    HW136455   2.958   1.098   8.188 -0.0241  1.8580  1.0303
 8332SOL    HW236456   2.849   1.160   8.113  0.5993  2.0638 -0.2975
 8333SOL     OW36457   0.806   4.680   7.665 -1.0016 -0.4392 -0.3916
 8333SOL    HW136458   0.852   4.611   7.714 -0.5932  1.6184  2.0888
 8333SOL    HW236459   0.809   0.023   7.730 -3.5032 -0.4250 -0.2940
 8334SOL     OW36460   1.422   3.825   9.065  0.2763 -0.6599 -0.4918
 8334SOL    HW136461   1.493   3.764   9.083  1.6712  0.8110 -0.9331
 8334SOL    HW236462   1.397   3.857   9.152  0.5546  0.5134 -0.8436
 8335SOL     OW36463   1.294   2.260   3.404 -0.1433 -0.2429 -0.2886
 8335SOL    HW136464   1.313   2.281   3.495 -0.2972 -1.0093 -0.0843
 8335SOL    HW236465   1.379   2.255   3.359  1.0953 -1.5120  2.2167
 8336SOL     OW36466   4.054   1.742   5.132 -0.7232 -1.1214 -0.2972
 8336SOL    HW136467   4.078   1.832   5.108 -0.7618 -0.7091  1.1971
 8336SOL    HW236468   4.136   1.705   5.165  0.0284  1.1397  0.3827
 8337SOL     OW36469   4.352   2.728   7.837  0.4601 -0.0727 -0.3504
 8337SOL    HW136470   4.433   2.773   7.810 -0.1464  1.3525  0.1986
 8337SOL    HW236471   4.347   2.741   7.931 -0.9297  2.0049 -0.7287
 8338SOL     OW36472   3.776   4.242   8.396  0.7943  0.1303 -0.3834
 8338SOL    HW136473   3.763   4.214   8.305  0.2939  0.5099 -0.4238
 8338SOL    HW236474   3.756   4.335   8.390  0.9309  0.1120 -1.2031
 8339SOL     OW36475   1.410   1.912   8.170  0.5218 -0.9843 -0.3464
 8339SOL    HW136476   1.347   1.966   8.217  0.6180 -0.1935 -1.1330
 8339SOL    HW236477   1.397   1.925   8.076 -0.6909 -0.2860 -0.0789
 8340SOL     OW36478   2.972   2.046   3.107 -0.7247 -0.1399  0.4857
 8340SOL    HW136479   2.940   1.957   3.123  2.4936 -1.2315  1.0078
 8340SOL    HW236480   2.892   2.093   3.131 -1.2500 -1.2488  0.8980
 8341SOL     OW36481   0.763   3.137   2.588  0.1537 -0.0083  0.0598
 8341SOL    HW136482   0.670   3.116   2.582 -0.8215  4.2668 -0.0989
 8341SOL    HW236483   0.789   3.126   2.497  1.9968 -0.5260  0.6560
 8342SOL     OW36484   3.500   0.777   7.758 -0.2303 -0.6408  0.6682
 8342SOL    HW136485   3.437   0.789   7.829  1.1793  1.9591  1.4798
 8342SOL    HW236486   3.446   0.723   7.701  0.7424 -0.1290 -0.7339
 8343SOL     OW36487   2.157   0.803   6.713  0.0600 -0.8104 -0.1216
 8343SOL    HW136488   2.241   0.780   6.674  1.3403  0.6039  1.8019
 8343SOL    HW236489   2.129   0.722   6.757 -1.7927 -0.1220 -0.0305
 8344SOL     OW36490   4.415   2.470  13.153  0.4125  0.4261  0.1279
 8344SOL    HW136491   4.470   2.536  13.197  0.6256 -0.1930  0.7920
 8344SOL    HW236492   4.429   2.386  13.196 -1.8485  0.0705  0.1458
 8345SOL     OW36493   2.268   3.184  13.815  0.2051 -0.1322 -0.1087
 8345SOL    HW136494   2.242   3.259  13.869  0.4425 -1.0553  1.2673
 8345SOL    HW236495   2.353   3.213  13.781  0.4632  0.0307  0.6815
 8346SOL     OW36496   1.414   0.185  17.345  1.1495  0.2750 -0.1067
 8346SOL    HW136497   1.365   0.220  17.271  2.2753 -0.7687 -1.3585
 8346SOL    HW236498   1.358   0.204  17.421  0.7476  0.1683 -0.3772
 8347SOL     OW36499   0.827   4.095   3.557 -0.1814  0.4416 -0.3309
 8347SOL    HW136500   0.780   4.047   3.625 -0.0676  1.0852  0.2098
 8347SOL    HW236501   0.885   4.155   3.605  1.2581  0.9728 -2.7453
 8348SOL     OW36502   3.547   0.045   3.953  0.7711 -0.8296 -0.2620
 8348SOL    HW136503   3.495   0.103   4.009  0.3476 -1.1957 -0.2744
 8348SOL    HW236504   3.507   4.684   3.964  0.4372 -0.5438  0.8562
 8349SOL     OW36505   1.151   3.009  13.207 -0.4335  0.4181  0.3892
 8349SOL    HW136506   1.185   2.933  13.159  1.6012  0.8565  1.1915
 8349SOL    HW236507   1.073   3.037  13.157  1.0254  0.9078 -1.6112
 8350SOL     OW36508   3.123   0.373  13.250  0.2448  0.0219 -0.2903
 8350SOL    HW136509   3.118   0.305  13.317 -3.2793 -1.2689 -1.9253
 8350SOL    HW236510   3.075   0.335  13.178  0.8713 -0.9407 -0.1938
 8351SOL     OW36511   3.031   3.369   0.574 -0.1752 -0.2036  0.6346
 8351SOL    HW136512   3.011   3.345   0.664 -0.2889  1.8956  1.1587
 8351SOL    HW236513   3.098   3.434   0.594 -1.8652  1.2510  1.5604
 8352SOL     OW36514   0.841   4.175   6.706 -0.0535  0.1015  0.3461
 8352SOL    HW136515   0.792   4.190   6.786 -1.1671 -0.6805 -0.1792
 8352SOL    HW236516   0.909   4.113   6.734 -2.3426 -1.8773  1.5041
 8353SOL     OW36517   1.155   1.356  16.969  0.0073  0.7168  0.1902
 8353SOL    HW136518   1.241   1.334  17.005 -0.3896  1.3750  1.5790
 8353SOL    HW236519   1.134   1.416  17.041 -1.1026 -0.4353  0.8433
 8354SOL     OW36520   0.750   3.932   9.219  0.6264 -0.3198  0.1330
 8354SOL    HW136521   0.693   3.998   9.258  1.0557  1.3399 -2.0592
 8354SOL    HW236522   0.838   3.963   9.241  0.0651  2.1335 -1.1515
 8355SOL     OW36523   3.801   2.282   2.901 -0.4439  0.0998 -0.1204
 8355SOL    HW136524   3.869   2.219   2.925 -1.7237 -0.5899  1.7612
 8355SOL    HW236525   3.854   2.361   2.907  2.0940 -1.6116  0.2346
 8356SOL     OW36526   1.111   2.570   7.198 -0.1694 -0.2165 -0.3495
 8356SOL    HW136527   1.136   2.506   7.131  2.8213 -0.5430  1.0996
 8356SOL    HW236528   1.046   2.529   7.256 -0.6982 -0.6948 -1.2849
 8357SOL     OW36529   2.005   4.042  16.692 -0.5051  0.1978  0.4258
 8357SOL    HW136530   1.998   4.020  16.785 -0.5606 -1.6964 -0.0296
 8357SOL    HW236531   1.923   4.004  16.661 -1.4288  1.3152  1.5146
 8358SOL     OW36532   2.162   4.125   4.652  0.7699  0.0718  0.3021
 8358SOL    HW136533   2.143   4.075   4.572 -0.9355  4.5564 -2.0923
 8358SOL    HW236534   2.236   4.179   4.625  1.3891 -0.4619  0.9244
 8359SOL     OW36535   3.750   3.778   1.100 -0.1062  0.2796 -0.2711
 8359SOL    HW136536   3.656   3.777   1.119  0.3491 -2.1789  1.9167
 8359SOL    HW236537   3.779   3.716   1.168 -1.6130 -0.3536 -0.2040
 8360SOL     OW36538   3.000   0.427   4.294 -0.1567  0.1729  0.0491
 8360SOL    HW136539   3.049   0.372   4.233  0.2274 -0.6010  1.0599
 8360SOL    HW236540   2.926   0.368   4.306 -0.6904  1.5546  3.5453
 8361SOL     OW36541   0.516   3.879  13.476  0.0889  0.0447 -0.1789
 8361SOL    HW136542   0.559   3.876  13.562 -0.7244  1.6057  0.2862
 8361SOL    HW236543   0.593   3.882  13.420  1.1692 -2.4325  1.1612
 8362SOL     OW36544   0.676   4.567  12.297 -0.5377 -0.2609 -0.4903
 8362SOL    HW136545   0.582   4.552  12.286 -0.8312 -0.4168  2.1666
 8362SOL    HW236546   0.698   4.594  12.208 -3.3573  0.9523 -0.8156
 8363SOL     OW36547   1.207   2.170   5.288  0.3667 -0.0226  0.2014
 8363SOL    HW136548   1.254   2.092   5.320 -0.1551 -0.7590 -0.8537
 8363SOL    HW236549   1.144   2.187   5.358  2.4553  1.1034  1.8250
 8364SOL     OW36550   3.375   4.502  12.230  0.0462  0.0350 -0.0950
 8364SOL    HW136551   3.304   4.469  12.175 -1.9779  0.9156  2.0114
 8364SOL    HW236552   3.460   4.487  12.188  0.6309  2.4676  0.2332
 8365SOL     OW36553   0.908   0.968   9.843 -0.1137  0.0675  0.1995
 8365SOL    HW136554   0.945   1.023   9.911 -1.9557 -1.3479  2.3528
 8365SOL    HW236555   0.881   1.041   9.787  0.1184 -0.1085 -0.1394
 8366SOL     OW36556   2.650   2.588   2.605 -0.5171  0.1877 -0.6698
 8366SOL    HW136557   2.645   2.640   2.684  3.5593  1.0477 -0.9426
 8366SOL    HW236558   2.652   2.654   2.536 -2.8190 -1.4054 -2.2590
 8367SOL     OW36559   2.837   1.771   5.393 -0.2578  0.4944  0.1291
 8367SOL    HW136560   2.750   1.809   5.389 -0.8633 -1.3687 -3.8860
 8367SOL    HW236561   2.824   1.689   5.441 -3.7175  1.4325  0.7595
 8368SOL     OW36562   1.641   0.068  17.456 -0.7676  0.0196 -0.1090
 8368SOL    HW136563   1.637   0.074  17.551  1.6122 -2.3794  0.1418
 8368SOL    HW236564   1.558   0.106  17.428 -2.1167 -2.2221  0.8251
 8369SOL     OW36565   3.975   1.932  16.643  0.7507  0.2451 -0.2945
 8369SOL    HW136566   4.016   1.925  16.557 -1.5659  0.8703 -1.4273
 8369SOL    HW236567   4.057   1.931  16.693  2.0326  2.2283 -2.3707
 8370SOL     OW36568   0.446   3.362  14.690 -0.2120  0.3095  0.0976
 8370SOL    HW136569   0.510   3.422  14.652 -0.1156 -0.2881 -0.6895
 8370SOL    HW236570   0.403   3.419  14.754  0.0562  0.2069  0.3634
 8371SOL     OW36571   1.295   0.193   6.472  0.2346  0.3155  0.4270
 8371SOL    HW136572   1.330   0.105   6.458  0.9087  0.7950 -0.8193
 8371SOL    HW236573   1.234   0.195   6.398 -0.5913  0.1825  1.0955
 8372SOL     OW36574   0.536   4.379   0.358 -0.0703 -0.2525  0.3418
 8372SOL    HW136575   0.563   4.295   0.396 -0.7268 -0.7595 -0.3211
 8372SOL    HW236576   0.619   4.425   0.346 -0.9561  1.4460  0.7819
 8373SOL     OW36577   2.674   0.982   4.993  0.7315 -0.4890 -0.1627
 8373SOL    HW136578   2.630   1.050   4.942 -0.5284  0.6389  2.3993
 8373SOL    HW236579   2.612   0.914   4.968  0.1280 -0.6348  1.7444
 8374SOL     OW36580   1.090   2.824   6.540  0.3663  0.4911  0.2749
 8374SOL    HW136581   1.146   2.772   6.597 -0.7868 -0.1763  0.8089
 8374SOL    HW236582   1.003   2.807   6.577 -0.1762  1.7255 -0.4276
 8375SOL     OW36583   1.765   2.723   5.021 -0.1298  0.2384  0.5758
 8375SOL    HW136584   1.679   2.765   5.018 -0.2719 -0.1142 -0.2137
 8375SOL    HW236585   1.758   2.658   4.952  0.4506  0.3135  0.4411
 8376SOL     OW36586   2.739   4.497  12.299  0.2872 -0.7442  0.0227
 8376SOL    HW136587   2.813   4.448  12.336  2.5952  2.1373 -0.7852
 8376SOL    HW236588   2.766   4.511  12.208  1.9858  0.0627  0.6392
 8377SOL     OW36589   1.022   1.476   6.567 -0.1749 -0.4529  0.0436
 8377SOL    HW136590   0.937   1.464   6.526 -0.5937  0.0336  0.7639
 8377SOL    HW236591   1.003   1.498   6.659  0.3162  3.0114 -0.7150
 8378SOL     OW36592   4.645   3.036   0.532 -0.2231  0.1219  0.0709
 8378SOL    HW136593   4.573   3.098   0.536 -0.5326 -0.2011 -0.6744
 8378SOL    HW236594   4.697   3.059   0.609  1.6437 -0.7165 -0.9512
 8379SOL     OW36595   1.592   2.669   2.738 -0.1601 -0.0703  0.7505
 8379SOL    HW136596   1.498   2.681   2.723 -0.3528 -1.8995  0.5687
 8379SOL    HW236597   1.612   2.613   2.663 -1.0443 -1.2403  1.3940
 8380SOL     OW36598   2.221   3.600   8.938  0.5906 -0.2321  0.2493
 8380SOL    HW136599   2.277   3.545   8.993  0.2959 -1.3943 -0.6313
 8380SOL    HW236600   2.142   3.609   8.992 -0.4584 -1.3292 -1.1245
 8381SOL     OW36601   3.672   1.148   3.353  0.0166  0.1025 -0.0605
 8381SOL    HW136602   3.740   1.084   3.374  1.5605  0.9446 -2.4813
 8381SOL    HW236603   3.651   1.116   3.265 -2.3970  0.0017  0.5616
 8382SOL     OW36604   1.828   0.214  14.756 -0.8474 -0.2258 -0.3244
 8382SOL    HW136605   1.814   0.128  14.716 -0.3486  0.4975 -2.0881
 8382SOL    HW236606   1.904   0.192  14.810 -1.7960  2.7831  2.1864
 8383SOL     OW36607   1.983   3.036   3.856 -0.4167  0.6801 -0.0649
 8383SOL    HW136608   1.899   3.037   3.901 -0.5089 -0.5129 -0.2318
 8383SOL    HW236609   2.045   3.064   3.924 -0.9219  0.7761  0.3501
 8384SOL     OW36610   3.182   1.875   2.101  0.1470  0.2278 -0.1998
 8384SOL    HW136611   3.231   1.809   2.052  0.9682  0.6932 -0.0065
 8384SOL    HW236612   3.102   1.883   2.049 -0.1954  1.0608  0.4385
 8385SOL     OW36613   3.726   4.522   0.308  0.2236 -0.0029  0.7821
 8385SOL    HW136614   3.794   4.467   0.268  0.2258  1.1885 -0.8505
 8385SOL    HW236615   3.690   4.466   0.376 -1.5265 -0.4504 -0.5314
 8386SOL     OW36616   2.263   3.937   6.304  0.2261  0.2581  0.5428
 8386SOL    HW136617   2.170   3.947   6.326 -0.4759 -2.3632 -1.3025
 8386SOL    HW236618   2.257   3.875   6.231  3.0203 -2.4489  2.6039
 8387SOL     OW36619   0.287   0.237  11.599 -0.5457 -0.2867  0.0422
 8387SOL    HW136620   0.264   0.219  11.690 -1.6803  0.2830 -0.1271
 8387SOL    HW236621   0.337   0.157  11.582 -0.2794 -0.1203  0.0546
 8388SOL     OW36622   1.047   0.649  12.946 -0.4564 -0.1897 -0.0552
 8388SOL    HW136623   0.976   0.654  12.882 -0.5583  2.5122  0.2594
 8388SOL    HW236624   1.015   0.583  13.008  0.3944 -0.8326 -0.3037
 8389SOL     OW36625   0.500   2.842   2.452  0.4959 -0.3282 -0.0209
 8389SOL    HW136626   0.444   2.799   2.388  2.5458 -0.1120 -1.9728
 8389SOL    HW236627   0.583   2.849   2.404 -0.2868  0.1280 -1.2975
 8390SOL     OW36628   0.998   4.340   6.370 -0.4545  0.1674  0.7150
 8390SOL    HW136629   1.048   4.406   6.321 -0.0486 -2.2675 -2.1107
 8390SOL    HW236630   1.065   4.277   6.396 -0.0922  0.1296 -0.3181
 8391SOL     OW36631   0.603   2.097   5.416 -0.0958  0.3020 -0.1215
 8391SOL    HW136632   0.619   2.151   5.338 -0.0008  1.1987  0.5092
 8391SOL    HW236633   0.673   2.139   5.466  1.0151 -0.0102 -1.4439
 8392SOL     OW36634   3.654   1.751  13.059  0.2069 -0.1367  0.3516
 8392SOL    HW136635   3.610   1.756  13.144  0.2501 -0.2415  0.3804
 8392SOL    HW236636   3.738   1.710  13.082  1.1309  1.4132 -0.2279
 8393SOL     OW36637   0.324   2.208   3.942  0.2979 -0.0318 -0.3865
 8393SOL    HW136638   0.414   2.219   3.910 -0.7844  2.8300 -2.5092
 8393SOL    HW236639   0.284   2.291   3.915 -0.1859 -0.2824 -0.4185
 8394SOL     OW36640   2.013   0.847  10.647  0.5998  0.2122 -0.2369
 8394SOL    HW136641   2.059   0.814  10.570  1.7715  0.6567  0.2626
 8394SOL    HW236642   1.950   0.779  10.668 -0.3425  1.0092 -0.4939
 8395SOL     OW36643   2.215   0.981   4.775  0.6394  0.0880  0.2498
 8395SOL    HW136644   2.294   1.025   4.808 -1.3865  2.1360  2.3147
 8395SOL    HW236645   2.255   0.931   4.703 -4.1315 -0.5272 -1.9843
 8396SOL     OW36646   3.860   3.811   6.587  0.1398  0.0743  0.3564
 8396SOL    HW136647   3.836   3.849   6.503 -2.3637  0.5837  1.2917
 8396SOL    HW236648   3.955   3.826   6.583 -0.0525  1.0528 -0.4592
 8397SOL     OW36649   0.779   0.581   7.630  0.0383  0.0255 -0.4104
 8397SOL    HW136650   0.840   0.532   7.684 -0.1692  1.7688  1.3938
 8397SOL    HW236651   0.788   0.547   7.541 -0.5997  0.2954 -0.5778
 8398SOL     OW36652   0.581   0.284   3.034 -0.4930  0.3094  0.1399
 8398SOL    HW136653   0.668   0.324   3.039  0.5957 -1.9426 -0.7444
 8398SOL    HW236654   0.601   0.190   3.037  0.0838  0.4050 -1.0000
 8399SOL     OW36655   2.976   2.821   2.574 -0.2601 -0.7310  0.5071
 8399SOL    HW136656   2.998   2.792   2.663  1.4857 -1.9287 -0.3271
 8399SOL    HW236657   3.006   2.749   2.519  0.3721  0.1104 -0.2484
 8400SOL     OW36658   0.282   0.521   5.963  0.1789  0.2508 -0.0680
 8400SOL    HW136659   0.249   0.591   5.907 -0.2526  0.5556  0.5714
 8400SOL    HW236660   0.364   0.562   5.991  0.7871 -1.2601  0.3433
 8401SOL     OW36661   2.571   1.403   6.842  0.3235 -0.0041 -0.5539
 8401SOL    HW136662   2.621   1.457   6.903 -1.0370  1.5271 -0.7843
 8401SOL    HW236663   2.555   1.323   6.892  2.5909  0.5761  1.0740
 8402SOL     OW36664   3.659   1.928   8.578 -0.5112  0.0633 -0.3096
 8402SOL    HW136665   3.579   1.907   8.625 -0.9592  0.7683 -0.7585
 8402SOL    HW236666   3.723   1.960   8.643 -0.0488  0.3436 -0.9019
 8403SOL     OW36667   0.414   4.260   8.678 -0.5603  0.3136 -0.2782
 8403SOL    HW136668   0.485   4.204   8.708  0.0431  1.7485  0.9703
 8403SOL    HW236669   0.456   4.346   8.681 -1.9391  0.9629  0.5044
 8404SOL     OW36670   4.305   2.312   8.051  0.6320 -0.1857 -0.0507
 8404SOL    HW136671   4.297   2.357   7.966  0.2930 -0.9231 -0.4075
 8404SOL    HW236672   4.318   2.385   8.112  2.8405 -1.2139  0.6854
 8405SOL     OW36673   0.519   2.983   5.264 -0.1656  0.4219  0.8165
 8405SOL    HW136674   0.516   2.908   5.205  1.6138  0.7187  0.3538
 8405SOL    HW236675   0.438   3.030   5.244 -0.9097 -2.3754 -2.7602
 8406SOL     OW36676   0.426   4.706   4.746 -0.4226  0.0371 -0.6748
 8406SOL    HW136677   0.499   4.662   4.702  0.1429  1.4642 -1.1757
 8406SOL    HW236678   0.372   4.628   4.757 -0.3900 -0.0402 -1.0448
 8407SOL     OW36679   3.720   3.460   1.962 -0.3702 -0.0191 -0.1246
 8407SOL    HW136680   3.654   3.527   1.940  1.6404  2.0046  0.0292
 8407SOL    HW236681   3.690   3.426   2.046  0.1393 -1.3241 -0.4762
 8408SOL     OW36682   2.146   3.523   6.385  0.1619 -0.2507 -0.1555
 8408SOL    HW136683   2.108   3.445   6.346  0.2785 -0.4989  0.2279
 8408SOL    HW236684   2.236   3.519   6.353 -0.2715 -1.4891 -1.2125
 8409SOL     OW36685   0.142   1.011  15.500 -0.0726 -0.6508  0.3214
 8409SOL    HW136686   0.232   0.979  15.510 -0.0897 -0.7456  0.1740
 8409SOL    HW236687   0.147   1.035  15.408 -1.5526  2.9326  1.1793
 8410SOL     OW36688   0.059   0.520   2.075 -0.5189 -0.3708  0.0231
 8410SOL    HW136689   0.055   0.463   1.998 -0.0592  0.6422 -0.7611
 8410SOL    HW236690   0.012   0.476   2.146 -0.9499 -1.7205 -1.0890
 8411SOL     OW36691   2.006   4.460   2.223  0.6412  0.5566 -0.0759
 8411SOL    HW136692   1.957   4.402   2.165 -0.3395  1.6404 -0.3162
 8411SOL    HW236693   1.971   4.548   2.211 -0.6870 -0.0112 -0.3118
 8412SOL     OW36694   1.181   0.785   7.927  0.1386 -0.1815 -0.0188
 8412SOL    HW136695   1.102   0.823   7.965 -0.9189 -0.0467 -2.3376
 8412SOL    HW236696   1.175   0.821   7.838 -0.7676 -1.2959 -0.3980
 8413SOL     OW36697   1.418   2.449   2.661  0.0314  0.0997 -0.0045
 8413SOL    HW136698   1.353   2.453   2.591 -0.6792 -0.7085  0.6097
 8413SOL    HW236699   1.499   2.474   2.617  0.2594  0.6001  0.6918
 8414SOL     OW36700   0.562   0.664  11.124 -0.2194  0.6228  0.3996
 8414SOL    HW136701   0.585   0.573  11.141  3.1204  1.6663  1.5727
 8414SOL    HW236702   0.644   0.713  11.127  0.4915 -0.6784  2.2371
 8415SOL     OW36703   1.878   2.741  16.041 -0.1816  0.1938 -0.0289
 8415SOL    HW136704   1.784   2.730  16.031 -0.3783  0.1713  1.8598
 8415SOL    HW236705   1.893   2.692  16.122  3.7315  1.7783  0.2434
 8416SOL     OW36706   1.766   2.759   2.944 -0.1579 -0.2974 -0.1751
 8416SOL    HW136707   1.694   2.765   2.881  0.3179 -0.8197 -0.7574
 8416SOL    HW236708   1.834   2.725   2.886 -0.8356 -0.8133 -0.6688
 8417SOL     OW36709   1.767   4.269   7.112 -0.1400 -0.9457 -0.5618
 8417SOL    HW136710   1.694   4.331   7.114  0.4039 -0.3541  0.3677
 8417SOL    HW236711   1.814   4.287   7.030 -1.4711  0.1982 -1.0833
 8418SOL     OW36712   1.675   3.073   4.543 -0.4844  0.2579 -0.1550
 8418SOL    HW136713   1.719   3.038   4.621  1.2440 -1.8887 -2.1086
 8418SOL    HW236714   1.736   3.050   4.473  0.4756 -0.9138  1.0643
 8419SOL     OW36715   1.314   2.838   3.172 -0.0076  0.9042  0.3709
 8419SOL    HW136716   1.232   2.792   3.158 -0.0435  1.8357 -2.5484
 8419SOL    HW236717   1.337   2.787   3.250  1.4123  0.0705 -0.5967
 8420SOL     OW36718   1.998   0.839   7.955 -0.5805  0.4900  0.3017
 8420SOL    HW136719   2.053   0.917   7.948 -0.4995  0.3318 -0.8186
 8420SOL    HW236720   2.035   0.797   8.033 -0.6621  0.6620  0.4337
 8421SOL     OW36721   1.621   0.083   7.256  0.4180 -0.0746  0.1982
 8421SOL    HW136722   1.563   0.156   7.230 -1.1013 -0.4638  2.4749
 8421SOL    HW236723   1.599   0.078   7.349  2.4052 -0.2271  0.6531
 8422SOL     OW36724   0.675   2.514  10.109 -0.4346  0.4765 -0.5090
 8422SOL    HW136725   0.731   2.542  10.037 -0.0899 -0.8055 -0.7523
 8422SOL    HW236726   0.655   2.426  10.076 -0.2587  0.7496 -1.3371
 8423SOL     OW36727   2.679   0.638   3.149 -0.0603  0.2139  0.3921
 8423SOL    HW136728   2.607   0.585   3.114  0.6452 -0.2533 -0.3537
 8423SOL    HW236729   2.717   0.678   3.071  1.2761  1.3776  1.6445
 8424SOL     OW36730   0.098   3.260   6.103 -0.4127 -0.0628  0.0843
 8424SOL    HW136731   0.068   3.343   6.068 -1.5659 -0.3467  0.4055
 8424SOL    HW236732   0.051   3.195   6.050 -1.5098  0.2602  0.6647
 8425SOL     OW36733   0.261   2.857   8.901 -0.5187 -0.7283 -0.0341
 8425SOL    HW136734   0.333   2.798   8.878 -1.4731 -1.5690 -0.8659
 8425SOL    HW236735   0.305   2.942   8.904 -3.8276  0.9696  0.6372
 8426SOL     OW36736   3.394   3.263   6.651  0.9583  0.1149  0.2875
 8426SOL    HW136737   3.409   3.356   6.665  0.1190  0.1208  1.1445
 8426SOL    HW236738   3.341   3.240   6.728  0.7800  1.1708  0.4856
 8427SOL     OW36739   0.903   3.154   0.977 -0.2078  0.1174 -0.4772
 8427SOL    HW136740   0.954   3.228   0.943  0.7310 -0.0239  0.6039
 8427SOL    HW236741   0.844   3.190   1.042  0.6027 -0.8713  0.8118
 8428SOL     OW36742   4.368   3.616   7.700  0.2931 -0.2811 -0.1805
 8428SOL    HW136743   4.353   3.526   7.730  1.7903 -0.3846  0.2229
 8428SOL    HW236744   4.304   3.671   7.746  0.1511 -1.0166  0.5018
 8429SOL     OW36745   4.203   2.324   5.461 -0.2431 -0.3737 -0.4015
 8429SOL    HW136746   4.111   2.298   5.464 -0.1839 -0.3978  1.0002
 8429SOL    HW236747   4.250   2.250   5.500  0.2093  0.8935  1.4494
 8430SOL     OW36748   1.165   3.672   0.933 -0.0925 -0.3409  0.4037
 8430SOL    HW136749   1.080   3.639   0.902 -0.8972  1.9639  0.1196
 8430SOL    HW236750   1.140   3.760   0.960  0.2153 -0.0543 -0.2360
 8431SOL     OW36751   0.572   0.968  15.964 -0.3422 -0.3043 -0.3132
 8431SOL    HW136752   0.658   1.009  15.977  0.8287 -2.1704 -2.1681
 8431SOL    HW236753   0.514   1.044  15.957  0.1683  0.1223  0.0947
 8432SOL     OW36754   3.754   0.094   3.050  0.4841  0.3210  0.1393
 8432SOL    HW136755   3.724   0.026   2.990  0.3391  0.1592  0.3926
 8432SOL    HW236756   3.743   0.163   2.985 -1.9964 -0.4520 -0.2775
 8433SOL     OW36757   1.123   1.623   4.583  0.2392 -0.5999 -0.7068
 8433SOL    HW136758   1.029   1.642   4.581  0.2404  0.1006  5.0703
 8433SOL    HW236759   1.130   1.568   4.506 -2.4937 -0.4998 -1.0216
 8434SOL     OW36760   2.632   0.457  11.963 -0.2395 -0.1234  0.4455
 8434SOL    HW136761   2.637   0.531  11.903  1.0912 -0.0138  0.6731
 8434SOL    HW236762   2.722   0.456  11.998 -0.1744 -0.3439  0.2742
 8435SOL     OW36763   4.367   0.637   2.325  0.1820  0.4653  0.3516
 8435SOL    HW136764   4.322   0.626   2.241  1.9848  1.0441 -0.6896
 8435SOL    HW236765   4.294   0.674   2.375 -1.7901 -2.0148 -0.7096
 8436SOL     OW36766   1.722   2.928   0.608 -0.0842  0.0535 -0.3333
 8436SOL    HW136767   1.764   3.014   0.597 -0.2089  0.1051 -0.4024
 8436SOL    HW236768   1.799   2.873   0.623 -0.5650  0.1501  2.6106
 8437SOL     OW36769   2.115   4.615   8.301 -0.0458 -0.3769 -0.4556
 8437SOL    HW136770   2.179   4.679   8.332 -1.2286  0.1599  0.8479
 8437SOL    HW236771   2.073   4.666   8.232  0.2008 -0.9648 -1.0453
 8438SOL     OW36772   4.130   2.918   3.087 -0.4041 -0.6211 -0.0616
 8438SOL    HW136773   4.162   2.869   3.163  3.2184  1.3672 -0.2969
 8438SOL    HW236774   4.161   3.007   3.103 -0.5607 -0.7100  0.7583
 8439SOL     OW36775   1.319   0.727   2.339 -0.1469 -0.0411  0.1298
 8439SOL    HW136776   1.242   0.716   2.283 -0.2717  1.3129  0.0187
 8439SOL    HW236777   1.282   0.789   2.402  0.7087  1.6701 -1.0433
 8440SOL     OW36778   3.105   3.062   0.649 -0.4431  0.3482 -0.3051
 8440SOL    HW136779   3.039   3.124   0.616  0.7205  1.1459 -1.1474
 8440SOL    HW236780   3.178   3.121   0.629 -0.6892  0.8333  0.2332
 8441SOL     OW36781   0.802   1.479   6.421  0.6000 -0.2428 -0.3616
 8441SOL    HW136782   0.779   1.539   6.350  0.7765 -0.1261 -0.3174
 8441SOL    HW236783   0.733   1.412   6.418 -0.5962  0.8248  3.5196
 8442SOL     OW36784   2.217   1.158   2.034 -0.0781  0.4520 -0.0149
 8442SOL    HW136785   2.127   1.163   2.002 -0.2956  2.7428  0.9222
 8442SOL    HW236786   2.227   1.199   2.120 -2.0011  1.0175 -0.0594
 8443SOL     OW36787   0.003   3.879   1.255  0.2529  0.1213 -0.5167
 8443SOL    HW136788   0.078   3.937   1.244  0.0432  0.4884 -0.0012
 8443SOL    HW236789   4.706   3.889   1.347 -0.5806  1.8709 -0.9321
 8444SOL     OW36790   1.530   2.908  12.669  0.2251  0.2394  0.3567
 8444SOL    HW136791   1.497   2.828  12.629 -2.2131  0.2140  2.4839
 8444SOL    HW236792   1.448   2.945  12.701  0.4838 -1.9703  3.5759
 8445SOL     OW36793   1.916   0.944  14.114 -0.1257 -0.2977  0.6815
 8445SOL    HW136794   1.853   0.875  14.135 -1.3449  0.5896 -0.0770
 8445SOL    HW236795   1.939   0.963  14.205 -0.3097 -0.3376  0.7369
 8446SOL     OW36796   2.395   2.107   7.592 -0.0580 -0.2415 -0.2493
 8446SOL    HW136797   2.343   2.028   7.581 -0.0749  0.2514 -3.6017
 8446SOL    HW236798   2.359   2.136   7.676  1.8753 -1.6129  1.0500
 8447SOL     OW36799   0.487   0.798   7.900  0.0991  0.5150  0.1287
 8447SOL    HW136800   0.437   0.719   7.922  0.3002  0.7467  1.3692
 8447SOL    HW236801   0.511   0.839   7.983 -4.7843  0.4289  1.5464
 8448SOL     OW36802   1.009   4.115   9.247 -0.2842  0.5719  0.2131
 8448SOL    HW136803   1.092   4.078   9.218 -0.1855  1.9021 -1.2139
 8448SOL    HW236804   1.003   4.067   9.330 -2.2190  0.0281 -0.2521
 8449SOL     OW36805   0.156   0.111   4.914 -0.0142 -0.5957  0.6833
 8449SOL    HW136806   0.224   0.169   4.881 -1.4606  0.4417 -0.4731
 8449SOL    HW236807   0.203   0.031   4.888  2.6361  0.4484  2.2970
 8450SOL     OW36808   0.315   2.454   8.666  0.4820 -0.3435  0.1529
 8450SOL    HW136809   0.266   2.504   8.600 -0.2942  0.3216  1.2266
 8450SOL    HW236810   0.254   2.388   8.699  2.0197 -1.8293 -0.0050
 8451SOL     OW36811   2.169   0.542   7.895 -0.0121 -0.1786 -0.1533
 8451SOL    HW136812   2.075   0.525   7.886 -0.0010 -0.4478  0.2604
 8451SOL    HW236813   2.179   0.631   7.928  1.5273 -0.9144  1.3480
 8452SOL     OW36814   1.459   1.578   5.005 -0.0066 -0.0469 -0.0947
 8452SOL    HW136815   1.401   1.569   4.929 -3.0277 -0.4955  2.2753
 8452SOL    HW236816   1.534   1.536   4.963 -0.6171  0.0033 -1.2505
 8453SOL     OW36817   1.404   1.514   2.824 -0.1634  0.5018  0.0604
 8453SOL    HW136818   1.417   1.600   2.783 -2.0749  0.7935  0.0561
 8453SOL    HW236819   1.462   1.453   2.779  0.1645  1.3923 -0.7430
 8454SOL     OW36820   4.144   3.430   9.290 -0.7800 -0.2837  0.3241
 8454SOL    HW136821   4.082   3.472   9.350 -0.9395 -0.2363  0.1281
 8454SOL    HW236822   4.141   3.336   9.304 -0.9517 -0.3236  0.0241
 8455SOL     OW36823   4.258   4.654   0.941  0.2210 -0.0851  0.0411
 8455SOL    HW136824   4.261   4.703   0.859  0.8931  0.4055  0.3602
 8455SOL    HW236825   4.296   4.723   0.995  1.0165 -1.6675  1.4911
 8456SOL     OW36826   1.576   3.397   9.684 -0.5028  0.4687  0.9478
 8456SOL    HW136827   1.648   3.398   9.747 -1.5629 -2.3620  2.1947
 8456SOL    HW236828   1.618   3.364   9.605  0.3084  1.5415  0.9265
 8457SOL     OW36829   4.066   3.159   9.593  0.7689  0.0886  0.0876
 8457SOL    HW136830   4.074   3.253   9.606  0.5320  0.2300 -0.8197
 8457SOL    HW236831   3.995   3.151   9.530  2.4261 -0.0325 -1.7574
 8458SOL     OW36832   1.788   0.505   2.694 -0.5969 -0.1607  0.2654
 8458SOL    HW136833   1.873   0.469   2.668 -0.3950 -0.6063  1.5692
 8458SOL    HW236834   1.768   0.457   2.774 -3.0075 -1.0456 -0.8535
 8459SOL     OW36835   4.123   3.739   7.780 -0.0143 -0.1496  0.0861
 8459SOL    HW136836   4.065   3.667   7.755 -1.3355  0.7555  0.5719
 8459SOL    HW236837   4.057   3.808   7.777  1.0360  0.7706 -1.6294
 8460SOL     OW36838   4.207   4.358   3.509  0.2805 -0.5423  0.0073
 8460SOL    HW136839   4.289   4.331   3.468 -0.3808 -0.8728 -1.0855
 8460SOL    HW236840   4.196   4.448   3.481 -0.7000 -0.9638 -0.9464
 8461SOL     OW36841   1.655   2.693  16.168  0.1459  0.0617 -0.0740
 8461SOL    HW136842   1.574   2.675  16.216  0.2486  1.6486  0.6910
 8461SOL    HW236843   1.615   2.699  16.081 -2.0391  0.6117  0.9659
 8462SOL     OW36844   1.355   3.620   7.447  0.5250  0.8070  0.0760
 8462SOL    HW136845   1.359   3.585   7.536 -2.5626 -1.7545 -0.7999
 8462SOL    HW236846   1.435   3.584   7.409 -1.5368 -1.6676 -1.9593
 8463SOL     OW36847   2.391   3.050   8.980  0.1606  0.4568  0.3906
 8463SOL    HW136848   2.448   3.126   8.992 -0.8857  0.9513  2.0839
 8463SOL    HW236849   2.467   2.991   8.980 -0.0500  0.1797 -1.9531
 8464SOL     OW36850   4.381   2.758   6.111 -0.6671 -0.6024 -0.3195
 8464SOL    HW136851   4.462   2.793   6.149  0.0078 -1.0640 -1.3449
 8464SOL    HW236852   4.404   2.744   6.019  0.2751  2.8786 -0.6228
 8465SOL     OW36853   2.661   1.514   2.372  0.1284  0.2730  0.3973
 8465SOL    HW136854   2.610   1.549   2.445 -2.7957  1.3530 -2.2032
 8465SOL    HW236855   2.605   1.450   2.329  2.3838 -0.7479 -1.0447
 8466SOL     OW36856   2.160   0.684   2.490 -0.0741  0.2450 -0.5085
 8466SOL    HW136857   2.167   0.672   2.584 -0.2292  0.6724 -0.4421
 8466SOL    HW236858   2.209   0.619   2.439  1.0829 -0.0351  0.9792
 8467SOL     OW36859   4.078   1.450   7.677 -0.1108 -0.1601 -0.2639
 8467SOL    HW136860   4.006   1.415   7.626 -1.1614 -1.0910  1.8548
 8467SOL    HW236861   4.090   1.387   7.748  0.0970  0.9538  0.6835
 8468SOL     OW36862   3.659   2.589  15.949 -0.5662  0.3046 -0.0520
 8468SOL    HW136863   3.733   2.637  15.988  0.2655 -0.9449 -0.1099
 8468SOL    HW236864   3.594   2.593  16.018 -0.4005 -0.3600  0.1371
 8469SOL     OW36865   3.785   1.428   6.682 -0.2770 -0.2425  0.8061
 8469SOL    HW136866   3.721   1.429   6.611  0.1652  1.0475  0.4234
 8469SOL    HW236867   3.727   1.446   6.757 -1.6228  0.5955 -0.4397
 8470SOL     OW36868   3.166   3.989   6.348 -0.0488 -0.4651 -0.2358
 8470SOL    HW136869   3.211   3.938   6.416 -1.1265 -0.4163  0.5201
 8470SOL    HW236870   3.221   3.957   6.277  0.1783 -2.4584  0.8483
 8471SOL     OW36871   0.656   3.218   4.482 -0.2883  0.0594 -0.0298
 8471SOL    HW136872   0.678   3.294   4.429 -2.3786  1.7547  1.5200
 8471SOL    HW236873   0.562   3.214   4.468 -0.4145  0.0424  0.7739
 8472SOL     OW36874   4.589   2.014   5.967  0.1369  0.2707 -0.1253
 8472SOL    HW136875   4.629   1.929   5.951 -1.3332  0.3983 -4.3400
 8472SOL    HW236876   4.498   1.987   5.971  0.1007  0.6054  1.3236
 8473SOL     OW36877   1.301   1.422   1.805  0.0848  0.4151 -0.2383
 8473SOL    HW136878   1.312   1.472   1.886  0.0712  0.3292 -0.1830
 8473SOL    HW236879   1.222   1.377   1.835  0.0154  1.2902  0.8750
 8474SOL     OW36880   3.633   4.377  12.211  0.4717 -0.4643  0.2885
 8474SOL    HW136881   3.714   4.326  12.205  0.4713 -0.5811  1.3167
 8474SOL    HW236882   3.583   4.320  12.270  1.6254 -0.7516  0.9800
 8475SOL     OW36883   3.153   3.115  10.566 -0.2134  0.0476  0.3898
 8475SOL    HW136884   3.087   3.045  10.569  1.7028 -1.6533  2.8949
 8475SOL    HW236885   3.102   3.192  10.541  0.6270 -0.2057 -2.0590
 8476SOL     OW36886   0.451   0.552   3.625 -0.8659 -0.1539 -0.1343
 8476SOL    HW136887   0.536   0.508   3.635 -1.5272 -1.4438 -0.1389
 8476SOL    HW236888   0.391   0.486   3.659 -1.0463 -0.8203 -1.7341
 8477SOL     OW36889   4.692   3.967   7.071  0.5699  0.2726  0.6375
 8477SOL    HW136890   4.702   3.891   7.013  0.1663  1.3774 -0.8686
 8477SOL    HW236891   0.054   3.998   7.048  0.8470 -0.9101  0.0904
 8478SOL     OW36892   0.097   3.106  10.872  0.2221  0.1277 -0.1717
 8478SOL    HW136893   0.064   3.167  10.938 -1.4644 -1.3387  0.3469
 8478SOL    HW236894   0.107   3.033  10.932 -2.2299 -0.2774 -0.2381
 8479SOL     OW36895   1.599   2.463   6.666  0.1005  0.1444  0.3479
 8479SOL    HW136896   1.682   2.416   6.672  0.2415  0.1672 -1.4412
 8479SOL    HW236897   1.571   2.414   6.588 -0.3573 -0.7618  1.0738
 8480SOL     OW36898   1.103   3.795   6.662 -0.2079 -0.6495  0.6615
 8480SOL    HW136899   1.076   3.703   6.668  0.2599 -0.7337  1.5014
 8480SOL    HW236900   1.018   3.838   6.675 -0.8482 -1.3184 -1.3101
 8481SOL     OW36901   1.171   3.533   3.151 -0.5125  0.1701 -0.3535
 8481SOL    HW136902   1.133   3.615   3.181 -0.7218  0.2052 -0.7065
 8481SOL    HW236903   1.104   3.504   3.089 -0.1691 -0.7433 -0.2977
 8482SOL     OW36904   2.935   0.991   5.416 -0.1759 -0.1792  0.0022
 8482SOL    HW136905   2.847   1.015   5.389  0.2998  1.9919  0.3932
 8482SOL    HW236906   2.987   1.071   5.406  0.3444 -0.6005 -0.6839
 8483SOL     OW36907   1.131   0.083   7.697 -0.4021 -0.6697 -0.3701
 8483SOL    HW136908   1.113   0.086   7.791 -0.2263  0.6431 -0.3695
 8483SOL    HW236909   1.063   0.024   7.665  0.1989 -1.9716  0.7372
 8484SOL     OW36910   4.538   2.844   3.158 -0.0347  0.7685 -0.6445
 8484SOL    HW136911   4.564   2.904   3.088  0.4698 -1.2871 -2.2270
 8484SOL    HW236912   4.463   2.803   3.115 -0.0080 -0.5868  0.6235
 8485SOL     OW36913   4.520   1.001   5.970  0.3767  0.0895 -0.4915
 8485SOL    HW136914   4.549   0.910   5.973  0.6517  0.1406 -1.4436
 8485SOL    HW236915   4.488   1.013   5.880  1.1280  3.8623 -0.2915
 8486SOL     OW36916   2.878   3.026  11.646 -0.9459 -0.1305 -0.1194
 8486SOL    HW136917   2.852   3.041  11.737  2.4070 -3.3325  1.3715
 8486SOL    HW236918   2.792   3.047  11.608 -0.8080  0.6949  0.0217
 8487SOL     OW36919   1.349   2.112  16.486  0.5540 -0.1093 -0.4710
 8487SOL    HW136920   1.395   2.120  16.569  0.3799 -0.0875 -0.3780
 8487SOL    HW236921   1.340   2.017  16.486 -2.7700  0.2058 -0.0971
 8488SOL     OW36922   2.647   4.295  11.366 -0.0716 -0.3885 -0.7127
 8488SOL    HW136923   2.709   4.262  11.431 -0.5127  1.8483  0.8514
 8488SOL    HW236924   2.571   4.236  11.368  1.9989 -2.8654  5.5835
 8489SOL     OW36925   4.142   1.016   1.935  0.1563  0.8000  0.4265
 8489SOL    HW136926   4.196   1.019   1.856  0.4736 -2.0839  0.5229
 8489SOL    HW236927   4.137   1.107   1.964  0.4744  0.4093  1.7152
 8490SOL     OW36928   1.735   2.181   2.183  0.4662 -0.6149 -0.1638
 8490SOL    HW136929   1.731   2.085   2.182  0.2235 -0.6128  0.4707
 8490SOL    HW236930   1.723   2.208   2.274  1.6689  0.1955 -0.2469
 8491SOL     OW36931   1.355   0.246   1.427 -0.4514  0.2291  0.2369
 8491SOL    HW136932   1.347   0.323   1.371 -1.1778 -0.8896 -1.2021
 8491SOL    HW236933   1.431   0.265   1.481 -0.8713 -1.0168  1.2654
 8492SOL     OW36934   3.731   1.912   3.087 -0.4919  0.2691  0.0631
 8492SOL    HW136935   3.661   1.848   3.074  1.0861 -1.7692  1.5657
 8492SOL    HW236936   3.693   1.982   3.140 -0.4905  0.3304 -0.0160
 8493SOL     OW36937   1.204   1.822   3.002 -0.7995  1.4532  0.8558
 8493SOL    HW136938   1.173   1.833   2.912  0.5172 -1.4146  0.0497
 8493SOL    HW236939   1.191   1.903   3.051  0.7708  1.9558  0.4389
 8494SOL     OW36940   2.775   3.982   4.721 -0.1379 -0.4756  0.8475
 8494SOL    HW136941   2.762   4.068   4.681 -0.4205 -1.2378 -0.7151
 8494SOL    HW236942   2.683   3.964   4.744 -0.0193  0.4776  2.0408
 8495SOL     OW36943   3.543   0.319   0.276 -0.1105 -0.1882  0.4247
 8495SOL    HW136944   3.552   0.223   0.274  0.4543 -0.1937  2.4007
 8495SOL    HW236945   3.455   0.328   0.313 -0.0830 -0.2272  0.4996
 8496SOL     OW36946   0.858   1.903   7.826  0.0847  0.2398 -0.3244
 8496SOL    HW136947   0.861   1.941   7.914  1.6351 -2.0515  0.6152
 8496SOL    HW236948   0.772   1.859   7.831  1.8041 -2.8860  1.7148
 8497SOL     OW36949   4.187   2.000   5.127  0.1788  0.9905  0.1738
 8497SOL    HW136950   4.253   2.038   5.184  0.7127  2.0945 -1.1725
 8497SOL    HW236951   4.156   2.072   5.071 -1.6405 -0.8236 -1.1473
 8498SOL     OW36952   1.022   0.068  14.563  0.1516  0.2611 -0.2434
 8498SOL    HW136953   1.111   0.036  14.548  0.1421  0.5201 -0.8694
 8498SOL    HW236954   1.033   0.162  14.555  0.3653  0.4376  2.2353
 8499SOL     OW36955   2.233   2.120   8.418  0.0792  0.1655  0.2110
 8499SOL    HW136956   2.170   2.104   8.489  0.9178 -1.4647  0.5866
 8499SOL    HW236957   2.313   2.098   8.466  1.3691 -0.0877 -2.0597
 8500SOL     OW36958   3.269   2.091   7.057 -0.3338 -0.5549  0.1643
 8500SOL    HW136959   3.206   2.019   7.049 -0.3510 -0.4989 -0.1969
 8500SOL    HW236960   3.239   2.164   7.001  1.8357 -0.7961 -1.2931
 8501SOL     OW36961   3.234   2.977  10.335 -0.2011  0.1769 -0.1207
 8501SOL    HW136962   3.252   3.026  10.415 -1.1843  1.1724 -0.5063
 8501SOL    HW236963   3.277   2.896  10.362 -0.2020 -0.0659 -0.8359
 8502SOL     OW36964   0.600   1.219   2.872 -0.0925 -0.1945  0.5664
 8502SOL    HW136965   0.692   1.245   2.876  0.6165 -2.5408 -0.1743
 8502SOL    HW236966   0.583   1.297   2.820  0.3205 -2.0226 -2.3434
 8503SOL     OW36967   2.655   2.038  10.054 -0.3873  0.0964 -0.3863
 8503SOL    HW136968   2.584   2.064  10.113 -1.1398  0.4249 -1.4384
 8503SOL    HW236969   2.630   2.068   9.967 -0.3439  1.3827  0.0284
 8504SOL     OW36970   2.214   1.330   6.580  0.2180 -1.1065 -0.8422
 8504SOL    HW136971   2.213   1.235   6.574  2.2030 -1.3338  2.4242
 8504SOL    HW236972   2.194   1.342   6.673 -0.0682 -1.1010 -0.9051
 8505SOL     OW36973   3.360   1.272   4.221  0.1498 -0.0848 -0.3300
 8505SOL    HW136974   3.445   1.246   4.186  1.2299  1.5960  1.0113
 8505SOL    HW236975   3.333   1.190   4.262  0.3735 -1.4384 -2.9301
 8506SOL     OW36976   4.223   2.719   1.102  0.0094  0.7384 -0.7270
 8506SOL    HW136977   4.260   2.686   1.020  0.4206 -0.2756 -0.1350
 8506SOL    HW236978   4.171   2.794   1.072 -1.5951  0.1417  0.6067
 8507SOL     OW36979   3.792   2.544  15.574 -0.0189  0.2240  0.3232
 8507SOL    HW136980   3.807   2.451  15.554 -0.1797  0.3129 -0.1917
 8507SOL    HW236981   3.772   2.582  15.489 -0.3227  1.1300  0.7967
 8508SOL     OW36982   2.712   2.082   9.396  0.3698 -0.6573 -0.3475
 8508SOL    HW136983   2.745   2.170   9.380  0.2493 -0.6746 -0.6903
 8508SOL    HW236984   2.656   2.078   9.319  1.6686  0.6797 -1.3652
 8509SOL     OW36985   2.682   1.751   5.051  0.4426  0.3520  0.1381
 8509SOL    HW136986   2.635   1.722   5.130  2.2333 -3.0577 -0.0308
 8509SOL    HW236987   2.771   1.745   5.085 -0.8706 -2.3204  3.1317
 8510SOL     OW36988   3.525   1.269   6.264 -0.1090 -0.1810 -0.6859
 8510SOL    HW136989   3.448   1.213   6.249 -0.5152  0.3011 -0.3851
 8510SOL    HW236990   3.581   1.217   6.207 -0.0865 -2.6147  1.5516
 8511SOL     OW36991   0.436   2.303  12.172 -0.4078  0.5413  0.7520
 8511SOL    HW136992   0.479   2.244  12.109  1.2720  2.1329  0.3902
 8511SOL    HW236993   0.514   2.309  12.228  0.4738  0.6635 -0.4788
 8512SOL     OW36994   1.082   0.694   1.807 -0.1402 -0.6742 -0.4481
 8512SOL    HW136995   1.106   0.785   1.788 -1.4270 -0.5182 -1.3522
 8512SOL    HW236996   1.039   0.707   1.892  1.3552 -0.0632  0.2112
 8513SOL     OW36997   0.343   1.184   2.450 -0.2824  0.1404 -0.2334
 8513SOL    HW136998   0.404   1.162   2.521  0.1395 -1.5842 -1.1379
 8513SOL    HW236999   0.339   1.102   2.400  0.2182 -1.3607  2.1673
 8514SOL     OW37000   3.111   1.926   6.879 -0.1969  0.4631 -0.6781
 8514SOL    HW137001   3.037   1.984   6.864 -0.2730  1.1213  2.2216
 8514SOL    HW237002   3.060   1.844   6.875  3.4766 -1.9291  1.7468
 8515SOL     OW37003   1.222   2.274   8.550  0.1283  0.1000 -0.0954
 8515SOL    HW137004   1.301   2.219   8.556  1.2831  1.9906  1.7118
 8515SOL    HW237005   1.163   2.211   8.509  1.2637 -0.5036 -0.8266
 8516SOL     OW37006   0.661   2.855  16.535 -0.3844  0.0041 -0.0351
 8516SOL    HW137007   0.681   2.945  16.558  1.7638 -1.2455  3.0426
 8516SOL    HW237008   0.572   2.853  16.573  0.4048 -0.3158  1.8149
 8517SOL     OW37009   0.122   4.225   5.930  0.6805 -0.0604 -0.4369
 8517SOL    HW137010   0.198   4.279   5.908  0.9868 -0.5065 -0.4595
 8517SOL    HW237011   0.107   4.169   5.855 -0.0780  0.2842 -0.5472
 8518SOL     OW37012   0.214   0.125  17.568 -0.6116 -0.1527  0.0993
 8518SOL    HW137013   0.270   0.146  17.492 -1.7216  0.6962 -0.4822
 8518SOL    HW237014   0.277   0.088  17.630 -0.0664  0.5703 -0.0084
 8519SOL     OW37015   0.451   1.746   2.185  0.0975  0.1235  0.1805
 8519SOL    HW137016   0.510   1.781   2.119 -0.9479 -1.3382 -1.5065
 8519SOL    HW237017   0.462   1.654   2.160 -0.5335 -0.2300  1.1837
 8520SOL     OW37018   4.719   2.779   5.512 -0.3836 -0.2938  0.1797
 8520SOL    HW137019   0.053   2.714   5.548  1.6958  1.1170 -0.7512
 8520SOL    HW237020   4.631   2.759   5.544 -0.8037 -0.6660 -1.1830
 8521SOL     OW37021   0.634   0.324   2.243 -0.0822 -0.0626 -0.2535
 8521SOL    HW137022   0.711   0.311   2.299 -0.5623 -0.8229  0.2350
 8521SOL    HW237023   0.568   0.335   2.311 -0.2943  0.7706 -0.5925
 8522SOL     OW37024   4.349   1.035   1.750 -0.4997  0.0762  0.1075
 8522SOL    HW137025   4.434   0.992   1.740 -1.0777 -1.2783  0.9373
 8522SOL    HW237026   4.362   1.102   1.683  2.1712  0.8555  1.4064
 8523SOL     OW37027   2.579   0.139   7.596  0.2275  0.1644 -0.3068
 8523SOL    HW137028   2.596   0.045   7.592  0.0694  0.0303  2.3326
 8523SOL    HW237029   2.599   0.167   7.506 -1.5124 -0.2175 -0.8154
 8524SOL     OW37030   1.704   3.488  10.447  0.0507 -0.3867 -0.5045
 8524SOL    HW137031   1.659   3.572  10.453  0.2285 -0.4430  1.3590
 8524SOL    HW237032   1.671   3.453  10.363 -2.1595  0.8996 -0.1750
 8525SOL     OW37033   0.155   1.755  15.763 -0.2548  0.2677 -0.7285
 8525SOL    HW137034   0.216   1.685  15.741  3.2522  2.8084  0.8766
 8525SOL    HW237035   0.182   1.780  15.851  1.4277  0.2319 -1.2233
 8526SOL     OW37036   1.130   3.590  15.709  0.3844 -0.3429  0.3467
 8526SOL    HW137037   1.124   3.681  15.739 -0.0827 -0.5995  1.0090
 8526SOL    HW237038   1.149   3.593  15.615 -0.1697 -1.7967  0.1935
 8527SOL     OW37039   0.809   0.890   4.793 -0.1081 -0.1383 -0.2778
 8527SOL    HW137040   0.728   0.915   4.749  1.2260 -1.2162 -3.3455
 8527SOL    HW237041   0.817   0.931   4.879  2.6903 -1.3317  0.0388
 8528SOL     OW37042   2.794   1.704   8.690 -0.5810  1.0867  0.5882
 8528SOL    HW137043   2.809   1.798   8.694  0.4303  0.9728 -0.5702
 8528SOL    HW237044   2.829   1.677   8.775 -2.0571 -1.8546  0.2616
 8529SOL     OW37045   2.542   3.020   6.597  0.7764  0.4426  0.6126
 8529SOL    HW137046   2.498   3.084   6.652  0.7524  2.0371 -1.2534
 8529SOL    HW237047   2.511   3.054   6.513  1.8896 -1.0171 -0.3938
 8530SOL     OW37048   4.180   1.252   2.672  0.1176 -0.7769 -0.2821
 8530SOL    HW137049   4.139   1.337   2.657 -1.2940 -1.3920  0.0507
 8530SOL    HW237050   4.264   1.256   2.626  1.5194  0.2040  2.3856
 8531SOL     OW37051   4.105   0.852   5.993  0.1279  0.0632 -0.5266
 8531SOL    HW137052   4.143   0.795   5.926 -2.3784 -1.2668 -0.8105
 8531SOL    HW237053   4.096   0.777   6.053  1.6391  0.2291 -0.0967
 8532SOL     OW37054   3.525   3.982   2.790  0.0800 -0.1737  0.4039
 8532SOL    HW137055   3.543   4.058   2.845 -1.0038 -0.6161  1.3878
 8532SOL    HW237056   3.438   3.966   2.828 -0.0531 -1.7391 -0.5503
 8533SOL     OW37057   2.098   3.588   0.820  0.4922  0.1021  0.3283
 8533SOL    HW137058   2.181   3.560   0.783 -0.2372 -1.7903  0.1341
 8533SOL    HW237059   2.130   3.644   0.890 -0.6960  0.7951  0.3226
 8534SOL     OW37060   3.608   0.881  14.479  0.1887  0.2313  0.4864
 8534SOL    HW137061   3.590   0.838  14.395  1.1178  1.6972 -0.4540
 8534SOL    HW237062   3.702   0.896  14.475  0.2631 -1.1905 -2.9898
 8535SOL     OW37063   1.636   3.648   7.864  0.1850 -0.9059  0.1133
 8535SOL    HW137064   1.562   3.599   7.826 -1.6158  1.7283  0.2426
 8535SOL    HW237065   1.598   3.682   7.945  0.1913  0.8891 -0.6414
 8536SOL     OW37066   3.178   1.349   9.453  0.2984 -0.5683 -0.0413
 8536SOL    HW137067   3.135   1.265   9.440  0.7008 -1.0039  1.4610
 8536SOL    HW237068   3.240   1.326   9.522  0.4778  1.2148  0.3985
 8537SOL     OW37069   2.420   4.142   5.702  0.2621  0.1930 -0.6009
 8537SOL    HW137070   2.371   4.186   5.771 -1.7446 -0.2597 -1.7325
 8537SOL    HW237071   2.350   4.101   5.651  0.9095 -0.1962 -1.1910
 8538SOL     OW37072   3.241   0.722   9.261  0.0597  0.1289  0.6523
 8538SOL    HW137073   3.329   0.759   9.252 -0.5128  0.9739 -1.4527
 8538SOL    HW237074   3.247   0.678   9.346  0.4525  0.2576  0.6954
 8539SOL     OW37075   3.666   2.247  10.323 -0.2243 -0.5146 -0.5571
 8539SOL    HW137076   3.620   2.201  10.393  0.5091  1.8489  1.4955
 8539SOL    HW237077   3.746   2.276  10.366 -1.0098 -1.0230  1.2584
 8540SOL     OW37078   2.693   2.446  16.996  0.2243  0.2844 -0.3639
 8540SOL    HW137079   2.778   2.485  17.016  0.0072  0.9368 -0.7352
 8540SOL    HW237080   2.723   2.390  16.924 -0.0425  1.3187 -1.2711
 8541SOL     OW37081   3.635   2.707   8.861 -0.0337  0.4451  0.0451
 8541SOL    HW137082   3.686   2.753   8.794 -0.6215  0.6791 -0.2374
 8541SOL    HW237083   3.692   2.630   8.869  0.9472  1.1250 -0.3922
 8542SOL     OW37084   0.471   0.723  17.200  0.5683  0.1823 -0.2714
 8542SOL    HW137085   0.406   0.690  17.138  3.0971 -1.4129 -2.0589
 8542SOL    HW237086   0.499   0.638  17.233 -3.0656 -1.0436 -0.3771
 8543SOL     OW37087   0.980   3.574   9.377 -0.0372  1.0809  0.3461
 8543SOL    HW137088   1.067   3.607   9.399  1.8155 -2.8573 -0.9866
 8543SOL    HW237089   0.999   3.486   9.345 -3.8295 -0.0392  1.2635
 8544SOL     OW37090   4.193   3.713  11.414  0.9166 -0.1507  0.0132
 8544SOL    HW137091   4.147   3.797  11.417  0.0345 -0.6522  0.5844
 8544SOL    HW237092   4.129   3.644  11.394  0.2706  0.8856 -1.4471
 8545SOL     OW37093   2.501   3.455   4.759  0.4910 -0.5194  0.1717
 8545SOL    HW137094   2.581   3.434   4.711 -0.1471 -0.9386 -0.7065
 8545SOL    HW237095   2.488   3.366   4.793  0.7234  0.2255  2.1718
 8546SOL     OW37096   0.009   2.434  16.602  0.1390  0.2525 -0.2347
 8546SOL    HW137097   4.714   2.496  16.532  0.5345  0.2387 -0.3655
 8546SOL    HW237098   4.695   2.474  16.679 -0.0006 -0.0649 -0.1421
 8547SOL     OW37099   2.541   3.865   3.804 -0.3135 -0.3999  0.4477
 8547SOL    HW137100   2.605   3.822   3.747 -1.4303 -0.3512 -0.8637
 8547SOL    HW237101   2.483   3.906   3.740 -0.9754 -1.1984  0.5363
 8548SOL     OW37102   0.418   2.431   2.490  0.1159 -0.5673 -0.1319
 8548SOL    HW137103   0.481   2.360   2.498  0.0665 -0.2337  3.3284
 8548SOL    HW237104   0.369   2.413   2.571  0.7461 -1.9510 -0.0638
 8549SOL     OW37105   0.181   2.320   0.341  0.1424 -0.3352  0.4273
 8549SOL    HW137106   0.128   2.395   0.365 -0.2119  0.2700 -2.2807
 8549SOL    HW237107   0.210   2.276   0.421 -1.4477 -0.5101  0.8997
 8550SOL     OW37108   0.857   4.126   1.011 -0.5276  0.1134 -0.7167
 8550SOL    HW137109   0.800   4.157   0.940 -1.0930  1.7949  0.4549
 8550SOL    HW237110   0.884   4.206   1.057 -0.2648  0.0225 -0.7187
 8551SOL     OW37111   2.945   2.538   2.107 -0.1268  0.9500 -0.0756
 8551SOL    HW137112   2.913   2.488   2.182  1.3666 -0.7322 -0.5487
 8551SOL    HW237113   2.957   2.472   2.038 -0.6459  2.0684 -1.2445
 8552SOL     OW37114   2.251   0.566  12.609 -0.0987  0.0808  0.3289
 8552SOL    HW137115   2.341   0.551  12.640  0.4924  1.0210 -0.9378
 8552SOL    HW237116   2.250   0.534  12.519 -3.3894  1.2031 -0.0075
 8553SOL     OW37117   2.074   4.521   5.240  0.3074 -0.0279 -0.0546
 8553SOL    HW137118   2.137   4.451   5.221 -0.0835 -0.6267  0.8971
 8553SOL    HW237119   2.080   4.532   5.335  1.9501 -1.5754  0.0169
 8554SOL     OW37120   1.967   2.351  10.428 -0.6686  0.2124 -0.6943
 8554SOL    HW137121   1.996   2.261  10.440  0.6348  0.4465 -2.1615
 8554SOL    HW237122   1.995   2.391  10.510 -1.4705 -0.0741 -0.2854
 8555SOL     OW37123   2.550   3.755   6.493  0.2414  0.4473 -0.0568
 8555SOL    HW137124   2.466   3.711   6.504  1.2276 -1.3495  0.3288
 8555SOL    HW237125   2.530   3.843   6.462  0.3223  0.2061 -0.7847
 8556SOL     OW37126   0.607   2.529  13.254 -0.0876 -0.1629 -0.2851
 8556SOL    HW137127   0.676   2.543  13.189  1.2307  0.7767  1.2830
 8556SOL    HW237128   0.532   2.510  13.198 -0.4868 -0.9790  0.5299
 8557SOL     OW37129   4.359   1.058   2.247  0.5496 -0.1448 -0.6319
 8557SOL    HW137130   4.265   1.044   2.259  1.0500 -1.9171  1.2111
 8557SOL    HW237131   4.374   0.991   2.181 -0.6841  1.0080 -2.0922
 8558SOL     OW37132   0.371   2.016  16.057  0.2762 -0.0929  0.4723
 8558SOL    HW137133   0.326   2.098  16.039 -0.2048 -0.2238  1.0736
 8558SOL    HW237134   0.451   2.053  16.093  0.8280 -1.9131  1.1148
 8559SOL     OW37135   0.841   2.936   1.969  0.8739  0.0247 -0.0236
 8559SOL    HW137136   0.816   2.962   1.880  1.6085 -1.2250 -0.5916
 8559SOL    HW237137   0.751   2.926   2.003  0.1042  1.2205 -1.7116
 8560SOL     OW37138   1.282   2.946  12.767 -0.0015 -0.1630 -0.4117
 8560SOL    HW137139   1.196   2.907  12.783  0.0058  0.0889  0.2186
 8560SOL    HW237140   1.278   3.018  12.830  1.1057  0.6192 -1.2322
 8561SOL     OW37141   2.038   4.128   6.324 -0.3205 -0.7818  0.1853
 8561SOL    HW137142   1.996   4.144   6.240  0.0930 -1.0096 -0.0652
 8561SOL    HW237143   1.957   4.110   6.371  0.6133  0.4264  2.2746
 8562SOL     OW37144   2.381   3.360   5.752 -0.3616 -0.3334 -0.0815
 8562SOL    HW137145   2.342   3.293   5.696 -1.2444  1.3612 -1.5210
 8562SOL    HW237146   2.450   3.384   5.690 -1.0297 -0.0800 -0.7475
 8563SOL     OW37147   2.638   1.354   5.401  0.5303 -0.1890 -0.2309
 8563SOL    HW137148   2.554   1.328   5.365 -0.1333 -0.3605  1.4526
 8563SOL    HW237149   2.683   1.270   5.409 -4.1907 -2.8159 -1.4194
 8564SOL     OW37150   2.654   2.210   7.564 -0.3579  0.5211 -0.3839
 8564SOL    HW137151   2.698   2.129   7.540 -1.2227 -0.2329  0.5330
 8564SOL    HW237152   2.581   2.163   7.605  0.3143  0.0349  0.2535
 8565SOL     OW37153   0.255   1.323   3.553  0.3866 -0.4060  0.4608
 8565SOL    HW137154   0.174   1.360   3.519  0.7855 -0.9180 -1.0366
 8565SOL    HW237155   0.244   1.235   3.518 -1.8216  0.5377 -1.1816
 8566SOL     OW37156   0.700   3.165  11.769  0.3401 -0.5102 -0.3350
 8566SOL    HW137157   0.732   3.255  11.778 -2.3248  0.4695 -0.8601
 8566SOL    HW237158   0.605   3.176  11.765  0.3988  0.2695  0.4689
 8567SOL     OW37159   3.970   0.240   7.951  0.0758 -0.0115  0.7938
 8567SOL    HW137160   3.910   0.313   7.971 -0.9608 -0.5732 -0.2807
 8567SOL    HW237161   3.921   0.168   7.990 -1.3758  2.1935  3.1424
 8568SOL     OW37162   2.722   2.901  12.713 -0.5595  0.2191 -0.3965
 8568SOL    HW137163   2.773   2.981  12.705 -0.3871  0.4626  2.9593
 8568SOL    HW237164   2.640   2.928  12.672 -1.7760 -2.2209  0.4107
 8569SOL     OW37165   2.839   4.014   8.424  0.4360  0.2264 -0.3015
 8569SOL    HW137166   2.921   4.012   8.474  0.3618  0.0449 -0.1875
 8569SOL    HW237167   2.852   4.099   8.382 -1.5280  1.7683  2.2010
 8570SOL     OW37168   1.598   0.009  15.027 -0.5300 -0.0890  0.2594
 8570SOL    HW137169   1.607   4.704  14.937 -1.2723  1.4731 -0.3456
 8570SOL    HW237170   1.540   0.083  15.012 -0.2944 -0.1698 -1.0440
 8571SOL     OW37171   3.748   1.531   4.545 -0.2788  0.4360 -0.2095
 8571SOL    HW137172   3.695   1.469   4.495 -0.2947  0.0334  0.3053
 8571SOL    HW237173   3.800   1.470   4.597 -1.9329  0.3202  1.2912
 8572SOL     OW37174   3.491   3.752   3.607  0.1379 -0.2874 -0.2549
 8572SOL    HW137175   3.479   3.839   3.570 -2.0563 -0.2298  0.6281
 8572SOL    HW237176   3.413   3.745   3.661 -0.9160  1.6685 -1.5090
 8573SOL     OW37177   2.914   3.616   7.697 -0.0891  0.2012 -0.1632
 8573SOL    HW137178   2.927   3.574   7.613 -0.2957  0.1869 -0.1893
 8573SOL    HW237179   2.949   3.704   7.681  0.7547 -0.0466  0.3279
 8574SOL     OW37180   3.409   3.906   4.254 -0.4930  0.4475  0.0703
 8574SOL    HW137181   3.458   3.986   4.275 -1.5094  1.0066  0.3445
 8574SOL    HW237182   3.410   3.927   4.161 -1.0188 -5.2520 -1.1731
 8575SOL     OW37183   4.098   4.550   5.359 -0.1951  0.5176 -0.2761
 8575SOL    HW137184   4.097   4.471   5.305 -0.6101 -0.2192  0.8005
 8575SOL    HW237185   4.142   4.620   5.311  1.2929  0.1830  0.6116
 8576SOL     OW37186   0.597   0.997  10.486  0.5838  0.6598 -1.0489
 8576SOL    HW137187   0.531   1.063  10.464 -0.4055 -0.1111 -0.3692
 8576SOL    HW237188   0.541   0.920  10.493  3.5324 -1.4851 -1.3365
 8577SOL     OW37189   1.385   0.052  10.137 -0.0081  0.2310  0.2909
 8577SOL    HW137190   1.305   0.031  10.185  0.7397 -0.4036  1.2569
 8577SOL    HW237191   1.444   0.049  10.212  0.0442  2.4233  0.3546
 8578SOL     OW37192   0.452   2.382  16.301  0.3570 -0.0652  0.1643
 8578SOL    HW137193   0.523   2.439  16.331 -0.5379  1.4451 -0.5519
 8578SOL    HW237194   0.489   2.302  16.336  1.9407 -0.2553 -1.9211
 8579SOL     OW37195   3.095   1.889   7.637 -0.3740 -0.2127 -0.0936
 8579SOL    HW137196   3.141   1.972   7.624 -1.5880  0.3264 -0.9583
 8579SOL    HW237197   3.069   1.893   7.728  1.0624 -0.8985  0.3441
 8580SOL     OW37198   4.643   1.866   7.378 -0.0953 -0.9228  0.2848
 8580SOL    HW137199   4.687   1.942   7.414 -1.3370 -0.9861  1.9402
 8580SOL    HW237200   4.593   1.837   7.454  0.6824  0.0364  1.1470
 8581SOL     OW37201   4.365   1.798   1.560  0.6888  0.2916 -0.6355
 8581SOL    HW137202   4.329   1.754   1.637  2.4529 -3.0601 -1.7130
 8581SOL    HW237203   4.314   1.762   1.487 -1.3436  0.2238  0.8159
 8582SOL     OW37204   1.078   0.416  14.909 -0.2939  0.2382 -0.3983
 8582SOL    HW137205   1.115   0.339  14.865 -1.7043  0.8347 -2.6584
 8582SOL    HW237206   1.156   0.447  14.954 -0.3439 -1.2950  0.7586
 8583SOL     OW37207   0.514   1.979   3.976 -0.2598 -0.2871  0.1824
 8583SOL    HW137208   0.550   2.056   4.020 -0.6155 -0.8869  1.5572
 8583SOL    HW237209   0.426   1.976   4.015  0.2933 -1.5480  1.3484
 8584SOL     OW37210   2.710   1.805  12.202  0.2435 -0.4896  0.4222
 8584SOL    HW137211   2.703   1.718  12.163  4.6734 -1.8760  2.6608
 8584SOL    HW237212   2.622   1.818  12.237  0.5198 -0.6287  1.1760
 8585SOL     OW37213   3.496   3.949   3.986  0.2540  0.1426 -0.2562
 8585SOL    HW137214   3.591   3.957   3.991  0.2021  1.2450 -0.8872
 8585SOL    HW237215   3.488   3.959   3.891 -0.2469 -1.8607 -0.4189
 8586SOL     OW37216   3.979   0.190   7.637  0.1304  0.4058 -0.3947
 8586SOL    HW137217   3.936   0.107   7.615 -1.9856  1.7223 -1.1930
 8586SOL    HW237218   3.943   0.219   7.721 -0.5941  2.7284 -1.5026
 8587SOL     OW37219   1.248   2.903  12.462 -0.1786  0.3195  0.3268
 8587SOL    HW137220   1.229   2.812  12.438  3.1348 -0.6013  1.1007
 8587SOL    HW237221   1.279   2.889  12.551 -0.2934  0.4254  0.3827
 8588SOL     OW37222   4.576   1.752   4.428 -0.3224 -0.6672  0.0885
 8588SOL    HW137223   4.517   1.681   4.402  0.2326 -1.6887  1.6231
 8588SOL    HW237224   4.653   1.706   4.463 -2.4926 -2.0497  3.0036
 8589SOL     OW37225   0.977   4.529   8.529 -0.4296 -0.2877 -1.1347
 8589SOL    HW137226   1.045   4.468   8.502  0.5853  0.4875 -0.3412
 8589SOL    HW237227   0.936   4.468   8.591 -1.7774  0.1823 -1.5655
 8590SOL     OW37228   1.815   1.176   4.736  0.0438 -0.2521  0.3599
 8590SOL    HW137229   1.876   1.239   4.699  0.1144  0.7566  2.2165
 8590SOL    HW237230   1.855   1.090   4.723 -0.0343 -0.7005  3.1645
 8591SOL     OW37231   0.149   4.291   4.234  0.0629 -1.0076 -0.1257
 8591SOL    HW137232   0.166   4.357   4.166 -1.3715  0.2874  0.7651
 8591SOL    HW237233   0.056   4.269   4.228 -0.0841 -0.6565  1.0204
 8592SOL     OW37234   1.920   3.229  16.421  0.7319 -0.4645 -0.5551
 8592SOL    HW137235   1.846   3.190  16.375 -1.8405  0.2279  3.0195
 8592SOL    HW237236   1.986   3.207  16.355  4.0400  3.6918  1.3025
 8593SOL     OW37237   2.039   3.095   0.394 -0.1542  0.2585  0.0032
 8593SOL    HW137238   1.955   3.140   0.391  0.1902  0.9035  0.1002
 8593SOL    HW237239   2.036   3.061   0.483  0.3961  3.8693  1.3968
 8594SOL     OW37240   4.483   1.896   7.160  0.5569  0.3581 -0.0032
 8594SOL    HW137241   4.424   1.823   7.182  2.1330 -0.2308  2.3020
 8594SOL    HW237242   4.532   1.886   7.242 -0.2504 -1.8733  0.2311
 8595SOL     OW37243   2.155   2.916  11.587  0.1272 -0.0577  0.0425
 8595SOL    HW137244   2.135   2.959  11.670 -1.8067  1.6248 -1.3102
 8595SOL    HW237245   2.244   2.886  11.605  0.9084  1.9451 -0.5678
 8596SOL     OW37246   3.684   3.375   2.619  0.2353  0.0544  0.5737
 8596SOL    HW137247   3.694   3.449   2.559  2.2416 -0.5304  0.1920
 8596SOL    HW237248   3.712   3.302   2.563  0.8144 -0.3681  1.4261
 8597SOL     OW37249   1.839   3.492   1.501 -0.4674  0.5196 -0.6422
 8597SOL    HW137250   1.800   3.420   1.550 -1.8686  1.2518 -0.6964
 8597SOL    HW237251   1.872   3.448   1.422  0.3399 -2.8880  1.5548
 8598SOL     OW37252   0.461   1.504   2.058 -0.3729 -0.7478  0.2690
 8598SOL    HW137253   0.400   1.469   1.993 -1.6572  1.4601  0.3050
 8598SOL    HW237254   0.544   1.491   2.012  0.3192  0.2947  1.2191
 8599SOL     OW37255   2.446   0.221   6.818  0.3888  0.6217  0.2469
 8599SOL    HW137256   2.495   0.139   6.823 -1.0046 -0.0285  3.4313
 8599SOL    HW237257   2.369   0.184   6.774  0.5257  1.2920 -0.5484
 8600SOL     OW37258   2.395   1.238   8.837 -0.6692 -0.7304 -0.1976
 8600SOL    HW137259   2.435   1.218   8.922 -0.4505 -0.7234 -0.2983
 8600SOL    HW237260   2.467   1.282   8.791 -1.5865  0.3261 -0.6137
 8601SOL     OW37261   1.312   0.167  13.176 -0.2356  0.0680 -0.0306
 8601SOL    HW137262   1.386   0.220  13.146 -0.2388 -1.9796 -3.6410
 8601SOL    HW237263   1.262   0.168  13.094 -0.4600 -1.4883  0.0861
 8602SOL     OW37264   1.877   2.725  15.319 -0.4599 -0.2598 -0.4229
 8602SOL    HW137265   1.869   2.819  15.310  1.5898  0.1835  2.1631
 8602SOL    HW237266   1.801   2.708  15.375 -0.0393  0.2475  0.2934
 8603SOL     OW37267   1.093   1.612   8.194  0.6807 -0.5933  0.1131
 8603SOL    HW137268   1.083   1.517   8.199  2.0724 -0.8150 -1.3753
 8603SOL    HW237269   1.152   1.620   8.119  1.4564 -3.0008  0.4787
 8604SOL     OW37270   4.222   4.267   1.275  0.0756  0.2210  0.0639
 8604SOL    HW137271   4.191   4.358   1.271 -2.6262 -0.7396 -0.9755
 8604SOL    HW237272   4.157   4.226   1.218 -2.3745  2.8871  0.9416
 8605SOL     OW37273   3.548   0.227   6.360  0.4243  0.1410 -0.0891
 8605SOL    HW137274   3.483   0.162   6.334 -2.7538  3.9715 -1.5902
 8605SOL    HW237275   3.581   0.187   6.441  3.2826  1.6770 -0.5004
 8606SOL     OW37276   0.813   1.953   4.078  0.8248 -0.1111  0.3557
 8606SOL    HW137277   0.820   2.046   4.056  1.5882 -0.2409  0.0560
 8606SOL    HW237278   0.785   1.953   4.170  1.0555  0.9473  0.4240
 8607SOL     OW37279   2.235   2.595   2.420 -0.1377 -0.0802 -0.3705
 8607SOL    HW137280   2.201   2.543   2.493 -2.2769  2.0018  0.1237
 8607SOL    HW237281   2.252   2.681   2.459  2.6518 -0.4735 -0.7390
 8608SOL     OW37282   1.199   0.448   0.045 -0.0896 -0.1201 -0.0845
 8608SOL    HW137283   1.152   0.414  17.675 -2.6520  0.9272  1.0365
 8608SOL    HW237284   1.130   0.456   0.111  0.1111  0.6526  0.0390
 8609SOL     OW37285   4.268   2.804   6.786 -0.3376 -0.1194  0.0288
 8609SOL    HW137286   4.314   2.786   6.868  0.4507  2.6257  0.2020
 8609SOL    HW237287   4.345   2.831   6.736  0.5338 -0.0885  1.3796
 8610SOL     OW37288   3.635   2.075   3.834 -0.6783 -0.1095  0.7435
 8610SOL    HW137289   3.638   2.097   3.741  2.0716 -1.3453  0.5548
 8610SOL    HW237290   3.707   2.013   3.844 -0.7717  0.1508  3.1348
 8611SOL     OW37291   3.879   4.540  13.698 -0.2507  0.4349 -0.3261
 8611SOL    HW137292   3.871   4.459  13.749 -1.5572  0.5024 -0.4282
 8611SOL    HW237293   3.975   4.548  13.694 -0.1378 -1.3369 -1.3114
 8612SOL     OW37294   4.287   1.516   1.518  0.3165 -0.3366  0.9097
 8612SOL    HW137295   4.266   1.439   1.465 -0.5779  0.9178 -0.5877
 8612SOL    HW237296   4.230   1.576   1.469  0.7109 -0.8779 -0.2194
 8613SOL     OW37297   1.131   4.701   2.191 -0.1910  0.1222 -0.2403
 8613SOL    HW137298   1.104   0.060   2.157  1.1969 -0.4695 -2.8242
 8613SOL    HW237299   1.145   4.658   2.107 -1.4924 -0.9017  0.0645
 8614SOL     OW37300   2.679   4.046   5.739  0.2086  0.2842 -0.0063
 8614SOL    HW137301   2.589   4.077   5.731  0.4438  0.6062 -1.3603
 8614SOL    HW237302   2.699   4.070   5.830  0.6011 -1.3788  0.3503
 8615SOL     OW37303   0.463   0.695   0.396  0.5189  0.2131  0.1318
 8615SOL    HW137304   0.517   0.765   0.432  2.2481 -0.7341 -0.6609
 8615SOL    HW237305   0.522   0.620   0.391 -2.1155 -1.9004  0.4802
 8616SOL     OW37306   2.913   4.085   0.229 -0.1968  0.4661  0.3180
 8616SOL    HW137307   3.005   4.100   0.210 -0.5130  1.4923 -0.3823
 8616SOL    HW237308   2.915   4.001   0.276 -1.4937  0.4224  0.3005
 8617SOL     OW37309   1.446   1.197  11.925  0.3953 -0.0738  0.1165
 8617SOL    HW137310   1.507   1.147  11.869 -0.4085 -1.0836  0.1466
 8617SOL    HW237311   1.371   1.190  11.866  0.5733 -0.1421 -0.1074
 8618SOL     OW37312   0.549   4.454   1.644 -0.2494 -0.2851 -0.3685
 8618SOL    HW137313   0.591   4.530   1.603 -2.0367  0.5154 -0.7204
 8618SOL    HW237314   0.614   4.422   1.707 -1.4742 -1.4741  0.2970
 8619SOL     OW37315   1.664   1.823   7.841 -0.0633 -0.0187 -0.1850
 8619SOL    HW137316   1.733   1.862   7.895 -0.1591  0.4357 -0.3992
 8619SOL    HW237317   1.618   1.903   7.816  0.9489 -0.3921 -3.1731
 8620SOL     OW37318   2.373   0.960   6.017 -0.5578 -0.2791  0.3816
 8620SOL    HW137319   2.457   0.919   5.996  0.4783  2.4235 -0.7237
 8620SOL    HW237320   2.387   1.002   6.102  0.7775 -1.0246  0.5239
 8621SOL     OW37321   0.716   3.923   3.745 -0.3158 -0.6534 -0.3149
 8621SOL    HW137322   0.757   3.857   3.689 -0.0180  0.1974 -1.0914
 8621SOL    HW237323   0.687   3.868   3.818  1.5384  0.8376  1.5079
 8622SOL     OW37324   3.233   0.839  10.181  0.9608  0.2269 -0.4531
 8622SOL    HW137325   3.178   0.868  10.253 -0.9189 -0.1096 -1.7592
 8622SOL    HW237326   3.255   0.922  10.137  2.2705 -0.0104 -0.2493
 8623SOL     OW37327   4.249   2.737   5.423  0.2647  0.6356 -0.3535
 8623SOL    HW137328   4.263   2.650   5.385  3.3464  1.9284 -2.1441
 8623SOL    HW237329   4.154   2.731   5.440  0.5502 -3.9624 -0.3356
 8624SOL     OW37330   1.939   0.385  16.208  0.0328 -0.6070  0.0988
 8624SOL    HW137331   1.962   0.366  16.299 -2.2226  0.5203  0.8999
 8624SOL    HW237332   2.020   0.357  16.166  0.5987  1.0606  0.0672
 8625SOL     OW37333   0.542   3.586   8.472  0.1006 -0.2014 -0.5174
 8625SOL    HW137334   0.502   3.571   8.386  1.3081 -0.5839 -1.0170
 8625SOL    HW237335   0.567   3.496   8.490  1.4280  0.3471  0.3887
 8626SOL     OW37336   3.102   0.854   2.499  0.1550 -0.1861  0.1098
 8626SOL    HW137337   3.027   0.911   2.481  0.0521  0.0168  1.1960
 8626SOL    HW237338   3.062   0.797   2.564 -0.4126  0.9735  0.7842
 8627SOL     OW37339   0.210   0.800   0.474  0.2536 -0.3698 -0.1078
 8627SOL    HW137340   0.300   0.804   0.508  0.4377 -0.2738 -0.6001
 8627SOL    HW237341   0.234   0.796   0.381 -0.2886  0.7037 -0.2977
 8628SOL     OW37342   3.653   0.597   6.963  0.1999  0.4904 -0.3684
 8628SOL    HW137343   3.680   0.585   7.054  1.8523 -2.8102 -1.2914
 8628SOL    HW237344   3.686   0.683   6.937  0.5975  0.5481  0.3331
 8629SOL     OW37345   2.810   0.273   8.185 -0.3450 -0.0915 -0.2066
 8629SOL    HW137346   2.772   0.185   8.183 -0.7027  0.0838 -1.2758
 8629SOL    HW237347   2.746   0.316   8.128 -3.5086 -1.7375  2.0832
 8630SOL     OW37348   1.195   0.186   8.575 -0.1646 -0.3557 -0.5655
 8630SOL    HW137349   1.219   0.112   8.520 -2.6573 -2.3876  1.0476
 8630SOL    HW237350   1.237   0.263   8.537 -1.5487 -1.2730 -3.9306
 8631SOL     OW37351   1.889   3.868   5.900 -0.2662  0.2156  0.0332
 8631SOL    HW137352   1.854   3.954   5.878  1.1319  0.1069 -2.6509
 8631SOL    HW237353   1.975   3.868   5.858 -0.0458 -0.3378  0.4847
 8632SOL     OW37354   3.990   3.473   3.384  0.1613  0.2028  0.6687
 8632SOL    HW137355   4.029   3.482   3.471 -1.6495  0.1155  1.4948
 8632SOL    HW237356   4.035   3.539   3.332 -1.8966 -0.7991 -2.3505
 8633SOL     OW37357   2.447   3.087   3.659 -0.4407 -0.8787  0.5340
 8633SOL    HW137358   2.384   3.056   3.594 -0.5228 -0.3970  0.3861
 8633SOL    HW237359   2.388   3.120   3.726 -1.8467  0.8162 -1.5265
 8634SOL     OW37360   0.827   2.776   6.618 -0.6149 -0.4676 -0.1242
 8634SOL    HW137361   0.806   2.747   6.706  1.3633 -3.0967 -0.5269
 8634SOL    HW237362   0.768   2.727   6.560 -2.4215  0.4045  0.9930
 8635SOL     OW37363   3.157   0.419   6.106  0.5932 -0.3079  0.0536
 8635SOL    HW137364   3.150   0.457   6.018  1.7214  0.9559  0.5083
 8635SOL    HW237365   3.212   0.342   6.097 -0.0494 -0.6541 -0.9771
 8636SOL     OW37366   1.786   3.055   9.287  0.6183  1.1356  0.5016
 8636SOL    HW137367   1.764   3.016   9.202 -0.9244  0.7480  1.0833
 8636SOL    HW237368   1.864   3.108   9.268  0.3276  1.4195  0.1101
 8637SOL     OW37369   1.740   1.409   3.820  0.1674 -0.0003 -0.4575
 8637SOL    HW137370   1.680   1.400   3.894  1.3877 -0.3940  0.4835
 8637SOL    HW237371   1.678   1.388   3.750  2.7933  0.1636 -2.7955
 8638SOL     OW37372   1.489   1.127   2.797 -0.2068 -0.7864 -0.1966
 8638SOL    HW137373   1.468   1.054   2.739  0.5683 -1.3347  0.2157
 8638SOL    HW237374   1.443   1.104   2.878 -1.9021 -1.6923 -1.4020
 8639SOL     OW37375   3.102   1.073   6.083 -0.0038 -0.0029  0.4843
 8639SOL    HW137376   3.178   1.100   6.135  2.0683 -1.4967 -1.7651
 8639SOL    HW237377   3.052   1.155   6.073  1.6887  1.0722  0.8229
 8640SOL     OW37378   0.281   1.509   2.803  0.1198  0.2883  0.0053
 8640SOL    HW137379   0.238   1.519   2.888 -3.0451  0.5971 -1.6144
 8640SOL    HW237380   0.263   1.415   2.798  0.5324  0.1329  1.6552
 8641SOL     OW37381   1.464   1.875   6.030  0.5584  0.2292 -0.5727
 8641SOL    HW137382   1.419   1.900   6.110 -0.4566 -3.8073  0.0828
 8641SOL    HW237383   1.433   1.952   5.983 -1.3352 -0.8788 -1.1290
 8642SOL     OW37384   4.235   2.839   4.781  0.0478 -0.4234 -0.2990
 8642SOL    HW137385   4.239   2.934   4.774 -3.6260 -0.2683 -0.4262
 8642SOL    HW237386   4.329   2.820   4.786  0.0924  0.1818  0.9890
 8643SOL     OW37387   3.353   2.041   6.239 -0.3948 -0.8493  0.1856
 8643SOL    HW137388   3.406   2.057   6.317 -0.5579 -0.0723  0.1345
 8643SOL    HW237389   3.269   2.056   6.283  0.4843 -0.1732  1.6213
 8644SOL     OW37390   2.435   3.227   6.430  0.5091 -0.0608  0.4481
 8644SOL    HW137391   2.410   3.206   6.340  0.3233 -1.4429  0.8269
 8644SOL    HW237392   2.472   3.313   6.410 -2.7935  2.0549  3.4095
 8645SOL     OW37393   4.537   2.484   7.564  0.5549 -0.1070  0.8184
 8645SOL    HW137394   4.455   2.517   7.528  1.0621  0.2374 -0.0182
 8645SOL    HW237395   4.588   2.464   7.486 -0.6630  1.6531 -0.4351
 8646SOL     OW37396   3.845   2.509   0.808  0.1001 -0.0687  0.4287
 8646SOL    HW137397   3.896   2.578   0.850  1.6750  0.3525 -2.2325
 8646SOL    HW237398   3.909   2.446   0.775  1.0920  0.7723  0.7705
 8647SOL     OW37399   3.253   0.102  11.962  0.1000 -0.1577  0.5044
 8647SOL    HW137400   3.299   0.036  11.910  2.6922  3.3245 -1.6272
 8647SOL    HW237401   3.178   0.050  11.992 -0.4714 -0.2301 -1.0137
 8648SOL     OW37402   0.380   3.764  10.458 -0.1059  0.0420  0.1031
 8648SOL    HW137403   0.464   3.808  10.472 -0.0115 -0.1173  0.0369
 8648SOL    HW237404   0.362   3.727  10.545  0.3382 -0.0744  0.1447
 8649SOL     OW37405   1.647   2.584   0.225  0.1276  0.0617 -0.6562
 8649SOL    HW137406   1.600   2.514   0.269  1.5766 -0.3457  0.2271
 8649SOL    HW237407   1.730   2.537   0.218  0.0768 -0.0957 -0.1724
 8650SOL     OW37408   4.596   4.305   4.556 -0.6390 -0.0414 -0.1744
 8650SOL    HW137409   4.577   4.213   4.578  0.4316 -0.4409 -0.9667
 8650SOL    HW237410   4.546   4.319   4.476 -2.0838 -1.1444  0.5208
 8651SOL     OW37411   4.214   2.269   9.899 -0.3843 -0.1888  0.4229
 8651SOL    HW137412   4.272   2.194   9.914 -0.3147 -0.0768  0.7215
 8651SOL    HW237413   4.272   2.342   9.920 -2.0472  1.3946 -0.4977
 8652SOL     OW37414   4.659   4.234   3.911  0.4832 -0.1709  0.0210
 8652SOL    HW137415   0.011   4.286   3.897 -0.0717  1.3809  2.8967
 8652SOL    HW237416   4.678   4.186   3.991 -0.0010  2.2197  1.5512
 8653SOL     OW37417   2.848   3.643  12.831  0.2124  0.3061 -0.3066
 8653SOL    HW137418   2.767   3.681  12.795  0.5166  0.4672 -0.8174
 8653SOL    HW237419   2.851   3.711  12.899 -0.8096  1.3053 -1.2612
 8654SOL     OW37420   1.855   1.959   7.988 -0.3489 -0.7069 -0.6250
 8654SOL    HW137421   1.940   1.992   8.016 -0.3276 -1.4125  0.1729
 8654SOL    HW237422   1.786   2.022   8.011  1.0644  1.4186 -2.2512
 8655SOL     OW37423   2.502   1.410   6.597 -0.1833  0.4519  0.0510
 8655SOL    HW137424   2.415   1.381   6.623  1.4351 -2.4126  2.3626
 8655SOL    HW237425   2.535   1.403   6.687 -0.1637  0.0677  0.0130
 8656SOL     OW37426   0.227   2.665   5.857  0.3718  0.0295 -0.5168
 8656SOL    HW137427   0.254   2.745   5.812  0.8762 -0.4357 -1.0429
 8656SOL    HW237428   0.154   2.637   5.802  0.2495 -1.9554  0.6390
 8657SOL     OW37429   4.382   4.222   4.910  0.0140  0.0067  0.2363
 8657SOL    HW137430   4.436   4.181   4.977 -0.9691 -0.8060  0.5327
 8657SOL    HW237431   4.340   4.143   4.876  0.2165 -0.3190  0.7485
 8658SOL     OW37432   4.081   0.983   2.305  0.1577 -0.2876  0.6985
 8658SOL    HW137433   4.021   1.007   2.234 -0.4641  1.6612  1.8645
 8658SOL    HW237434   4.036   1.005   2.386 -1.3706 -1.2394  0.1252
 8659SOL     OW37435   3.635   1.219   2.160 -0.4469  0.3047 -0.4548
 8659SOL    HW137436   3.610   1.231   2.252  0.1641  1.0314 -0.3785
 8659SOL    HW237437   3.704   1.284   2.148 -1.1742  0.7657 -2.0321
 8660SOL     OW37438   1.186   0.825   2.788 -0.1043 -0.0731  0.3480
 8660SOL    HW137439   1.118   0.838   2.853  1.3164  1.1486  1.5897
 8660SOL    HW237440   1.257   0.865   2.838 -0.0310  2.2696 -1.6110
 8661SOL     OW37441   2.034   3.720  10.064  0.6212 -0.3218  0.2853
 8661SOL    HW137442   2.026   3.734  10.159 -0.4690  1.8335 -0.1233
 8661SOL    HW237443   2.128   3.728  10.051  0.6406  0.6262  1.0047
 8662SOL     OW37444   2.303   1.407   9.784  0.1280  0.0158  0.3296
 8662SOL    HW137445   2.366   1.443   9.847  3.7354 -2.1620 -2.0638
 8662SOL    HW237446   2.284   1.321   9.822  1.1527 -0.5572 -0.4565
 8663SOL     OW37447   4.221   3.996   5.961 -0.0368 -0.1069  0.2425
 8663SOL    HW137448   4.246   4.088   5.969  1.2895 -0.4761  0.2775
 8663SOL    HW237449   4.211   3.974   6.053  1.0395 -2.0789 -0.1243
 8664SOL     OW37450   3.389   1.166   7.446  0.0286  0.2975  0.2157
 8664SOL    HW137451   3.354   1.255   7.458  1.3083  0.6990  0.9405
 8664SOL    HW237452   3.456   1.165   7.513 -0.5973 -0.8055  0.8260
 8665SOL     OW37453   0.149   3.596   3.400  0.2765  0.2204  0.2725
 8665SOL    HW137454   0.201   3.611   3.479 -1.5176  0.8441  1.3368
 8665SOL    HW237455   0.180   3.516   3.358  1.4460 -0.0461  1.6462
 8666SOL     OW37456   4.043   3.162   4.036 -0.2789  0.0293  0.5039
 8666SOL    HW137457   4.051   3.257   4.040 -0.6831  0.0327  1.1834
 8666SOL    HW237458   3.957   3.157   3.995  0.4805 -1.2854 -0.9477
 8667SOL     OW37459   0.062   4.122   5.688  0.3414 -0.1806 -0.2291
 8667SOL    HW137460   4.709   4.072   5.709  0.3591  0.3044  1.0076
 8667SOL    HW237461   0.048   4.132   5.594 -0.3373 -2.6373 -0.3900
 8668SOL     OW37462   2.698   2.276   8.532  0.0467  0.3574 -0.3957
 8668SOL    HW137463   2.725   2.263   8.623  0.4408 -0.9960 -0.6994
 8668SOL    HW237464   2.727   2.365   8.514  2.8077 -0.4444 -0.0056
 8669SOL     OW37465   0.734   0.370  15.216 -0.1142 -0.3217  0.5405
 8669SOL    HW137466   0.709   0.306  15.149  1.0570 -0.2783  0.0739
 8669SOL    HW237467   0.751   0.443  15.157  0.3956 -1.2053 -0.3930
 8670SOL     OW37468   3.692   0.915   2.733 -0.0250  0.3132 -0.1276
 8670SOL    HW137469   3.780   0.924   2.771 -0.2244  0.7867  0.2277
 8670SOL    HW237470   3.714   0.889   2.644  3.0992 -0.7077  0.9363
 8671SOL     OW37471   3.323   0.146   3.505  0.0993 -0.4455 -0.3287
 8671SOL    HW137472   3.383   0.099   3.447  0.5443  0.0593 -0.2786
 8671SOL    HW237473   3.290   0.073   3.557 -0.1294 -0.2706 -0.2291
 8672SOL     OW37474   1.324   1.304   3.523 -0.1467  0.4090 -0.5574
 8672SOL    HW137475   1.303   1.211   3.515  2.0218 -0.1603  0.3567
 8672SOL    HW237476   1.318   1.302   3.619 -0.1724 -0.2133 -0.5706
 8673SOL     OW37477   1.700   0.274   6.379  0.2048  0.2886  0.2834
 8673SOL    HW137478   1.621   0.312   6.419  0.0780 -2.2077  2.3850
 8673SOL    HW237479   1.695   0.180   6.396  0.0901  0.3466  0.5715
 8674SOL     OW37480   1.812   2.340   8.169  0.2477 -0.3778 -0.1784
 8674SOL    HW137481   1.766   2.424   8.172  2.0985  0.6023  0.3244
 8674SOL    HW237482   1.863   2.342   8.088  1.6068  1.6905  0.7303
 8675SOL     OW37483   2.555   2.894   8.294 -0.0519  0.3863 -0.0621
 8675SOL    HW137484   2.618   2.965   8.311 -0.1441  0.4076  0.1956
 8675SOL    HW237485   2.490   2.907   8.363  0.6255 -0.1677  0.6886
 8676SOL     OW37486   0.265   3.101   3.835 -0.1319  0.3778  0.1618
 8676SOL    HW137487   0.358   3.109   3.858 -0.2138 -1.9892  1.3141
 8676SOL    HW237488   0.221   3.126   3.916 -0.5604  0.0458  0.0279
 8677SOL     OW37489   4.223   4.579  15.262  0.0765  0.5965 -0.1702
 8677SOL    HW137490   4.191   4.669  15.251  1.9546  1.7438  3.9261
 8677SOL    HW237491   4.313   4.599  15.287 -0.6849  2.6590  0.9007
 8678SOL     OW37492   3.357   2.570   1.120 -0.2339  0.3754 -0.8604
 8678SOL    HW137493   3.293   2.641   1.121  0.1397  0.7230 -1.8596
 8678SOL    HW237494   3.322   2.503   1.062  0.5436 -1.3589  0.6768
 8679SOL     OW37495   1.262   4.160   9.390 -0.1676  0.6181 -0.0646
 8679SOL    HW137496   1.234   4.176   9.480  1.2087 -1.7104  0.7939
 8679SOL    HW237497   1.307   4.076   9.397 -1.8361 -0.2239  0.2856
 8680SOL     OW37498   2.612   0.156   0.721 -0.5459 -0.5977  0.4610
 8680SOL    HW137499   2.603   0.171   0.815  1.3652  1.3574  0.3293
 8680SOL    HW237500   2.703   0.127   0.711 -1.2189 -2.8701  0.9944
 8681SOL     OW37501   4.346   4.597  11.508  0.2671  0.3814 -0.1045
 8681SOL    HW137502   4.271   4.556  11.551  0.2747  0.5586  0.0794
 8681SOL    HW237503   4.330   4.570  11.418  0.2787 -3.5345  1.0518
 8682SOL     OW37504   0.379   0.809   5.850  0.3707  0.5958 -0.2443
 8682SOL    HW137505   0.433   0.817   5.929  0.9939  2.2655 -0.8482
 8682SOL    HW237506   0.444   0.755   5.805  1.7287  1.3575  0.7978
 8683SOL     OW37507   3.324   1.809   8.604 -1.0326  0.3563 -0.4424
 8683SOL    HW137508   3.379   1.809   8.526 -2.9463  0.4785 -1.7743
 8683SOL    HW237509   3.289   1.898   8.612  0.8052  1.0236  0.3780
 8684SOL     OW37510   1.344   2.700  16.227  0.5380  0.6528  0.4044
 8684SOL    HW137511   1.381   2.759  16.293 -0.1925  2.1547 -0.5033
 8684SOL    HW237512   1.368   2.617  16.267  0.8546  0.9021  0.7294
 8685SOL     OW37513   3.118   2.935  12.856 -0.1720 -0.6696  0.0352
 8685SOL    HW137514   3.203   2.979  12.853 -0.9346  0.7404 -1.2684
 8685SOL    HW237515   3.099   2.954  12.948 -0.6580 -0.2279 -0.1529
 8686SOL     OW37516   3.549   3.944  15.722  0.2155  0.1757  0.3444
 8686SOL    HW137517   3.529   3.978  15.635  1.3469 -0.9689 -0.3551
 8686SOL    HW237518   3.505   3.999  15.788  0.2114  0.8505 -0.2264
 8687SOL     OW37519   2.641   3.407   4.095  0.1265  0.4917 -0.3168
 8687SOL    HW137520   2.584   3.449   4.160  0.5462  0.9897 -0.2738
 8687SOL    HW237521   2.579   3.409   4.022 -0.0502 -2.0210 -0.2457
 8688SOL     OW37522   0.259   1.948  16.729 -0.1847  0.4114 -0.6857
 8688SOL    HW137523   0.168   1.920  16.720  0.0055 -1.0104  1.8508
 8688SOL    HW237524   0.263   2.037  16.693 -1.3964  0.7318 -0.0203
 8689SOL     OW37525   2.889   3.633   8.914  0.0761 -0.4332  0.3229
 8689SOL    HW137526   2.940   3.566   8.959 -1.8364 -0.0410  3.1240
 8689SOL    HW237527   2.810   3.631   8.968  0.8974 -0.5903  1.5238
 8690SOL     OW37528   1.849   4.102   5.787  0.3074  0.0046 -0.2488
 8690SOL    HW137529   1.801   4.182   5.766  2.5136  1.6343  0.9200
 8690SOL    HW237530   1.919   4.121   5.725  2.1654 -1.5703  1.3807
 8691SOL     OW37531   1.443   1.534   2.017 -0.2704 -0.2994  0.0855
 8691SOL    HW137532   1.502   1.594   1.972 -0.9908  0.8778  0.6910
 8691SOL    HW237533   1.389   1.593   2.070  0.7045  0.5350  0.1410
 8692SOL     OW37534   0.166   4.517   6.874 -0.5928 -0.4749 -0.2684
 8692SOL    HW137535   0.177   4.602   6.832  2.2815 -1.1109 -0.7952
 8692SOL    HW237536   0.249   4.478   6.848  1.4741  2.6981  1.7170
 8693SOL     OW37537   2.537   3.402  10.198 -0.7586 -0.1879 -0.1745
 8693SOL    HW137538   2.527   3.471  10.132 -0.3760  2.2099  2.2574
 8693SOL    HW237539   2.629   3.376  10.191 -0.5090 -0.0710  2.8186
 8694SOL     OW37540   2.159   3.856   1.366 -0.0260 -0.8831  0.3524
 8694SOL    HW137541   2.133   3.789   1.429 -0.2378 -1.5651 -0.4604
 8694SOL    HW237542   2.160   3.806   1.285  0.2824 -0.2961 -0.0093
 8695SOL     OW37543   1.913   2.163   7.228 -0.0126  0.6758  0.4344
 8695SOL    HW137544   1.899   2.080   7.273 -1.8964  1.7884  1.8784
 8695SOL    HW237545   1.977   2.203   7.286  1.4731  2.0856 -2.1369
 8696SOL     OW37546   2.153   3.531  16.229  0.1738 -0.3297 -0.4103
 8696SOL    HW137547   2.178   3.468  16.161  1.3382  0.4353 -0.6824
 8696SOL    HW237548   2.122   3.477  16.302  0.0206  2.7307  1.7949
 8697SOL     OW37549   0.007   1.416   4.815 -0.0987 -0.3308 -0.0823
 8697SOL    HW137550   0.102   1.430   4.814 -0.0927 -0.0516  3.3608
 8697SOL    HW237551   4.717   1.416   4.909  2.4135  1.0501  0.3552
 8698SOL     OW37552   2.329   2.611  15.087 -0.2608  0.5494  0.0179
 8698SOL    HW137553   2.405   2.567  15.049 -0.7112  0.1589 -0.4285
 8698SOL    HW237554   2.256   2.576  15.036  0.5779  0.1060 -0.8605
 8699SOL     OW37555   0.640   0.907  17.105  0.4415  0.4446 -0.2133
 8699SOL    HW137556   0.577   0.840  17.130  0.3667  0.6813  0.2364
 8699SOL    HW237557   0.581   0.982  17.110 -1.1649 -0.8722  0.4280
 8700SOL     OW37558   4.679   2.492  13.644 -0.0308  0.1342  0.3891
 8700SOL    HW137559   4.717   2.509  13.557  2.6065  0.2141  1.5603
 8700SOL    HW237560   4.591   2.460  13.625 -0.4326  0.7054  1.2784
 8701SOL     OW37561   2.199   2.742   2.011  0.2112 -0.2410 -0.2885
 8701SOL    HW137562   2.140   2.775   1.944 -0.2852 -1.4092 -0.4230
 8701SOL    HW237563   2.282   2.784   1.990  0.6706 -0.3749  1.2540
 8702SOL     OW37564   1.481   4.614   9.007 -0.1982 -0.6253 -0.3618
 8702SOL    HW137565   1.526   4.696   8.985 -1.8338  0.5189  0.5572
 8702SOL    HW237566   1.410   4.614   8.943 -0.0448 -0.6585 -0.5317
 8703SOL     OW37567   1.485   2.992   0.765  0.4091  1.0269  1.1694
 8703SOL    HW137568   1.438   2.917   0.801  0.7695 -0.0983 -0.6987
 8703SOL    HW237569   1.553   2.953   0.710 -2.3195  0.8980 -2.1189
 8704SOL     OW37570   3.547   3.769   4.457  0.3104 -0.2284 -0.0915
 8704SOL    HW137571   3.471   3.788   4.513 -0.3999 -0.9956 -0.7814
 8704SOL    HW237572   3.534   3.817   4.375 -1.6436  3.4462  2.3366
 8705SOL     OW37573   2.041   4.477   6.087 -0.3857  0.9008  0.2154
 8705SOL    HW137574   2.041   4.525   6.169 -1.0968  0.4328  0.4924
 8705SOL    HW237575   2.118   4.422   6.101 -0.1585  0.9712 -0.7386
 8706SOL     OW37576   2.065   0.056  13.669 -0.2700  0.1870  0.0912
 8706SOL    HW137577   2.056   4.693  13.637 -0.5348  0.0776  0.4741
 8706SOL    HW237578   2.123   0.089  13.600  1.3647  0.3367  1.5628
 8707SOL     OW37579   3.119   3.670   4.619  0.7287 -0.0288 -0.7194
 8707SOL    HW137580   3.048   3.717   4.576  1.5104  1.8832  0.0821
 8707SOL    HW237581   3.182   3.740   4.639  0.7627 -0.7357  1.7502
 8708SOL     OW37582   1.781   0.765  13.315 -0.1412 -0.4853  0.1179
 8708SOL    HW137583   1.871   0.788  13.337 -0.7787  0.9757  1.2469
 8708SOL    HW237584   1.753   0.848  13.275 -0.2581 -0.9101 -0.6757
 8709SOL     OW37585   4.342   0.329   1.388  0.3524  0.0518 -0.6335
 8709SOL    HW137586   4.261   0.284   1.363 -0.3415  0.3869  0.9852
 8709SOL    HW237587   4.410   0.309   1.323  2.3327 -1.6409  1.9838
 8710SOL     OW37588   1.247   2.633  13.495 -1.1001 -0.8387 -0.0453
 8710SOL    HW137589   1.180   2.568  13.514 -2.7173  0.9026  0.2257
 8710SOL    HW237590   1.256   2.680  13.578 -0.8338  0.9919 -1.1061
 8711SOL     OW37591   2.042   4.054   2.292 -0.8659 -0.4195 -0.3890
 8711SOL    HW137592   2.053   4.130   2.235 -0.2458 -1.0048 -1.0683
 8711SOL    HW237593   2.129   4.046   2.331 -0.1818  0.1569 -1.8168
 8712SOL     OW37594   2.404   3.088   5.890  0.2972 -0.1682  0.4033
 8712SOL    HW137595   2.387   3.123   5.802 -1.6941 -1.8324  0.1268
 8712SOL    HW237596   2.484   3.135   5.912  0.7619 -0.9942  0.4631
 8713SOL     OW37597   0.110   1.180   0.576 -0.1778  0.2408  0.2039
 8713SOL    HW137598   0.087   1.267   0.608 -0.5806 -0.4922  1.8964
 8713SOL    HW237599   0.187   1.206   0.524  1.3501  0.1263  2.4216
 8714SOL     OW37600   0.394   0.001   8.638  0.0928 -0.7610 -0.1502
 8714SOL    HW137601   0.317   4.691   8.680 -0.7422  0.2830 -0.7878
 8714SOL    HW237602   0.381   0.024   8.546  1.0103 -1.1759 -0.3902
 8715SOL     OW37603   1.489   1.971   3.036 -0.1945 -0.0437 -0.2523
 8715SOL    HW137604   1.569   2.014   3.004  0.4829 -1.5226 -0.5365
 8715SOL    HW237605   1.448   1.934   2.957 -1.3411 -0.6213  0.6145
 8716SOL     OW37606   2.424   1.996   5.541 -0.4614 -0.6608  0.1622
 8716SOL    HW137607   2.485   1.959   5.606  0.2180 -0.9870 -0.6577
 8716SOL    HW237608   2.423   1.913   5.492  2.7224 -0.8912  0.4289
 8717SOL     OW37609   4.551   1.487   7.194  0.2634  0.4046  0.1409
 8717SOL    HW137610   4.548   1.419   7.127 -0.8860  0.6574 -0.0558
 8717SOL    HW237611   4.486   1.550   7.164  0.3527  0.2883 -0.2916
 8718SOL     OW37612   1.042   4.425   8.088  0.5814  0.0323  0.2199
 8718SOL    HW137613   1.137   4.424   8.105  0.5509 -3.0611  0.3225
 8718SOL    HW237614   1.018   4.333   8.073 -0.8096 -0.0961  3.2713
 8719SOL     OW37615   1.918   0.258   6.150  0.3171 -0.2446 -0.6908
 8719SOL    HW137616   1.981   0.241   6.219 -0.3211 -0.5356 -0.1739
 8719SOL    HW237617   1.835   0.235   6.192  1.2539  0.2783  1.4300
 8720SOL     OW37618   4.317   3.514   4.917 -0.1531  0.0687  0.4855
 8720SOL    HW137619   4.368   3.485   4.992 -0.5526  1.8404  1.4579
 8720SOL    HW237620   4.238   3.461   4.927  0.2247 -0.8276 -1.3089
 8721SOL     OW37621   3.507   0.774   9.187  0.3215  0.0444 -0.0143
 8721SOL    HW137622   3.573   0.836   9.217 -0.6737  0.4366  1.3665
 8721SOL    HW237623   3.562   0.697   9.174  0.5872  0.6150 -2.3851
 8722SOL     OW37624   2.093   4.218   8.128 -0.2204  0.0472 -0.0049
 8722SOL    HW137625   2.150   4.159   8.177  0.0286  1.8340  1.8422
 8722SOL    HW237626   2.159   4.261   8.074  0.0442  1.2077  1.2662
 8723SOL     OW37627   4.420   0.726   2.915  0.3045 -0.1488 -0.4862
 8723SOL    HW137628   4.454   0.791   2.977  4.2220 -0.5729 -2.1783
 8723SOL    HW237629   4.441   0.765   2.830 -0.4932  1.2028 -0.0500
 8724SOL     OW37630   3.168   4.188   7.469 -0.1094  0.5591  0.7522
 8724SOL    HW137631   3.155   4.274   7.428  1.0394  0.1009 -0.5499
 8724SOL    HW237632   3.199   4.141   7.392 -2.5978 -0.9805  0.6643
 8725SOL     OW37633   4.598   2.568   2.449 -0.4232  1.0247  0.1225
 8725SOL    HW137634   4.578   2.661   2.435 -0.5792  1.0944  0.8362
 8725SOL    HW237635   4.619   2.527   2.364 -2.6941  0.5344 -0.1825
 8726SOL     OW37636   3.590   2.879   7.832  0.4849 -0.0937 -0.6606
 8726SOL    HW137637   3.644   2.842   7.901  3.8738  3.3661 -1.4082
 8726SOL    HW237638   3.569   2.969   7.858 -1.0564  0.2982 -3.2210
 8727SOL     OW37639   0.760   0.091  16.799 -0.7165  0.4488  0.3300
 8727SOL    HW137640   0.829   0.157  16.797  1.3029 -1.7183 -0.4820
 8727SOL    HW237641   0.794   0.027  16.862  1.8648 -1.1695 -2.7528
 8728SOL     OW37642   3.053   4.647  14.427  0.2924 -0.6126  0.4812
 8728SOL    HW137643   3.086   4.662  14.516  0.4702  2.5485 -0.1322
 8728SOL    HW237644   2.986   4.580  14.436 -0.5801  0.3068  0.7768
 8729SOL     OW37645   0.765   4.587   9.662 -0.7162 -0.1462 -0.2250
 8729SOL    HW137646   0.672   4.580   9.642 -1.3154  1.3093  2.0078
 8729SOL    HW237647   0.794   4.556   9.577  0.2546 -0.0012  0.0554
 8730SOL     OW37648   4.016   4.075   6.823 -0.0770 -0.6354  0.5968
 8730SOL    HW137649   4.003   4.112   6.736  2.6483  1.1803  0.9714
 8730SOL    HW237650   4.032   3.983   6.804  1.0976  0.0681 -1.8011
 8731SOL     OW37651   3.312   2.883   4.489 -0.0748 -0.1822  0.1978
 8731SOL    HW137652   3.300   2.834   4.570 -0.6211  0.1176  0.2975
 8731SOL    HW237653   3.397   2.846   4.466 -0.3583  0.6824 -2.2854
 8732SOL     OW37654   2.126   2.579   6.840 -0.3772 -0.2560  0.1452
 8732SOL    HW137655   2.033   2.559   6.832 -0.9012  2.9160 -1.6827
 8732SOL    HW237656   2.158   2.501   6.886  2.0141  0.3052 -0.5446
 8733SOL     OW37657   4.429   2.061   1.466  0.3460  1.1690  0.0488
 8733SOL    HW137658   4.426   1.976   1.510  2.0166  0.0089 -2.0362
 8733SOL    HW237659   4.480   2.041   1.387  0.7096 -0.7056  0.7567
 8734SOL     OW37660   3.006   0.445  10.997 -0.0704 -0.1397  0.7619
 8734SOL    HW137661   2.965   0.373  10.948 -0.3380 -0.5150  1.5352
 8734SOL    HW237662   2.965   0.518  10.952 -1.9067  0.1643  2.8695
 8735SOL     OW37663   0.440   2.577   2.255  0.9790  0.1652  0.3503
 8735SOL    HW137664   0.461   2.526   2.333 -2.6681 -0.1153  1.1006
 8735SOL    HW237665   0.346   2.560   2.251  1.0377 -0.8020  3.3125
 8736SOL     OW37666   2.325   3.815   2.113  0.2330 -0.9080  0.1212
 8736SOL    HW137667   2.412   3.851   2.132  0.4372 -2.4274  1.9839
 8736SOL    HW237668   2.346   3.741   2.056 -2.4516 -0.5583 -1.3252
 8737SOL     OW37669   4.648   1.731  15.638 -0.2299  0.1398 -0.3202
 8737SOL    HW137670   4.630   1.810  15.587  0.2264  0.8032  0.5350
 8737SOL    HW237671   4.726   1.748  15.691 -0.8538 -0.7003  0.8491
 8738SOL     OW37672   2.830   3.289   3.662  0.0394  0.1660 -0.6860
 8738SOL    HW137673   2.834   3.343   3.740 -0.0339  0.7893 -1.1119
 8738SOL    HW237674   2.734   3.293   3.657  0.0289  0.3514 -0.3389
 8739SOL     OW37675   2.952   0.573   1.554  0.0380  0.2809  0.1882
 8739SOL    HW137676   3.001   0.492   1.539 -0.8675 -0.2805  0.2325
 8739SOL    HW237677   2.918   0.596   1.467 -0.3602 -2.5414 -0.4067
 8740SOL     OW37678   4.305   3.528  17.669  0.1189 -0.8077 -0.2315
 8740SOL    HW137679   4.312   3.532  17.573 -2.2167  1.0006 -0.3255
 8740SOL    HW237680   4.234   3.467  17.689 -0.0382 -0.2609  0.8446
 8741SOL     OW37681   4.628   4.511  17.255  0.1216 -0.2833  0.0608
 8741SOL    HW137682   4.722   4.514  17.239  0.3825 -0.3248  1.6351
 8741SOL    HW237683   4.612   4.578  17.321  0.1020 -1.7492  1.5288
 8742SOL     OW37684   0.820   4.340  13.300  0.5328  0.7663  0.5399
 8742SOL    HW137685   0.760   4.402  13.259  2.3210  0.0567 -3.1087
 8742SOL    HW237686   0.879   4.337  13.225 -2.2759  1.0767 -1.6844
 8743SOL     OW37687   1.520   0.755   0.172  1.0410 -0.3444  0.0332
 8743SOL    HW137688   1.496   0.664   0.154 -0.7536 -0.2570  1.9964
 8743SOL    HW237689   1.477   0.768   0.257  1.3431 -1.1791  0.3134
 8744SOL     OW37690   3.593   1.629  10.848 -0.6202  0.0275  0.4563
 8744SOL    HW137691   3.611   1.703  10.906 -1.3591  0.8777 -0.3868
 8744SOL    HW237692   3.551   1.681  10.779 -1.2962  0.5576  1.2571
 8745SOL     OW37693   2.110   3.405   5.231 -0.3296 -0.1916 -0.1786
 8745SOL    HW137694   2.065   3.460   5.295  1.1975 -0.0910  0.8126
 8745SOL    HW237695   2.055   3.327   5.239 -0.8520  0.0027 -1.7732
 8746SOL     OW37696   0.194   2.168   8.481 -0.0020  0.3265  0.2863
 8746SOL    HW137697   0.175   2.189   8.389  1.3236  1.5088  0.2827
 8746SOL    HW237698   0.280   2.127   8.480 -0.2981 -0.2906  0.5659
 8747SOL     OW37699   1.670   3.500   8.504 -0.3219  0.5278  0.3277
 8747SOL    HW137700   1.730   3.566   8.470  0.2279  0.0452  0.3562
 8747SOL    HW237701   1.657   3.536   8.591  3.2718  1.4322  0.4952
 8748SOL     OW37702   4.082   1.417   0.114  0.2297  0.3932 -0.0782
 8748SOL    HW137703   4.069   1.402   0.020 -0.5790  3.7483 -0.4917
 8748SOL    HW237704   4.142   1.491   0.103 -1.4633  1.8256  0.3453
 8749SOL     OW37705   2.176   4.475  10.831 -0.6494  0.0718 -0.3615
 8749SOL    HW137706   2.127   4.534  10.888  0.9707  0.9661  0.1124
 8749SOL    HW237707   2.259   4.522  10.821 -0.2909 -0.4496  0.1590
 8750SOL     OW37708   1.292   0.892   1.266 -0.0016  0.3071 -0.2285
 8750SOL    HW137709   1.308   0.844   1.346 -3.0477 -0.7409 -0.2449
 8750SOL    HW237710   1.376   0.934   1.247 -0.1465  0.5044 -0.4406
 8751SOL     OW37711   0.292   0.921  14.593 -0.6811 -0.2177  0.0166
 8751SOL    HW137712   0.304   0.879  14.679  0.2038  0.8100  0.3956
 8751SOL    HW237713   0.384   0.941  14.578 -0.4446  0.2371  2.0648
 8752SOL     OW37714   1.318   2.662  14.499 -0.5868  1.2258 -0.1404
 8752SOL    HW137715   1.319   2.612  14.581 -0.8498  1.0337 -0.2526
 8752SOL    HW237716   1.301   2.752  14.529 -2.7301  0.2915  1.4226
 8753SOL     OW37717   1.397   1.057   6.466 -0.3886  0.0451 -0.7111
 8753SOL    HW137718   1.373   0.994   6.398  2.3452 -0.2715 -1.4233
 8753SOL    HW237719   1.400   1.140   6.418  2.7301  0.3837  0.0676
 8754SOL     OW37720   0.279   4.399   1.647 -0.4682  0.3213  0.3674
 8754SOL    HW137721   0.294   4.305   1.636  2.6670  0.8706  0.2066
 8754SOL    HW237722   0.364   4.440   1.652  0.3163 -1.3285  0.6668
 8755SOL     OW37723   1.944   0.930   7.062  0.1293  0.4436 -0.4040
 8755SOL    HW137724   2.039   0.918   7.068 -0.1407 -0.2669  2.9036
 8755SOL    HW237725   1.904   0.869   7.125 -1.2184  0.3054 -1.3903
 8756SOL     OW37726   4.635   0.743   9.700 -0.1326 -0.0281 -0.3485
 8756SOL    HW137727   4.580   0.721   9.625  0.9722  1.2008 -1.5046
 8756SOL    HW237728   4.569   0.786   9.753  0.5759  1.6585 -0.8486
 8757SOL     OW37729   0.527   0.079   3.846 -0.0289 -0.3997 -0.4371
 8757SOL    HW137730   0.534   0.169   3.879 -0.4540 -0.2579 -0.7394
 8757SOL    HW237731   0.451   0.064   3.901  0.4208  0.3272  0.3868
 8758SOL     OW37732   1.408   3.546   2.986  0.4566 -0.0920  0.3568
 8758SOL    HW137733   1.343   3.543   3.056  0.9025 -0.9838  0.7321
 8758SOL    HW237734   1.488   3.530   3.036 -0.5645  0.9877  2.3510
 8759SOL     OW37735   2.525   3.626   2.066 -0.6185  0.4310 -0.5473
 8759SOL    HW137736   2.617   3.652   2.059 -1.0498  1.3256 -2.7600
 8759SOL    HW237737   2.527   3.574   1.986  1.5626  0.1837 -0.3333
 8760SOL     OW37738   1.333   1.377   3.269  0.1609 -0.6244 -0.8353
 8760SOL    HW137739   1.308   1.469   3.280 -1.3380 -1.0943 -0.2891
 8760SOL    HW237740   1.344   1.346   3.359 -0.0773 -1.3259 -1.0531
 8761SOL     OW37741   4.418   2.777  13.517  0.4835  0.0833  0.1460
 8761SOL    HW137742   4.468   2.743  13.590  0.6801 -1.5680 -0.7651
 8761SOL    HW237743   4.343   2.717  13.514  0.0749  0.7097 -2.2433
 8762SOL     OW37744   2.468   2.629   0.008 -0.4504  0.2809 -0.2153
 8762SOL    HW137745   2.392   2.622   0.066  0.2197  3.3677  1.0305
 8762SOL    HW237746   2.538   2.639   0.072 -0.0897 -0.5696 -0.4782
 8763SOL     OW37747   3.455   0.278   8.451  0.0360 -0.1461  1.1749
 8763SOL    HW137748   3.499   0.359   8.477  0.3290 -0.4269  1.5318
 8763SOL    HW237749   3.361   0.287   8.467 -0.3738 -1.2816 -0.5370
 8764SOL     OW37750   1.347   2.767   4.603 -0.3572 -0.3976  0.3646
 8764SOL    HW137751   1.278   2.734   4.661 -0.9231 -2.0426 -1.2387
 8764SOL    HW237752   1.333   2.862   4.608  0.0989 -0.6192  5.4609
 8765SOL     OW37753   0.869   3.214   7.130 -0.2716 -0.3691 -0.1096
 8765SOL    HW137754   0.835   3.253   7.210  1.5714  0.2375  0.3720
 8765SOL    HW237755   0.872   3.123   7.159 -0.1791 -1.4671 -3.5352
 8766SOL     OW37756   2.836   1.669   1.088  0.1086 -0.0416  0.3945
 8766SOL    HW137757   2.872   1.750   1.122 -0.5479  0.5267 -0.2527
 8766SOL    HW237758   2.886   1.608   1.142 -0.7516 -1.3989 -0.3197
 8767SOL     OW37759   2.427   1.075   6.883 -0.1316  0.4545  0.1495
 8767SOL    HW137760   2.458   1.109   6.967  0.6474  0.5971 -0.1947
 8767SOL    HW237761   2.336   1.057   6.906 -0.1282 -1.1159 -1.1389
 8768SOL     OW37762   3.115   0.577  10.685 -0.1584  0.1791  0.3226
 8768SOL    HW137763   3.042   0.620  10.728 -0.1116 -0.5348  1.1142
 8768SOL    HW237764   3.094   0.610  10.598 -0.8625  0.5448  0.6312
 8769SOL     OW37765   3.414   3.546   7.143 -0.2416 -0.2452  0.6403
 8769SOL    HW137766   3.361   3.468   7.122  0.9138 -1.5884  2.6999
 8769SOL    HW237767   3.471   3.515   7.214 -1.8133 -0.5905  1.7463
 8770SOL     OW37768   0.467   2.895   3.625 -0.0262 -0.1306 -0.0145
 8770SOL    HW137769   0.518   2.914   3.546 -0.8489  0.1098 -0.4789
 8770SOL    HW237770   0.515   2.948   3.689 -0.5923  0.3231  0.0342
 8771SOL     OW37771   3.957   0.040  17.504  0.5369 -0.2422 -0.5411
 8771SOL    HW137772   3.929   0.039  17.413  0.4695  1.4271 -0.5489
 8771SOL    HW237773   3.987   0.131  17.509 -2.5046  0.7854 -1.2083
 8772SOL     OW37774   3.797   2.763   6.187  0.3876  0.1149  0.5376
 8772SOL    HW137775   3.810   2.760   6.282 -1.8781  2.6158  0.9364
 8772SOL    HW237776   3.739   2.837   6.169 -1.0796 -1.4333 -1.2206
 8773SOL     OW37777   2.958   3.063   8.206  0.1176 -0.2584 -0.3277
 8773SOL    HW137778   3.024   2.998   8.230 -1.8661 -2.4689 -0.9189
 8773SOL    HW237779   2.976   3.101   8.120  1.1450  1.9508  0.8599
 8774SOL     OW37780   4.479   2.108   4.901 -0.3178  0.1537 -0.6366
 8774SOL    HW137781   4.489   2.203   4.910 -0.6607  0.2438 -1.1776
 8774SOL    HW237782   4.420   2.102   4.825 -2.7857 -3.9263  1.6341
 8775SOL     OW37783   2.236   3.472   4.084  0.5144 -0.1217  0.2037
 8775SOL    HW137784   2.240   3.386   4.125 -1.4645  0.6651  2.0199
 8775SOL    HW237785   2.325   3.478   4.050  0.4196  0.3449  0.0380
 8776SOL     OW37786   0.140   1.790  11.221  0.5765 -0.2044 -0.7037
 8776SOL    HW137787   0.128   1.695  11.221  0.2857 -0.1652  0.8751
 8776SOL    HW237788   0.048   1.816  11.215 -0.3191 -3.2906 -0.0610
 8777SOL     OW37789   1.135   1.124   2.588 -0.3920 -0.4859 -0.3140
 8777SOL    HW137790   1.112   1.151   2.677  3.0246 -1.3906  0.8271
 8777SOL    HW237791   1.136   1.209   2.544  0.0577 -0.3373 -0.0119
 8778SOL     OW37792   4.726   0.386  10.629 -0.0764 -0.7425  0.1559
 8778SOL    HW137793   4.701   0.478  10.640 -0.0799 -0.6157 -0.8671
 8778SOL    HW237794   0.011   0.396  10.534 -0.5859 -1.4105  0.0300
 8779SOL     OW37795   3.448   3.263   7.355  0.3277 -0.0265  0.0095
 8779SOL    HW137796   3.437   3.183   7.304 -1.1599  1.4773 -2.0030
 8779SOL    HW237797   3.364   3.305   7.336 -1.1105 -2.0155  1.8701
 8780SOL     OW37798   2.520   4.462   4.800  0.4064 -0.1565  0.2259
 8780SOL    HW137799   2.569   4.510   4.867  2.1857 -1.5285 -0.0859
 8780SOL    HW237800   2.471   4.536   4.763  3.1340  1.4416 -0.2760
 8781SOL     OW37801   4.657   0.830   0.663  0.0457 -0.4094  0.6020
 8781SOL    HW137802   4.602   0.777   0.605 -0.7773  0.0056  0.9976
 8781SOL    HW237803   4.669   0.773   0.739 -3.7201 -0.1010  1.4626
 8782SOL     OW37804   2.794   2.753   5.446  0.4637  0.0045  0.2980
 8782SOL    HW137805   2.701   2.769   5.426  0.2040 -1.4758  0.3032
 8782SOL    HW237806   2.837   2.730   5.363  0.7506  2.4866 -0.2191
 8783SOL     OW37807   1.984   1.160  14.705 -0.3774 -0.1600 -0.0775
 8783SOL    HW137808   1.956   1.199  14.622  0.3829  2.6632  0.9785
 8783SOL    HW237809   2.026   1.241  14.735 -1.5354  0.5915 -0.5147
 8784SOL     OW37810   1.040   4.460   7.757  0.4938  0.2592  1.0369
 8784SOL    HW137811   1.099   4.399   7.801 -0.5617 -1.7174 -0.2446
 8784SOL    HW237812   1.003   4.509   7.830 -0.4210  2.2160 -0.7116
 8785SOL     OW37813   2.122   4.526   5.827  0.0733 -0.6211  0.1225
 8785SOL    HW137814   2.059   4.523   5.899  0.2632  2.0925  0.3937
 8785SOL    HW237815   2.167   4.610   5.839  0.4448 -0.3394 -3.4196
 8786SOL     OW37816   3.399   3.510   8.544  0.0514 -0.1744  0.4909
 8786SOL    HW137817   3.466   3.578   8.536 -0.9369  0.6524 -0.6612
 8786SOL    HW237818   3.322   3.565   8.557 -0.1080 -0.1750 -0.4405
 8787SOL     OW37819   4.346   2.797   5.826 -0.2252  0.0145 -0.0732
 8787SOL    HW137820   4.319   2.888   5.812  2.7613  1.0801  1.2062
 8787SOL    HW237821   4.265   2.745   5.828 -1.5512  2.0788  0.2326
 8788SOL     OW37822   1.176   3.378   0.447 -0.0086 -0.0386  0.3291
 8788SOL    HW137823   1.081   3.392   0.443  0.1828  0.9050 -0.8744
 8788SOL    HW237824   1.211   3.459   0.485 -0.4450 -0.7853  2.3125
 8789SOL     OW37825   0.816   3.666  13.335  0.1285 -0.0719  0.2411
 8789SOL    HW137826   0.743   3.624  13.381  2.1401 -2.1239  1.5581
 8789SOL    HW237827   0.786   3.756  13.323 -0.6515  0.0814  3.2043
 8790SOL     OW37828   0.058   1.780   3.954 -0.1680 -0.1020  0.4423
 8790SOL    HW137829   4.697   1.754   3.924  0.4583 -1.4135 -0.1959
 8790SOL    HW237830   0.061   1.872   3.927  1.5148 -0.6352 -1.1543
 8791SOL     OW37831   4.353   0.178   0.302 -0.2796  0.3421 -0.1797
 8791SOL    HW137832   4.320   0.268   0.300  1.3670  0.9797  0.6532
 8791SOL    HW237833   4.382   0.170   0.393 -0.4004 -0.4943 -0.2167
 8792SOL     OW37834   0.548   1.564  15.955  0.0548  0.1233  0.1411
 8792SOL    HW137835   0.510   1.651  15.942 -1.4363 -0.2234  2.1664
 8792SOL    HW237836   0.502   1.541  16.036 -2.9240 -1.3054 -1.9609
 8793SOL     OW37837   4.535   3.301   2.073 -0.1531  0.3956 -0.4966
 8793SOL    HW137838   4.593   3.366   2.032 -1.6584  2.2332  0.2587
 8793SOL    HW237839   4.558   3.218   2.031 -1.0464 -0.4440  0.6838
 8794SOL     OW37840   3.237   0.552   4.802  0.0044  0.2621  0.1008
 8794SOL    HW137841   3.251   0.580   4.893  0.2159  1.9629 -0.4540
 8794SOL    HW237842   3.321   0.509   4.786 -0.0105  1.7039 -3.8249
 8795SOL     OW37843   3.424   4.559   9.424 -0.0187 -0.4691  0.2045
 8795SOL    HW137844   3.454   4.648   9.445 -2.1485  0.5879 -1.2361
 8795SOL    HW237845   3.336   4.565   9.387  0.9710  2.2586 -1.7243
 8796SOL     OW37846   0.413   2.708   6.496 -0.2179 -0.1851 -0.0597
 8796SOL    HW137847   0.484   2.662   6.451  1.1222 -1.2016  3.0924
 8796SOL    HW237848   0.434   2.719   6.589  0.0164  1.7517 -0.3343
 8797SOL     OW37849   3.925   1.425   4.799  0.1273  0.5174  0.7124
 8797SOL    HW137850   3.949   1.518   4.792 -0.8284  0.8161  1.4033
 8797SOL    HW237851   3.987   1.388   4.862  0.5673  0.2165  0.1048
 8798SOL     OW37852   1.463   2.731  11.651  0.0166 -0.1253  0.0228
 8798SOL    HW137853   1.459   2.750  11.745  0.8215  0.5138 -0.0689
 8798SOL    HW237854   1.409   2.799  11.610  0.3303 -0.7651 -1.4213
 8799SOL     OW37855   3.776   1.469  16.763  0.1016 -0.0534  0.8762
 8799SOL    HW137856   3.758   1.422  16.682  0.0291  0.7160  0.4548
 8799SOL    HW237857   3.835   1.539  16.735  0.7943 -1.6527 -1.6151
 8800SOL     OW37858   0.151   0.648   2.938  0.1339 -0.6984  0.1760
 8800SOL    HW137859   0.097   0.705   2.882  1.6294  0.4145 -0.1427
 8800SOL    HW237860   0.102   0.652   3.020  1.5150  2.9507  0.8304
 8801SOL     OW37861   3.219   3.687   2.704 -0.4563 -0.3002  0.0401
 8801SOL    HW137862   3.265   3.630   2.765 -1.5298 -1.1098  0.1003
 8801SOL    HW237863   3.289   3.702   2.641  0.8080  0.1410  1.5664
 8802SOL     OW37864   2.316   4.594   3.964 -0.2624 -0.2794 -0.0631
 8802SOL    HW137865   2.368   4.518   3.938 -2.0438 -1.5239  0.0611
 8802SOL    HW237866   2.245   4.561   4.019  0.5785  2.8941  2.8935
 8803SOL     OW37867   1.253   4.165   9.665 -0.5120 -0.2878  0.1669
 8803SOL    HW137868   1.330   4.176   9.721 -0.1434  0.0364 -0.4020
 8803SOL    HW237869   1.184   4.143   9.727  0.9526 -2.1645  1.1201
 8804SOL     OW37870   2.044   2.752   7.368  0.0866 -0.1396 -1.0628
 8804SOL    HW137871   2.004   2.838   7.378  1.4670  0.1630  1.6468
 8804SOL    HW237872   2.005   2.734   7.282  0.3204  1.0958 -1.4347
 8805SOL     OW37873   4.649   1.356   1.780  0.4266  0.4641 -0.5198
 8805SOL    HW137874   4.592   1.395   1.714 -3.2824 -3.7186  0.2080
 8805SOL    HW237875   4.642   1.416   1.854  1.1161 -1.1601  0.8854
 8806SOL     OW37876   0.616   3.014  17.166  0.2855  0.1427  0.2125
 8806SOL    HW137877   0.563   2.954  17.218  3.2047  0.2563  3.3517
 8806SOL    HW237878   0.701   2.970  17.171  0.4060  0.1874 -1.3063
 8807SOL     OW37879   0.217   2.393   7.604 -0.4637 -0.1300  0.4833
 8807SOL    HW137880   0.272   2.390   7.683 -0.7664  0.8932  0.7308
 8807SOL    HW237881   0.223   2.487   7.586 -0.6077 -0.8365 -3.1372
 8808SOL     OW37882   3.245   0.950   7.060  0.6378  0.4139 -0.6698
 8808SOL    HW137883   3.168   1.003   7.079  0.0032 -1.0843  0.8720
 8808SOL    HW237884   3.307   1.005   7.011  1.6191  0.2921  0.4192
 8809SOL     OW37885   3.766   0.016   3.566  0.2913 -0.1958 -0.2367
 8809SOL    HW137886   3.676   0.009   3.599  0.3778  0.8689  0.2160
 8809SOL    HW237887   3.765   4.708   3.477 -1.7215 -0.2180 -0.2103
 8810SOL     OW37888   1.330   3.690   4.883 -0.4727 -0.0979  0.4158
 8810SOL    HW137889   1.285   3.754   4.939 -0.5354  0.4880 -0.3012
 8810SOL    HW237890   1.328   3.609   4.933  0.4233  0.1366  0.8326
 8811SOL     OW37891   0.256   1.726   4.659 -0.1526  0.6359 -0.3447
 8811SOL    HW137892   0.229   1.681   4.579  0.4772  1.5146 -1.0483
 8811SOL    HW237893   0.240   1.812   4.621 -1.3021 -0.3109 -1.9706
 8812SOL     OW37894   1.731   0.936  11.387 -0.7698  0.3790 -0.3059
 8812SOL    HW137895   1.796   0.866  11.396 -0.6416  0.6893  1.1664
 8812SOL    HW237896   1.652   0.886  11.365  0.4249 -1.3712 -0.6243
 8813SOL     OW37897   1.251   1.560   4.830  0.1827  0.3209 -0.0280
 8813SOL    HW137898   1.191   1.574   4.756 -0.2682  0.0594  0.2906
 8813SOL    HW237899   1.183   1.541   4.894 -0.8893 -0.4919 -1.4006
 8814SOL     OW37900   1.021   0.525   4.030 -0.1464  0.5249  0.6355
 8814SOL    HW137901   1.011   0.532   4.125  1.0927  0.2378  0.7817
 8814SOL    HW237902   1.086   0.590   4.004 -0.4804  1.7971  2.9294
 8815SOL     OW37903   0.945   0.333   0.810 -0.7167  0.4510 -0.3706
 8815SOL    HW137904   0.934   0.238   0.815 -0.6687  0.6358  3.1268
 8815SOL    HW237905   1.018   0.342   0.871  1.2406  0.8339 -2.7886
 8816SOL     OW37906   2.690   0.617   3.807 -0.3365 -0.1140 -0.3011
 8816SOL    HW137907   2.749   0.616   3.731 -0.3889  2.6416 -0.3738
 8816SOL    HW237908   2.622   0.676   3.776 -1.6389 -0.5824  1.6524
 8817SOL     OW37909   2.646   1.959   5.733  0.1689 -0.2873  0.1652
 8817SOL    HW137910   2.732   1.925   5.756  1.1557  0.8212 -1.8970
 8817SOL    HW237911   2.584   1.899   5.774  0.7596 -0.9473  0.0896
 8818SOL     OW37912   3.161   3.193   4.985 -0.2809 -0.3968 -0.1045
 8818SOL    HW137913   3.134   3.285   4.974 -1.0409 -0.5677  0.2982
 8818SOL    HW237914   3.249   3.204   4.949 -1.6011  2.2231 -2.5807
 8819SOL     OW37915   4.340   2.530   1.960  0.2216  0.0775  0.3647
 8819SOL    HW137916   4.365   2.614   1.998 -0.5452  0.1009  0.7981
 8819SOL    HW237917   4.326   2.475   2.037  0.9577  1.9250  1.8023
 8820SOL     OW37918   4.183   3.189   1.122  0.0781 -0.1625  0.1071
 8820SOL    HW137919   4.273   3.157   1.116  0.6377  0.5535  4.9165
 8820SOL    HW237920   4.158   3.134   1.196 -0.8337  3.3077  2.3682
 8821SOL     OW37921   3.729   3.731   3.451 -0.0488  0.5298  0.3747
 8821SOL    HW137922   3.728   3.636   3.454 -1.6991  0.5073 -1.1225
 8821SOL    HW237923   3.649   3.745   3.502  0.0397 -2.2339  1.2313
 8822SOL     OW37924   3.643   2.266   2.444 -0.5454  0.0442  0.3140
 8822SOL    HW137925   3.702   2.291   2.372 -0.7851 -0.5168 -0.0779
 8822SOL    HW237926   3.557   2.257   2.402 -0.0091 -0.3869 -0.7010
 8823SOL     OW37927   4.268   3.404  14.728  0.1757 -0.3014 -0.1395
 8823SOL    HW137928   4.177   3.423  14.750  0.4178  2.1443 -1.2444
 8823SOL    HW237929   4.316   3.420  14.810 -0.3032 -2.1603  0.5226
 8824SOL     OW37930   1.002   1.114   5.549 -0.3098 -0.3174  0.2194
 8824SOL    HW137931   1.026   1.041   5.606 -1.8490 -0.7965  0.2790
 8824SOL    HW237932   1.078   1.143   5.498 -2.4823  2.8279 -1.2502
 8825SOL     OW37933   1.923   0.110  11.479  0.4106  0.4360  0.7264
 8825SOL    HW137934   1.919   0.034  11.538 -0.8320 -1.2211 -1.4625
 8825SOL    HW237935   1.904   0.057  11.401  0.6015  1.3438  0.0622
 8826SOL     OW37936   4.523   0.668  11.117 -0.5560 -0.5563  0.2839
 8826SOL    HW137937   4.476   0.750  11.130  0.2770  0.1636 -1.1882
 8826SOL    HW237938   4.576   0.665  11.197 -0.8078  1.7916  0.5139
 8827SOL     OW37939   1.990   2.541   8.339 -0.0631 -0.0082  1.1892
 8827SOL    HW137940   1.984   2.538   8.244  0.5544 -1.2694  1.1972
 8827SOL    HW237941   2.015   2.633   8.352 -0.7801  0.4208 -0.4788
 8828SOL     OW37942   2.950   1.025   8.354 -0.2070  0.0289 -0.1252
 8828SOL    HW137943   2.991   0.949   8.395 -0.4271 -1.1499 -2.0712
 8828SOL    HW237944   2.868   0.985   8.325 -0.5728 -0.3124  1.3907
 8829SOL     OW37945   0.362   0.877   1.995  0.2556 -0.1118 -0.0417
 8829SOL    HW137946   0.420   0.918   2.061 -1.1354  0.7015  0.6842
 8829SOL    HW237947   0.409   0.893   1.913 -0.8316  0.9539 -0.4581
 8830SOL     OW37948   0.464   0.352   9.954  0.3002  0.2559 -0.1883
 8830SOL    HW137949   0.415   0.420   9.909 -1.2384  1.0847  2.7840
 8830SOL    HW237950   0.547   0.380   9.916 -0.2897  0.6625 -1.1649
 8831SOL     OW37951   1.606   1.300   0.618  0.0104 -0.3229  0.5050
 8831SOL    HW137952   1.535   1.305   0.554  0.5136  3.2344  0.2062
 8831SOL    HW237953   1.662   1.229   0.586  1.4989  0.9593  0.2285
 8832SOL     OW37954   3.529   3.037   5.448  0.0201  0.0002  0.2530
 8832SOL    HW137955   3.459   2.975   5.424 -0.5924  0.7702  0.0595
 8832SOL    HW237956   3.496   3.063   5.534  0.4073 -0.6218  0.5927
 8833SOL     OW37957   1.468   4.228   9.813  0.6378  0.3940 -0.8695
 8833SOL    HW137958   1.531   4.224   9.741  1.3860 -0.7918 -0.1348
 8833SOL    HW237959   1.461   4.322   9.831 -1.8365  0.4708 -2.1720
 8834SOL     OW37960   0.717   1.355   5.226  0.2512 -0.2146  0.1819
 8834SOL    HW137961   0.749   1.318   5.144  1.1876 -0.0039  0.4539
 8834SOL    HW237962   0.743   1.447   5.221  0.8107 -0.5043 -2.0742
 8835SOL     OW37963   4.444   2.366  13.568 -0.1377  0.3688 -0.1362
 8835SOL    HW137964   4.371   2.354  13.507  0.5871 -0.3617 -0.8686
 8835SOL    HW237965   4.405   2.332  13.648  3.6489  0.2285  1.6493
 8836SOL     OW37966   0.342   3.700   4.432  0.6157 -0.4245  0.2568
 8836SOL    HW137967   0.360   3.618   4.387 -1.4768 -1.1790  0.7843
 8836SOL    HW237968   0.354   3.766   4.364 -0.2775 -0.7416 -0.2096
 8837SOL     OW37969   1.250   0.581  15.078  0.4386  0.2741 -0.1927
 8837SOL    HW137970   1.339   0.605  15.106  0.3958  0.5447 -0.2980
 8837SOL    HW237971   1.208   0.666  15.066 -0.6080 -0.2253 -0.0773
 8838SOL     OW37972   0.574   0.261   4.678 -0.3016  0.2738 -0.0834
 8838SOL    HW137973   0.626   0.205   4.620  1.2256  1.6433 -0.0552
 8838SOL    HW237974   0.491   0.260   4.631 -0.4577 -1.8646  0.2319
 8839SOL     OW37975   1.218   1.852  13.632 -0.3108  0.0226 -0.0005
 8839SOL    HW137976   1.283   1.800  13.583  0.2684  0.0683  0.7148
 8839SOL    HW237977   1.188   1.788  13.697 -1.1660  0.1173 -0.2991
 8840SOL     OW37978   4.114   1.717   3.432 -0.0513  0.5093 -0.6474
 8840SOL    HW137979   4.067   1.727   3.350 -2.5443  3.3563  1.1546
 8840SOL    HW237980   4.113   1.806   3.466 -0.3668  1.0677 -2.1294
 8841SOL     OW37981   2.018   1.300   6.228 -0.2039  0.2689  0.0894
 8841SOL    HW137982   2.037   1.332   6.140 -0.1467 -0.8537 -0.3097
 8841SOL    HW237983   2.061   1.214   6.220 -0.0075  0.3799 -0.0513
 8842SOL     OW37984   3.233   4.587   7.142  0.2687  0.1365  0.2832
 8842SOL    HW137985   3.266   4.677   7.138 -0.1123  0.1732 -2.1074
 8842SOL    HW237986   3.145   4.607   7.111  0.1916 -0.1345  0.3297
 8843SOL     OW37987   3.167   4.131   3.280 -0.1656  0.3993  0.6601
 8843SOL    HW137988   3.153   4.216   3.321 -0.1888  0.8305 -0.2555
 8843SOL    HW237989   3.234   4.157   3.217  1.4131 -1.0509  1.7534
 8844SOL     OW37990   1.066   2.076   8.384  0.7039 -0.4074  0.7127
 8844SOL    HW137991   1.081   1.982   8.378  2.6925 -0.0028 -0.6193
 8844SOL    HW237992   0.972   2.084   8.397  0.2684 -3.8532 -0.5316
 8845SOL     OW37993   2.927   0.315   7.481  0.2563  0.5483 -0.1461
 8845SOL    HW137994   2.898   0.382   7.544  1.8603  2.0948 -1.0436
 8845SOL    HW237995   2.947   0.239   7.536  1.3805 -0.3402 -1.7816
 8846SOL     OW37996   4.390   2.058   3.436 -0.1970  0.1726  0.7318
 8846SOL    HW137997   4.480   2.090   3.423  0.2469 -0.7109  1.6912
 8846SOL    HW237998   4.381   1.993   3.366 -0.0519  0.7379  0.1820
 8847SOL     OW37999   4.194   4.648  13.957  0.3804  0.3541  0.1730
 8847SOL    HW138000   4.275   4.682  13.995  0.6818 -1.6308  1.3413
 8847SOL    HW238001   4.137   4.725  13.963 -0.8367 -0.3149 -2.9204
 8848SOL     OW38002   2.919   2.825   5.826  0.2441  0.3830  0.3269
 8848SOL    HW138003   2.978   2.843   5.753 -1.4464 -0.7493 -1.3182
 8848SOL    HW238004   2.973   2.760   5.870  3.0314  2.8717  0.5757
 8849SOL     OW38005   4.653   0.317   2.207  0.3345 -0.2254 -0.2714
 8849SOL    HW138006   4.699   0.237   2.232 -0.0943  0.0737  1.4856
 8849SOL    HW238007   4.600   0.332   2.286  0.4792 -1.0327 -0.0180
 8850SOL     OW38008   2.006   2.277   0.857 -0.3073  0.8135  0.1860
 8850SOL    HW138009   1.933   2.275   0.919  0.8717 -0.0880  1.5404
 8850SOL    HW238010   2.077   2.278   0.922  0.5980 -0.6142 -0.7927
 8851SOL     OW38011   4.547   1.313   2.327  0.4736 -0.3537  0.6549
 8851SOL    HW138012   4.477   1.249   2.341  1.7496 -2.1210 -1.0337
 8851SOL    HW238013   4.505   1.382   2.276  2.2351 -0.7385 -1.3071
 8852SOL     OW38014   3.624   4.289   2.140  0.3125 -0.4785  0.3265
 8852SOL    HW138015   3.717   4.269   2.138  0.9344  2.3932  0.5770
 8852SOL    HW238016   3.612   4.296   2.045 -0.0012  1.6259  0.5261
 8853SOL     OW38017   1.852   3.195   0.556  0.7155  0.4797  0.4393
 8853SOL    HW138018   1.893   3.281   0.547  2.0796 -0.4269 -2.1093
 8853SOL    HW238019   1.924   3.150   0.600  0.7763  0.5431  0.4042
 8854SOL     OW38020   0.338   2.478   4.196 -0.1682 -0.0723 -0.9869
 8854SOL    HW138021   0.327   2.403   4.136 -0.0310 -0.5211 -0.4476
 8854SOL    HW238022   0.352   2.550   4.135 -0.7802  0.5898 -0.3432
 8855SOL     OW38023   0.282   0.003   7.914  0.2627 -0.1117 -0.0315
 8855SOL    HW138024   0.261   4.641   7.947  2.2428 -0.5074  0.1357
 8855SOL    HW238025   0.207   0.063   7.914  2.0341  2.0724 -1.2288
 8856SOL     OW38026   1.979   0.205   2.019  0.5355  0.1064  0.1213
 8856SOL    HW138027   2.031   0.196   1.939  0.1120  0.8650 -0.2341
 8856SOL    HW238028   1.895   0.234   1.984  0.1683 -0.8400  0.2129
 8857SOL     OW38029   3.067   1.946  16.840 -0.5505  0.3459 -0.4148
 8857SOL    HW138030   3.159   1.965  16.824 -0.7678 -1.5487 -3.7574
 8857SOL    HW238031   3.026   2.015  16.789 -0.3153  1.3383  0.7523
 8858SOL     OW38032   4.234   3.748  11.131 -0.6223 -0.0960 -0.2965
 8858SOL    HW138033   4.172   3.678  11.112 -0.8495  0.8075 -2.8940
 8858SOL    HW238034   4.238   3.747  11.227 -1.7624 -1.4558 -0.2712
 8859SOL     OW38035   2.831   1.521   6.687 -0.2232 -0.1560  0.3182
 8859SOL    HW138036   2.919   1.487   6.674  0.4560  1.9939 -0.6720
 8859SOL    HW238037   2.787   1.446   6.727 -0.5333 -0.6993 -1.0529
 8860SOL     OW38038   3.345   3.421   7.908 -0.1967 -0.4131 -0.2877
 8860SOL    HW138039   3.392   3.501   7.929  0.8027 -0.8216 -0.9928
 8860SOL    HW238040   3.273   3.430   7.970  0.1604 -2.0489  0.3628
 8861SOL     OW38041   4.009   3.064   7.457 -0.2338 -0.5524  0.0236
 8861SOL    HW138042   3.999   3.122   7.381  1.3126  0.2711  0.4512
 8861SOL    HW238043   3.925   3.019   7.467 -0.9746  0.5945 -1.0446
 8862SOL     OW38044   0.113   4.601   6.251 -0.1624 -0.1777 -0.4568
 8862SOL    HW138045   0.110   4.506   6.248 -3.1484 -0.1071 -0.0027
 8862SOL    HW238046   0.095   4.605   6.345  0.5432 -2.7466 -0.2191
 8863SOL     OW38047   3.683   4.195  14.434 -0.6362  0.2294  0.0046
 8863SOL    HW138048   3.766   4.244  14.432 -0.7568  0.4443  0.1728
 8863SOL    HW238049   3.676   4.182  14.339 -1.1207 -1.7799  0.3335
 8864SOL     OW38050   3.602   1.009   4.378 -0.0317  0.2850 -0.1153
 8864SOL    HW138051   3.507   0.999   4.380 -0.0479  0.4060 -0.3035
 8864SOL    HW238052   3.639   0.936   4.427  1.6494  0.8587 -0.5258
 8865SOL     OW38053   0.655   2.744  17.239 -0.2371  0.2577  0.2863
 8865SOL    HW138054   0.733   2.702  17.275  1.2931  1.9363 -1.0941
 8865SOL    HW238055   0.608   2.766  17.320  1.1275  0.7799  0.9406
 8866SOL     OW38056   2.786   2.534  12.279  0.0818  0.0794  0.0894
 8866SOL    HW138057   2.878   2.517  12.296  0.0417  0.1500  0.3775
 8866SOL    HW238058   2.753   2.445  12.288  1.0595 -0.2078  0.8304
 8867SOL     OW38059   3.612   0.193   6.901 -0.1729  0.0339  0.6440
 8867SOL    HW138060   3.583   0.138   6.974 -0.0928 -1.1884 -0.2526
 8867SOL    HW238061   3.564   0.273   6.921 -0.5303  0.1839 -0.8802
 8868SOL     OW38062   3.936   3.325   3.021  0.0387  0.1956  0.4466
 8868SOL    HW138063   3.917   3.237   3.055  1.0707 -0.0915  0.2787
 8868SOL    HW238064   4.020   3.293   2.988 -0.0190  2.5764 -2.0009
 8869SOL     OW38065   0.613   3.745  12.361 -0.0395 -0.7832  0.1374
 8869SOL    HW138066   0.699   3.786  12.372 -0.4376 -0.0521  0.4733
 8869SOL    HW238067   0.640   3.654  12.378 -1.0825 -1.2832 -0.9009
 8870SOL     OW38068   3.175   2.909   5.976  0.1017  0.1693  0.6216
 8870SOL    HW138069   3.178   2.822   5.937 -0.0880 -0.2786  1.5987
 8870SOL    HW238070   3.232   2.905   6.053  2.5301 -2.1035 -1.2855
 8871SOL     OW38071   4.353   1.621   0.915  0.3517  0.2178  0.4565
 8871SOL    HW138072   4.346   1.558   0.987  0.7970  0.1520  0.4411
 8871SOL    HW238073   4.420   1.687   0.932  0.8333  0.0693 -0.8639
 8872SOL     OW38074   2.018   2.765   0.103 -0.6481  0.2106 -0.0111
 8872SOL    HW138075   2.083   2.832   0.125  0.2308 -0.4166 -0.7238
 8872SOL    HW238076   1.978   2.759   0.190 -0.1472 -0.0739  0.1967
 8873SOL     OW38077   1.860   3.465  14.400 -0.3322  0.1473 -0.3534
 8873SOL    HW138078   1.928   3.466  14.467 -0.0038 -2.8941 -0.6330
 8873SOL    HW238079   1.911   3.461  14.319 -0.7435 -0.0661 -0.6059
 8874SOL     OW38080   1.551   2.273  16.426 -0.0173  0.2356  0.0149
 8874SOL    HW138081   1.466   2.237  16.453 -0.2127  0.3319 -0.4680
 8874SOL    HW238082   1.609   2.218  16.478  0.7586  1.2576  0.2056
 8875SOL     OW38083   0.138   2.902   3.687  0.1331 -0.4079 -0.8910
 8875SOL    HW138084   0.051   2.942   3.687 -0.3494 -1.4565 -0.9818
 8875SOL    HW238085   0.188   2.972   3.728  0.6576 -1.2699 -0.0731
 8876SOL     OW38086   1.343   1.563   6.715  0.3916 -0.0459 -0.6970
 8876SOL    HW138087   1.327   1.650   6.752 -0.6455  0.9213 -3.4118
 8876SOL    HW238088   1.300   1.514   6.785 -0.1779 -1.0412 -1.7509
 8877SOL     OW38089   2.762   1.520   5.252 -0.5369  0.6115 -0.2089
 8877SOL    HW138090   2.729   1.454   5.312 -0.4184  0.0001 -0.8220
 8877SOL    HW238091   2.694   1.527   5.186  0.0692 -0.0322 -0.8919
 8878SOL     OW38092   1.793   0.535   6.327 -0.3061 -0.3127 -0.2394
 8878SOL    HW138093   1.791   0.452   6.374 -1.3623 -0.4821 -0.5823
 8878SOL    HW238094   1.849   0.598   6.372  0.5409 -1.1481 -0.1397
 8879SOL     OW38095   0.270   0.036   6.086 -0.1383  0.5442 -0.3944
 8879SOL    HW138096   0.279   4.722   5.999 -0.0317  1.2850 -0.7292
 8879SOL    HW238097   0.204   4.704   6.124  0.2285 -0.6568 -1.6039
 8880SOL     OW38098   2.264   2.537  10.710  0.0200  0.3840 -0.4329
 8880SOL    HW138099   2.246   2.624  10.676  1.9534  0.8122 -0.3158
 8880SOL    HW238100   2.297   2.566  10.795 -0.2314 -0.1589 -0.1486
 8881SOL     OW38101   2.775   1.406   7.449  0.0784  0.2273 -0.4743
 8881SOL    HW138102   2.684   1.437   7.448 -0.3785 -1.0646  0.5604
 8881SOL    HW238103   2.804   1.452   7.370 -0.8675  0.0934 -0.9002
 8882SOL     OW38104   3.582   0.951   3.835 -0.0017  0.0777  0.2844
 8882SOL    HW138105   3.607   0.963   3.927  1.5064 -1.4361  0.0633
 8882SOL    HW238106   3.642   1.007   3.787 -0.6719 -0.6017 -1.3240
 8883SOL     OW38107   1.847   4.675   3.405 -0.2478 -0.0414 -0.6455
 8883SOL    HW138108   1.847   4.581   3.391  0.0482 -0.1377  0.0321
 8883SOL    HW238109   1.795   4.668   3.485 -0.4214  0.0612 -0.7469
 8884SOL     OW38110   1.410   4.064  16.417  0.3300  0.3793 -0.6487
 8884SOL    HW138111   1.458   3.985  16.441  0.1253  0.6314  0.5721
 8884SOL    HW238112   1.353   4.040  16.344  0.3960 -2.7721  0.3525
 8885SOL     OW38113   3.207   0.055   8.118  0.1446  0.1088  0.0466
 8885SOL    HW138114   3.161   0.133   8.147 -0.0637  0.2078 -0.5393
 8885SOL    HW238115   3.278   0.054   8.182  1.2074  0.3650 -1.1287
 8886SOL     OW38116   3.558   0.687   1.087 -0.2829  0.2712  0.4106
 8886SOL    HW138117   3.520   0.612   1.042  0.0646  0.4803 -0.2351
 8886SOL    HW238118   3.632   0.655   1.139  0.0408 -1.6026 -1.2370
 8887SOL     OW38119   0.304   2.788  13.146  0.9125  0.0451 -0.3067
 8887SOL    HW138120   0.374   2.837  13.189  2.2278  0.3161 -2.7789
 8887SOL    HW238121   0.232   2.796  13.209 -0.1227 -0.2816 -1.4551
 8888SOL     OW38122   1.269   3.154  10.460 -0.1465  0.3428 -0.2374
 8888SOL    HW138123   1.250   3.085  10.524  0.8765 -1.3488 -1.7505
 8888SOL    HW238124   1.363   3.137  10.452  0.0375 -0.3110  3.2283
 8889SOL     OW38125   1.553   2.451   5.059  0.8832 -0.2766 -0.3504
 8889SOL    HW138126   1.613   2.422   5.128 -0.1087 -0.3957  0.4672
 8889SOL    HW238127   1.539   2.366   5.018  0.7224 -0.3226 -0.2018
 8890SOL     OW38128   4.619   0.429   1.811  0.1388  0.1455 -0.2502
 8890SOL    HW138129   4.597   0.366   1.743 -2.4135  1.5037 -0.6494
 8890SOL    HW238130   4.699   0.388   1.845  0.4505 -0.5704 -1.8482
 8891SOL     OW38131   1.299   0.010  14.581 -0.0115  0.2292 -0.4483
 8891SOL    HW138132   1.310   4.644  14.560  2.4086  0.4844 -0.3100
 8891SOL    HW238133   1.392   0.027  14.592  0.2938 -0.9763 -1.1851
 8892SOL     OW38134   0.190   3.999   4.599  0.3116 -0.8120  0.0646
 8892SOL    HW138135   0.120   3.943   4.567 -0.2145 -0.7837  1.1927
 8892SOL    HW238136   0.190   3.975   4.692  0.6467  0.0497  0.2844
 8893SOL     OW38137   3.489   3.993   8.759  0.3169  0.2408  0.0487
 8893SOL    HW138138   3.537   4.017   8.680  1.0297  0.1626  0.4556
 8893SOL    HW238139   3.508   4.073   8.809 -0.5044  0.7873 -0.5189
 8894SOL     OW38140   0.194   0.698   3.546  0.4565  0.3424  0.0179
 8894SOL    HW138141   0.216   0.699   3.453  1.9599  1.9434  0.3883
 8894SOL    HW238142   0.254   0.629   3.576  0.4623  1.2581  2.1316
 8895SOL     OW38143   3.877   2.193   2.199 -0.3686 -0.4094 -0.3099
 8895SOL    HW138144   3.912   2.113   2.239  0.7861 -0.5108 -1.5245
 8895SOL    HW238145   3.839   2.149   2.123 -2.6179  1.1272 -0.0811
 8896SOL     OW38146   0.849   2.408  12.900 -0.0966 -0.2375 -0.2600
 8896SOL    HW138147   0.767   2.432  12.857 -0.5605  0.0519  0.7854
 8896SOL    HW238148   0.866   2.330  12.846  0.1877  0.7305 -1.5570
 8897SOL     OW38149   3.294   3.980   2.988 -0.8083  0.4062 -0.4361
 8897SOL    HW138150   3.199   3.971   3.000 -0.0694 -1.0312  4.1346
 8897SOL    HW238151   3.310   4.069   3.021  0.1145  0.1521 -0.2246
 8898SOL     OW38152   4.477   3.984  16.774 -0.6166  0.2994 -0.1665
 8898SOL    HW138153   4.414   4.046  16.738 -1.9213  0.9893  3.3173
 8898SOL    HW238154   4.497   3.925  16.702 -1.1329 -0.6871  0.4955
 8899SOL     OW38155   1.731   3.150  16.255 -0.3327  0.0488  0.0969
 8899SOL    HW138156   1.672   3.188  16.320 -2.5212 -1.3917 -1.0209
 8899SOL    HW238157   1.714   3.202  16.176 -1.5376 -0.1414  0.2268
 8900SOL     OW38158   3.698   2.688   3.979 -0.1164 -0.0244 -0.4305
 8900SOL    HW138159   3.749   2.612   3.951 -0.7256 -0.0236 -1.5500
 8900SOL    HW238160   3.616   2.647   4.008 -0.6342  0.0924 -1.7229
 8901SOL     OW38161   0.030   2.253   6.398  0.2878 -0.2549  0.4086
 8901SOL    HW138162   0.020   2.158   6.384  0.2477 -0.0227 -1.0642
 8901SOL    HW238163   0.059   2.256   6.489 -0.9137 -1.0640  0.8203
 8902SOL     OW38164   0.176   0.780   8.997  0.0831 -0.7791 -0.4851
 8902SOL    HW138165   0.198   0.825   9.079 -2.5672  1.1697 -0.8075
 8902SOL    HW238166   0.088   0.813   8.974  0.3439  0.1095 -0.2052
 8903SOL     OW38167   1.545   2.477   0.946 -0.1434 -0.3055 -0.1671
 8903SOL    HW138168   1.497   2.414   0.892  1.3934  0.4069 -2.3673
 8903SOL    HW238169   1.480   2.501   1.013  0.2336 -1.1820  0.5102
 8904SOL     OW38170   3.847   3.823  13.349 -0.1200  0.1792 -0.0562
 8904SOL    HW138171   3.845   3.916  13.328 -0.5374  0.4188  1.0855
 8904SOL    HW238172   3.922   3.804  13.292 -0.7847 -1.0600 -0.5184
 8905SOL     OW38173   0.198   3.503  10.280  0.2050 -0.0009  0.1638
 8905SOL    HW138174   0.164   3.588  10.253  2.6599  0.3491 -1.7150
 8905SOL    HW238175   0.160   3.498  10.368  0.1807 -0.4967  0.1244
 8906SOL     OW38176   0.493   0.198   0.160  0.0317  0.0372  0.6418
 8906SOL    HW138177   0.553   0.134   0.197  0.1228 -0.8630 -1.0591
 8906SOL    HW238178   0.441   0.155   0.092  2.7643 -1.5631 -0.4275
 8907SOL     OW38179   2.611   2.736  15.950 -0.0260  0.2569  0.4910
 8907SOL    HW138180   2.598   2.830  15.937 -0.0991  0.1558 -0.1731
 8907SOL    HW238181   2.705   2.728  15.933  0.1149 -0.1503  1.4305
 8908SOL     OW38182   4.012   3.045   6.576  0.3648 -0.2982  0.0033
 8908SOL    HW138183   4.076   3.102   6.533  0.8092 -1.5498 -1.0080
 8908SOL    HW238184   3.926   3.074   6.547 -0.7881 -1.7187  2.0364
 8909SOL     OW38185   4.665   2.363   7.332  0.1935  0.0231  0.6599
 8909SOL    HW138186   4.705   2.359   7.245  0.8022 -1.1628  0.9867
 8909SOL    HW238187   4.695   2.286   7.381  2.7353  0.0903 -0.7997
 8910SOL     OW38188   2.946   0.577   4.850  0.5507 -0.3250 -0.0650
 8910SOL    HW138189   2.994   0.497   4.828 -2.2304 -1.7846 -0.7955
 8910SOL    HW238190   3.022   0.633   4.865 -0.0734  0.3827  0.4195
 8911SOL     OW38191   0.087   4.100   8.032  0.1081  0.2398 -0.3364
 8911SOL    HW138192   0.054   4.111   7.943 -0.4151 -0.2553 -0.2084
 8911SOL    HW238193   0.036   4.027   8.067  1.0734  0.1568  0.8882
 8912SOL     OW38194   2.842   3.983   7.005 -0.0893 -0.1299  0.2227
 8912SOL    HW138195   2.817   4.025   7.087  2.2037 -1.2503  1.5144
 8912SOL    HW238196   2.919   3.932   7.032 -0.0914  0.9495  2.3251
 8913SOL     OW38197   3.762   1.437   5.723  0.2455 -0.3703  0.2179
 8913SOL    HW138198   3.687   1.490   5.751  1.6982  0.9862  1.5822
 8913SOL    HW238199   3.772   1.400   5.810  1.1374 -1.1058 -0.1969
 8914SOL     OW38200   0.802   4.027   1.281 -0.4343 -0.0317 -0.1712
 8914SOL    HW138201   0.826   3.935   1.290  0.5754  0.3087  0.6508
 8914SOL    HW238202   0.828   4.049   1.191 -0.0102 -0.1378 -0.0737
 8915SOL     OW38203   2.830   0.843  12.465 -0.5135  0.3248 -0.0337
 8915SOL    HW138204   2.920   0.843  12.496  0.2344  1.9350 -2.2303
 8915SOL    HW238205   2.839   0.895  12.385  1.2908  2.1394  1.3586
 8916SOL     OW38206   0.034   1.483   6.882 -0.1538  0.0388 -0.1272
 8916SOL    HW138207   4.698   1.540   6.928 -1.7070 -0.4982 -1.5605
 8916SOL    HW238208   4.693   1.426   6.844 -0.4640  0.3566 -0.0548
 8917SOL     OW38209   0.656   1.721   4.892  0.2053  0.1044 -0.4306
 8917SOL    HW138210   0.714   1.751   4.963  0.9389 -0.7701 -0.6600
 8917SOL    HW238211   0.577   1.688   4.934  0.6688  0.0445  0.4148
 8918SOL     OW38212   0.091   3.591   6.991  0.0191  0.5654 -0.2992
 8918SOL    HW138213   0.063   3.672   6.950  4.0225  1.4355 -1.2574
 8918SOL    HW238214   0.166   3.610   7.046  0.1813 -1.6298  0.2437
 8919SOL     OW38215   3.519   2.544   1.511  0.0883  0.0313 -0.5523
 8919SOL    HW138216   3.601   2.530   1.463 -0.1500 -0.6765 -0.7454
 8919SOL    HW238217   3.513   2.637   1.531  0.2986  0.2621 -1.5395
 8920SOL     OW38218   0.957   0.386   2.989 -0.4184  0.3191  0.5009
 8920SOL    HW138219   0.905   0.354   3.063  0.3212 -1.5587  0.2031
 8920SOL    HW238220   0.911   0.468   2.968 -1.3455 -0.7079 -1.4099
 8921SOL     OW38221   4.048   1.233   5.294 -0.3300  0.3678  0.3799
 8921SOL    HW138222   3.978   1.290   5.262 -0.0142 -0.8977 -2.5260
 8921SOL    HW238223   4.050   1.170   5.222  3.2882  0.8689  0.0404
 8922SOL     OW38224   3.655   2.868   7.412 -0.3342 -1.1429  0.1698
 8922SOL    HW138225   3.690   2.869   7.502 -0.6592 -0.9390  0.2926
 8922SOL    HW238226   3.564   2.844   7.429 -0.0749 -0.7910  2.0741
 8923SOL     OW38227   2.259   1.738  16.182 -0.0566 -0.4098 -0.5444
 8923SOL    HW138228   2.256   1.648  16.216  0.0593 -0.1880  0.0423
 8923SOL    HW238229   2.190   1.729  16.115 -0.8304  4.3598 -0.3878
 8924SOL     OW38230   0.715   4.429  13.560  0.3028 -0.0118 -0.0905
 8924SOL    HW138231   0.755   4.404  13.476  2.3045 -1.8788  1.4459
 8924SOL    HW238232   0.720   4.524  13.551 -1.3626 -0.0537 -1.5075
 8925SOL     OW38233   1.298   1.696  10.910  0.0505 -0.1448  0.1621
 8925SOL    HW138234   1.294   1.684  11.004 -2.7272 -0.5546 -0.0196
 8925SOL    HW238235   1.309   1.603  10.891  0.5484  0.1129 -0.8020
 8926SOL     OW38236   0.973   0.845   8.145 -0.2268  0.3057 -0.0702
 8926SOL    HW138237   0.925   0.926   8.159  0.8639  1.1101 -1.0197
 8926SOL    HW238238   0.927   0.779   8.197 -2.7978  1.1786 -1.2739
 8927SOL     OW38239   0.603   3.073   3.794  0.0320  0.2784  0.0287
 8927SOL    HW138240   0.670   3.066   3.862 -0.0748 -1.8269 -0.0808
 8927SOL    HW238241   0.658   3.121   3.733 -0.9079 -1.4019 -2.1351
 8928SOL     OW38242   1.795   0.495   3.793 -0.3823  0.2420  0.3410
 8928SOL    HW138243   1.719   0.548   3.766 -1.5759 -0.5271  2.1873
 8928SOL    HW238244   1.804   0.503   3.888  2.2066  0.7711  0.0520
 8929SOL     OW38245   2.744   4.656   3.189  0.2356  0.1076  0.3473
 8929SOL    HW138246   2.756   0.010   3.241 -1.0463  1.6311 -1.7093
 8929SOL    HW238247   2.718   4.699   3.108  1.5742  1.2086  0.4795
 8930SOL     OW38248   1.713   1.614   6.254  0.3407 -0.2063 -0.0877
 8930SOL    HW138249   1.680   1.687   6.306  0.7067  0.0732 -0.2527
 8930SOL    HW238250   1.715   1.661   6.171  0.2165  1.0705  0.6405
 8931SOL     OW38251   3.092   1.360   2.174  0.0344 -0.2642  0.0758
 8931SOL    HW138252   3.149   1.437   2.174  0.7185 -0.7635  1.8744
 8931SOL    HW238253   3.081   1.351   2.079 -2.9965  1.4378  0.2634
 8932SOL     OW38254   1.218   3.207   5.163 -0.0408  0.3086 -0.0792
 8932SOL    HW138255   1.273   3.238   5.235 -0.5278  2.0486 -0.4508
 8932SOL    HW238256   1.137   3.184   5.208 -1.2572  1.9687 -1.4096
 8933SOL     OW38257   1.599   4.492   4.967 -0.4775  0.1421 -0.4618
 8933SOL    HW138258   1.653   4.430   4.919  0.2718  0.5554 -0.1604
 8933SOL    HW238259   1.664   4.503   5.037 -0.3572  0.0539 -0.5608
 8934SOL     OW38260   2.059   2.317   5.289  0.9854  0.0626  0.0236
 8934SOL    HW138261   2.078   2.223   5.290 -1.0137 -0.3443 -0.2655
 8934SOL    HW238262   2.140   2.341   5.335 -0.9301  0.1852  3.3603
 8935SOL     OW38263   2.894   2.137   5.143  0.0656 -0.4090 -0.5867
 8935SOL    HW138264   2.896   2.113   5.050 -1.4928  1.5738 -1.1409
 8935SOL    HW238265   2.800   2.154   5.153  0.4857  0.7384  1.4577
 8936SOL     OW38266   4.393   4.382  17.363  0.3223  0.0507 -0.1947
 8936SOL    HW138267   4.473   4.432  17.348 -0.5312  0.5083 -3.3353
 8936SOL    HW238268   4.425   4.295  17.388 -0.6861 -0.4870 -0.7795
 8937SOL     OW38269   2.682   1.295   3.610  0.7479 -0.1464  0.3818
 8937SOL    HW138270   2.731   1.304   3.528  0.6650 -0.1736  0.3280
 8937SOL    HW238271   2.592   1.269   3.588  0.8989 -0.6684  0.3775
 8938SOL     OW38272   1.447   3.473   2.040 -0.1835  0.4649 -0.3988
 8938SOL    HW138273   1.419   3.458   1.949 -3.1338 -1.7899  0.9094
 8938SOL    HW238274   1.447   3.568   2.053  1.5762  0.3846  0.1853
 8939SOL     OW38275   4.334   3.650   1.585  0.4830 -0.4860  0.2867
 8939SOL    HW138276   4.240   3.655   1.567  0.1727  0.3843  2.1903
 8939SOL    HW238277   4.354   3.567   1.541 -0.6146 -1.2175  1.1696
 8940SOL     OW38278   0.621   4.472   2.811 -0.2178 -0.5617  0.0856
 8940SOL    HW138279   0.642   4.380   2.798  0.2855 -0.2529 -1.3024
 8940SOL    HW238280   0.525   4.466   2.815 -0.2102 -0.9586 -0.3872
 8941SOL     OW38281   0.609   0.191   7.394 -0.3097 -0.2524 -0.8198
 8941SOL    HW138282   0.659   0.261   7.352 -1.1653  1.5315  1.1105
 8941SOL    HW238283   0.540   0.171   7.331  0.3786  3.5703 -2.7588
 8942SOL     OW38284   1.614   4.584   7.743 -0.1303  0.5883  0.0202
 8942SOL    HW138285   1.654   4.670   7.745  0.5972  0.2410  0.3894
 8942SOL    HW238286   1.525   4.619   7.746  0.2695  1.3828  3.6541
 8943SOL     OW38287   3.556   2.455   2.741 -0.2787 -0.1335 -0.1091
 8943SOL    HW138288   3.631   2.510   2.720 -1.6041  1.8089  0.2263
 8943SOL    HW238289   3.519   2.516   2.805  0.0338  0.0874 -0.1396
 8944SOL     OW38290   3.703   2.858   3.223  0.0657 -0.1567 -0.2343
 8944SOL    HW138291   3.750   2.825   3.300 -0.2075 -1.2192 -0.5278
 8944SOL    HW238292   3.712   2.953   3.229 -1.7856 -0.0420  0.8748
 8945SOL     OW38293   3.420   0.822   5.995 -0.1733  0.5743  0.0162
 8945SOL    HW138294   3.447   0.845   6.084 -1.9028 -0.7988  0.8889
 8945SOL    HW238295   3.403   0.908   5.956 -2.7710  0.3810  0.7916
 8946SOL     OW38296   0.665   0.266   7.024  0.1302  0.0252 -0.3347
 8946SOL    HW138297   0.689   0.245   6.933 -1.7946 -0.0502 -0.8375
 8946SOL    HW238298   0.571   0.245   7.018  0.6126 -1.4628 -2.8697
 8947SOL     OW38299   2.835   4.287   5.054 -0.2223 -0.4134 -0.3428
 8947SOL    HW138300   2.825   4.193   5.035 -1.4473 -0.7171  1.8351
 8947SOL    HW238301   2.903   4.319   4.995  0.2514 -0.5004  0.1510
 8948SOL     OW38302   3.320   1.388   7.600  0.6003  0.7488  0.0517
 8948SOL    HW138303   3.258   1.460   7.611 -0.8451 -0.1494 -2.1767
 8948SOL    HW238304   3.283   1.320   7.657 -1.9501  1.3936 -0.8241
 8949SOL     OW38305   1.184   1.649   0.154 -0.2646  0.7138  0.3531
 8949SOL    HW138306   1.232   1.586   0.100  1.4457 -0.5674  3.3523
 8949SOL    HW238307   1.228   1.641   0.239  0.8742 -0.4925 -0.3448
 8950SOL     OW38308   2.674   4.237   5.937  0.8785  0.3802  0.0833
 8950SOL    HW138309   2.659   4.332   5.932 -1.5177 -0.0415 -0.6510
 8950SOL    HW238310   2.587   4.199   5.947  0.5920  1.4949  1.9082
 8951SOL     OW38311   1.134   3.125  17.369  0.5119 -0.3134  0.0118
 8951SOL    HW138312   1.077   3.184  17.418  0.9851 -0.1820  0.4064
 8951SOL    HW238313   1.156   3.175  17.290  1.4968  1.0860  1.1586
 8952SOL     OW38314   4.713   3.171   7.879  0.0959 -0.4753  0.4133
 8952SOL    HW138315   0.027   3.122   7.807  1.3952  2.7919 -1.1094
 8952SOL    HW238316   4.635   3.117   7.886  1.2130 -1.6617  3.4926
 8953SOL     OW38317   1.601   4.580   5.980  0.7298  0.4363 -0.5690
 8953SOL    HW138318   1.579   4.651   5.920 -1.0840  1.9514  1.8527
 8953SOL    HW238319   1.520   4.538   6.009  0.0878  1.5131 -0.7735
 8954SOL     OW38320   0.084   4.067   3.332  0.2268 -0.4847 -0.2076
 8954SOL    HW138321   0.121   4.104   3.412  0.7406  0.3846 -0.8537
 8954SOL    HW238322   0.084   3.974   3.352  1.1835 -0.5609 -0.5622
 8955SOL     OW38323   0.783   4.177   3.142 -0.0434  0.2469  0.2315
 8955SOL    HW138324   0.717   4.238   3.177  0.3756  0.4712  0.6161
 8955SOL    HW238325   0.865   4.225   3.148  0.3922 -0.5845  0.8227
 8956SOL     OW38326   1.154   3.401   3.380 -0.5056 -0.2952  0.4696
 8956SOL    HW138327   1.073   3.451   3.395 -0.0415  0.0102  1.9304
 8956SOL    HW238328   1.194   3.458   3.313 -0.5834  0.6874  1.2540
 8957SOL     OW38329   2.084   3.993   2.747  0.2369  0.5806  0.3234
 8957SOL    HW138330   2.017   4.029   2.689  1.4208  1.0355 -0.7612
 8957SOL    HW238331   2.044   4.006   2.833 -1.6233  0.7214 -0.5707
 8958SOL     OW38332   3.561   2.574  12.050  0.2249 -0.0447 -0.1474
 8958SOL    HW138333   3.519   2.519  12.115  2.1712 -0.0500  1.1062
 8958SOL    HW238334   3.651   2.577  12.081  0.9372  2.6578 -2.4637
 8959SOL     OW38335   4.632   3.810   0.470  0.4309  0.7620  0.5007
 8959SOL    HW138336   4.619   3.796   0.376  0.7149 -3.2838  1.0607
 8959SOL    HW238337   4.592   3.896   0.480  0.5080  1.0093 -1.3147
 8960SOL     OW38338   0.515   3.090   6.337  0.3297 -0.2701  0.2665
 8960SOL    HW138339   0.542   3.007   6.298 -0.7240 -0.4162 -0.1354
 8960SOL    HW238340   0.422   3.071   6.349  0.4564 -2.2544 -2.1455
 8961SOL     OW38341   3.959   0.753   6.543 -0.0729  0.8260 -0.8022
 8961SOL    HW138342   3.973   0.778   6.635 -0.9087 -1.1880 -0.1264
 8961SOL    HW238343   4.027   0.686   6.535 -3.0352 -2.3863  0.9383
 8962SOL     OW38344   3.817   1.793  12.656  0.0420 -0.9576  0.1735
 8962SOL    HW138345   3.841   1.702  12.674 -1.0808 -0.6183  3.2212
 8962SOL    HW238346   3.780   1.789  12.568  0.7429  1.1502 -0.2086
 8963SOL     OW38347   3.719   3.462   3.414 -0.1428  0.8425  0.4078
 8963SOL    HW138348   3.689   3.383   3.370  1.5819  0.5481 -0.2120
 8963SOL    HW238349   3.809   3.459   3.383  0.5534  1.2860  2.3937
 8964SOL     OW38350   1.664   1.746   3.930  0.5579  0.2227 -0.1303
 8964SOL    HW138351   1.599   1.690   3.973 -0.7872  2.5923  0.8973
 8964SOL    HW238352   1.739   1.687   3.944  0.3623  0.2625  1.0810
 8965SOL     OW38353   0.590   0.479   5.970  0.1252 -0.0762 -0.8182
 8965SOL    HW138354   0.679   0.444   5.979 -0.8940 -1.7234  2.8817
 8965SOL    HW238355   0.574   0.433   5.887 -0.2910 -2.2301  0.4387
 8966SOL     OW38356   2.498   1.366  11.115  0.1799  0.1641  0.0823
 8966SOL    HW138357   2.516   1.294  11.055 -0.5741 -0.6960  0.8980
 8966SOL    HW238358   2.445   1.317  11.178 -0.8117  0.7772 -0.2745
 8967SOL     OW38359   4.251   1.381  11.545  0.3318 -0.0705  0.0306
 8967SOL    HW138360   4.214   1.418  11.626  0.0997 -1.2855  0.4759
 8967SOL    HW238361   4.211   1.439  11.481 -1.9209 -0.7842  0.7826
 8968SOL     OW38362   0.513   0.781   4.254  0.0080  0.1582  0.3919
 8968SOL    HW138363   0.581   0.796   4.188  1.1148 -1.8092  1.0701
 8968SOL    HW238364   0.435   0.794   4.200 -0.5309 -2.8015  0.4222
 8969SOL     OW38365   1.843   2.913  16.324  0.0791  0.1213 -0.2660
 8969SOL    HW138366   1.788   2.989  16.308 -0.6384  0.8375  5.6472
 8969SOL    HW238367   1.829   2.869  16.240 -2.1009 -0.9940  0.6773
 8970SOL     OW38368   3.091   3.397   8.068 -0.2486 -0.2822 -0.8179
 8970SOL    HW138369   2.998   3.417   8.074 -0.2978 -0.7943  0.1283
 8970SOL    HW238370   3.116   3.438   8.151 -1.5685  3.1402 -2.1149
 8971SOL     OW38371   2.061   1.438   7.347  0.1989  0.1659  0.0951
 8971SOL    HW138372   2.032   1.526   7.368 -0.3016  0.2359 -0.9138
 8971SOL    HW238373   2.045   1.393   7.430 -1.5520  0.2567 -0.1941
 8972SOL     OW38374   2.784   3.673   1.969  0.1745  0.3875  0.2546
 8972SOL    HW138375   2.810   3.656   1.879 -0.2114 -1.0997  0.4119
 8972SOL    HW238376   2.870   3.676   2.012  1.7281 -1.1757 -2.7414
 8973SOL     OW38377   3.898   0.818   8.293 -0.2538 -0.3771 -0.1207
 8973SOL    HW138378   3.940   0.857   8.216  0.5262  1.5256  1.2574
 8973SOL    HW238379   3.970   0.816   8.357 -1.8988  1.0899  1.7624
 8974SOL     OW38380   1.207   2.983  10.654  0.1652  0.1976 -0.5776
 8974SOL    HW138381   1.260   2.909  10.682  0.0827  0.8051  1.1787
 8974SOL    HW238382   1.125   2.971  10.702 -0.0665  1.3763 -0.6844
 8975SOL     OW38383   0.519   0.101   9.655  0.0992 -0.2751  0.4541
 8975SOL    HW138384   0.427   0.123   9.645 -0.2721 -1.7514  0.7307
 8975SOL    HW238385   0.509   0.007   9.639  0.7588 -0.2331 -0.1820
 8976SOL     OW38386   2.671   2.880   9.818  0.1739 -1.1216  0.6911
 8976SOL    HW138387   2.643   2.887   9.726  0.2311  0.9621  0.8234
 8976SOL    HW238388   2.593   2.885   9.873 -0.4529  0.6459 -0.3500
 8977SOL     OW38389   3.071   0.549   9.097  0.6469  0.3053 -1.1398
 8977SOL    HW138390   3.114   0.603   9.163 -1.0336  0.2976 -0.0420
 8977SOL    HW238391   3.100   0.461   9.123  0.1899  0.1261 -1.2322
 8978SOL     OW38392   2.569   3.419   3.618 -0.2898  0.0086 -0.7842
 8978SOL    HW138393   2.499   3.443   3.558 -1.9002  1.1235  1.5239
 8978SOL    HW238394   2.618   3.502   3.612 -0.4218  0.2214  1.1398
 8979SOL     OW38395   0.120   2.712  17.575  0.5605 -0.3295  0.4840
 8979SOL    HW138396   0.079   2.784  17.623  0.1264  0.4758 -1.0855
 8979SOL    HW238397   0.208   2.748  17.562 -0.1050  1.3404  0.5189
 8980SOL     OW38398   1.112   2.244   1.438 -0.5464 -0.1901  0.3076
 8980SOL    HW138399   1.091   2.306   1.507  1.3810  0.4617  0.2990
 8980SOL    HW238400   1.200   2.221   1.467 -1.1313 -1.3823  1.1496
 8981SOL     OW38401   3.507   1.817   7.486 -0.0537  0.3261 -0.3082
 8981SOL    HW138402   3.583   1.869   7.460  1.3662  0.3088  3.7573
 8981SOL    HW238403   3.432   1.868   7.458 -0.5139  0.3112  0.9034
 8982SOL     OW38404   0.158   3.998   0.531 -0.2767 -0.1124  0.1121
 8982SOL    HW138405   0.250   3.978   0.514  0.0855 -0.8853  2.9225
 8982SOL    HW238406   0.116   3.919   0.497 -1.6304  2.0652 -3.2416
 8983SOL     OW38407   3.038   2.434   6.571 -0.4152  0.2758 -0.2160
 8983SOL    HW138408   3.073   2.478   6.648 -1.2800 -1.9735  1.4284
 8983SOL    HW238409   2.946   2.446   6.594 -0.2840 -2.0823  1.5448
 8984SOL     OW38410   1.543   2.894  15.749 -0.2046 -0.4531  0.7405
 8984SOL    HW138411   1.470   2.871  15.691 -1.4981  1.0153  1.7860
 8984SOL    HW238412   1.534   2.989  15.753  0.4436 -0.2420 -3.0065
 8985SOL     OW38413   3.750   1.600   7.758 -0.1609  0.2097  0.5515
 8985SOL    HW138414   3.656   1.615   7.749 -0.3966 -0.2320  2.2563
 8985SOL    HW238415   3.776   1.568   7.672  0.3413 -1.0097  1.1629
 8986SOL     OW38416   1.502   0.308   7.194  0.5273 -0.0288  0.1731
 8986SOL    HW138417   1.500   0.348   7.281 -1.1499 -1.1783  0.6423
 8986SOL    HW238418   1.418   0.341   7.162  1.4184  0.2913 -1.8461
 8987SOL     OW38419   1.225   2.921  17.500  0.4339  0.2944  0.2803
 8987SOL    HW138420   1.246   2.865  17.426  1.5353  1.2120 -0.1049
 8987SOL    HW238421   1.188   2.998  17.457 -1.5720 -0.5007  0.5593
 8988SOL     OW38422   1.195   2.267  13.523 -0.1110 -1.0601 -0.7573
 8988SOL    HW138423   1.249   2.204  13.570 -0.3842 -1.1216 -0.5262
 8988SOL    HW238424   1.116   2.214  13.512  0.8465 -2.7708  0.6694
 8989SOL     OW38425   1.011   3.886   9.375 -0.4797  0.0174  0.3762
 8989SOL    HW138426   1.040   3.890   9.466 -0.6645 -1.8182  0.5080
 8989SOL    HW238427   1.038   3.795   9.363  2.3574  0.8782  0.1659
 8990SOL     OW38428   3.144   2.556   6.789 -0.0308  0.1154 -0.1428
 8990SOL    HW138429   3.114   2.642   6.760  1.0019  0.1796 -1.0374
 8990SOL    HW238430   3.155   2.567   6.884  0.5853 -0.7634 -0.1163
 8991SOL     OW38431   3.276   0.285   7.924  0.1099 -0.2038  0.1782
 8991SOL    HW138432   3.255   0.309   8.014 -0.1111 -1.5650  0.4940
 8991SOL    HW238433   3.364   0.249   7.938 -0.0934 -1.0209 -0.6097
 8992SOL     OW38434   2.473   3.530   1.076  0.9247  0.0816  0.3357
 8992SOL    HW138435   2.422   3.611   1.076  0.0077 -0.4980  0.1896
 8992SOL    HW238436   2.410   3.459   1.071 -0.1880  1.1310 -0.4433
 8993SOL     OW38437   3.683   4.500   3.846  0.1071  0.3481  0.1436
 8993SOL    HW138438   3.681   4.507   3.942 -0.9793  3.0918 -0.0543
 8993SOL    HW238439   3.619   4.430   3.833 -0.7812  1.0594  0.6997
 8994SOL     OW38440   3.196   2.397   7.542 -0.1077 -0.0215 -0.2989
 8994SOL    HW138441   3.197   2.469   7.479  0.4196 -1.6258 -2.1245
 8994SOL    HW238442   3.182   2.442   7.626  2.8845  0.1669  0.1117
 8995SOL     OW38443   0.289   0.423   3.814 -0.4233 -0.2798 -0.5993
 8995SOL    HW138444   0.350   0.365   3.859  0.9143  1.2007 -0.5227
 8995SOL    HW238445   0.211   0.370   3.833 -0.4562 -0.1615 -0.4037
 8996SOL     OW38446   3.064   2.681   2.973  0.1159 -0.2837 -0.2724
 8996SOL    HW138447   3.139   2.737   2.955 -0.3074 -0.0384 -1.2524
 8996SOL    HW238448   3.111   2.600   2.953  0.4132 -0.1472 -0.1254
 8997SOL     OW38449   4.686   1.117   5.346 -0.0170  0.0143  0.1858
 8997SOL    HW138450   4.665   1.138   5.437  0.1906 -1.3357  0.5435
 8997SOL    HW238451   0.039   1.165   5.324 -0.7917  0.3476 -1.8873
 8998SOL     OW38452   3.443   2.314   3.668  0.0816 -0.0037 -0.2293
 8998SOL    HW138453   3.427   2.230   3.626 -2.3865  0.2670  0.1883
 8998SOL    HW238454   3.353   2.327   3.698  0.2748  0.7710  0.0314
 8999SOL     OW38455   1.343   0.950   2.996 -0.3938 -0.3262 -0.4556
 8999SOL    HW138456   1.277   0.933   3.063  1.6752 -1.8853  1.1640
 8999SOL    HW238457   1.395   0.870   2.990  1.2197  0.7201 -0.5298
 9000SOL     OW38458   3.031   4.274   1.609  0.5240  0.4217 -0.4331
 9000SOL    HW138459   2.936   4.263   1.609  0.8190 -2.1588  2.7541
 9000SOL    HW238460   3.056   4.193   1.654  2.0911 -0.1805 -2.4122
 9001SOL     OW38461   4.660   3.182   0.989  0.5802  0.1935 -0.1509
 9001SOL    HW138462   4.628   3.264   0.953  0.6845 -0.1884 -1.1218
 9001SOL    HW238463   4.706   3.154   0.910  0.0731  0.0488 -0.3954
 9002SOL     OW38464   0.521   3.734   5.932  0.4952  0.3829  0.0806
 9002SOL    HW138465   0.493   3.643   5.923 -0.8338  0.7800  0.1003
 9002SOL    HW238466   0.441   3.777   5.964  0.9253  1.1050  0.2017
 9003SOL     OW38467   1.698   1.200   4.985 -0.0456  0.4058 -0.1214
 9003SOL    HW138468   1.756   1.126   5.002 -0.1779 -0.4027 -3.1891
 9003SOL    HW238469   1.705   1.200   4.889  1.0648  0.3876 -0.0414
 9004SOL     OW38470   4.597   2.475   2.175 -0.2336  0.6209  0.1315
 9004SOL    HW138471   4.621   2.508   2.089 -1.8987 -0.9026 -0.9098
 9004SOL    HW238472   4.516   2.426   2.161 -1.0161  1.8881  0.1133
 9005SOL     OW38473   3.745   2.970   5.322 -0.3827 -0.1202  0.1913
 9005SOL    HW138474   3.667   3.006   5.363  1.0096  1.2335  1.6617
 9005SOL    HW238475   3.706   2.968   5.235 -1.9384  0.5472  0.8799
 9006SOL     OW38476   4.413   0.709   1.157 -0.4771  0.2017 -0.8123
 9006SOL    HW138477   4.334   0.655   1.165 -1.3533  1.6871  0.6236
 9006SOL    HW238478   4.394   0.797   1.190 -0.2875 -0.9412  2.2953
 9007SOL     OW38479   3.257   4.452   2.357  0.2535 -0.3551  0.0132
 9007SOL    HW138480   3.324   4.500   2.406 -0.2248  2.2233 -1.9078
 9007SOL    HW238481   3.263   4.364   2.396 -1.9875  0.4409  2.1303
 9008SOL     OW38482   2.436   4.107   6.160 -0.0965 -0.2982 -0.2319
 9008SOL    HW138483   2.384   4.058   6.223 -0.2522  0.5369  0.2904
 9008SOL    HW238484   2.368   4.157   6.113 -0.2730 -0.3091  0.0141
 9009SOL     OW38485   0.699   0.035   9.871  0.5665 -0.8530  0.5631
 9009SOL    HW138486   0.640   0.084   9.814 -0.4008 -0.6108  1.7612
 9009SOL    HW238487   0.729   4.685   9.822 -0.6189 -1.4692  0.8156
 9010SOL     OW38488   4.206   1.251   7.000  0.4254 -0.0131  0.3859
 9010SOL    HW138489   4.242   1.176   7.048  1.2886  0.5103  0.5515
 9010SOL    HW238490   4.119   1.213   6.984 -0.1853  1.4904  0.1825
 9011SOL     OW38491   0.731   4.160   6.455 -0.2983 -0.4677 -0.1348
 9011SOL    HW138492   0.790   4.105   6.507 -0.6857  0.3265  1.1415
 9011SOL    HW238493   0.791   4.214   6.403 -1.1077  2.5875  2.1369
 9012SOL     OW38494   4.271   3.567   5.410 -0.3066 -0.3902 -0.0065
 9012SOL    HW138495   4.362   3.591   5.423 -0.5784  1.2617 -1.2395
 9012SOL    HW238496   4.285   3.473   5.424 -0.2937 -0.1232  1.7550
 9013SOL     OW38497   1.484   0.408   6.905  0.1648  0.0738 -0.0409
 9013SOL    HW138498   1.561   0.357   6.931  0.0706  0.2719  0.6156
 9013SOL    HW238499   1.445   0.336   6.854  1.5701 -0.4871 -0.3314
 9014SOL     OW38500   3.565   2.782   4.848 -0.2478 -0.1439 -0.2144
 9014SOL    HW138501   3.472   2.771   4.831  0.0119 -0.6540 -1.2562
 9014SOL    HW238502   3.600   2.795   4.760  1.6792  0.2876  0.6112
 9015SOL     OW38503   1.973   2.805   4.209  0.5398 -0.2789 -0.2514
 9015SOL    HW138504   1.944   2.793   4.299  2.2491  0.5279  0.4167
 9015SOL    HW238505   2.053   2.857   4.221 -0.5705  0.3958  4.3046
 9016SOL     OW38506   4.157   3.988   1.951 -0.3629  0.0574  0.0019
 9016SOL    HW138507   4.156   3.892   1.961 -0.2721 -0.2088 -2.5748
 9016SOL    HW238508   4.101   3.992   1.873 -0.9086 -1.9108  0.2936
 9017SOL     OW38509   3.125   3.394   2.835  0.1347 -0.3258  0.1405
 9017SOL    HW138510   3.159   3.313   2.797  1.1313  1.1600 -2.1671
 9017SOL    HW238511   3.200   3.449   2.856  0.3613 -1.3994  2.1422
 9018SOL     OW38512   1.106   4.081   2.058  0.0284  0.8868  0.2231
 9018SOL    HW138513   1.182   4.114   2.010  0.8856 -0.4024  0.6891
 9018SOL    HW238514   1.105   4.153   2.120 -0.3455  0.3537  0.8342
 9019SOL     OW38515   1.798   3.173  15.066  0.3469  0.5475  0.2042
 9019SOL    HW138516   1.790   3.186  14.972  1.6609 -0.6446 -0.0816
 9019SOL    HW238517   1.873   3.113  15.068 -0.4490 -0.4956 -1.5322
 9020SOL     OW38518   0.239   2.560  10.143 -0.4390  0.4965  0.1355
 9020SOL    HW138519   0.167   2.498  10.129 -0.5656  0.2940  1.6861
 9020SOL    HW238520   0.204   2.636  10.098  2.9655  0.9022 -1.8359
 9021SOL     OW38521   3.304   1.310   7.085  0.2108 -0.5696  0.4158
 9021SOL    HW138522   3.258   1.342   7.008  1.3944  1.2633  0.4544
 9021SOL    HW238523   3.356   1.386   7.112  2.2463 -1.1178 -1.9344
 9022SOL     OW38524   3.368   1.540   4.528  0.2841 -0.1092 -0.5138
 9022SOL    HW138525   3.399   1.508   4.612  1.0753  1.6973 -0.1150
 9022SOL    HW238526   3.290   1.485   4.514 -0.8808  1.5344 -0.5338
 9023SOL     OW38527   4.659   0.216  12.119  0.1501  0.8501  0.5640
 9023SOL    HW138528   4.611   0.197  12.199  0.4192  2.8948  1.2312
 9023SOL    HW238529   4.705   0.293  12.153  1.6703  0.4065 -0.4781
 9024SOL     OW38530   0.509   2.801   6.812  0.9244 -0.0413  0.3268
 9024SOL    HW138531   0.514   2.893   6.785 -1.5129  0.6927  2.3368
 9024SOL    HW238532   0.595   2.762   6.798  1.7613  2.3458 -1.2439
 9025SOL     OW38533   0.178   2.023   1.672 -0.4459  0.4823  0.1204
 9025SOL    HW138534   0.113   2.076   1.625 -1.1182  0.7045  1.3049
 9025SOL    HW238535   0.117   1.982   1.734  0.2304  1.0374  1.1389
 9026SOL     OW38536   3.764   3.481   3.677  0.0738  0.6638 -0.2644
 9026SOL    HW138537   3.765   3.462   3.583  2.0083  0.3909 -0.1751
 9026SOL    HW238538   3.671   3.481   3.703  0.2831  0.4219  0.4867
 9027SOL     OW38539   1.258   4.344  15.223  0.1432  0.7544  0.0395
 9027SOL    HW138540   1.262   4.353  15.128 -1.0698 -0.7736 -0.1664
 9027SOL    HW238541   1.210   4.261  15.232  1.7206 -0.2200 -0.6056
 9028SOL     OW38542   2.683   3.447   5.729  0.0403 -0.1933  0.2435
 9028SOL    HW138543   2.757   3.507   5.740  0.5475 -0.8202  0.2589
 9028SOL    HW238544   2.629   3.508   5.679  0.7162 -1.2062 -1.7223
 9029SOL     OW38545   3.626   1.596   1.779  0.3340  0.8137  0.6765
 9029SOL    HW138546   3.617   1.526   1.714  0.3309 -0.1196  1.6843
 9029SOL    HW238547   3.534   1.622   1.771  0.1184 -0.7612 -1.7652
 9030SOL     OW38548   0.263   0.986   8.779  0.1416 -0.2429 -0.3160
 9030SOL    HW138549   0.178   0.943   8.774 -0.0100  0.1200 -0.9706
 9030SOL    HW238550   0.253   1.056   8.843 -0.9659  1.3459 -2.2145
 9031SOL     OW38551   4.062   0.152   4.887 -0.1293 -0.1595 -0.0420
 9031SOL    HW138552   4.026   0.240   4.877  3.7786  1.3568 -0.8822
 9031SOL    HW238553   3.986   0.100   4.861 -0.1225 -0.6312  0.8745
 9032SOL     OW38554   4.272   4.340  16.975  0.3097 -0.2693 -0.0791
 9032SOL    HW138555   4.262   4.309  16.885 -0.2752  0.6557 -0.3287
 9032SOL    HW238556   4.219   4.278  17.026  0.1168  0.9843  1.2378
 9033SOL     OW38557   4.519   3.618   3.774 -0.4156 -0.0136 -0.2154
 9033SOL    HW138558   4.434   3.650   3.743  0.0029  0.3458 -1.0080
 9033SOL    HW238559   4.559   3.582   3.695  1.6494 -0.1642  0.9030
 9034SOL     OW38560   1.919   0.957  16.463 -0.3248  0.3669 -0.4209
 9034SOL    HW138561   1.830   0.992  16.458 -0.4010  0.2235 -0.0802
 9034SOL    HW238562   1.899   0.873  16.421 -0.6098 -0.2064  0.8648
 9035SOL     OW38563   3.616   3.656   8.267  0.2077 -0.1665 -0.1431
 9035SOL    HW138564   3.578   3.728   8.317 -1.2662 -1.5934  0.7886
 9035SOL    HW238565   3.641   3.589   8.331  1.7359  0.5469  0.0159
 9036SOL     OW38566   4.509   1.633   7.669  0.4396  0.1814 -0.1380
 9036SOL    HW138567   4.430   1.686   7.676 -0.7624 -1.6927  0.2867
 9036SOL    HW238568   4.481   1.583   7.592  0.5834 -0.1724  0.0397
 9037SOL     OW38569   3.770   4.707   7.816  0.0584  0.1175  0.4489
 9037SOL    HW138570   3.732   0.063   7.784  1.3216  0.6231  0.2315
 9037SOL    HW238571   3.713   4.637   7.784  0.8011  0.4723 -1.6386
 9038SOL     OW38572   4.266   4.232   7.164 -0.0883 -0.2989  0.4498
 9038SOL    HW138573   4.260   4.164   7.232  1.1919 -1.7563 -0.9103
 9038SOL    HW238574   4.351   4.215   7.125 -0.7298  0.8456 -1.4254
 9039SOL     OW38575   4.180   2.422   2.418 -0.2803  0.1594 -0.0905
 9039SOL    HW138576   4.164   2.330   2.440  1.0516 -0.4436 -1.6194
 9039SOL    HW238577   4.208   2.452   2.505  2.0260 -0.7627 -0.5145
 9040SOL     OW38578   2.113   3.410   5.542 -0.2506  0.5986  0.0666
 9040SOL    HW138579   2.156   3.330   5.573 -1.3338 -0.5250 -1.3527
 9040SOL    HW238580   2.146   3.478   5.600 -0.0094 -0.0235  0.6682
 9041SOL     OW38581   1.903   3.850   8.261 -0.1511  0.3520 -0.2669
 9041SOL    HW138582   1.863   3.849   8.348 -1.0220  0.6689 -0.6641
 9041SOL    HW238583   1.885   3.942   8.245  1.2032  0.2172 -2.5092
 9042SOL     OW38584   3.835   2.155  12.381 -0.4436  0.3381  0.0136
 9042SOL    HW138585   3.902   2.223  12.393 -0.6509  1.0539 -2.9362
 9042SOL    HW238586   3.864   2.090  12.445  0.8339  0.3148 -0.5932
 9043SOL     OW38587   2.500   0.766   5.512 -0.1551  0.0647 -0.2457
 9043SOL    HW138588   2.466   0.706   5.446  0.8997 -1.0822  0.2543
 9043SOL    HW238589   2.575   0.730   5.559 -2.4560  0.1023  3.4895
 9044SOL     OW38590   0.478   0.327   1.692  0.7945 -0.7409  0.0889
 9044SOL    HW138591   0.463   0.421   1.689  0.2662 -0.8264  0.0967
 9044SOL    HW238592   0.546   0.306   1.757 -0.7979 -1.6532  1.4605
 9045SOL     OW38593   1.067   4.187   6.028  0.2745  0.5578 -0.3783
 9045SOL    HW138594   1.048   4.148   5.942 -1.4620 -0.4749  0.4957
 9045SOL    HW238595   1.107   4.103   6.051  1.4637  0.4120 -2.9383
 9046SOL     OW38596   2.658   3.105   7.858 -0.1577  0.3411 -0.4943
 9046SOL    HW138597   2.716   3.056   7.916  0.0184  0.5545 -0.4907
 9046SOL    HW238598   2.647   3.035   7.793  0.5981 -1.0394  0.8576
 9047SOL     OW38599   4.123   3.460   4.059 -0.0185 -0.4095 -0.3740
 9047SOL    HW138600   4.029   3.471   4.066 -0.0123 -1.9112  1.9401
 9047SOL    HW238601   4.147   3.552   4.049 -1.2700  0.1436  1.7485
 9048SOL     OW38602   0.237   2.142   5.780 -0.2975 -0.2652 -0.0998
 9048SOL    HW138603   0.220   2.052   5.808 -1.2330 -0.0593 -0.0084
 9048SOL    HW238604   0.149   2.179   5.787 -0.8434 -1.0900 -2.6181
 9049SOL     OW38605   3.708   1.066   8.694 -0.1577  0.1659 -0.0910
 9049SOL    HW138606   3.733   1.130   8.761  1.3866 -1.2645  0.6805
 9049SOL    HW238607   3.788   1.073   8.641 -0.1116 -0.3988 -0.0908
 9050SOL     OW38608   0.925   0.284   2.687 -0.3859 -0.7667  0.1154
 9050SOL    HW138609   0.942   0.341   2.762 -1.5145 -0.7248  0.3501
 9050SOL    HW238610   0.955   0.342   2.617  1.6777 -1.2215  0.6153
 9051SOL     OW38611   2.704   2.253   1.556 -0.2801 -0.4443  0.4515
 9051SOL    HW138612   2.725   2.234   1.464 -0.6605  0.2184  0.2267
 9051SOL    HW238613   2.765   2.210   1.615  0.8936 -0.4037 -0.7222
 9052SOL     OW38614   4.328   4.351   3.175 -0.0394  0.4167 -0.7172
 9052SOL    HW138615   4.373   4.273   3.143 -0.1988 -0.5797  1.4392
 9052SOL    HW238616   4.388   4.372   3.246 -0.0585 -2.3135  0.0939
 9053SOL     OW38617   2.668   4.632   4.978  0.3527 -0.2139 -0.4635
 9053SOL    HW138618   2.620   4.620   5.060  2.6556  1.9147  1.1796
 9053SOL    HW238619   2.752   4.671   5.001  0.3787  0.3887 -1.5903
 9054SOL     OW38620   0.256   2.818   6.903  0.0717 -0.3510  0.8196
 9054SOL    HW138621   0.252   2.909   6.931 -1.2738  0.5394 -2.2700
 9054SOL    HW238622   0.350   2.810   6.882  0.0661  0.9412  0.3216
 9055SOL     OW38623   2.761   1.961   7.476  0.2816 -0.0442  0.5380
 9055SOL    HW138624   2.683   1.934   7.427  0.1918  1.2114 -0.0078
 9055SOL    HW238625   2.749   1.913   7.558 -3.2638  1.3199  0.8131
 9056SOL     OW38626   1.198   0.567  11.784  0.8103 -0.3546  0.5960
 9056SOL    HW138627   1.283   0.523  11.794  0.6782 -1.3401 -2.7210
 9056SOL    HW238628   1.142   0.498  11.822 -2.4541  2.4425  0.8656
 9057SOL     OW38629   0.355   3.068  12.301 -0.0403  0.0814 -0.1082
 9057SOL    HW138630   0.398   3.005  12.243  1.9600  1.4915 -0.1629
 9057SOL    HW238631   0.262   3.045  12.299  0.1647 -0.6010 -1.7017
 9058SOL     OW38632   1.506   0.497   0.093 -0.4408 -0.0205  0.0662
 9058SOL    HW138633   1.561   0.465   0.021  0.1538  0.5736  0.2624
 9058SOL    HW238634   1.420   0.494   0.051  0.1421 -1.0871 -1.0545
 9059SOL     OW38635   1.653   0.740   2.582  0.1524 -0.2640 -0.1558
 9059SOL    HW138636   1.691   0.774   2.501  0.3109  4.0734  1.7653
 9059SOL    HW238637   1.729   0.691   2.613  0.2620  0.3112  0.4723
 9060SOL     OW38638   2.232   1.725  13.031 -0.2422  0.5065  0.4711
 9060SOL    HW138639   2.152   1.733  13.083 -1.6976 -0.4134 -1.6326
 9060SOL    HW238640   2.243   1.631  13.033  0.7679  0.6376  0.7081
 9061SOL     OW38641   2.101   3.245   1.938 -0.5827  0.4674  0.1136
 9061SOL    HW138642   2.172   3.295   1.979  0.6696 -0.8387 -0.4436
 9061SOL    HW238643   2.143   3.170   1.897  1.8669  0.9964  1.6637
 9062SOL     OW38644   1.125   2.924   8.274 -0.1401  0.1275  0.3364
 9062SOL    HW138645   1.200   2.974   8.245  1.3841 -1.7213  1.0436
 9062SOL    HW238646   1.058   2.952   8.212 -0.1761  0.6689  0.6204
 9063SOL     OW38647   3.649   3.307   1.228  0.0518  0.0804  0.1849
 9063SOL    HW138648   3.712   3.324   1.298 -0.2755  2.2524 -0.0513
 9063SOL    HW238649   3.642   3.212   1.235  0.4841  0.0808  0.6558
 9064SOL     OW38650   0.996   4.015   6.297 -0.3297  0.3715 -0.4180
 9064SOL    HW138651   1.052   4.060   6.360 -1.1538  2.8793 -1.4757
 9064SOL    HW238652   1.050   3.938   6.282 -2.5393 -1.3093  0.2716
 9065SOL     OW38653   0.301   0.593  11.695  0.7260 -0.0054 -0.8233
 9065SOL    HW138654   0.286   0.522  11.757 -1.1179  1.6521  0.6514
 9065SOL    HW238655   0.356   0.649  11.750  0.9933 -0.4547 -0.6311
 9066SOL     OW38656   3.677   1.380  10.964 -0.0495  0.2112 -0.4340
 9066SOL    HW138657   3.757   1.411  11.007 -1.3993  3.1840 -0.0920
 9066SOL    HW238658   3.631   1.459  10.936 -1.6525 -0.9355 -1.0057
 9067SOL     OW38659   1.723   1.667   9.811  0.2407  0.3901 -0.4692
 9067SOL    HW138660   1.629   1.677   9.827 -0.4245 -3.0675 -2.3085
 9067SOL    HW238661   1.725   1.571   9.811 -0.8615  0.3772 -1.7144
 9068SOL     OW38662   2.788   3.329  13.962 -0.4169 -0.2796  0.2332
 9068SOL    HW138663   2.738   3.405  13.992 -1.7535 -0.9702 -0.2578
 9068SOL    HW238664   2.817   3.319  14.052 -0.5056 -1.4481  0.1238
 9069SOL     OW38665   2.337   4.497  17.458 -0.0498  0.0975 -0.3552
 9069SOL    HW138666   2.421   4.480  17.415  0.4316  2.7271 -0.3956
 9069SOL    HW238667   2.363   4.515  17.548  0.9215  2.1682 -1.0678
 9070SOL     OW38668   3.252   2.987   5.143  0.1957  0.2570  0.5764
 9070SOL    HW138669   3.335   2.982   5.096 -0.7167  1.6195 -1.1638
 9070SOL    HW238670   3.207   3.056   5.094  0.3618  0.4831  0.7397
 9071SOL     OW38671   1.663   2.808   9.885  0.4810  0.3049  0.3546
 9071SOL    HW138672   1.731   2.740   9.885  0.1939  0.0176  0.3433
 9071SOL    HW238673   1.585   2.753   9.892 -0.7399  1.9188 -0.8004
 9072SOL     OW38674   2.720   2.793   6.022 -0.0477  0.1070 -0.0770
 9072SOL    HW138675   2.805   2.808   5.981  0.1208 -0.2464  0.1473
 9072SOL    HW238676   2.659   2.824   5.956  1.5731  0.9409 -1.1801
 9073SOL     OW38677   0.323   1.338   1.594  0.1495  0.0179 -0.7439
 9073SOL    HW138678   0.276   1.397   1.536  0.1268 -0.2087 -0.9589
 9073SOL    HW238679   0.304   1.257   1.547 -1.4857 -1.2071  2.0191
 9074SOL     OW38680   3.031   1.334  13.612 -0.5190  0.1800 -0.3431
 9074SOL    HW138681   3.052   1.406  13.553  0.9576 -1.4531 -1.8432
 9074SOL    HW238682   3.082   1.351  13.691 -0.7196  4.2261 -1.1039
 9075SOL     OW38683   1.699   0.045   3.656 -0.2189 -0.3323  0.6622
 9075SOL    HW138684   1.697   0.119   3.717 -0.8970  0.4065 -0.2682
 9075SOL    HW238685   1.638   4.710   3.697  0.8162 -0.0325  2.6690
 9076SOL     OW38686   0.197   2.229   0.591  0.3410 -0.1325  0.8955
 9076SOL    HW138687   0.249   2.302   0.625 -0.3634  1.1353 -0.7468
 9076SOL    HW238688   0.250   2.159   0.628  1.7983  0.7086  0.4109
 9077SOL     OW38689   1.331   4.174   8.279 -0.5584 -0.6561  0.1707
 9077SOL    HW138690   1.348   4.114   8.352 -3.8042  0.2736  1.6597
 9077SOL    HW238691   1.388   4.248   8.301  1.2492 -0.8558 -3.8075
 9078SOL     OW38692   4.463   3.406   5.143  0.5492 -0.2839 -0.4311
 9078SOL    HW138693   4.519   3.450   5.207  1.8562 -0.2190 -1.5999
 9078SOL    HW238694   4.404   3.363   5.205  0.2415  0.2581 -0.3486
 9079SOL     OW38695   2.161   1.788   4.854 -0.5143 -0.2165 -0.1189
 9079SOL    HW138696   2.097   1.839   4.903 -1.2957 -1.4287  0.1330
 9079SOL    HW238697   2.230   1.851   4.834 -0.9145  0.2267 -0.1074
 9080SOL     OW38698   0.158   1.933   0.424 -0.2979 -0.7173  0.4063
 9080SOL    HW138699   0.196   1.892   0.346  1.3274  3.8301 -1.1756
 9080SOL    HW238700   0.073   1.890   0.419  0.2995 -1.8715  0.0173
 9081SOL     OW38701   1.154   0.323  16.362  0.2261 -0.2018  0.1914
 9081SOL    HW138702   1.196   0.362  16.285  1.3840 -1.3197  0.2464
 9081SOL    HW238703   1.060   0.331  16.350  0.0230  0.2459  2.1559
 9082SOL     OW38704   3.685   2.930   5.054  0.0258  0.1167  0.5037
 9082SOL    HW138705   3.664   3.019   5.025 -0.9558 -0.3399 -0.2138
 9082SOL    HW238706   3.633   2.879   4.991  0.2564 -2.7866  2.6920
 9083SOL     OW38707   2.692   3.879   4.251 -0.0569  0.2966  0.1547
 9083SOL    HW138708   2.634   3.878   4.175 -0.7365 -1.8369  0.7103
 9083SOL    HW238709   2.759   3.926   4.200  2.4730 -0.2342  2.9463
 9084SOL     OW38710   0.733   4.457   3.986 -0.5553 -0.6861 -0.0046
 9084SOL    HW138711   0.725   4.480   4.079 -0.1168  0.1285 -0.1742
 9084SOL    HW238712   0.742   4.363   4.000  2.1745 -0.3162  0.6493
 9085SOL     OW38713   1.765   0.893   1.551  0.0141 -0.1830 -0.8280
 9085SOL    HW138714   1.799   0.842   1.477  0.9821 -0.6525 -0.0550
 9085SOL    HW238715   1.684   0.844   1.565 -0.5642  1.3661  1.1614
 9086SOL     OW38716   2.984   2.339  11.376  0.1848  0.0221 -0.1972
 9086SOL    HW138717   3.024   2.422  11.403  0.9445  0.0488 -1.3991
 9086SOL    HW238718   3.056   2.278  11.392 -0.2395 -1.1240 -2.7783
 9087SOL     OW38719   2.343   3.694   8.515  0.1643 -0.0914 -0.1008
 9087SOL    HW138720   2.409   3.745   8.563 -0.7078  0.6317  0.3282
 9087SOL    HW238721   2.278   3.703   8.585 -0.2590  1.2627 -0.6844
 9088SOL     OW38722   3.226   3.163   6.146 -0.3161  0.5196 -0.0054
 9088SOL    HW138723   3.184   3.077   6.155 -0.0863  0.3607 -0.4369
 9088SOL    HW238724   3.284   3.161   6.222  0.6547  2.1787 -0.7212
 9089SOL     OW38725   2.161   3.155   6.023  0.5376  0.0605  0.4574
 9089SOL    HW138726   2.198   3.215   6.087 -0.7613  2.3544 -0.9244
 9089SOL    HW238727   2.232   3.091   6.011  0.2195  0.1223 -1.7854
 9090SOL     OW38728   0.065   0.693   3.212  0.4568  0.1072  0.1767
 9090SOL    HW138729   0.101   0.775   3.244  0.3017  0.1459  0.2488
 9090SOL    HW238730   4.706   0.682   3.254  1.4688 -0.1319  2.1697
 9091SOL     OW38731   2.581   4.355   1.123 -0.0905 -0.1413 -0.0610
 9091SOL    HW138732   2.556   4.447   1.126  3.2343  0.8557 -2.3230
 9091SOL    HW238733   2.575   4.323   1.213 -1.9382  0.0282 -0.1426
 9092SOL     OW38734   0.749   0.505   3.916 -0.4270 -0.1547 -0.4113
 9092SOL    HW138735   0.836   0.531   3.944  0.5606 -1.9596 -1.7593
 9092SOL    HW238736   0.712   0.589   3.892  1.3975  0.1659 -2.1001
 9093SOL     OW38737   0.379   4.268   1.961  0.3410 -0.1540 -0.0628
 9093SOL    HW138738   0.347   4.358   1.951  2.5761  0.5299 -0.9365
 9093SOL    HW238739   0.472   4.288   1.956  0.1351  0.7122 -0.4186
 9094SOL     OW38740   0.613   1.386  16.267 -0.0290  0.5002  1.2235
 9094SOL    HW138741   0.532   1.430  16.242 -0.1515 -0.0700  0.6234
 9094SOL    HW238742   0.669   1.462  16.286  0.9891  0.8048 -2.9909
 9095SOL     OW38743   4.167   2.705   6.496 -0.1961 -0.6741  0.4006
 9095SOL    HW138744   4.132   2.629   6.543  0.5063  0.0923  2.1698
 9095SOL    HW238745   4.196   2.762   6.567 -0.1138 -0.3127  0.0724
 9096SOL     OW38746   0.298   2.160   7.470  0.5152  0.1849 -0.3812
 9096SOL    HW138747   0.311   2.252   7.491  0.3233 -0.4991  2.7480
 9096SOL    HW238748   0.355   2.119   7.535  0.9109  0.1137 -0.7709
 9097SOL     OW38749   1.338   3.424   4.973 -0.3885  0.7122 -0.2548
 9097SOL    HW138750   1.297   3.338   4.972 -0.5506  0.7541  2.8903
 9097SOL    HW238751   1.430   3.408   4.951 -0.4206 -1.1340  0.9936
 9098SOL     OW38752   4.182   0.663   9.140 -0.0543  0.2164 -0.6506
 9098SOL    HW138753   4.259   0.640   9.088  1.2028 -0.1005  1.3335
 9098SOL    HW238754   4.113   0.666   9.074  0.1392  2.3311 -0.7388
 9099SOL     OW38755   2.811   4.349  10.312 -0.5073  0.0503 -0.0173
 9099SOL    HW138756   2.879   4.288  10.340  0.7662  0.7658 -1.5588
 9099SOL    HW238757   2.868   4.416  10.276  1.0900 -2.1949 -1.6349
 9100SOL     OW38758   4.425   2.732   8.404 -0.6365 -0.1706  0.0544
 9100SOL    HW138759   4.496   2.707   8.463 -0.1809 -0.3721 -0.5836
 9100SOL    HW238760   4.472   2.778   8.335 -0.4264  1.3910  1.2401
 9101SOL     OW38761   0.642   2.938   5.498 -0.1679  0.4693 -0.2837
 9101SOL    HW138762   0.642   3.033   5.488  1.3577  0.4031 -0.9367
 9101SOL    HW238763   0.600   2.920   5.413  4.1148 -2.1783 -1.8481
 9102SOL     OW38764   2.737   0.216   2.985  0.1049 -0.1408  0.7144
 9102SOL    HW138765   2.803   0.151   2.960 -1.1473 -0.9461 -0.5038
 9102SOL    HW238766   2.659   0.194   2.935  0.8074  1.3447 -1.0348
 9103SOL     OW38767   0.001   2.546   4.229 -0.3529 -0.3640 -0.9669
 9103SOL    HW138768   0.038   2.519   4.145  3.1823 -3.3008  1.6011
 9103SOL    HW238769   4.680   2.627   4.208 -0.7457 -0.2981  0.2102
 9104SOL     OW38770   3.306   4.579   6.129  0.0219 -0.4763  0.0198
 9104SOL    HW138771   3.233   4.523   6.156  0.1156 -1.0211 -0.8868
 9104SOL    HW238772   3.386   4.531   6.153  0.7997  1.1727  0.7134
 9105SOL     OW38773   0.468   0.246   6.565  0.0831  0.5553  0.1890
 9105SOL    HW138774   0.519   0.230   6.486 -1.2676 -0.5866 -0.4520
 9105SOL    HW238775   0.395   0.295   6.527  0.2981  0.8767  0.1890
 9106SOL     OW38776   3.989   2.524   6.340 -0.0538  0.3335 -1.2180
 9106SOL    HW138777   4.020   2.608   6.373 -0.2949  0.3170 -0.9517
 9106SOL    HW238778   4.057   2.465   6.371  0.0244  0.8872 -0.3250
 9107SOL     OW38779   3.412   2.252  11.979  0.2098 -0.5502  0.1676
 9107SOL    HW138780   3.445   2.203  11.903  1.9882 -0.3195  0.7970
 9107SOL    HW238781   3.362   2.326  11.943 -2.5523 -1.2917  2.5883
 9108SOL     OW38782   4.317   0.774  11.853 -0.1868  0.2154 -0.0085
 9108SOL    HW138783   4.350   0.785  11.764 -2.5308 -0.9484 -1.0359
 9108SOL    HW238784   4.378   0.820  11.911 -0.5738  1.2715 -0.4532
 9109SOL     OW38785   2.003   3.408   7.505  0.6098  0.0864  0.1556
 9109SOL    HW138786   1.990   3.500   7.481 -0.5217 -0.5178 -1.5604
 9109SOL    HW238787   1.920   3.381   7.543 -0.3041  0.8248 -1.3368
 9110SOL     OW38788   3.887   3.013   8.132  0.2497  0.7780  0.1270
 9110SOL    HW138789   3.863   3.063   8.210 -1.1496 -0.7491  0.6880
 9110SOL    HW238790   3.970   2.976   8.162 -0.6701 -1.3611  0.0609
 9111SOL     OW38791   2.334   2.629   6.290  0.2085  0.2546 -0.4011
 9111SOL    HW138792   2.349   2.536   6.308 -0.0593  0.4485  0.8570
 9111SOL    HW238793   2.398   2.629   6.219 -0.8859  2.3418 -1.3630
 9112SOL     OW38794   3.490   3.133   8.738  0.1032  0.1430  0.2369
 9112SOL    HW138795   3.446   3.217   8.755  0.0470  0.1217  0.1945
 9112SOL    HW238796   3.572   3.140   8.786  0.5739  1.2679 -0.7220
 9113SOL     OW38797   0.005   3.127   6.497  0.3920  0.3433 -0.0632
 9113SOL    HW138798   0.052   3.095   6.419  1.8511  3.2406 -0.3597
 9113SOL    HW238799   0.040   3.215   6.506  0.4001  0.4259 -0.8967
 9114SOL     OW38800   4.317   1.728   8.155  0.1671 -0.3854 -0.3018
 9114SOL    HW138801   4.316   1.793   8.225 -1.1097 -0.5871 -0.1405
 9114SOL    HW238802   4.261   1.772   8.091 -0.1556 -0.1264  0.1592
 9115SOL     OW38803   0.716   0.129   3.654 -0.0529 -0.6139 -0.5908
 9115SOL    HW138804   0.656   0.076   3.706  0.0907  0.5643  0.7532
 9115SOL    HW238805   0.739   0.071   3.581  2.0419 -0.8066  0.2028
 9116SOL     OW38806   3.659   0.511   8.865  0.0096  0.0681  0.0876
 9116SOL    HW138807   3.583   0.565   8.843  0.3454  0.2408 -0.6739
 9116SOL    HW238808   3.709   0.580   8.909  2.2296 -1.8029  0.5363
 9117SOL     OW38809   1.424   3.963   2.476 -0.2304 -0.6054  0.2013
 9117SOL    HW138810   1.416   3.870   2.457 -0.1041 -0.3116 -1.2326
 9117SOL    HW238811   1.480   3.959   2.554 -1.1023  1.1308  0.9116
 9118SOL     OW38812   2.276   3.122   7.360 -0.5031  0.1515 -0.0455
 9118SOL    HW138813   2.297   3.055   7.296  0.7746  0.0045  0.5141
 9118SOL    HW238814   2.210   3.166   7.307  0.9842  1.1887 -1.0539
 9119SOL     OW38815   4.679   3.442   1.311  0.1079 -0.0143 -0.0089
 9119SOL    HW138816   4.712   3.479   1.393 -1.0715 -0.9051  0.8458
 9119SOL    HW238817   4.661   3.528   1.271  0.9645 -0.0222 -0.4185
 9120SOL     OW38818   2.025   2.101   7.008 -0.1595  0.4433  0.6514
 9120SOL    HW138819   1.986   2.136   7.088 -1.4434 -0.5468  0.4512
 9120SOL    HW238820   1.959   2.107   6.939  2.3295 -0.8832 -1.8498
 9121SOL     OW38821   4.487   0.045   3.279  0.3926  0.5833 -0.1003
 9121SOL    HW138822   4.571   0.001   3.290  0.2458  0.2188 -0.4649
 9121SOL    HW238823   4.488   0.069   3.186 -1.1688 -1.7097 -0.7010
 9122SOL     OW38824   3.218   2.933   7.779 -0.2406  0.0243 -0.0846
 9122SOL    HW138825   3.243   3.001   7.841  1.0973 -0.3002 -0.2621
 9122SOL    HW238826   3.183   2.988   7.709 -0.8532 -0.6202 -0.2807
 9123SOL     OW38827   3.661   0.893   8.178 -0.1652 -0.0056  0.4917
 9123SOL    HW138828   3.646   0.967   8.236  1.4604 -1.0266  2.1920
 9123SOL    HW238829   3.735   0.850   8.222 -1.4820 -0.4153  2.3374
 9124SOL     OW38830   2.183   1.539   3.081 -0.2054 -0.4827 -0.1686
 9124SOL    HW138831   2.223   1.499   3.003 -3.2746  1.1029 -2.5534
 9124SOL    HW238832   2.103   1.575   3.043 -0.8690 -0.6622  1.0844
 9125SOL     OW38833   1.566   1.818   9.305 -0.1679 -0.0051  0.3521
 9125SOL    HW138834   1.522   1.794   9.223 -1.8586 -0.3929  1.3679
 9125SOL    HW238835   1.653   1.791   9.276 -0.2169  1.4801 -1.2044
 9126SOL     OW38836   3.575   2.211   1.126  0.6224 -0.3942 -0.1760
 9126SOL    HW138837   3.518   2.253   1.189  1.5921  0.3779  0.1881
 9126SOL    HW238838   3.591   2.277   1.059  1.1532  0.6938  1.0350
 9127SOL     OW38839   0.340   4.482  17.402 -0.3901  0.2382 -0.6655
 9127SOL    HW138840   0.435   4.486  17.397 -0.3949 -0.0022 -0.9892
 9127SOL    HW238841   0.329   4.469  17.496  0.0975 -0.0746 -0.6499
 9128SOL     OW38842   2.414   4.461   0.215 -0.3455  0.0594 -0.2799
 9128SOL    HW138843   2.319   4.450   0.208 -0.2043 -0.9675 -0.6128
 9128SOL    HW238844   2.408   4.539   0.270  1.5792 -2.1272  3.0367
 9129SOL     OW38845   1.930   1.490   6.428  0.2347 -0.0098  0.4500
 9129SOL    HW138846   1.880   1.537   6.361  0.5188  0.1153  0.3235
 9129SOL    HW238847   1.982   1.430   6.375  1.7667  0.7445  1.0947
 9130SOL     OW38848   3.518   4.499  17.537 -0.1710 -0.5727  0.1386
 9130SOL    HW138849   3.516   4.405  17.558  0.7515 -0.4937  0.5656
 9130SOL    HW238850   3.607   4.506  17.502  0.4499 -0.3697  1.7841
 9131SOL     OW38851   3.654   1.514  14.860 -0.1642 -0.3364 -0.6708
 9131SOL    HW138852   3.579   1.552  14.905  0.1914  0.0687 -0.4318
 9131SOL    HW238853   3.636   1.553  14.774 -2.6228  0.0373  0.0121
 9132SOL     OW38854   0.858   0.110   3.888 -0.0890 -0.3404  0.1460
 9132SOL    HW138855   0.809   0.131   3.809  2.1844  0.2950 -1.0785
 9132SOL    HW238856   0.940   0.158   3.877  0.1027 -0.5795  0.5307
 9133SOL     OW38857   2.902   2.654  16.403  0.3407 -0.1696  0.3134
 9133SOL    HW138858   2.888   2.708  16.325 -2.3872  0.0612  0.9742
 9133SOL    HW238859   2.829   2.594  16.393 -0.2736  0.8294 -1.1788
 9134SOL     OW38860   2.023   4.110  14.384  0.5004 -0.0735  0.1267
 9134SOL    HW138861   2.065   4.162  14.316 -1.7898  1.1201 -0.3696
 9134SOL    HW238862   2.066   4.024  14.382  1.2998  0.4283 -3.1143
 9135SOL     OW38863   4.176   2.044   7.505  0.0763  0.3307 -0.0448
 9135SOL    HW138864   4.129   2.075   7.428  2.3879 -0.8842 -1.9053
 9135SOL    HW238865   4.236   2.119   7.512  0.3965 -0.0065  0.8758
 9136SOL     OW38866   0.455   2.083   7.669  0.5260  0.3571  0.2008
 9136SOL    HW138867   0.457   2.145   7.742  0.4402 -1.3168  1.6151
 9136SOL    HW238868   0.548   2.079   7.649  0.5693  1.8696  0.0444
 9137SOL     OW38869   3.981   0.808   5.245  0.1167  0.0087 -0.2659
 9137SOL    HW138870   3.969   0.725   5.199  1.4978 -0.0986 -0.4336
 9137SOL    HW238871   3.896   0.847   5.224 -0.4638 -1.1718 -0.0870
 9138SOL     OW38872   2.008   4.484  15.205  0.1768  0.3602  0.0836
 9138SOL    HW138873   1.925   4.511  15.244  0.4822  0.8389  0.3920
 9138SOL    HW238874   1.971   4.417  15.148  2.6305  0.1585 -1.2585
 9139SOL     OW38875   1.295   2.436   5.347  0.2647 -0.0793  0.9854
 9139SOL    HW138876   1.252   2.512   5.308  0.9009 -0.5832 -0.7280
 9139SOL    HW238877   1.266   2.365   5.289 -1.0000  2.2838 -1.2625
 9140SOL     OW38878   2.338   1.094   5.675 -0.8499 -0.0834  0.5271
 9140SOL    HW138879   2.404   1.067   5.612 -1.3164  0.1339 -0.0547
 9140SOL    HW238880   2.301   1.008   5.696 -2.2351  0.6108  0.9613
 9141SOL     OW38881   2.384   3.541   6.247  0.3531  0.3369  0.2229
 9141SOL    HW138882   2.370   3.518   6.155  1.8381 -0.1464  0.1091
 9141SOL    HW238883   2.439   3.619   6.235  1.7587 -0.4607  1.4927
 9142SOL     OW38884   4.605   3.418  17.365 -0.6611 -0.0746  0.5823
 9142SOL    HW138885   4.693   3.426  17.328 -0.1170  0.5280  1.9784
 9142SOL    HW238886   4.547   3.468  17.307 -0.1173  0.4364  0.4771
 9143SOL     OW38887   4.474   2.523  12.576  0.1394 -0.4795  0.1097
 9143SOL    HW138888   4.524   2.441  12.571  2.4288  0.8046  1.6783
 9143SOL    HW238889   4.489   2.548  12.668 -4.0370  1.9679  0.1210
 9144SOL     OW38890   0.743   1.231  14.340 -0.0636  0.0058 -0.8053
 9144SOL    HW138891   0.839   1.229  14.344 -0.1351 -1.4612 -0.0090
 9144SOL    HW238892   0.733   1.191  14.254  0.3387 -1.6147 -0.1006
 9145SOL     OW38893   0.764   0.953   8.846  0.4162  0.0161 -0.2398
 9145SOL    HW138894   0.675   0.920   8.854  0.0200  0.8188 -1.4546
 9145SOL    HW238895   0.806   0.936   8.931 -1.3070  1.6737  0.9381
 9146SOL     OW38896   1.676   2.890  13.214 -0.1867 -0.5180  0.0805
 9146SOL    HW138897   1.716   2.937  13.288  1.7445 -2.9241  0.5684
 9146SOL    HW238898   1.725   2.937  13.146  0.7389 -0.3795  0.8225
 9147SOL     OW38899   2.074   0.718   3.566 -0.2243 -0.1368  0.4831
 9147SOL    HW138900   2.056   0.809   3.590  3.8467  1.5263 -2.8523
 9147SOL    HW238901   2.161   0.718   3.527 -0.6126  0.2316 -0.3927
 9148SOL     OW38902   1.296   3.393   1.025  0.0127 -0.1493 -0.2195
 9148SOL    HW138903   1.331   3.338   0.955 -2.6185 -1.5976 -0.4002
 9148SOL    HW238904   1.206   3.363   1.029 -0.0823  0.2335  0.6288
 9149SOL     OW38905   4.719   2.142   7.466 -0.3031 -0.2213 -0.5174
 9149SOL    HW138906   4.717   2.184   7.552 -2.6994 -0.1839 -0.5899
 9149SOL    HW238907   0.088   2.134   7.460 -0.2063  0.5709 -0.1315
 9150SOL     OW38908   4.710   4.037  17.247  0.4317 -0.0015 -0.7724
 9150SOL    HW138909   0.039   4.102  17.292 -0.6342 -0.9420  1.8706
 9150SOL    HW238910   4.713   4.060  17.154  0.9832 -0.0888 -0.7748
 9151SOL     OW38911   2.262   3.683   3.747 -0.6223  0.7553 -0.4682
 9151SOL    HW138912   2.252   3.774   3.721 -1.5725  0.6492 -0.4692
 9151SOL    HW238913   2.274   3.636   3.664 -1.3840 -1.7349  0.8089
 9152SOL     OW38914   4.492   4.113   2.952  0.3088  0.1031 -0.1937
 9152SOL    HW138915   4.542   4.189   2.924  0.2345  0.2254  0.0060
 9152SOL    HW238916   4.568   4.062   2.980 -0.5667 -0.1181  1.7495
 9153SOL     OW38917   0.146   4.307   6.244  0.2352  0.4796  0.0315
 9153SOL    HW138918   0.192   4.227   6.270  0.8991  1.2370  1.1918
 9153SOL    HW238919   0.150   4.310   6.149 -1.3582  3.1398  0.0639
 9154SOL     OW38920   2.309   2.386   5.362 -0.2299 -0.2542 -0.0266
 9154SOL    HW138921   2.346   2.414   5.278  1.6310  2.6937  1.7935
 9154SOL    HW238922   2.378   2.343   5.411 -2.1857 -2.4418  0.8037
 9155SOL     OW38923   3.865   2.098   2.624  0.0720  0.5255  0.4171
 9155SOL    HW138924   3.942   2.123   2.574  0.1373  0.2680  0.3892
 9155SOL    HW238925   3.902   2.023   2.671  1.9182 -0.5283 -2.7244
 9156SOL     OW38926   1.457   1.813  10.561  0.6260  0.2088  0.1258
 9156SOL    HW138927   1.364   1.795  10.576  0.5485  1.0812  0.7015
 9156SOL    HW238928   1.472   1.874  10.633  1.4325 -2.6578  2.3660
 9157SOL     OW38929   2.840   0.450  10.580 -0.1143 -0.2899  0.0739
 9157SOL    HW138930   2.863   0.481  10.667 -0.8035  0.5228 -0.0335
 9157SOL    HW238931   2.883   0.364  10.586  1.2794  0.5077  1.7004
 9158SOL     OW38932   0.317   1.717  12.099 -0.3963  0.9028 -0.3855
 9158SOL    HW138933   0.354   1.802  12.123  3.6934 -0.9215 -0.3635
 9158SOL    HW238934   0.265   1.688  12.175  0.3426  0.3115 -0.1121
 9159SOL     OW38935   4.607   1.722  14.356  0.2689 -0.4039  0.1356
 9159SOL    HW138936   4.515   1.712  14.381  0.2103  1.9230  0.8696
 9159SOL    HW238937   4.628   1.630  14.344 -1.9977 -0.7116 -1.3764
 9160SOL     OW38938   3.670   2.620   6.626 -0.1924 -0.1918  0.0890
 9160SOL    HW138939   3.576   2.620   6.605  0.1641  2.5611 -1.4738
 9160SOL    HW238940   3.675   2.547   6.689  1.7672 -1.5857 -1.6856
 9161SOL     OW38941   0.640   3.281  12.955  0.1991  0.0520  0.1597
 9161SOL    HW138942   0.595   3.329  12.885 -1.3382 -0.0536  1.0621
 9161SOL    HW238943   0.730   3.267  12.928 -0.4282 -2.0663 -0.8023
 9162SOL     OW38944   1.052   0.544   4.356 -0.4031  0.1316 -0.6807
 9162SOL    HW138945   0.979   0.489   4.384  0.5418  0.2253  1.9123
 9162SOL    HW238946   1.035   0.633   4.388  1.6833  0.8674 -1.6131
 9163SOL     OW38947   1.840   1.051   9.129  0.2862  0.5594  0.0467
 9163SOL    HW138948   1.915   1.087   9.175 -0.4589  2.7417 -0.4419
 9163SOL    HW238949   1.831   0.968   9.177  0.5363  1.2403  1.2806
 9164SOL     OW38950   1.767   3.223   2.073 -0.0128  0.0405  0.0836
 9164SOL    HW138951   1.762   3.134   2.106 -0.4663  0.5607  1.4047
 9164SOL    HW238952   1.738   3.259   2.157 -2.0025 -1.3268 -0.0318
 9165SOL     OW38953   0.188   1.414   3.282 -0.0943  0.5513  0.5155
 9165SOL    HW138954   0.101   1.376   3.301 -0.4749  1.7571  1.1902
 9165SOL    HW238955   0.194   1.500   3.324  1.0302  0.5491  0.3446
 9166SOL     OW38956   0.152   1.955   3.459  0.1460  0.0039 -0.1733
 9166SOL    HW138957   0.136   2.045   3.431 -1.3558 -0.0943  0.4019
 9166SOL    HW238958   0.181   1.973   3.549  0.7749  0.5463 -0.4800
 9167SOL     OW38959   2.710   3.195   9.197 -0.3569  0.3845  0.2205
 9167SOL    HW138960   2.638   3.137   9.222 -0.4232 -0.5383 -2.1692
 9167SOL    HW238961   2.672   3.245   9.125  1.4605  1.4202 -0.0252
 9168SOL     OW38962   3.091   4.618  11.986  0.1967 -0.3026  0.1806
 9168SOL    HW138963   3.084   4.557  12.059  0.6269 -0.3920  0.1425
 9168SOL    HW238964   3.018   4.593  11.929  1.1901  0.5921 -1.4881
 9169SOL     OW38965   0.950   0.113   4.932  0.2964  0.5069  0.1037
 9169SOL    HW138966   0.871   0.063   4.917  0.3525  0.0906  1.1999
 9169SOL    HW238967   1.009   0.087   4.861 -0.1169 -1.1446  0.3830
 9170SOL     OW38968   1.511   2.277   6.486  0.0020  0.3116 -1.1149
 9170SOL    HW138969   1.529   2.201   6.431  0.6037  0.0913 -0.6094
 9170SOL    HW238970   1.415   2.273   6.489 -0.1218  1.6027 -2.7915
 9171SOL     OW38971   0.404   1.154  10.379 -0.3074  0.4181 -0.2085
 9171SOL    HW138972   0.351   1.132  10.302  0.9615 -0.1696 -0.9305
 9171SOL    HW238973   0.417   1.248  10.361 -0.8731  0.5284 -0.0399
 9172SOL     OW38974   1.159   4.467   9.518  0.0812  0.0005 -0.7330
 9172SOL    HW138975   1.155   4.471   9.614 -0.2964  2.1798 -0.8262
 9172SOL    HW238976   1.114   4.386   9.495  2.6478 -1.1500 -1.6549
 9173SOL     OW38977   0.785   0.404   2.044  0.3403  0.2212 -0.6214
 9173SOL    HW138978   0.719   0.364   2.100  3.7945 -0.6183  2.8583
 9173SOL    HW238979   0.756   0.495   2.032 -0.5191 -0.2961 -2.5026
 9174SOL     OW38980   1.938   4.369  10.474  0.0833 -0.0465 -0.2977
 9174SOL    HW138981   2.025   4.367  10.435  0.2248  0.8049 -0.0264
 9174SOL    HW238982   1.892   4.297  10.430 -2.2028 -0.6305  3.0348
 9175SOL     OW38983   2.283   0.899   3.043 -0.2251 -0.5217  0.7064
 9175SOL    HW138984   2.233   0.862   3.115  0.1640  3.0255  2.8095
 9175SOL    HW238985   2.213   0.921   2.982 -0.2566 -0.6910  0.6808
 9176SOL     OW38986   3.327   1.972   1.801 -0.1597 -0.3728 -0.8362
 9176SOL    HW138987   3.338   1.883   1.835 -1.0060  0.4853  1.6842
 9176SOL    HW238988   3.387   2.029   1.850 -0.5708 -1.7713  1.2815
 9177SOL     OW38989   2.542   3.816   7.568  0.6885 -0.6289  0.5282
 9177SOL    HW138990   2.474   3.761   7.607  1.1851 -0.0045  2.2608
 9177SOL    HW238991   2.496   3.855   7.493 -1.8579  0.4388  2.6591
 9178SOL     OW38992   1.557   4.600  15.286 -0.0248  0.0306  0.4679
 9178SOL    HW138993   1.616   4.539  15.331 -0.8393 -0.2903  1.0971
 9178SOL    HW238994   1.616   4.646  15.226  0.1635 -1.2737 -0.3385
 9179SOL     OW38995   3.318   3.253   0.574  0.0279  1.0084  0.6101
 9179SOL    HW138996   3.287   3.343   0.582 -2.6901  0.4092 -2.9857
 9179SOL    HW238997   3.388   3.240   0.638 -1.5342 -0.4535  2.0654
 9180SOL     OW38998   0.615   1.013   0.328 -0.2645  0.2068  0.3195
 9180SOL    HW138999   0.597   0.974   0.413 -0.8210 -0.9463 -0.3189
 9180SOL    HW239000   0.651   1.099   0.347  2.3558 -0.4123 -1.8796
 9181SOL     OW39001   2.469   3.725   5.205  0.2405  0.3556 -0.1576
 9181SOL    HW139002   2.554   3.739   5.246  1.5685 -0.6255 -2.4975
 9181SOL    HW239003   2.490   3.715   5.112  2.7157 -1.6664  0.6017
 9182SOL     OW39004   0.786   4.024   2.897  0.6459 -0.1952  0.0109
 9182SOL    HW139005   0.820   3.942   2.933 -0.4018 -0.1153  1.1662
 9182SOL    HW239006   0.752   4.062   2.978  0.4648  0.6786 -0.4766
 9183SOL     OW39007   0.272   2.049   7.984  0.2143 -0.3238  0.5191
 9183SOL    HW139008   0.219   2.061   7.905 -1.1532 -0.8960  1.3522
 9183SOL    HW239009   0.262   1.954   7.977  1.4605 -0.4437  0.4034
 9184SOL     OW39010   4.298   1.018   5.199 -0.0442 -0.1177  0.2801
 9184SOL    HW139011   4.214   0.983   5.229  0.9487 -1.6172  1.3133
 9184SOL    HW239012   4.354   1.021   5.276 -0.9064  1.6786  0.8237
 9185SOL     OW39013   2.259   3.313   5.050  0.1527 -0.0651  0.0411
 9185SOL    HW139014   2.279   3.224   5.077  0.0036 -0.3505 -0.8167
 9185SOL    HW239015   2.204   3.352   5.118  0.3004 -1.6821  1.0948
 9186SOL     OW39016   3.747   3.855  17.458 -0.0001  0.0971 -0.6096
 9186SOL    HW139017   3.654   3.871  17.475  0.2946  1.3313 -0.1303
 9186SOL    HW239018   3.740   3.802  17.379 -1.5914  0.9392 -1.0377
 9187SOL     OW39019   1.358   0.280  10.393 -0.1120  0.4267 -0.1353
 9187SOL    HW139020   1.326   0.190  10.400  3.2184 -0.6683  0.6518
 9187SOL    HW239021   1.354   0.309  10.484  2.3049  1.3018 -0.3196
 9188SOL     OW39022   1.503   3.784   8.065  0.0729 -0.1570  0.0932
 9188SOL    HW139023   1.518   3.762   8.157 -2.5680 -1.8576  0.1127
 9188SOL    HW239024   1.540   3.872   8.063  2.1067 -1.0202 -0.1571
 9189SOL     OW39025   2.258   2.618  14.545  0.5826 -0.2851  0.8009
 9189SOL    HW139026   2.314   2.543  14.564 -1.0881 -1.6349  0.4621
 9189SOL    HW239027   2.257   2.671  14.624  0.2946 -0.1079  0.6781
 9190SOL     OW39028   2.795   3.847  14.749  0.2501  0.4021  0.2622
 9190SOL    HW139029   2.711   3.819  14.714  0.3298  1.2415 -0.6012
 9190SOL    HW239030   2.792   3.940  14.728  1.2563  0.3541 -0.1035
 9191SOL     OW39031   4.677   1.354  10.991  0.2918 -0.6903 -0.2727
 9191SOL    HW139032   4.628   1.434  10.968 -1.1720 -0.8298  2.3812
 9191SOL    HW239033   4.711   1.371  11.079 -0.6415 -1.3125  0.2054
 9192SOL     OW39034   4.151   3.765   7.014  0.4161 -0.3318  0.0027
 9192SOL    HW139035   4.197   3.839   6.973 -0.3558 -1.8206 -3.5235
 9192SOL    HW239036   4.087   3.819   7.061  0.3249 -0.0050 -0.4924
 9193SOL     OW39037   1.080   2.553   9.030 -0.1216 -0.5685 -0.0706
 9193SOL    HW139038   1.106   2.547   9.123  0.4628 -0.4164 -0.2200
 9193SOL    HW239039   1.102   2.461   9.017  1.4627 -0.0163 -1.3019
 9194SOL     OW39040   2.605   2.331   6.020 -0.0893 -0.0085  0.1014
 9194SOL    HW139041   2.565   2.329   5.932  0.4703  1.9341 -0.1929
 9194SOL    HW239042   2.573   2.417   6.046  0.5221  0.4123 -0.5419
 9195SOL     OW39043   4.039   1.507   9.902  0.0563 -0.2199 -0.3572
 9195SOL    HW139044   4.080   1.435   9.951  0.5769  1.5941  1.8713
 9195SOL    HW239045   4.016   1.565   9.975  1.7561 -0.1820  0.1459
 9196SOL     OW39046   0.843   2.110   6.975 -0.2048 -0.4539 -0.3721
 9196SOL    HW139047   0.899   2.110   7.053 -0.8148 -1.6766  0.0692
 9196SOL    HW239048   0.834   2.016   6.960  0.2176 -0.7383  1.1920
 9197SOL     OW39049   3.781   2.075   8.239 -0.3982  0.2629 -0.1967
 9197SOL    HW139050   3.811   1.996   8.192 -0.2298  0.3331 -0.2100
 9197SOL    HW239051   3.846   2.141   8.216  0.9558 -1.1406 -0.4798
 9198SOL     OW39052   0.843   4.373  10.200 -0.6392 -0.1172  0.4904
 9198SOL    HW139053   0.760   4.417  10.219 -0.8559 -0.6508  0.7580
 9198SOL    HW239054   0.866   4.345  10.289  0.6773  1.1727  0.5646
 9199SOL     OW39055   1.900   0.589  12.066  0.3121  0.0669 -0.1386
 9199SOL    HW139056   1.826   0.619  12.014 -1.1203 -0.8652  1.3595
 9199SOL    HW239057   1.918   0.509  12.017  0.0016 -0.9965  1.4784
 9200SOL     OW39058   2.159   2.313  10.213  0.1708  0.0612 -0.3380
 9200SOL    HW139059   2.139   2.237  10.159  1.8284 -1.5237  1.2394
 9200SOL    HW239060   2.088   2.311  10.277  0.0053 -1.0993 -0.5632
 9201SOL     OW39061   2.747   4.527   6.260 -0.0422  0.0645  0.3248
 9201SOL    HW139062   2.813   4.548   6.327 -0.4761 -0.9473  1.0700
 9201SOL    HW239063   2.779   4.441   6.233  0.4577 -0.1123  1.4681
 9202SOL     OW39064   4.409   0.564  10.551 -0.0021 -0.2244  0.0222
 9202SOL    HW139065   4.319   0.537  10.536 -0.6000  1.9590 -0.4123
 9202SOL    HW239066   4.431   0.488  10.605 -1.2761  0.5437  1.6489
 9203SOL     OW39067   3.301   2.053  16.749  0.1284 -0.6679 -0.1531
 9203SOL    HW139068   3.287   2.133  16.800  0.7101 -1.8595  1.9011
 9203SOL    HW239069   3.368   2.079  16.686 -0.0862 -0.7412 -0.4119
 9204SOL     OW39070   3.360   3.355   6.021 -0.0029 -0.0025  0.1658
 9204SOL    HW139071   3.304   3.281   6.046 -0.6943  0.4180 -0.1407
 9204SOL    HW239072   3.419   3.353   6.096  1.1118  2.7345 -0.6250
 9205SOL     OW39073   1.786   2.255   5.736 -0.5376  0.5351  0.1590
 9205SOL    HW139074   1.806   2.254   5.830 -1.8571  1.5523  0.4488
 9205SOL    HW239075   1.732   2.177   5.724  0.2869  0.1680 -1.2276
 9206SOL     OW39076   1.805   4.117   5.038  0.5220 -0.1003  0.0374
 9206SOL    HW139077   1.795   4.024   5.018  0.1750 -0.1199  0.3009
 9206SOL    HW239078   1.899   4.132   5.040  0.5152 -0.1168  0.5003
 9207SOL     OW39079   2.103   3.430  13.117 -0.1232  0.6987 -0.1665
 9207SOL    HW139080   2.091   3.506  13.174 -0.2536 -0.0931  0.8706
 9207SOL    HW239081   2.021   3.430  13.067 -0.3489 -0.0423  0.1870
 9208SOL     OW39082   0.642   2.379  16.024 -0.1589 -0.4260  0.4111
 9208SOL    HW139083   0.555   2.409  15.997 -1.1582 -3.3705  0.3906
 9208SOL    HW239084   0.664   2.440  16.095  0.0994 -0.9936  0.8187
 9209SOL     OW39085   0.211   4.203  17.640 -0.2552 -0.5110 -0.1868
 9209SOL    HW139086   0.147   4.137  17.615 -1.3179  1.0500 -1.5743
 9209SOL    HW239087   0.235   4.181   0.024  2.9183 -0.0201 -0.8896
 9210SOL     OW39088   4.238   2.404   6.374  0.5862  0.2047  0.1105
 9210SOL    HW139089   4.162   2.348   6.385  0.8080 -0.0705  0.2457
 9210SOL    HW239090   4.285   2.393   6.457  0.3930  2.9106  0.5659
 9211SOL     OW39091   0.476   1.014   7.316 -0.2340 -0.4312  0.4323
 9211SOL    HW139092   0.447   1.094   7.360  0.8420  0.1916  0.0109
 9211SOL    HW239093   0.499   1.050   7.230 -1.4441  1.2507  0.8163
 9212SOL     OW39094   3.376   3.376   8.787 -0.1922  0.0716  0.4260
 9212SOL    HW139095   3.324   3.439   8.838 -0.9990  1.0599 -1.6087
 9212SOL    HW239096   3.402   3.433   8.715 -0.4361 -0.6039 -0.2017
 9213SOL     OW39097   3.052   2.227   2.896 -0.4011 -0.0200  0.0273
 9213SOL    HW139098   3.058   2.213   2.990  1.7488  0.5964 -0.0124
 9213SOL    HW239099   3.069   2.136   2.871 -0.9136 -0.2843  0.6490
 9214SOL     OW39100   4.337   1.955   8.374 -0.0013 -0.1026  0.3320
 9214SOL    HW139101   4.248   1.952   8.408  0.6770 -0.2259  2.1254
 9214SOL    HW239102   4.333   2.047   8.349 -0.4928 -0.5770 -1.3114
 9215SOL     OW39103   0.291   3.102   6.612  0.3915 -0.0401 -0.4866
 9215SOL    HW139104   0.232   3.029   6.632  0.8316 -0.6949 -1.6310
 9215SOL    HW239105   0.271   3.117   6.520 -1.8628  1.5708  0.2244
 9216SOL     OW39106   0.034   1.015  14.490 -0.3738  0.1239 -0.3035
 9216SOL    HW139107   0.115   0.996  14.538 -0.7642  0.1764  0.3744
 9216SOL    HW239108   0.066   0.987  14.404  2.2794 -0.2366  0.7883
 9217SOL     OW39109   2.018   1.353   4.098  0.5440  0.2771 -0.1358
 9217SOL    HW139110   1.999   1.281   4.160 -0.1909  0.1884 -0.4572
 9217SOL    HW239111   1.990   1.432   4.145  1.0022  0.4940 -0.2365
 9218SOL     OW39112   3.242   2.354   6.164  0.4050  0.1311 -0.1352
 9218SOL    HW139113   3.185   2.287   6.127 -1.9278  0.9597  1.9192
 9218SOL    HW239114   3.304   2.352   6.092  0.4848  0.0407 -0.0635
 9219SOL     OW39115   0.971   2.955   5.170  0.2988 -0.5154 -0.4753
 9219SOL    HW139116   0.946   3.032   5.221  1.1200 -0.8528  0.4305
 9219SOL    HW239117   0.926   2.973   5.088 -3.0364  0.1476  1.4871
 9220SOL     OW39118   3.286   3.763   6.485  0.1693  0.1772  0.0686
 9220SOL    HW139119   3.284   3.700   6.556  1.3690  0.2999  0.2180
 9220SOL    HW239120   3.381   3.772   6.490  0.0327  1.4830  0.2093
 9221SOL     OW39121   1.548   3.946  12.160 -0.3059  0.2000  0.1081
 9221SOL    HW139122   1.506   3.900  12.232 -1.1928  3.0560  1.4362
 9221SOL    HW239123   1.596   4.013  12.209 -0.2490  0.4711 -0.3081
 9222SOL     OW39124   3.883   0.919   5.716  0.6201 -0.4729  0.4823
 9222SOL    HW139125   3.884   0.831   5.679 -0.9578  0.7235 -2.4220
 9222SOL    HW239126   3.966   0.954   5.682 -1.4556  3.2911 -0.7059
 9223SOL     OW39127   0.432   4.171   4.752  0.4975  0.8963  0.0895
 9223SOL    HW139128   0.428   4.116   4.674  1.9376  1.7820 -0.6044
 9223SOL    HW239129   0.337   4.180   4.762  0.3214 -2.1150  1.2364
 9224SOL     OW39130   0.473   1.280   7.943  0.2602 -0.5399  0.2335
 9224SOL    HW139131   0.449   1.187   7.944  1.9228 -0.9701 -0.3824
 9224SOL    HW239132   0.541   1.251   7.883  0.7052 -1.3548  1.1121
 9225SOL     OW39133   0.595   3.904   5.135  0.2122  0.7591  0.0807
 9225SOL    HW139134   0.622   3.949   5.215  3.0138 -1.1037  0.1809
 9225SOL    HW239135   0.669   3.843   5.134  0.5000  1.1223 -0.8412
 9226SOL     OW39136   0.684   3.834   4.480 -0.3466  0.2606 -0.1914
 9226SOL    HW139137   0.698   3.919   4.439 -0.4554  0.5826  0.4449
 9226SOL    HW239138   0.605   3.853   4.530  1.3022 -1.2278  2.9403
 9227SOL     OW39139   2.158   1.955   7.999 -0.2466 -0.0048 -0.1667
 9227SOL    HW139140   2.246   1.930   8.025 -0.4998 -2.5052 -1.6641
 9227SOL    HW239141   2.161   2.044   8.033 -0.0285 -0.2894  0.5604
 9228SOL     OW39142   4.531   4.119   8.364  0.5374  0.1241 -0.1068
 9228SOL    HW139143   4.497   4.194   8.316 -0.3361  1.0003  1.8733
 9228SOL    HW239144   4.554   4.052   8.300 -1.4037 -0.2049 -0.4412
 9229SOL     OW39145   3.913   2.104   6.159 -0.1792  0.0816 -0.2595
 9229SOL    HW139146   3.826   2.095   6.198 -0.0880 -2.1076 -0.5591
 9229SOL    HW239147   3.937   2.015   6.132 -2.8168 -0.3895 -1.0456
 9230SOL     OW39148   0.920   3.541  10.388  0.0361 -0.2383  0.5603
 9230SOL    HW139149   0.984   3.585  10.332  0.3136  0.4846  1.4443
 9230SOL    HW239150   0.944   3.451  10.368  0.8118 -0.1085  0.8919
 9231SOL     OW39151   3.714   4.448   3.015 -0.0418  0.2479  0.2307
 9231SOL    HW139152   3.643   4.501   3.053  0.6302  1.4876 -0.2450
 9231SOL    HW239153   3.779   4.448   3.085  1.2574  0.1909 -0.9771
 9232SOL     OW39154   1.174   4.643   6.413  0.3900  0.1994 -0.3590
 9232SOL    HW139155   1.241   4.589   6.455  1.6664  1.8628 -0.2546
 9232SOL    HW239156   1.207   4.657   6.325  0.2708  1.3843 -0.2094
 9233SOL     OW39157   2.032   3.155   3.599 -0.3393  0.0211  0.3662
 9233SOL    HW139158   2.012   3.120   3.686  1.2230 -2.7583 -0.3702
 9233SOL    HW239159   2.069   3.236   3.633  0.2198 -0.8191  1.7874
 9234SOL     OW39160   1.469   1.096   3.716 -0.0397  0.1761 -0.2251
 9234SOL    HW139161   1.498   1.060   3.800  0.6867  2.0254  0.3257
 9234SOL    HW239162   1.470   1.191   3.729 -2.5473 -0.1080  1.9830
 9235SOL     OW39163   3.128   0.484   7.549 -0.1664 -0.4085 -0.2932
 9235SOL    HW139164   3.080   0.427   7.490 -1.8598  1.1657 -0.4315
 9235SOL    HW239165   3.075   0.563   7.557 -0.7867 -0.7029 -1.4195
 9236SOL     OW39166   2.669   4.525   7.647 -0.2646  0.0976 -0.4404
 9236SOL    HW139167   2.739   4.506   7.585 -2.2874  0.7369 -2.8871
 9236SOL    HW239168   2.591   4.547   7.596  0.3889 -0.8143 -1.8068
 9237SOL     OW39169   1.336   0.353   8.786 -0.2091  0.4298 -0.2992
 9237SOL    HW139170   1.243   0.371   8.798 -0.4673 -1.0260 -0.1221
 9237SOL    HW239171   1.341   0.374   8.693 -2.6675  1.8862 -0.0953
 9238SOL     OW39172   2.996   0.368   3.564 -0.2515  0.5732 -0.7284
 9238SOL    HW139173   3.075   0.390   3.613 -0.8914 -0.0015  0.5770
 9238SOL    HW239174   3.036   0.360   3.478 -2.5457  2.0826 -1.9528
 9239SOL     OW39175   4.576   2.035  13.041 -0.3685 -0.2417 -0.1493
 9239SOL    HW139176   4.599   2.098  12.972  1.0058 -0.2384  0.3130
 9239SOL    HW239177   4.602   1.960  12.987 -3.0487 -0.5789 -0.9747
 9240SOL     OW39178   4.504   0.035   3.766 -0.5601 -0.1739 -0.1524
 9240SOL    HW139179   4.485   0.127   3.785  0.0114 -0.1522  0.2997
 9240SOL    HW239180   4.412   0.012   3.755  0.0258 -2.5099 -0.1747
 9241SOL     OW39181   0.756   3.423   5.963  0.4703 -0.3144  0.7673
 9241SOL    HW139182   0.702   3.478   5.907  0.4631 -0.6083  0.4842
 9241SOL    HW239183   0.691   3.377   6.017  0.3273 -1.5045 -0.4175
 9242SOL     OW39184   2.568   0.536   7.747 -0.4159  0.1609  0.3379
 9242SOL    HW139185   2.486   0.493   7.771 -0.0070 -0.1702  1.1127
 9242SOL    HW239186   2.540   0.628   7.745 -1.7386 -0.3215 -2.6411
 9243SOL     OW39187   1.284   0.880  13.839 -0.1299 -0.0786 -0.0462
 9243SOL    HW139188   1.310   0.889  13.748  3.3276 -2.1925  0.7223
 9243SOL    HW239189   1.193   0.849  13.840  0.8490 -2.9860  0.2350
 9244SOL     OW39190   2.288   4.136   3.197  0.5360 -0.4878 -0.1861
 9244SOL    HW139191   2.265   4.229   3.204  0.1264 -0.3939 -2.8257
 9244SOL    HW239192   2.207   4.100   3.233  0.8910  0.3495  1.4543
 9245SOL     OW39193   4.654   4.522   2.681  0.3183  0.4366 -0.5751
 9245SOL    HW139194   4.566   4.490   2.662  1.1064 -0.6681 -2.4065
 9245SOL    HW239195   4.635   4.613   2.701 -2.8095 -0.7360  1.6717
 9246SOL     OW39196   2.054   4.237   2.042  0.2521  0.0581 -0.2471
 9246SOL    HW139197   2.103   4.175   1.987  0.2015 -1.2345  1.1625
 9246SOL    HW239198   2.073   4.317   1.994 -1.3432 -0.0606 -1.0626
 9247SOL     OW39199   3.015   2.105   9.694  0.6597 -0.5022  0.4536
 9247SOL    HW139200   3.080   2.110   9.624  0.5282 -0.4689  0.3340
 9247SOL    HW239201   3.007   2.195   9.725  3.2575 -0.3874  0.7878
 9248SOL     OW39202   4.216   1.088   7.724 -0.2283 -0.0060  1.1232
 9248SOL    HW139203   4.262   1.089   7.808 -0.2609 -1.0632  1.1485
 9248SOL    HW239204   4.150   1.152   7.750 -0.6510  0.3477 -0.8304
 9249SOL     OW39205   4.234   4.211  14.651 -0.5686  0.4808  0.1457
 9249SOL    HW139206   4.141   4.187  14.650 -0.2220 -0.8677  1.0111
 9249SOL    HW239207   4.226   4.269  14.727 -3.6935 -0.2298  0.3964
 9250SOL     OW39208   1.528   0.630  15.868 -0.2711  0.0960  0.1622
 9250SOL    HW139209   1.514   0.724  15.880  1.1548  0.1727  1.1899
 9250SOL    HW239210   1.466   0.596  15.803  0.7395 -0.4500 -0.5166
 9251SOL     OW39211   3.876   3.124   8.650 -0.8136  0.5136  0.3385
 9251SOL    HW139212   3.782   3.127   8.664 -1.0148 -2.1377 -0.4802
 9251SOL    HW239213   3.918   3.165   8.726  0.8755 -0.9961  0.2260
 9252SOL     OW39214   1.039   3.792   2.607 -0.2098 -0.4205 -0.4967
 9252SOL    HW139215   0.998   3.838   2.534  1.5032 -0.9160 -1.7593
 9252SOL    HW239216   1.099   3.859   2.641 -0.5103 -1.1421  1.5043
 9253SOL     OW39217   3.215   4.439   7.372  0.2358  0.1975  0.4451
 9253SOL    HW139218   3.227   4.474   7.284 -0.1257 -0.7076  0.0348
 9253SOL    HW239219   3.276   4.491   7.425  1.2907  0.2273 -0.8041
 9254SOL     OW39220   0.011   3.174   3.279 -0.4946  0.0692 -0.2673
 9254SOL    HW139221   0.082   3.126   3.320  0.6877 -0.2971 -2.7657
 9254SOL    HW239222   0.010   3.165   3.184  0.5200  0.9557 -0.3689
 9255SOL     OW39223   0.910   1.681   7.206 -0.3327  0.4795 -0.1308
 9255SOL    HW139224   1.003   1.666   7.224 -0.3912 -0.2080 -0.4059
 9255SOL    HW239225   0.876   1.681   7.295 -3.1557  3.6559 -1.1932
 9256SOL     OW39226   0.460   3.432   5.866 -0.8111  0.3474  0.5338
 9256SOL    HW139227   0.388   3.386   5.908 -1.5096 -0.7985 -1.9291
 9256SOL    HW239228   0.452   3.420   5.771 -0.4155 -0.9749  0.6773
 9257SOL     OW39229   1.621   3.895   7.670  0.7742  0.0889 -0.1749
 9257SOL    HW139230   1.613   3.820   7.729  0.5975 -0.2020 -0.5675
 9257SOL    HW239231   1.702   3.937   7.699  0.1779 -0.7588  2.7254
 9258SOL     OW39232   2.648   2.619   6.462  0.2780  0.0466  0.6603
 9258SOL    HW139233   2.688   2.550   6.514  1.9796  1.1032  0.7631
 9258SOL    HW239234   2.637   2.566   6.383 -1.1657  1.8016 -0.3105
 9259SOL     OW39235   0.623   1.122   7.094  0.0500 -0.0034 -0.1626
 9259SOL    HW139236   0.669   1.081   7.021  0.5595 -0.7367  0.5680
 9259SOL    HW239237   0.591   1.203   7.054  0.7457 -0.1187 -0.9345
 9260SOL     OW39238   4.208   1.374   7.322 -0.3637  0.1617 -0.1484
 9260SOL    HW139239   4.159   1.292   7.333 -0.4887  0.2373 -0.1435
 9260SOL    HW239240   4.151   1.427   7.266  2.6421  1.3955 -2.0682
 9261SOL     OW39241   4.468   4.526  13.075 -0.1507  0.3474 -0.2422
 9261SOL    HW139242   4.420   4.453  13.035  1.2360  0.1032 -1.4729
 9261SOL    HW239243   4.389   4.553  13.122  1.8059 -0.4086  3.4853
 9262SOL     OW39244   2.593   4.626  12.493 -0.1395  0.5851 -0.3950
 9262SOL    HW139245   2.665   4.588  12.442  0.4302  0.6590  0.3481
 9262SOL    HW239246   2.637   4.636  12.578 -1.3686 -0.4522  0.3677
 9263SOL     OW39247   4.026   3.853  17.238  0.1351  0.3047  0.1450
 9263SOL    HW139248   3.971   3.774  17.245  2.0896 -1.0239  0.4823
 9263SOL    HW239249   3.984   3.893  17.162  1.6894 -0.4656 -1.1086
 9264SOL     OW39250   1.548   1.828   5.104  0.3388  0.1329  0.4090
 9264SOL    HW139251   1.519   1.823   5.013 -0.3265 -0.4234  0.6542
 9264SOL    HW239252   1.559   1.735   5.125 -0.4483  0.2786  1.5266
 9265SOL     OW39253   3.574   1.702   6.436  0.5909 -0.2281  0.3165
 9265SOL    HW139254   3.540   1.773   6.491  0.6511 -0.1552  0.2578
 9265SOL    HW239255   3.597   1.752   6.359 -1.4952 -0.9983 -0.8224
 9266SOL     OW39256   1.642   2.422   4.467  0.1373  0.0029 -0.0945
 9266SOL    HW139257   1.679   2.510   4.472 -0.3752  0.2220 -0.2087
 9266SOL    HW239258   1.585   2.424   4.390 -0.6039  0.0361  0.4594
 9267SOL     OW39259   3.041   4.568   3.024  0.2207  0.1785 -0.1927
 9267SOL    HW139260   3.052   4.662   3.043 -0.7591 -0.1326  1.9808
 9267SOL    HW239261   2.953   4.563   3.059  0.6415 -0.2722  0.8074
 9268SOL     OW39262   2.445   0.864   7.221 -0.2726 -0.1035 -0.3561
 9268SOL    HW139263   2.513   0.929   7.240 -0.1325 -1.0105  2.2170
 9268SOL    HW239264   2.497   0.785   7.207  0.0667 -0.1917  1.3852
 9269SOL     OW39265   3.500   3.643   1.954 -0.2426  1.0562  0.3806
 9269SOL    HW139266   3.419   3.631   1.904  1.3499 -1.1070 -1.6274
 9269SOL    HW239267   3.473   3.606   2.039  1.1422  0.6618  0.6427
 9270SOL     OW39268   2.938   4.340  12.437  0.3593  0.3826 -0.0712
 9270SOL    HW139269   2.893   4.297  12.509 -1.8178  1.9980 -0.4657
 9270SOL    HW239270   2.988   4.405  12.485  1.1278 -1.1720  1.2304
 9271SOL     OW39271   4.230   0.945   5.674  0.2543 -0.1586  0.1300
 9271SOL    HW139272   4.230   0.852   5.694  0.1190 -0.7750 -2.7538
 9271SOL    HW239273   4.196   0.947   5.585  0.2890 -1.0866  0.0969
 9272SOL     OW39274   3.414   4.396   7.102 -0.1133  0.2402 -0.3411
 9272SOL    HW139275   3.345   4.461   7.089 -2.0166 -1.7090  0.1064
 9272SOL    HW239276   3.429   4.355   7.017 -0.1399  0.3254 -0.3869
 9273SOL     OW39277   1.585   4.076   7.186  0.5325  0.1158  0.3333
 9273SOL    HW139278   1.596   4.031   7.270 -1.5091 -0.3206  0.3676
 9273SOL    HW239279   1.663   4.130   7.192  0.0434  1.1228 -2.4338
 9274SOL     OW39280   3.283   2.260  11.641  0.3062  0.2211 -0.4512
 9274SOL    HW139281   3.195   2.231  11.663  0.5939  0.3958  0.9137
 9274SOL    HW239282   3.284   2.263  11.545  1.7506  0.2288 -0.4422
 9275SOL     OW39283   2.850   1.307   5.643 -0.7022  0.1297  0.0180
 9275SOL    HW139284   2.931   1.282   5.687 -0.0552  0.3806 -1.0153
 9275SOL    HW239285   2.888   1.383   5.597 -1.2170  0.9403  0.9410
 9276SOL     OW39286   3.784   3.545  12.904  0.2307 -0.0508 -0.3629
 9276SOL    HW139287   3.835   3.527  12.826  1.2819 -0.1619  0.3578
 9276SOL    HW239288   3.765   3.639  12.894 -1.7709 -0.2921  1.1281
 9277SOL     OW39289   1.600   1.426  10.041 -0.0873 -0.2372  0.2660
 9277SOL    HW139290   1.656   1.406   9.966 -0.0846 -2.8112  0.9561
 9277SOL    HW239291   1.638   1.510  10.067 -1.4735  1.0091 -1.7977
 9278SOL     OW39292   2.821   4.288   8.595  0.2489  0.5227  0.1157
 9278SOL    HW139293   2.861   4.372   8.619  0.1629  1.2911 -2.4249
 9278SOL    HW239294   2.897   4.246   8.555  1.3740  1.8239  0.8754
 9279SOL     OW39295   4.444   1.297   0.023  0.3309  0.5420  0.2090
 9279SOL    HW139296   4.487   1.295   0.108 -0.1708  0.5102  0.4573
 9279SOL    HW239297   4.374   1.232   0.028  1.1536 -0.1176  2.9344
 9280SOL     OW39298   3.396   4.300  16.563  0.1679  0.9070  0.0781
 9280SOL    HW139299   3.456   4.279  16.492  1.1782 -1.5841  1.6453
 9280SOL    HW239300   3.324   4.325  16.504  1.1093  0.6521 -1.1740
 9281SOL     OW39301   4.635   0.269   3.854 -0.3597 -0.3414 -0.6449
 9281SOL    HW139302   4.680   0.271   3.770  1.5955 -1.5165  0.3535
 9281SOL    HW239303   4.700   0.315   3.908 -0.1515 -0.5606 -0.7097
 9282SOL     OW39304   1.449   2.667  12.549 -0.0135  0.8741 -0.1008
 9282SOL    HW139305   1.359   2.638  12.563 -0.4020  2.4435  0.6144
 9282SOL    HW239306   1.492   2.587  12.520 -3.0616 -0.8950  0.2478
 9283SOL     OW39307   1.430   3.737   8.539  0.3811  0.7391 -0.2179
 9283SOL    HW139308   1.467   3.765   8.623  0.3740 -0.4372  0.1761
 9283SOL    HW239309   1.345   3.699   8.560  1.6674 -2.8701 -1.3853
 9284SOL     OW39310   0.047   1.371  11.265 -0.4004 -0.1765 -0.0567
 9284SOL    HW139311   4.718   1.296  11.287  1.1011 -0.9825  1.0662
 9284SOL    HW239312   0.125   1.329  11.227 -1.8053 -2.0466 -0.8544
 9285SOL     OW39313   0.073   3.601   9.021 -0.4188 -0.0364 -0.2095
 9285SOL    HW139314   0.020   3.530   9.059  0.1664  0.9184  2.3650
 9285SOL    HW239315   0.146   3.557   8.978 -1.2978  0.9813 -2.6925
 9286SOL     OW39316   2.999   2.647   3.891 -0.6052 -0.2013  0.4493
 9286SOL    HW139317   2.965   2.706   3.957 -0.4555  0.3023  0.0768
 9286SOL    HW239318   2.916   2.627   3.847 -0.0257 -1.4813 -0.0752
 9287SOL     OW39319   3.637   2.010   5.475  0.0073  0.3713  0.3434
 9287SOL    HW139320   3.727   2.032   5.498  1.1042 -2.6483 -1.0913
 9287SOL    HW239321   3.605   2.064   5.548 -0.3782  1.2005 -0.4436
 9288SOL     OW39322   2.841   2.180  10.968 -0.5079 -0.0773  0.3650
 9288SOL    HW139323   2.903   2.245  11.001 -1.0458  0.0897  1.0318
 9288SOL    HW239324   2.887   2.152  10.889 -1.8069  0.0886 -0.4479
 9289SOL     OW39325   3.180   2.041   2.713  0.2693 -0.4495 -0.6668
 9289SOL    HW139326   3.245   1.994   2.660 -0.6172 -1.2719 -1.0385
 9289SOL    HW239327   3.183   2.132   2.684 -1.3503 -0.4960 -1.0056
 9290SOL     OW39328   3.160   0.656   2.066  0.1235 -0.0968  0.0903
 9290SOL    HW139329   3.233   0.602   2.096 -1.4259  0.2274  4.4687
 9290SOL    HW239330   3.143   0.625   1.978 -0.5236 -2.3416  1.0033
 9291SOL     OW39331   1.036   2.526  11.308 -0.0650  0.5885 -0.1726
 9291SOL    HW139332   1.033   2.600  11.368  3.8619  1.0942 -0.5775
 9291SOL    HW239333   1.006   2.456  11.366  0.8675  0.2565 -0.0852
 9292SOL     OW39334   4.415   1.136   8.529 -0.3666  0.1989  0.5490
 9292SOL    HW139335   4.496   1.175   8.561 -0.5153  0.3369  0.7604
 9292SOL    HW239336   4.396   1.083   8.606  1.1048  0.8225  1.3469
 9293SOL     OW39337   0.644   0.177   4.342 -0.1396 -0.4019 -0.9242
 9293SOL    HW139338   0.681   0.133   4.265 -1.4838 -1.4672 -0.9648
 9293SOL    HW239339   0.573   0.227   4.301 -1.1545 -0.5486  0.6455
 9294SOL     OW39340   1.577   0.711   1.657 -0.2570 -0.4674 -0.3509
 9294SOL    HW139341   1.535   0.730   1.741 -1.0605  0.8577 -1.0551
 9294SOL    HW239342   1.506   0.697   1.595  1.4479  0.1706 -2.4511
 9295SOL     OW39343   2.225   0.809   7.064  0.2187 -0.4750  0.5508
 9295SOL    HW139344   2.295   0.829   7.127  1.3521  1.0326 -1.2153
 9295SOL    HW239345   2.257   0.834   6.978  1.8114  0.2966  1.3640
 9296SOL     OW39346   3.549   0.496   5.098  0.3980  0.1488  0.6040
 9296SOL    HW139347   3.591   0.454   5.023 -0.3672  0.0731  0.2174
 9296SOL    HW239348   3.628   0.497   5.152  0.9387  1.4383 -0.2002
 9297SOL     OW39349   2.681   1.002   5.283  0.2752 -0.0119 -0.0764
 9297SOL    HW139350   2.715   1.029   5.197  0.7566  2.0150  0.7610
 9297SOL    HW239351   2.694   0.908   5.268  2.6392 -0.0195  2.1027
 9298SOL     OW39352   3.262   0.476   5.619 -0.3525 -0.2606 -0.3330
 9298SOL    HW139353   3.339   0.533   5.620  0.9354 -1.9926 -0.0772
 9298SOL    HW239354   3.306   0.394   5.643  0.1019 -0.2378 -1.1212
 9299SOL     OW39355   1.329   4.521   4.187 -0.1175  1.1966 -0.2404
 9299SOL    HW139356   1.264   4.497   4.122  0.6984 -1.2400 -0.1664
 9299SOL    HW239357   1.408   4.521   4.133 -0.5931  2.6158 -0.9315
 9300SOL     OW39358   4.088   0.484   9.333 -0.2868 -0.0158  0.3976
 9300SOL    HW139359   4.013   0.466   9.277 -0.6117  0.2083  0.7653
 9300SOL    HW239360   4.145   0.526   9.269 -1.6959 -1.5556 -1.8679
 9301SOL     OW39361   0.072   0.077   4.476 -0.0120 -0.6159  0.5424
 9301SOL    HW139362   0.022   0.144   4.428  4.0812  1.6280 -0.6074
 9301SOL    HW239363   0.036   4.725   4.434  0.1625 -0.8739  0.8796
 9302SOL     OW39364   1.311   1.689  15.174  0.2081 -0.1835  0.1696
 9302SOL    HW139365   1.318   1.601  15.211 -3.4913 -1.0624 -1.1820
 9302SOL    HW239366   1.388   1.693  15.117 -0.2063  0.3901 -0.3536
 9303SOL     OW39367   4.361   4.545   6.010  0.0674  0.5077  0.6360
 9303SOL    HW139368   4.339   4.566   6.101  1.0250  0.7871  0.7953
 9303SOL    HW239369   4.450   4.580   6.012  0.4141 -0.6007  4.2315
 9304SOL     OW39370   3.235   3.874   8.849 -0.3982  0.3447 -0.1181
 9304SOL    HW139371   3.158   3.931   8.851 -2.0499 -1.8829 -0.3198
 9304SOL    HW239372   3.301   3.929   8.806  1.3343 -2.0715 -0.5421
 9305SOL     OW39373   4.047   1.254   4.086 -0.2557 -0.1336 -0.1571
 9305SOL    HW139374   4.134   1.214   4.096 -0.7764 -1.6976 -2.0659
 9305SOL    HW239375   3.992   1.177   4.097 -0.1908  0.0213  1.2264
 9306SOL     OW39376   4.466   4.562  17.684 -0.1079 -0.2362 -0.0890
 9306SOL    HW139377   4.450   4.603   0.064  2.2779  1.4580 -0.4353
 9306SOL    HW239378   4.382   4.570  17.640 -0.5855 -0.6633  0.7437
 9307SOL     OW39379   4.078   0.014   9.765 -0.4670 -0.1588 -0.3757
 9307SOL    HW139380   4.006   4.678   9.776  0.8778 -1.4697  1.1828
 9307SOL    HW239381   4.117   0.013   9.853  1.0995  1.1149 -1.0512
 9308SOL     OW39382   0.783   1.231   4.990  0.4723 -0.3461 -0.1552
 9308SOL    HW139383   0.853   1.206   4.931 -1.3269 -2.7124 -1.2666
 9308SOL    HW239384   0.739   1.149   5.013  1.8276 -0.9851  0.1411
 9309SOL     OW39385   1.544   3.340   4.602 -0.4384  0.1763  0.3552
 9309SOL    HW139386   1.555   3.382   4.516 -0.6263 -0.2979  0.1042
 9309SOL    HW239387   1.599   3.265   4.581 -2.0059 -0.1005 -2.7112
 9310SOL     OW39388   3.729   3.097   2.072  0.0265  0.0167  0.6140
 9310SOL    HW139389   3.658   3.057   2.121 -0.6945  0.4086 -0.1020
 9310SOL    HW239390   3.723   3.186   2.108  2.1602  0.1973  0.4879
 9311SOL     OW39391   1.398   4.447   2.166  0.0942  0.2532  0.3244
 9311SOL    HW139392   1.457   4.496   2.109 -2.1357 -0.4496 -2.6046
 9311SOL    HW239393   1.449   4.457   2.246 -0.6938 -1.7781  1.0835
 9312SOL     OW39394   4.155   1.065   6.313  0.3369 -0.3862 -0.7230
 9312SOL    HW139395   4.200   1.050   6.396 -2.0801  2.1294  1.0409
 9312SOL    HW239396   4.215   1.030   6.246 -1.5244  0.2286 -2.7312
 9313SOL     OW39397   2.831   3.940   1.571  0.1598  0.1032 -0.9024
 9313SOL    HW139398   2.868   4.013   1.621  0.7190 -0.1893 -0.8943
 9313SOL    HW239399   2.819   3.988   1.488 -1.8029  1.6883  0.2689
 9314SOL     OW39400   3.791   0.581   4.850  0.9359 -0.0518 -0.7247
 9314SOL    HW139401   3.841   0.655   4.816  2.4509 -0.3209  0.9439
 9314SOL    HW239402   3.703   0.615   4.835 -0.3801 -2.3108  1.8500
 9315SOL     OW39403   1.515   3.979  17.520  0.1972  0.1523 -0.1795
 9315SOL    HW139404   1.516   3.957  17.427  0.2364 -0.2639 -0.0789
 9315SOL    HW239405   1.428   3.954  17.549  0.3175  0.5367  0.5332
 9316SOL     OW39406   1.873   1.127   5.833 -0.4320 -0.3029  0.5989
 9316SOL    HW139407   1.900   1.212   5.800 -0.3784 -0.6668 -0.2901
 9316SOL    HW239408   1.953   1.113   5.883  0.1686  1.3538  0.1027
 9317SOL     OW39409   0.128   3.304   1.136  0.0557  0.3201 -0.0842
 9317SOL    HW139410   0.081   3.360   1.198  1.0956  1.7773 -0.6138
 9317SOL    HW239411   0.064   3.245   1.095 -0.0482  0.7105 -0.4762
 9318SOL     OW39412   2.304   3.697   1.780 -0.4456  0.6567  0.1959
 9318SOL    HW139413   2.261   3.615   1.805 -0.6019  0.4659 -0.6933
 9318SOL    HW239414   2.229   3.755   1.794  0.1408  1.5281 -0.2592
 9319SOL     OW39415   1.693   3.507   6.225 -0.2904 -0.0720  0.7653
 9319SOL    HW139416   1.748   3.429   6.223 -0.1258  0.0739 -0.2896
 9319SOL    HW239417   1.763   3.573   6.223 -0.5225  0.0557 -2.8180
 9320SOL     OW39418   2.464   2.505   6.770  0.4818 -0.4114 -0.4085
 9320SOL    HW139419   2.471   2.535   6.861 -1.3010  0.6785 -0.6375
 9320SOL    HW239420   2.503   2.576   6.720  2.0756  0.2522  1.7866
 9321SOL     OW39421   2.047   4.348   3.588 -0.2192  0.2241 -0.5605
 9321SOL    HW139422   1.988   4.358   3.663  0.6742  1.6648 -0.0672
 9321SOL    HW239423   2.102   4.426   3.595  0.2367 -0.4821  3.9352
 9322SOL     OW39424   0.539   1.111   9.268  0.6362 -0.5766  0.2270
 9322SOL    HW139425   0.482   1.039   9.242 -0.6654  0.9688 -1.1758
 9322SOL    HW239426   0.566   1.147   9.184 -1.2236  1.1919  0.3668
 9323SOL     OW39427   1.483   3.351   5.830  0.4931  0.0324  0.2869
 9323SOL    HW139428   1.448   3.338   5.918  0.4422  2.2685  0.6166
 9323SOL    HW239429   1.511   3.443   5.837  0.5914  0.1691 -1.8736
 9324SOL     OW39430   4.581   1.505  10.691 -0.1910 -0.0614 -1.0106
 9324SOL    HW139431   4.549   1.564  10.623  0.7601  1.8598  0.2319
 9324SOL    HW239432   4.621   1.440  10.632  1.8642 -0.5395  0.9247
 9325SOL     OW39433   1.743   1.998   8.587 -0.2830  0.0613  0.1872
 9325SOL    HW139434   1.755   2.093   8.589  0.4011 -0.0103 -0.5208
 9325SOL    HW239435   1.718   1.986   8.496  2.5223 -1.2652 -0.4307
 9326SOL     OW39436   4.203   3.200   9.007 -0.0639 -0.3287 -0.0239
 9326SOL    HW139437   4.183   3.177   9.098 -0.4395 -0.6618 -0.1923
 9326SOL    HW239438   4.257   3.121   8.992 -0.0441 -0.7883  2.4167
 9327SOL     OW39439   2.606   3.320   7.678  0.3255 -0.2089 -0.0817
 9327SOL    HW139440   2.599   3.258   7.751  0.7761  1.1463  1.1213
 9327SOL    HW239441   2.674   3.283   7.623  1.3056 -0.1798  1.1296
 9328SOL     OW39442   1.664   1.373   6.143  0.0212  0.0414  0.7894
 9328SOL    HW139443   1.690   1.443   6.204  0.1711 -0.4451  1.2885
 9328SOL    HW239444   1.658   1.424   6.063  1.7113 -0.7032  0.1792
 9329SOL     OW39445   2.822   2.872   9.174 -0.7700 -0.2522 -0.0770
 9329SOL    HW139446   2.876   2.794   9.162  0.3424  0.4763  0.2107
 9329SOL    HW239447   2.761   2.842   9.242 -0.5307 -2.2482 -0.7403
 9330SOL     OW39448   0.402   0.055   8.361 -0.0244 -0.1531  0.1665
 9330SOL    HW139449   0.489   0.061   8.319  0.3968 -0.8374  0.9504
 9330SOL    HW239450   0.384   0.137   8.406  2.0015  1.1354 -1.3609
 9331SOL     OW39451   3.818   1.807  11.126  0.4793 -0.3506  0.0177
 9331SOL    HW139452   3.867   1.806  11.208 -3.0491  1.2643  2.1482
 9331SOL    HW239453   3.894   1.795  11.069  1.5553 -0.3288  1.4460
 9332SOL     OW39454   3.555   0.681  10.701 -0.4250  0.1669  0.5307
 9332SOL    HW139455   3.478   0.681  10.758 -2.2202 -1.4998 -1.9135
 9332SOL    HW239456   3.559   0.588  10.678 -4.2975  0.4209 -1.1194
 9333SOL     OW39457   2.537   2.757   5.391 -0.6672 -0.2357 -0.4188
 9333SOL    HW139458   2.453   2.742   5.435  0.0489 -1.9998  0.3382
 9333SOL    HW239459   2.532   2.705   5.311  0.6571 -1.8411  0.5538
 9334SOL     OW39460   1.087   4.721   9.002 -0.1555 -0.8087 -0.3917
 9334SOL    HW139461   1.047   0.005   8.915 -0.4119 -0.0699 -0.1850
 9334SOL    HW239462   1.014   4.704   9.061 -1.3498  0.8345 -1.3884
 9335SOL     OW39463   2.224   1.311   7.133 -0.2022 -0.1499  0.1936
 9335SOL    HW139464   2.265   1.226   7.149  1.1068  0.1570 -1.5615
 9335SOL    HW239465   2.158   1.319   7.202  0.2997 -1.5354  0.8229
 9336SOL     OW39466   0.899   2.130   2.530  0.6037 -0.6811 -0.0149
 9336SOL    HW139467   0.811   2.139   2.566  0.0012 -0.6613 -1.5287
 9336SOL    HW239468   0.885   2.061   2.466  1.0778 -1.5256  0.7750
 9337SOL     OW39469   1.044   4.416  11.985  0.1028 -0.0826  0.1562
 9337SOL    HW139470   1.109   4.362  11.941  0.0277 -1.3251  1.6017
 9337SOL    HW239471   0.973   4.361  12.017  0.2099 -0.5973 -0.4966
 9338SOL     OW39472   1.541   3.615   5.955  0.6222  0.1236  0.6363
 9338SOL    HW139473   1.560   3.616   6.048 -1.5482  0.2800  1.0702
 9338SOL    HW239474   1.483   3.690   5.942 -0.5949 -0.6829  1.3962
 9339SOL     OW39475   3.754   4.111  17.291 -0.6718 -0.2543 -1.0407
 9339SOL    HW139476   3.826   4.162  17.328 -0.2485 -1.5377 -0.0859
 9339SOL    HW239477   3.763   4.031  17.342 -0.4236  0.5922  0.2568
 9340SOL     OW39478   2.237   3.567   0.302  0.4375 -0.2062 -0.7422
 9340SOL    HW139479   2.198   3.484   0.331  1.1266 -0.3470 -0.2230
 9340SOL    HW239480   2.197   3.624   0.368  1.0642  1.7398 -2.0880
 9341SOL     OW39481   3.668   0.690   0.620 -0.0903  0.3248 -0.1818
 9341SOL    HW139482   3.594   0.677   0.679  1.4470  0.8942  1.8562
 9341SOL    HW239483   3.637   0.671   0.531  0.5948  0.9772 -0.5576
 9342SOL     OW39484   0.770   3.864   8.936  0.2004  0.1137  0.2673
 9342SOL    HW139485   0.760   3.862   9.031  0.2055 -1.6353  0.2300
 9342SOL    HW239486   0.850   3.811   8.938  1.4788  2.0584  0.2492
 9343SOL     OW39487   3.818   3.715   2.321  0.5570 -0.0296 -0.2626
 9343SOL    HW139488   3.791   3.703   2.231  4.3737 -0.7789 -1.3203
 9343SOL    HW239489   3.833   3.809   2.314 -1.4717  0.0708 -3.2416
 9344SOL     OW39490   3.999   4.493   8.001  0.2477  0.3548  0.1574
 9344SOL    HW139491   3.916   4.454   7.976  0.7648 -0.7096  0.1031
 9344SOL    HW239492   4.054   4.464   7.928 -2.7720 -3.1574 -0.6903
 9345SOL     OW39493   0.035   0.306   2.550 -0.3500 -0.2484  0.2586
 9345SOL    HW139494   0.113   0.289   2.497 -0.6650 -1.9081  0.3264
 9345SOL    HW239495   4.708   0.345   2.481  0.6094  1.1943  0.3387
 9346SOL     OW39496   1.840   4.399   3.353  0.0102  0.0791 -1.2005
 9346SOL    HW139497   1.800   4.353   3.426  1.7204  1.3373  0.5110
 9346SOL    HW239498   1.876   4.323   3.307  3.5505  0.6823  0.5818
 9347SOL     OW39499   0.742   0.931   4.203 -0.0754 -0.0556  0.0422
 9347SOL    HW139500   0.764   0.960   4.114  1.9788  1.0386  0.8984
 9347SOL    HW239501   0.697   1.013   4.226  0.5871 -0.1910  1.7948
 9348SOL     OW39502   3.781   1.135  12.303  0.1792  0.3291 -0.2239
 9348SOL    HW139503   3.859   1.088  12.332 -1.1886 -0.9465  1.3759
 9348SOL    HW239504   3.781   1.070  12.232 -0.3111 -0.4008  0.4435
 9349SOL     OW39505   1.330   2.599   6.185  0.2797 -0.1388 -0.2898
 9349SOL    HW139506   1.329   2.646   6.101  0.2984  1.3995  0.5685
 9349SOL    HW239507   1.239   2.618   6.210  0.3072  1.4848 -1.3835
 9350SOL     OW39508   0.498   0.888   8.854 -0.0577  0.1130 -0.4642
 9350SOL    HW139509   0.500   0.816   8.791 -1.2565  1.9050 -2.5433
 9350SOL    HW239510   0.410   0.923   8.840  0.0052  1.0671  1.5338
 9351SOL     OW39511   1.967   2.771  12.005 -0.7893  0.0018 -0.2829
 9351SOL    HW139512   1.916   2.836  12.053 -0.0659  0.0808  0.3822
 9351SOL    HW239513   1.972   2.709  12.077  0.5066  0.8621  0.3750
 9352SOL     OW39514   0.324   0.581  17.039  0.1237 -0.5393  0.6300
 9352SOL    HW139515   0.370   0.530  16.973  0.7614  1.8757 -0.7797
 9352SOL    HW239516   0.257   0.518  17.066 -0.3114 -0.6694 -0.7418
 9353SOL     OW39517   1.228   0.222   0.464 -0.1752 -0.3696 -0.3416
 9353SOL    HW139518   1.167   0.275   0.516  0.5722  0.4544 -0.3048
 9353SOL    HW239519   1.306   0.198   0.514 -0.5270  2.5056  1.6293
 9354SOL     OW39520   4.545   1.997   0.334  0.2611 -0.1530  0.4464
 9354SOL    HW139521   4.581   1.909   0.340  2.4547  0.6480 -0.7140
 9354SOL    HW239522   4.614   2.046   0.288 -2.3682  1.3628 -1.9266
 9355SOL     OW39523   1.605   1.519   7.151 -0.0493  0.4442  0.5417
 9355SOL    HW139524   1.641   1.506   7.238 -0.0599  0.7678  0.5973
 9355SOL    HW239525   1.657   1.456   7.101 -2.0567  0.3879 -1.4929
 9356SOL     OW39526   1.581   2.751   5.264 -0.2849  0.2535  0.3317
 9356SOL    HW139527   1.606   2.659   5.270 -0.2613  0.1606 -1.1152
 9356SOL    HW239528   1.601   2.789   5.349  1.3337  0.6502 -0.2315
 9357SOL     OW39529   4.074   4.198   3.684  0.6728  0.7090 -0.2627
 9357SOL    HW139530   4.114   4.261   3.624  1.8904  0.4824  0.3247
 9357SOL    HW239531   4.154   4.148   3.700 -0.9174 -1.0392  2.1759
 9358SOL     OW39532   2.736   0.654   8.433 -0.5453  0.3875  0.1313
 9358SOL    HW139533   2.821   0.659   8.477 -1.3531  1.5055  1.5826
 9358SOL    HW239534   2.692   0.582   8.478  0.2865  0.3094  0.8291
 9359SOL     OW39535   3.272   2.651   2.693  0.0390 -0.3407 -0.3429
 9359SOL    HW139536   3.302   2.717   2.754 -0.4555  0.0738 -0.5469
 9359SOL    HW239537   3.246   2.584   2.756 -1.4291  0.9095  0.3854
 9360SOL     OW39538   1.102   4.674   5.171  0.3834  0.2798  0.1572
 9360SOL    HW139539   1.100   4.634   5.258 -0.5070 -0.9644 -0.4449
 9360SOL    HW239540   1.008   4.674   5.156  0.1082 -0.1438  1.8899
 9361SOL     OW39541   1.737   3.827   5.003 -0.4706 -0.2509 -0.3750
 9361SOL    HW139542   1.700   3.755   5.053  1.0448 -0.6287  0.2155
 9361SOL    HW239543   1.820   3.798   4.965  0.6413  1.3799  0.7809
 9362SOL     OW39544   3.546   3.805   6.592 -0.0010  0.0327  0.1687
 9362SOL    HW139545   3.591   3.871   6.645 -0.3489  0.5223 -0.1484
 9362SOL    HW239546   3.579   3.833   6.506 -1.0002  1.1562  0.1526
 9363SOL     OW39547   4.465   4.121  10.970 -0.4695 -0.4487  0.0756
 9363SOL    HW139548   4.508   4.193  11.017  0.1625 -1.1651  0.5937
 9363SOL    HW239549   4.388   4.156  10.926  0.0355 -1.8037 -1.8802
 9364SOL     OW39550   1.500   2.672  10.148 -0.3465 -0.6804  0.0766
 9364SOL    HW139551   1.494   2.719  10.231  2.3257 -2.9950  1.5734
 9364SOL    HW239552   1.426   2.706  10.098 -1.7434 -2.5130  0.9190
 9365SOL     OW39553   1.255   3.382   7.082  0.1327 -0.6982 -0.1762
 9365SOL    HW139554   1.218   3.432   7.154  0.4112  0.8274 -1.0828
 9365SOL    HW239555   1.331   3.336   7.116  2.1956  1.8633 -1.3862
 9366SOL     OW39556   3.426   3.992   3.479 -0.5111 -0.0280 -0.1424
 9366SOL    HW139557   3.475   4.071   3.456 -0.7125  0.5393  1.3821
 9366SOL    HW239558   3.425   3.947   3.394 -0.1410 -0.6116  0.1654
 9367SOL     OW39559   1.669   4.112   4.410 -0.4630 -0.0827  0.3131
 9367SOL    HW139560   1.609   4.098   4.484 -1.8674  0.9667 -0.6212
 9367SOL    HW239561   1.601   4.152   4.356 -0.7965 -1.0504  0.0090
 9368SOL     OW39562   3.916   3.512   4.817 -0.2556  0.0555 -0.1539
 9368SOL    HW139563   3.948   3.429   4.780  1.2362  0.9416 -0.8431
 9368SOL    HW239564   3.831   3.519   4.774 -0.3978 -0.4039  0.0469
 9369SOL     OW39565   2.099   0.961  13.247 -0.3933  0.2217 -0.4414
 9369SOL    HW139566   2.112   0.868  13.232  1.4541  0.4967 -0.4858
 9369SOL    HW239567   2.164   0.973  13.315 -2.3121 -1.0387  1.5985
 9370SOL     OW39568   4.195   0.247   8.712  0.5165  0.1808 -0.2516
 9370SOL    HW139569   4.287   0.268   8.696  0.1757  2.7815  1.2747
 9370SOL    HW239570   4.203   0.267   8.805  1.2606 -0.1975 -0.2306
 9371SOL     OW39571   1.193   2.627   4.186  0.3117  0.2516  0.4522
 9371SOL    HW139572   1.262   2.662   4.130 -1.0136  0.9257 -0.7732
 9371SOL    HW239573   1.243   2.616   4.267  0.9193  0.1579  0.0657
 9372SOL     OW39574   3.758   3.608   5.707  0.1567  0.8195  0.3505
 9372SOL    HW139575   3.738   3.549   5.780  1.8720 -1.0522 -0.6955
 9372SOL    HW239576   3.726   3.554   5.634 -1.0033  0.0023  1.4535
 9373SOL     OW39577   2.126   4.004   4.891  0.3447 -0.2244  0.3044
 9373SOL    HW139578   2.113   4.080   4.947  1.3339  0.8827 -0.9384
 9373SOL    HW239579   2.131   4.039   4.802 -1.5613  0.0607  0.3162
 9374SOL     OW39580   2.488   2.075   3.194 -0.2160  0.0013  0.4853
 9374SOL    HW139581   2.395   2.065   3.171 -0.2520  2.2955 -0.3872
 9374SOL    HW239582   2.488   2.026   3.276 -2.7769  2.6301  2.0884
 9375SOL     OW39583   0.022   0.694  17.325  0.1714  0.4133  0.3973
 9375SOL    HW139584   0.027   0.705  17.230  0.9436 -1.1225  0.2657
 9375SOL    HW239585   4.682   0.626  17.331 -1.2586  1.7481 -0.0882
 9376SOL     OW39586   1.051   3.687   5.872  0.2528 -0.7590  0.0130
 9376SOL    HW139587   0.977   3.660   5.926  0.2301 -0.4836  0.1157
 9376SOL    HW239588   1.030   3.644   5.788 -1.5543  0.3520 -0.0872
 9377SOL     OW39589   2.067   2.515   4.310  0.2036  0.1728 -0.1163
 9377SOL    HW139590   2.033   2.502   4.222 -0.6621  1.3368  0.0323
 9377SOL    HW239591   2.044   2.608   4.318 -0.3772 -0.0392  0.7142
 9378SOL     OW39592   0.032   3.779   6.002 -0.2992 -0.4898  0.0337
 9378SOL    HW139593   4.715   3.781   5.916  0.2935 -0.7324 -0.2698
 9378SOL    HW239594   0.003   3.861   6.042  0.0032  0.7461 -2.2949
 9379SOL     OW39595   4.321   3.425   8.906  0.3659 -0.2186 -0.0635
 9379SOL    HW139596   4.364   3.467   8.981  0.0810  0.3231 -0.2021
 9379SOL    HW239597   4.287   3.352   8.958 -1.1540 -1.6991 -3.1654
 9380SOL     OW39598   0.007   3.654   1.476 -0.3814 -0.0231 -0.0668
 9380SOL    HW139599   4.685   3.640   1.557  0.9986 -0.9041  0.6065
 9380SOL    HW239600   4.687   3.734   1.452 -0.9391 -0.2070  0.4054
 9381SOL     OW39601   2.560   0.639   1.222  0.0692  0.0657  0.9076
 9381SOL    HW139602   2.523   0.686   1.147  1.2361  1.5575  1.2791
 9381SOL    HW239603   2.655   0.647   1.222  0.1573 -1.1821 -0.9532
 9382SOL     OW39604   0.974   1.144   4.824  0.2497 -0.1451 -0.2189
 9382SOL    HW139605   1.026   1.068   4.851 -0.3340 -0.9697 -1.4099
 9382SOL    HW239606   1.044   1.193   4.780 -0.7581 -0.1475 -1.8434
 9383SOL     OW39607   2.652   1.040   7.281 -0.5242 -0.0944  0.3027
 9383SOL    HW139608   2.665   1.054   7.375  0.5059  0.4675  0.0693
 9383SOL    HW239609   2.742   1.016   7.258 -0.8583 -0.6902 -0.3914
 9384SOL     OW39610   0.858   1.290  10.431 -0.0733  0.0658  0.7244
 9384SOL    HW139611   0.831   1.367  10.481  1.3052  0.8498  0.2614
 9384SOL    HW239612   0.803   1.288  10.353  0.9769  1.7491 -0.0622
 9385SOL     OW39613   0.773   0.533   0.118  0.1972  0.6015  0.0587
 9385SOL    HW139614   0.755   0.626   0.102 -0.2658  0.2272 -1.5584
 9385SOL    HW239615   0.687   0.507   0.152  0.6518 -0.8861  0.0351
 9386SOL     OW39616   3.697   3.314   4.973  0.1901 -0.3011  0.1109
 9386SOL    HW139617   3.676   3.374   4.901  2.4081  2.0429  1.4524
 9386SOL    HW239618   3.791   3.328   4.984 -0.2261  1.9636  0.8179
 9387SOL     OW39619   2.819   0.487   5.429 -0.3474  0.1393  0.3992
 9387SOL    HW139620   2.842   0.521   5.343 -0.5382  1.0704  0.7236
 9387SOL    HW239621   2.820   0.561   5.489  1.6538  0.9770 -0.7031
 9388SOL     OW39622   4.688   4.112  14.176  0.1104  0.0504  0.0847
 9388SOL    HW139623   4.650   4.171  14.110 -2.0087 -0.7428  0.5944
 9388SOL    HW239624   4.715   4.042  14.116  0.7570  0.4738 -0.1072
 9389SOL     OW39625   0.784   1.919  10.807  0.7267 -0.0090  0.3184
 9389SOL    HW139626   0.734   1.838  10.795  1.6110 -0.4279 -0.6231
 9389SOL    HW239627   0.871   1.889  10.833  1.3124  0.2813 -1.2859
 9390SOL     OW39628   2.003   3.352   4.151  0.1132  0.1045 -0.3409
 9390SOL    HW139629   2.060   3.405   4.095  0.4278  2.4112  2.1863
 9390SOL    HW239630   1.980   3.416   4.219 -0.0099 -0.4683  0.1575
 9391SOL     OW39631   2.055   3.205   6.363 -0.3198 -0.0532 -0.3087
 9391SOL    HW139632   2.098   3.203   6.448  1.0534 -0.3704 -1.0125
 9391SOL    HW239633   2.032   3.113   6.348 -0.7100  0.0780 -0.5014
 9392SOL     OW39634   0.697   1.980   4.321  0.7777  0.0851  0.1630
 9392SOL    HW139635   0.610   1.983   4.280  0.6635 -1.5210  0.2871
 9392SOL    HW239636   0.685   2.032   4.400 -2.1890 -0.5648  0.1580
 9393SOL     OW39637   2.238   4.395   7.960 -0.4775  0.2021 -0.0961
 9393SOL    HW139638   2.293   4.473   7.969 -0.7840  0.3887  0.1479
 9393SOL    HW239639   2.299   4.343   7.907  0.5782  1.0101  0.3177
 9394SOL     OW39640   0.277   2.257  16.872  0.4509  0.1393 -0.2831
 9394SOL    HW139641   0.267   2.319  16.945 -0.9594 -1.0817  0.5382
 9394SOL    HW239642   0.329   2.185  16.907  0.6116  0.9280  1.1455
 9395SOL     OW39643   0.418   0.553   7.686  0.5128  0.1182 -0.0921
 9395SOL    HW139644   0.504   0.534   7.723  0.4964  2.0908  0.9201
 9395SOL    HW239645   0.421   0.499   7.607 -0.8125 -0.2006  0.0840
 9396SOL     OW39646   3.135   4.415   7.680  0.2864  0.3554  0.3468
 9396SOL    HW139647   3.126   4.334   7.630  2.0771  2.7615 -3.8933
 9396SOL    HW239648   3.091   4.381   7.758  0.5215 -0.7427  0.0026
 9397SOL     OW39649   2.023   2.592  13.207 -0.4169  0.1312 -0.2548
 9397SOL    HW139650   2.078   2.669  13.190  1.1285 -1.7698 -3.7794
 9397SOL    HW239651   2.008   2.618  13.298  0.7965  2.1345 -0.6232
 9398SOL     OW39652   4.372   1.517   2.908  0.0706 -0.0644 -0.4633
 9398SOL    HW139653   4.357   1.537   2.815  2.4321  0.2276 -0.7716
 9398SOL    HW239654   4.462   1.550   2.914 -0.2122  0.2628  1.7279
 9399SOL     OW39655   2.865   3.656   8.196  0.0291 -0.3517  0.1877
 9399SOL    HW139656   2.841   3.577   8.148 -1.5043  0.3484 -0.2068
 9399SOL    HW239657   2.783   3.705   8.186  1.2214  1.4352 -0.9569
 9400SOL     OW39658   4.383   0.557   8.964 -0.5591 -0.0499 -0.2827
 9400SOL    HW139659   4.431   0.583   8.885 -1.1185  2.0679  0.0822
 9400SOL    HW239660   4.345   0.477   8.926  0.7537 -0.9644  0.3402
 9401SOL     OW39661   1.010   1.730  17.609  0.2122 -0.0457 -0.2098
 9401SOL    HW139662   1.020   1.824  17.626 -0.9939  0.2155 -0.9276
 9401SOL    HW239663   1.015   1.702  17.700 -0.0537 -2.2014 -0.8425
 9402SOL     OW39664   1.779   1.160   6.317 -0.2420  0.2955 -0.2162
 9402SOL    HW139665   1.851   1.220   6.300 -0.8250  0.8171 -0.8546
 9402SOL    HW239666   1.720   1.197   6.250 -2.2265 -3.9191 -0.7778
 9403SOL     OW39667   3.533   0.196   1.829  0.4888 -0.8744  0.0658
 9403SOL    HW139668   3.538   0.285   1.864 -0.4562 -0.6510 -0.3707
 9403SOL    HW239669   3.507   0.218   1.739 -1.1297  1.5345  1.1198
 9404SOL     OW39670   2.863   3.658  15.261 -0.1023  0.1330  0.4338
 9404SOL    HW139671   2.806   3.694  15.192  0.3237 -1.3722 -0.7093
 9404SOL    HW239672   2.835   3.707  15.338 -2.5224  0.3381 -0.5605
 9405SOL     OW39673   3.050   2.669  13.105 -0.4716 -0.6389  0.0098
 9405SOL    HW139674   2.970   2.672  13.053 -1.1162 -2.5622  0.9173
 9405SOL    HW239675   3.018   2.715  13.183  0.5900  0.9067 -0.4475
 9406SOL     OW39676   2.247   2.676  16.196 -0.2588 -0.4379  0.1163
 9406SOL    HW139677   2.172   2.619  16.181  0.6884 -1.1155 -1.9683
 9406SOL    HW239678   2.208   2.743  16.252  0.9334 -1.5512  2.2609
 9407SOL     OW39679   2.331   1.204  12.699 -0.2449  0.1350  0.6653
 9407SOL    HW139680   2.295   1.153  12.627  4.1776  1.2958 -2.3410
 9407SOL    HW239681   2.310   1.293  12.671 -0.2464 -0.6854 -1.8763
 9408SOL     OW39682   4.385   1.223   8.194 -0.2945  0.0700 -0.1221
 9408SOL    HW139683   4.375   1.314   8.167 -4.0074 -0.1635  0.5376
 9408SOL    HW239684   4.469   1.226   8.241  0.3013 -0.8269 -1.1164
 9409SOL     OW39685   4.447   3.186   3.604 -0.1198  0.1188 -0.1641
 9409SOL    HW139686   4.462   3.225   3.519 -0.5931 -0.0056 -0.3081
 9409SOL    HW239687   4.391   3.252   3.645 -0.8339  0.8338 -2.2922
 9410SOL     OW39688   1.575   3.989   6.904  0.0061  0.2844  0.6753
 9410SOL    HW139689   1.567   4.025   6.993  0.1722  1.7298  0.1111
 9410SOL    HW239690   1.517   3.913   6.913 -2.4939  2.0049 -0.8083
 9411SOL     OW39691   0.590   0.750   4.981 -0.0179 -0.5735  0.2330
 9411SOL    HW139692   0.505   0.734   5.023 -1.3934  0.4744 -2.1118
 9411SOL    HW239693   0.591   0.691   4.906 -1.8629  0.7345 -0.8241
 9412SOL     OW39694   0.589   1.454  11.420 -0.2180  0.4777 -0.5158
 9412SOL    HW139695   0.509   1.506  11.426  0.1618  0.9354  0.6485
 9412SOL    HW239696   0.579   1.423  11.330 -0.6924 -0.4232 -0.1562
 9413SOL     OW39697   1.915   4.347   2.748 -0.1468  0.6555 -0.0972
 9413SOL    HW139698   1.965   4.287   2.692  1.6249  3.0969 -1.1258
 9413SOL    HW239699   1.952   4.426   2.708 -2.2758  2.5328  1.6696
 9414SOL     OW39700   1.022   0.677   0.852 -0.5335 -0.4142  0.2861
 9414SOL    HW139701   0.960   0.607   0.871  0.2425 -0.9027  1.0017
 9414SOL    HW239702   1.081   0.675   0.928  1.6149  1.6227 -1.3080
 9415SOL     OW39703   2.423   0.158   1.983 -0.0422  0.0773  0.3109
 9415SOL    HW139704   2.392   0.095   1.918 -1.3744  0.4528  0.5861
 9415SOL    HW239705   2.499   0.106   2.011  0.8095 -0.6355 -3.3349
 9416SOL     OW39706   2.419   3.715  11.630 -0.4392 -0.1275 -0.0732
 9416SOL    HW139707   2.422   3.684  11.720 -0.5604  0.2684  0.0641
 9416SOL    HW239708   2.447   3.804  11.648  0.3195 -0.2505 -0.6373
 9417SOL     OW39709   0.877   0.845  12.659 -0.0733  0.1970  0.0102
 9417SOL    HW139710   0.825   0.852  12.579 -1.7660  2.1598  1.3077
 9417SOL    HW239711   0.813   0.831  12.729  1.9712 -1.1350  1.6243
 9418SOL     OW39712   3.484   2.739  10.956 -0.2656 -0.4195  0.9021
 9418SOL    HW139713   3.389   2.726  10.957  0.0162 -2.3559  2.0972
 9418SOL    HW239714   3.489   2.830  10.926 -0.7937 -1.0786 -1.2288
 9419SOL     OW39715   3.025   2.741   0.171 -0.3131  0.3623 -0.4169
 9419SOL    HW139716   3.111   2.751   0.129 -0.5221  0.8205 -0.7273
 9419SOL    HW239717   3.015   2.814   0.232 -1.8424  0.8279 -1.2446
 9420SOL     OW39718   2.813   4.253   3.817 -0.2582 -0.4501  0.1054
 9420SOL    HW139719   2.809   4.335   3.768 -1.7326  0.0472  1.0548
 9420SOL    HW239720   2.748   4.194   3.780 -0.0195 -1.0145  0.5795
 9421SOL     OW39721   1.222   3.122   1.708 -0.0396 -0.4018  0.0428
 9421SOL    HW139722   1.236   3.033   1.740  0.9503 -0.5898 -0.8695
 9421SOL    HW239723   1.303   3.145   1.661 -1.0116  0.2696 -1.3028
 9422SOL     OW39724   1.093   4.067   6.878  0.6321  0.4339  0.0391
 9422SOL    HW139725   1.120   4.062   6.970 -1.3929  1.5994  0.7057
 9422SOL    HW239726   1.126   3.987   6.838  1.0455  1.3698 -1.5005
 9423SOL     OW39727   0.471   1.234   6.134  0.7580  0.0220  0.1417
 9423SOL    HW139728   0.554   1.258   6.093  1.3474 -3.8259 -0.9116
 9423SOL    HW239729   0.428   1.320   6.132  0.9408  0.0909 -1.0970
 9424SOL     OW39730   1.009   0.293   8.333 -0.6234  0.2187 -0.5520
 9424SOL    HW139731   1.002   0.203   8.365  0.2717  0.1902 -0.4429
 9424SOL    HW239732   0.950   0.338   8.393  1.5539  2.6852 -0.2563
 9425SOL     OW39733   1.781   3.460  15.593  0.1152 -0.1400  0.4818
 9425SOL    HW139734   1.796   3.393  15.526 -2.0380  0.4101 -0.5670
 9425SOL    HW239735   1.867   3.501  15.591 -0.0826  0.2546 -0.1372
 9426SOL     OW39736   3.983   1.079   0.175 -0.2089 -0.2195  0.1904
 9426SOL    HW139737   3.937   1.037   0.102 -0.7274 -2.0289  1.5494
 9426SOL    HW239738   3.955   1.020   0.246  1.7881 -0.9530  0.3597
 9427SOL     OW39739   2.413   4.196   4.494  0.1741 -0.5581 -0.4717
 9427SOL    HW139740   2.497   4.153   4.478  0.2554 -1.1088  1.3825
 9427SOL    HW239741   2.399   4.248   4.415 -4.0453  0.1055  0.6934
 9428SOL     OW39742   4.331   1.595  10.047  0.0378 -0.2290  0.5109
 9428SOL    HW139743   4.301   1.672   9.998  0.3162 -1.2276 -1.2626
 9428SOL    HW239744   4.329   1.629  10.136  1.4381  0.2344  0.3660
 9429SOL     OW39745   1.417   3.881   3.306  0.1232  0.7168 -0.1794
 9429SOL    HW139746   1.390   3.812   3.367  0.3411  0.7848 -0.0069
 9429SOL    HW239747   1.476   3.931   3.362 -0.9643  2.2336 -0.3830
 9430SOL     OW39748   1.083   2.453   9.870  0.5471 -0.4249  0.1740
 9430SOL    HW139749   1.134   2.378   9.838  0.7076 -1.0627  1.9514
 9430SOL    HW239750   1.082   2.515   9.797 -2.0104  0.2272  0.7659
 9431SOL     OW39751   2.100   1.261   8.931 -0.1869 -0.1209  0.3703
 9431SOL    HW139752   2.191   1.251   8.905 -0.1560 -0.6947  0.6915
 9431SOL    HW239753   2.069   1.300   8.850  1.2820 -2.1323 -1.1486
 9432SOL     OW39754   1.591   3.440   4.876  0.1809  0.0975 -0.1598
 9432SOL    HW139755   1.682   3.450   4.906  0.0635  1.3669 -0.2143
 9432SOL    HW239756   1.601   3.407   4.787 -3.3245 -3.3200  0.6972
 9433SOL     OW39757   1.302   3.150   7.681 -0.8360  0.1172  0.0645
 9433SOL    HW139758   1.309   3.160   7.586  0.6234  3.4470  0.5342
 9433SOL    HW239759   1.366   3.215   7.712  1.8831 -2.3959 -0.2261
 9434SOL     OW39760   1.917   1.793   9.974 -0.3644  0.1349  0.7750
 9434SOL    HW139761   1.876   1.762   9.893  0.4149  0.1100  0.3798
 9434SOL    HW239762   1.975   1.718   9.987  0.0892  0.0697 -1.6118
 9435SOL     OW39763   2.314   0.043   8.371 -0.6497 -0.0429 -0.1907
 9435SOL    HW139764   2.398   0.088   8.362 -1.5700  2.1847  2.1386
 9435SOL    HW239765   2.260   0.119   8.395  2.3498  2.2786 -0.8723
 9436SOL     OW39766   0.404   3.972   2.597 -0.1406  0.5366  0.4273
 9436SOL    HW139767   0.341   3.936   2.534  0.4769 -2.1109  1.3057
 9436SOL    HW239768   0.449   4.022   2.530 -0.1896 -0.7814 -0.6002
 9437SOL     OW39769   2.422   4.585   1.118  0.0732  0.2713 -0.3097
 9437SOL    HW139770   2.400   4.669   1.079 -2.9613 -0.6001 -0.5090
 9437SOL    HW239771   2.400   4.521   1.050 -0.9497  0.2754  0.0131
 9438SOL     OW39772   1.984   2.657   2.780  0.4287  0.1089  0.1940
 9438SOL    HW139773   1.919   2.589   2.764 -0.8646  1.3341  0.2055
 9438SOL    HW239774   2.062   2.605   2.764  0.9556  1.0049 -0.1528
 9439SOL     OW39775   4.258   2.551   4.264  0.4063  0.3240  0.2507
 9439SOL    HW139776   4.259   2.645   4.248 -0.7511  0.5487  1.4207
 9439SOL    HW239777   4.270   2.546   4.359 -0.9454  0.0409  0.4134
 9440SOL     OW39778   0.179   1.170   4.315  0.0413  0.0266  0.5442
 9440SOL    HW139779   0.156   1.113   4.242  2.2381 -0.9244  0.5840
 9440SOL    HW239780   0.109   1.234   4.304  0.8902  0.7843 -0.4752
 9441SOL     OW39781   1.774   4.502   8.540  0.2034  0.5884  0.0859
 9441SOL    HW139782   1.863   4.466   8.546 -0.0444 -0.2781 -1.3882
 9441SOL    HW239783   1.780   4.543   8.453  4.5616 -2.4500 -1.0385
 9442SOL     OW39784   0.712   4.703  15.058 -0.2074  0.1767  0.3995
 9442SOL    HW139785   0.631   4.672  15.098  0.2408 -1.3909  0.0965
 9442SOL    HW239786   0.775   4.652  15.109 -0.2001  0.3381  0.5525
 9443SOL     OW39787   4.429   4.434   0.959  0.2553  0.4513 -0.0791
 9443SOL    HW139788   4.362   4.501   0.973 -0.4817  0.1131 -1.9516
 9443SOL    HW239789   4.507   4.482   0.984  0.5460 -0.9132  1.6415
 9444SOL     OW39790   2.399   0.712   6.610  0.3171  0.3219 -0.3420
 9444SOL    HW139791   2.381   0.629   6.655 -1.7391  1.0285  0.1336
 9444SOL    HW239792   2.483   0.737   6.649  0.8860 -0.8624 -0.7839
 9445SOL     OW39793   0.106   0.758  10.447  0.0863  0.0941  0.2752
 9445SOL    HW139794   0.037   0.821  10.425  0.9917  2.1203  3.2594
 9445SOL    HW239795   0.047   0.713  10.507 -0.1729  0.7978  0.5410
 9446SOL     OW39796   1.433   0.251   4.978  0.1243  0.2972  0.2447
 9446SOL    HW139797   1.337   0.245   4.981  0.1766 -0.1459  1.0780
 9446SOL    HW239798   1.457   0.207   5.059 -0.2590  2.0044  1.2886
 9447SOL     OW39799   2.472   1.343   2.630 -0.1080 -0.4731  0.3608
 9447SOL    HW139800   2.395   1.319   2.578 -0.7213  0.8227  0.6672
 9447SOL    HW239801   2.488   1.432   2.598  2.4335 -0.8645  0.6059
 9448SOL     OW39802   0.011   0.847   8.689 -0.3345 -0.2259  1.0483
 9448SOL    HW139803   4.705   0.870   8.776  0.7886  1.8750  0.9066
 9448SOL    HW239804   4.690   0.767   8.667 -0.3036  0.1420 -0.3876
 9449SOL     OW39805   1.631   2.645   3.973  0.1115 -0.2053 -0.3578
 9449SOL    HW139806   1.632   2.715   3.908 -0.6814 -1.1941 -1.4497
 9449SOL    HW239807   1.581   2.694   4.038  2.2301  0.8333  0.4784
 9450SOL     OW39808   1.184   0.587   2.984 -0.5773 -0.2720 -0.7568
 9450SOL    HW139809   1.170   0.495   2.964  0.4483 -0.4914 -0.4668
 9450SOL    HW239810   1.247   0.585   3.056  0.7594  0.8365 -1.8928
 9451SOL     OW39811   3.159   2.277   3.678  0.1041  0.0388 -0.1760
 9451SOL    HW139812   3.178   2.282   3.584 -2.2006  1.7285 -0.5595
 9451SOL    HW239813   3.134   2.185   3.673  1.0040 -0.3672  2.8500
 9452SOL     OW39814   2.141   1.661  11.994  0.2192  0.1580 -0.1043
 9452SOL    HW139815   2.066   1.670  12.053 -0.9395  0.9793 -1.6890
 9452SOL    HW239816   2.155   1.567  11.998  2.7791  0.4439 -1.8273
 9453SOL     OW39817   0.921   4.172   8.101  0.3639  0.3432 -0.0785
 9453SOL    HW139818   1.012   4.145   8.115  0.7175  1.9207  0.7335
 9453SOL    HW239819   0.869   4.097   8.130  0.5667  0.2518  0.0485
 9454SOL     OW39820   0.183   2.009   4.192 -0.9005 -0.6078  0.0167
 9454SOL    HW139821   0.134   2.021   4.110  2.3939 -0.3330 -1.9122
 9454SOL    HW239822   0.235   2.090   4.189  3.7379 -3.5493  1.6895
 9455SOL     OW39823   0.315   4.501   0.243 -0.0488  0.0947  0.1149
 9455SOL    HW139824   0.301   4.471   0.153 -2.0113 -0.8906  0.7351
 9455SOL    HW239825   0.379   4.439   0.277  0.2363  0.9617  1.1463
 9456SOL     OW39826   0.813   1.374  17.130 -0.0139 -0.1269 -0.0921
 9456SOL    HW139827   0.751   1.439  17.164 -0.9174 -0.1070 -1.7658
 9456SOL    HW239828   0.797   1.401  17.039 -1.1896 -0.9785 -0.1412
 9457SOL     OW39829   3.693   0.574   2.933  0.2434 -0.5324  0.2028
 9457SOL    HW139830   3.763   0.621   2.977 -0.9658  0.5857  0.9264
 9457SOL    HW239831   3.681   0.502   2.995 -0.5796  0.3391  1.0462
 9458SOL     OW39832   1.737   1.319   2.773  0.1074 -0.8804 -0.3427
 9458SOL    HW139833   1.694   1.328   2.859  0.8582  1.7592 -0.2655
 9458SOL    HW239834   1.821   1.346   2.809  0.3023  0.5663 -1.9072
 9459SOL     OW39835   1.494   3.960   3.634  0.2944 -0.2017 -0.2751
 9459SOL    HW139836   1.403   3.941   3.656  0.0330  1.1535 -0.2163
 9459SOL    HW239837   1.488   4.054   3.616  0.1773 -0.1265  0.1510
 9460SOL     OW39838   0.644   3.163   6.966  0.4362 -0.0556  0.0671
 9460SOL    HW139839   0.732   3.172   7.002  0.0535  1.4091  0.6350
 9460SOL    HW239840   0.600   3.206   7.039  0.5547 -0.2569  0.2587
 9461SOL     OW39841   4.061   4.688   1.789  0.1840 -0.1741  0.2549
 9461SOL    HW139842   4.008   4.610   1.807 -0.5475 -0.3081 -2.3600
 9461SOL    HW239843   3.988   0.019   1.810  0.5564  1.3486 -2.5517
 9462SOL     OW39844   2.217   4.703   9.075 -0.1458 -0.2260 -0.2596
 9462SOL    HW139845   2.125   0.004   9.072 -0.0695  0.0004 -0.5883
 9462SOL    HW239846   2.216   4.653   9.157  0.0964  2.8657  1.6232
 9463SOL     OW39847   3.951   1.613   7.521  0.3025  0.3297  0.7300
 9463SOL    HW139848   3.936   1.532   7.473 -0.5970  1.1647 -0.3961
 9463SOL    HW239849   4.015   1.588   7.588  0.5779  0.6428  0.5911
 9464SOL     OW39850   3.681   3.649  10.138  0.0682  0.3853 -0.0241
 9464SOL    HW139851   3.750   3.593  10.102 -1.2733 -2.2652  1.4910
 9464SOL    HW239852   3.687   3.724  10.079 -0.3665 -0.2878 -0.9200
 9465SOL     OW39853   0.777   0.597   6.603 -0.0954 -0.3764  0.4159
 9465SOL    HW139854   0.806   0.534   6.537  0.9224  0.9591 -0.4310
 9465SOL    HW239855   0.839   0.586   6.675  1.1758  1.1230 -0.4347
 9466SOL     OW39856   3.773   0.434  17.202 -0.1475  0.2823 -0.4444
 9466SOL    HW139857   3.788   0.373  17.130 -0.7965 -0.5113  0.1001
 9466SOL    HW239858   3.816   0.515  17.174  1.4006 -1.1665 -2.2061
 9467SOL     OW39859   2.569   0.888  12.512  0.0325  0.3412  0.2041
 9467SOL    HW139860   2.663   0.876  12.500 -0.2034 -0.2534 -1.1102
 9467SOL    HW239861   2.528   0.814  12.466  1.7137  1.0102 -2.3651
 9468SOL     OW39862   0.346   3.336   3.672 -0.0130 -0.2469  0.0229
 9468SOL    HW139863   0.266   3.283   3.665 -1.2924  1.5355  0.9040
 9468SOL    HW239864   0.339   3.354   3.765  0.7111 -2.0448  0.4154
 9469SOL     OW39865   2.541   0.656   8.211 -0.0850 -0.0058  0.4292
 9469SOL    HW139866   2.575   0.664   8.300 -2.7085 -2.3260  1.6444
 9469SOL    HW239867   2.490   0.737   8.208  3.3024  2.1861  0.8560
 9470SOL     OW39868   0.067   0.248   6.999 -0.6362 -0.0382 -0.4819
 9470SOL    HW139869   0.117   0.223   6.922  1.6047 -2.2006  1.7260
 9470SOL    HW239870   4.715   0.196   6.982 -0.7509  0.2191 -0.7460
 9471SOL     OW39871   2.936   1.866   3.406  0.0277 -0.7212 -0.5584
 9471SOL    HW139872   2.931   1.959   3.429  0.4830 -0.6632 -0.6971
 9471SOL    HW239873   2.851   1.848   3.367 -0.0818 -1.1488 -0.1218
 9472SOL     OW39874   4.518   1.498   3.667 -0.1980  0.4803  0.3383
 9472SOL    HW139875   4.488   1.407   3.667  1.7763 -0.1637 -0.9031
 9472SOL    HW239876   4.459   1.519   3.740  1.5475  0.4582  1.7706
 9473SOL     OW39877   2.428   2.581   2.992 -0.0891  0.1580 -0.0280
 9473SOL    HW139878   2.393   2.650   3.049 -1.2034 -0.5754  0.1706
 9473SOL    HW239879   2.510   2.620   2.962  1.1461 -1.2477  1.5013
 9474SOL     OW39880   2.743   3.871   2.953  0.5192  0.1427 -0.2624
 9474SOL    HW139881   2.772   3.788   2.916 -4.0639 -2.3603  1.8040
 9474SOL    HW239882   2.746   3.926   2.874 -0.4806  0.3244 -0.1741
 9475SOL     OW39883   4.031   4.193   1.091 -1.0057  0.0944  0.0444
 9475SOL    HW139884   3.956   4.251   1.073 -0.5096  0.5142 -0.6579
 9475SOL    HW239885   3.995   4.113   1.052  0.6025 -0.9023  0.5889
 9476SOL     OW39886   3.530   1.453  12.128 -0.1849 -0.4545  0.2442
 9476SOL    HW139887   3.465   1.411  12.185  0.5249 -1.5882  0.2113
 9476SOL    HW239888   3.609   1.425  12.176 -0.0696 -0.4063  0.0806
 9477SOL     OW39889   3.766   0.861   2.460 -0.7943 -0.3270 -0.4660
 9477SOL    HW139890   3.742   0.893   2.373 -1.3699 -0.5676 -0.3917
 9477SOL    HW239891   3.837   0.923   2.476  1.2553 -2.4661 -1.2064
 9478SOL     OW39892   3.466   0.343   4.810 -0.3011  0.1291 -0.0275
 9478SOL    HW139893   3.445   0.287   4.884  1.0387  2.2279  1.9448
 9478SOL    HW239894   3.407   0.297   4.750  1.8078 -4.0233  1.1325
 9479SOL     OW39895   2.198   4.644   2.880  0.4146 -0.0693  0.2812
 9479SOL    HW139896   2.162   4.595   2.806  1.2698 -0.2760  0.0032
 9479SOL    HW239897   2.230   0.000   2.845 -3.3236  1.3540  0.2315
 9480SOL     OW39898   1.411   1.962   4.871 -0.2301 -0.0142  0.2048
 9480SOL    HW139899   1.371   1.917   4.797  0.1951  0.3972 -0.2693
 9480SOL    HW239900   1.333   1.973   4.926  1.2542 -0.5119  2.4194
 9481SOL     OW39901   4.319   2.241   8.421 -0.2923  0.5734  0.3818
 9481SOL    HW139902   4.314   2.325   8.377  0.3209  2.6269  4.2529
 9481SOL    HW239903   4.242   2.247   8.477 -0.0872  2.8104  0.4289
 9482SOL     OW39904   3.807   2.597   4.912 -0.2112  0.1581  0.1340
 9482SOL    HW139905   3.902   2.587   4.912 -0.2906 -0.5496 -1.3334
 9482SOL    HW239906   3.797   2.689   4.888  1.8392  0.6856  1.2501
 9483SOL     OW39907   2.054   0.527   8.344  0.0404 -0.6669 -0.0901
 9483SOL    HW139908   1.960   0.515   8.361 -0.2050  1.4374  0.0016
 9483SOL    HW239909   2.060   0.613   8.386  2.2687 -0.6152 -0.5187
 9484SOL     OW39910   0.895   0.122  16.487 -0.3375 -0.1138 -0.1673
 9484SOL    HW139911   0.981   0.097  16.519  1.0453  2.3165 -2.0070
 9484SOL    HW239912   0.910   0.085  16.400  1.2583  1.5458 -0.5865
 9485SOL     OW39913   1.587   2.749   4.494 -0.0875  0.3997  0.3025
 9485SOL    HW139914   1.508   2.773   4.542 -0.0960 -0.0253  0.5064
 9485SOL    HW239915   1.557   2.759   4.404 -2.3174 -2.8858  0.6761
 9486SOL     OW39916   3.819   2.518   8.498  0.3564  0.4115 -0.1381
 9486SOL    HW139917   3.884   2.494   8.564  1.0040  2.5578  0.0043
 9486SOL    HW239918   3.737   2.522   8.546 -0.6326 -0.8479 -1.7186
 9487SOL     OW39919   4.703   2.287   7.696 -0.1893  0.3143 -0.2400
 9487SOL    HW139920   4.648   2.357   7.663  1.5321  0.6001 -2.5078
 9487SOL    HW239921   0.067   2.320   7.702 -0.8552  2.2332 -0.8120
 9488SOL     OW39922   3.898   4.683  14.069 -0.9666 -0.2732  0.4806
 9488SOL    HW139923   3.869   0.020  14.135  1.2703  0.1536  1.0643
 9488SOL    HW239924   3.992   4.672  14.085 -0.6342  0.8756 -0.7960
 9489SOL     OW39925   1.807   3.693   3.250  0.5138 -0.0014 -0.2635
 9489SOL    HW139926   1.759   3.714   3.170  0.7550 -1.6583 -0.8434
 9489SOL    HW239927   1.748   3.730   3.315  0.0567 -0.9070 -0.1591
 9490SOL     OW39928   3.910   1.119   4.370 -0.2012 -0.5634  0.1534
 9490SOL    HW139929   3.953   1.114   4.455  0.3592  2.0520  0.0295
 9490SOL    HW239930   3.820   1.143   4.394  0.0333  2.0496 -1.5616
 9491SOL     OW39931   3.585   0.129   9.935 -0.2712 -0.3286  0.6720
 9491SOL    HW139932   3.589   0.073  10.013  2.4992  1.9037  2.1370
 9491SOL    HW239933   3.530   0.194   9.979 -1.5087 -0.1380 -1.1367
 9492SOL     OW39934   2.510   4.514   8.284 -0.0901  0.1627  0.5825
 9492SOL    HW139935   2.476   4.548   8.201 -0.3987 -1.4446  0.0520
 9492SOL    HW239936   2.439   4.543   8.342  0.0775  2.5803 -0.4246
 9493SOL     OW39937   4.001   3.061   5.962 -0.2536 -0.3628 -0.2348
 9493SOL    HW139938   3.944   3.024   5.895  0.6169 -0.6589 -0.8023
 9493SOL    HW239939   4.083   3.070   5.915 -0.8626  1.6954 -0.9035
 9494SOL     OW39940   3.110   1.218   5.410  0.1014 -0.1905 -0.3486
 9494SOL    HW139941   3.178   1.181   5.353  1.4012  0.2241  0.9219
 9494SOL    HW239942   3.082   1.290   5.354  4.0713  0.9731 -0.8734
 9495SOL     OW39943   4.252   4.298   8.050  0.0595  0.2388  0.1155
 9495SOL    HW139944   4.193   4.231   8.015  1.3208 -0.1350 -1.3371
 9495SOL    HW239945   4.211   4.304   8.136  0.0897  0.0795  0.1416
 9496SOL     OW39946   0.646   1.668   5.650 -0.0650  0.7618  0.1616
 9496SOL    HW139947   0.735   1.641   5.625 -0.1277  0.5628  0.1582
 9496SOL    HW239948   0.625   1.582   5.684  0.8952  0.2543 -0.5060
 9497SOL     OW39949   1.512   2.961  10.789 -0.7220 -0.2273 -0.3921
 9497SOL    HW139950   1.458   2.983  10.864  1.1910 -1.3693  1.3335
 9497SOL    HW239951   1.518   3.045  10.743 -3.2063  0.5694  0.7513
 9498SOL     OW39952   4.020   0.552   8.692 -0.5717  0.2088 -0.0462
 9498SOL    HW139953   4.105   0.573   8.652  0.1849 -0.8283  0.9787
 9498SOL    HW239954   3.974   0.523   8.613  1.4661 -0.9585 -0.8219
 9499SOL     OW39955   1.590   3.760  10.462  0.1133 -0.5279 -0.5982
 9499SOL    HW139956   1.589   3.809  10.380 -1.2029  1.9371  0.8905
 9499SOL    HW239957   1.667   3.795  10.507  1.4157 -0.1024 -3.1529
 9500SOL     OW39958   2.045   3.652   9.136  0.0244  0.0229  0.2621
 9500SOL    HW139959   2.083   3.637   9.222  0.6957 -1.0771 -0.2373
 9500SOL    HW239960   1.990   3.728   9.157 -0.2249 -0.5462  1.6170
 9501SOL     OW39961   3.901   4.624   2.136  0.2443 -0.1926 -0.1078
 9501SOL    HW139962   3.945   4.670   2.208 -0.4596 -2.1157  1.5581
 9501SOL    HW239963   3.873   4.698   2.083 -2.5930  0.0230  1.6751
 9502SOL     OW39964   3.102   0.280   9.165  0.0775 -0.3832  0.1493
 9502SOL    HW139965   3.105   0.227   9.245 -3.0720 -0.6136  0.1292
 9502SOL    HW239966   3.049   0.213   9.121 -1.2091  0.7489 -0.0204
 9503SOL     OW39967   2.812   1.293   3.321 -0.7434 -0.1964 -0.8057
 9503SOL    HW139968   2.788   1.263   3.233  0.6664 -0.5425 -1.0628
 9503SOL    HW239969   2.885   1.237   3.345 -0.1378  0.2810 -1.5582
 9504SOL     OW39970   4.250   3.210   0.690 -0.1531 -0.2006  0.1881
 9504SOL    HW139971   4.172   3.246   0.648  2.2916  1.9771 -2.4157
 9504SOL    HW239972   4.313   3.218   0.619 -0.3297  0.0346  0.0589
 9505SOL     OW39973   3.721   0.898   5.282 -0.7684 -0.1835 -0.5274
 9505SOL    HW139974   3.703   0.945   5.200  1.1891  0.7824 -0.3998
 9505SOL    HW239975   3.732   0.968   5.346 -1.5668 -1.2794  0.8355
 9506SOL     OW39976   4.612   2.223   3.499 -0.0059 -0.2334 -0.2049
 9506SOL    HW139977   4.639   2.310   3.528 -1.4882 -0.0397  0.5805
 9506SOL    HW239978   4.685   2.210   3.439  0.6112 -3.0768  1.1649
 9507SOL     OW39979   0.230   2.952   5.492 -0.2797  0.6424  0.2760
 9507SOL    HW139980   0.198   2.862   5.493 -0.0918  0.5735  0.0447
 9507SOL    HW239981   0.320   2.920   5.490 -0.5439 -0.0032 -1.3473
 9508SOL     OW39982   3.921   3.989   0.978 -0.2549 -0.3553  0.4527
 9508SOL    HW139983   3.962   3.909   0.945  0.9439  0.5926 -0.3663
 9508SOL    HW239984   3.860   3.951   1.042  0.6364 -0.0940  1.4559
 9509SOL     OW39985   0.912   2.014   5.348  0.1269 -0.0548  0.2185
 9509SOL    HW139986   0.846   2.007   5.418 -0.7605  5.4761 -0.0962
 9509SOL    HW239987   0.937   2.103   5.373  0.7361 -0.0773 -0.3223
 9510SOL     OW39988   1.035   0.760   1.515  0.0338  0.0440 -0.1193
 9510SOL    HW139989   1.007   0.727   1.430  0.6342 -2.8243  0.8086
 9510SOL    HW239990   0.949   0.792   1.542  0.9460  0.6746  2.0417
 9511SOL     OW39991   3.018   2.000   4.651 -0.3701 -0.1202  0.0204
 9511SOL    HW139992   3.025   1.909   4.679  1.5790 -0.3181 -1.0592
 9511SOL    HW239993   3.006   2.037   4.739  1.6437  0.7116 -0.0537
 9512SOL     OW39994   4.356   0.313   3.333 -0.6458  0.5513  0.0689
 9512SOL    HW139995   4.376   0.221   3.350 -1.6947  0.6325  1.6549
 9512SOL    HW239996   4.427   0.364   3.372  1.4653 -1.2822 -1.3061
 9513SOL     OW39997   0.400   3.363  11.505 -0.0220 -0.0098  0.5035
 9513SOL    HW139998   0.433   3.362  11.415  1.3534 -0.8337  1.0167
 9513SOL    HW239999   0.451   3.300  11.556 -1.4471  0.2311  2.2283
 9514SOL     OW40000   4.553   0.058  13.072 -0.1171 -0.4030  0.0682
 9514SOL    HW140001   4.522   4.696  13.049 -0.9420  0.3674 -1.7432
 9514SOL    HW240002   4.644   0.061  13.042 -0.5894 -1.6477 -1.4783
 9515SOL     OW40003   0.138   0.312   4.017 -0.3046 -0.5276  0.2008
 9515SOL    HW140004   0.109   0.361   4.094  0.1354  1.6067 -1.0069
 9515SOL    HW240005   0.164   0.230   4.059 -1.9095 -1.3559 -0.4331
 9516SOL     OW40006   2.644   2.110   2.593 -0.1454 -0.0405  0.1125
 9516SOL    HW140007   2.566   2.068   2.629  0.4941 -1.5997 -0.3260
 9516SOL    HW240008   2.610   2.171   2.527  1.3524 -0.0288 -0.6482
 9517SOL     OW40009   1.874   2.724  17.321 -0.5957 -0.0417  0.0906
 9517SOL    HW140010   1.902   2.783  17.391  0.5209 -2.8244  1.9913
 9517SOL    HW240011   1.896   2.642  17.365 -1.0567 -0.7929 -1.0800
 9518SOL     OW40012   4.420   3.216   4.216  0.0543 -0.6363 -0.0181
 9518SOL    HW140013   4.440   3.279   4.147 -0.8351 -0.0465  0.2673
 9518SOL    HW240014   4.416   3.278   4.289  0.4376 -0.9760  0.2970
 9519SOL     OW40015   1.859   4.646   5.929 -0.1910 -0.1330 -0.2981
 9519SOL    HW140016   1.909   4.580   5.975  0.4349  1.3605  1.1827
 9519SOL    HW240017   1.772   4.616   5.954 -0.8841  0.3299 -2.1090
 9520SOL     OW40018   1.401   4.569  11.428 -0.1452 -0.1548  0.2369
 9520SOL    HW140019   1.380   4.656  11.463  0.4828  1.2725 -2.9820
 9520SOL    HW240020   1.494   4.561  11.449  0.1060 -0.3519 -0.9581
 9521SOL     OW40021   0.844   3.228   3.773 -0.1062 -0.0378  0.1538
 9521SOL    HW140022   0.893   3.230   3.855 -3.5853 -0.4458  2.2314
 9521SOL    HW240023   0.910   3.242   3.704 -1.2440  1.1244 -0.7048
 9522SOL     OW40024   2.906   1.003   6.637 -0.4160 -0.3294  0.0493
 9522SOL    HW140025   2.872   0.990   6.548 -1.2513  0.1560  0.3036
 9522SOL    HW240026   2.999   1.006   6.614 -1.0832 -1.0290 -2.8035
 9523SOL     OW40027   4.342   1.670  14.429 -0.0259  0.2291  0.1671
 9523SOL    HW140028   4.289   1.592  14.447 -2.9551  1.8084 -1.7123
 9523SOL    HW240029   4.270   1.724  14.397  2.6514  2.8736 -1.3100
 9524SOL     OW40030   2.543   2.870   2.686 -0.4485 -0.2466  0.2096
 9524SOL    HW140031   2.610   2.927   2.648 -0.2112 -0.3782  0.4359
 9524SOL    HW240032   2.595   2.806   2.734 -0.8451 -0.5919  0.1775
 9525SOL     OW40033   1.952   0.201   7.154  0.0540  0.5937  0.1992
 9525SOL    HW140034   2.007   0.187   7.077  0.8493  2.3379  0.4419
 9525SOL    HW240035   1.942   0.112   7.188  1.3072  0.7842  1.0804
 9526SOL     OW40036   3.775   3.275  13.741  0.5048 -0.1308  0.2859
 9526SOL    HW140037   3.827   3.206  13.699  0.7994  1.0811 -1.3259
 9526SOL    HW240038   3.788   3.269  13.836  1.2125 -1.0535  0.1296
 9527SOL     OW40039   3.017   3.755   3.068  0.3194 -0.1565 -0.2045
 9527SOL    HW140040   3.090   3.702   3.101 -0.8703  0.0002  2.6672
 9527SOL    HW240041   2.945   3.700   3.100 -1.2001  1.3676 -0.9963
 9528SOL     OW40042   4.414   2.433   2.870 -0.0059  0.6562 -0.3775
 9528SOL    HW140043   4.347   2.366   2.855  1.8094 -1.3692  0.5631
 9528SOL    HW240044   4.375   2.493   2.807 -2.3090 -0.6204 -0.1676
 9529SOL     OW40045   2.490   1.195   9.100 -0.4366 -0.2471  0.2695
 9529SOL    HW140046   2.429   1.125   9.127  1.1919 -2.0029 -0.6006
 9529SOL    HW240047   2.484   1.271   9.157 -0.7938  0.8242 -1.2124
 9530SOL     OW40048   4.515   3.487  14.399 -0.2673  0.7353  0.0165
 9530SOL    HW140049   4.488   3.396  14.411 -0.6284  0.8317 -0.0612
 9530SOL    HW240050   4.461   3.536  14.462 -3.2385 -1.4245 -0.8611
 9531SOL     OW40051   3.859   0.701   4.028  0.1508 -0.4660  0.2198
 9531SOL    HW140052   3.786   0.642   4.009  1.4053 -1.3538 -1.8353
 9531SOL    HW240053   3.893   0.717   3.940  0.8069  2.5356  1.0213
 9532SOL     OW40054   2.575   3.061  12.978 -0.1835 -0.2441 -0.0926
 9532SOL    HW140055   2.668   3.059  12.954 -0.5736  1.7003 -1.7785
 9532SOL    HW240056   2.582   3.128  13.045 -2.3204 -2.2701  2.1579
 9533SOL     OW40057   2.409   2.681   7.931 -0.3239  0.8972  0.5693
 9533SOL    HW140058   2.421   2.770   7.898  0.3785  0.3419 -0.6631
 9533SOL    HW240059   2.467   2.628   7.876  0.0973 -0.9363  2.7705
 9534SOL     OW40060   0.391   1.566   7.653  0.2720 -0.3590  0.0706
 9534SOL    HW140061   0.349   1.480   7.656 -0.8579  0.2536  1.6031
 9534SOL    HW240062   0.317   1.625   7.639  0.2657 -1.1663 -3.4271
 9535SOL     OW40063   1.336   0.181  15.711 -0.2895  0.4603 -0.1970
 9535SOL    HW140064   1.344   0.087  15.724 -0.0060  0.1931 -2.2654
 9535SOL    HW240065   1.348   0.182  15.616 -2.9221  0.5181 -0.5289
 9536SOL     OW40066   3.941   3.999   1.457 -0.0810  0.2607  0.1046
 9536SOL    HW140067   3.920   4.068   1.395  2.1922 -1.2008 -2.3008
 9536SOL    HW240068   4.032   3.975   1.438 -1.3253 -2.5059 -2.3445
 9537SOL     OW40069   2.169   0.862  11.878 -0.5246  0.4817 -0.0217
 9537SOL    HW140070   2.159   0.776  11.919  0.1564  0.4864  0.1508
 9537SOL    HW240071   2.257   0.843  11.845 -0.7915 -1.6747  0.5009
 9538SOL     OW40072   3.768   0.396   8.022  0.4803 -0.1820  0.1986
 9538SOL    HW140073   3.754   0.490   8.028  2.1080  0.1486 -1.0428
 9538SOL    HW240074   3.683   0.369   7.988  0.2909  0.3358  0.2760
 9539SOL     OW40075   3.187   4.178   6.949  0.0846  0.1553  0.5674
 9539SOL    HW140076   3.277   4.187   6.918  0.1222 -0.7546  0.4007
 9539SOL    HW240077   3.164   4.092   6.914 -1.3662  0.7473  0.0617
 9540SOL     OW40078   2.816   0.113  12.781  0.2383 -0.3843 -0.3957
 9540SOL    HW140079   2.887   0.177  12.785  0.3117 -0.4340 -1.0573
 9540SOL    HW240080   2.761   0.142  12.854  1.8037  2.5788 -0.3800
 9541SOL     OW40081   0.254   0.522   8.578 -0.0198 -0.0979 -0.7436
 9541SOL    HW140082   0.198   0.583   8.529  0.4221 -0.3949 -1.6146
 9541SOL    HW240083   0.207   0.525   8.661  0.0634  0.7357 -0.7363
 9542SOL     OW40084   1.027   3.921   0.961 -0.1630  0.0478 -0.6241
 9542SOL    HW140085   0.974   3.995   0.990  0.6286  0.3784 -0.0330
 9542SOL    HW240086   0.987   3.896   0.878 -2.5257  1.5915  0.0481
 9543SOL     OW40087   1.307   4.685   2.937  0.0558  0.7777  0.5360
 9543SOL    HW140088   1.253   0.033   2.910 -0.4504  0.4207  0.5675
 9543SOL    HW240089   1.247   4.612   2.920  3.5048 -1.3758 -2.6431
 9544SOL     OW40090   3.768   2.023  15.728  0.4711 -0.2424 -0.1442
 9544SOL    HW140091   3.811   2.022  15.642  0.5386 -1.0462 -0.0944
 9544SOL    HW240092   3.820   2.083  15.781 -1.3297  0.4826  0.7796
 9545SOL     OW40093   2.720   2.134   1.003 -0.1810 -0.5429 -0.0855
 9545SOL    HW140094   2.680   2.188   0.935 -1.0952 -1.3747 -0.2143
 9545SOL    HW240095   2.660   2.059   1.000 -1.1699  0.2172  0.6087
 9546SOL     OW40096   4.607   1.906   6.770  0.4053 -0.0546 -0.2513
 9546SOL    HW140097   4.671   1.836   6.785 -0.1534 -0.5040  0.0299
 9546SOL    HW240098   4.530   1.851   6.757  1.0598 -1.4354  1.7350
 9547SOL     OW40099   3.973   3.468   9.056  0.7468  0.4110 -0.3829
 9547SOL    HW140100   3.907   3.477   9.124  1.3991 -0.4396  0.3698
 9547SOL    HW240101   4.053   3.478   9.108  1.1112 -1.0079 -0.6645
 9548SOL     OW40102   2.079   1.544  17.541 -0.3167  0.0972 -0.3674
 9548SOL    HW140103   2.152   1.558  17.601 -1.2587 -0.6801  0.9307
 9548SOL    HW240104   2.127   1.575  17.463 -2.8547  1.0660 -1.5358
 9549SOL     OW40105   2.321   2.197  15.185 -0.1284  0.4476 -0.1246
 9549SOL    HW140106   2.302   2.221  15.276 -3.0159  1.1141 -0.9196
 9549SOL    HW240107   2.232   2.184  15.152 -0.5625  0.8226  0.8965
 9550SOL     OW40108   2.784   3.388   2.131 -0.1188 -0.4417 -0.1384
 9550SOL    HW140109   2.845   3.400   2.059  1.0304  1.0748  1.0828
 9550SOL    HW240110   2.788   3.473   2.176  1.0874  0.7927 -2.5827
 9551SOL     OW40111   2.343   0.057   3.527  0.0720 -0.5777 -0.1824
 9551SOL    HW140112   2.331   4.690   3.508  2.5547 -0.8775 -0.3806
 9551SOL    HW240113   2.306   0.063   3.615 -2.6054 -1.5125 -1.2406
 9552SOL     OW40114   1.352   4.180   4.250 -0.0005  0.4724 -0.4807
 9552SOL    HW140115   1.306   4.130   4.317  0.1354  1.2083  0.1651
 9552SOL    HW240116   1.314   4.134   4.175 -1.2481  3.8635 -1.9207
 9553SOL     OW40117   3.795   3.938  10.180 -0.5187 -0.2966  0.3446
 9553SOL    HW140118   3.735   3.977  10.243  0.5636  0.3368  0.9834
 9553SOL    HW240119   3.871   3.916  10.234  0.4387 -0.5088 -1.0956
 9554SOL     OW40120   3.215   1.939   9.298 -0.1578 -0.4965  0.2433
 9554SOL    HW140121   3.220   2.021   9.346  4.2734 -0.7860  0.2570
 9554SOL    HW240122   3.187   1.872   9.361  0.2214 -1.2948 -0.4392
 9555SOL     OW40123   1.527   3.056   8.875 -0.3032 -0.2454 -0.6884
 9555SOL    HW140124   1.436   3.069   8.901  0.2468  0.1754  1.0070
 9555SOL    HW240125   1.577   3.120   8.925  0.0414 -0.6793 -0.4760
 9556SOL     OW40126   1.950   3.272   9.679 -0.3514  0.0773 -0.2970
 9556SOL    HW140127   1.933   3.349   9.734  0.6347  1.2759 -1.6671
 9556SOL    HW240128   1.954   3.199   9.741 -0.9458  1.3616  1.2669
 9557SOL     OW40129   4.669   0.789   7.351  0.1206 -0.2236 -0.0796
 9557SOL    HW140130   4.696   0.786   7.443 -2.6582 -1.8549  0.6791
 9557SOL    HW240131   0.008   0.729   7.315  0.9445  1.1701 -0.9204
 9558SOL     OW40132   2.374   2.964   8.506  0.1243 -0.1716 -0.1023
 9558SOL    HW140133   2.287   2.991   8.478 -0.1936  0.7547  1.7866
 9558SOL    HW240134   2.354   2.888   8.561 -0.7017 -0.9762 -1.4909
 9559SOL     OW40135   1.171   1.133   5.336 -0.1515 -0.0289 -0.4076
 9559SOL    HW140136   1.135   1.045   5.324 -0.9229  0.2195  0.1397
 9559SOL    HW240137   1.264   1.116   5.318 -0.0397  0.9308 -0.7325
 9560SOL     OW40138   0.951   2.972   5.906  0.4448 -0.1805  0.2460
 9560SOL    HW140139   0.965   2.957   6.000 -1.4469 -0.1703  0.5262
 9560SOL    HW240140   0.886   2.906   5.883 -1.1673  1.5420 -0.0736
 9561SOL     OW40141   0.135   0.576   8.805  0.3533 -0.1655  0.2430
 9561SOL    HW140142   0.118   0.531   8.887  0.4678  0.3036  0.5207
 9561SOL    HW240143   0.184   0.648   8.843  1.1715 -0.4673 -0.2243
 9562SOL     OW40144   0.352   2.852   8.315 -0.2237  0.2404 -0.2920
 9562SOL    HW140145   0.307   2.854   8.399 -1.1706 -1.1408 -0.7625
 9562SOL    HW240146   0.288   2.809   8.259  0.9645  0.5027 -1.8527
 9563SOL     OW40147   0.592   2.898   7.719  0.2087 -0.4939  0.1845
 9563SOL    HW140148   0.636   2.920   7.801  1.9068 -1.6582 -0.4100
 9563SOL    HW240149   0.647   2.828   7.682 -0.5283 -0.2251 -1.4378
 9564SOL     OW40150   4.318   1.429   8.934 -0.9233 -0.2291  1.0772
 9564SOL    HW140151   4.296   1.462   8.847  4.3660 -3.0072 -1.3340
 9564SOL    HW240152   4.414   1.432   8.934 -0.9754  1.0612 -0.8096
 9565SOL     OW40153   3.082   0.356   3.255 -0.1143 -0.6529 -0.4782
 9565SOL    HW140154   3.138   0.433   3.245  0.7118 -1.1201  0.6480
 9565SOL    HW240155   3.020   0.381   3.186 -1.7768  1.4088  1.7471
   4.72622   4.72622  17.70596
