Membrane in water
40155
    1TCq1    O1    1   2.925   0.415  10.764  0.5073 -0.1784  0.0247
    1TCq1    C1    2   2.997   0.319  10.821  0.6043 -0.9716  0.4333
    1TCq1    O2    3   2.951   0.209  10.849 -0.6107  0.3456  0.0902
    1TCq1    C2    4   3.136   0.339  10.805 -0.2927 -0.3968  0.3506
    1TCq1    C3    5   3.190   0.450  10.865 -0.4228  0.9505  0.2554
    1TCq1    C4    6   3.301   0.425  10.950  0.0418  0.2644  0.2878
    1TCq1    C5    7   3.354   0.308  10.973 -0.1265 -0.1096  0.4273
    1TCq1    C6    8   3.306   0.201  10.900  0.1373  0.2608 -0.2738
    1TCq1    C7    9   3.203   0.222  10.817  0.6216  1.0217 -1.0050
    1TCq1    C8   10   3.313   0.071  10.974 -0.7921  0.2342  0.0998
    1TCq1    O4   11   3.323   0.063  11.096 -0.2982  0.1754 -0.1272
    1TCq1    C9   12   3.350   0.534  11.028 -0.3701  0.0672 -1.0222
    1TCq1    O5   13   3.472   0.530  11.054 -0.0327  0.0275  0.1513
    1TCq1    O6   14   3.277   0.636  11.039  0.1263  0.0823  0.3778
    1TCq1    H1   15   2.983   0.468  10.705  1.1429 -0.1470  0.6883
    1TCq1    H2   16   3.142   0.547  10.864 -0.2055  1.0465 -1.3470
    1TCq1    H3   17   3.437   0.292  11.040 -0.9346 -0.0315  1.4481
    1TCq1    H4   18   3.159   0.138  10.763 -2.0604  0.3960  2.1744
    2MPD2     C   19   3.277   4.294  10.921 -0.2787  0.3396  0.0197
    2MPD2    C1   20   3.255   4.372  11.035  0.5105  0.8876  0.4587
    2MPD2    C2   21   3.269   4.508  11.020  0.4234  0.0750  0.3788
    2MPD2    C3   22   3.307   4.566  10.898 -0.2491 -0.0131 -0.0041
    2MPD2    C4   23   3.324   4.484  10.793  0.3930  0.0387 -0.5109
    2MPD2    C5   24   3.314   4.349  10.810 -0.4839 -0.1298  0.5641
    2MPD2     H   25   3.238   4.570  11.104  1.2691  0.7753  0.1837
    2MPD2    H1   26   3.360   4.523  10.698 -2.8520  3.0814 -0.5092
    2MPD2    H2   27   3.271   4.187  10.939 -0.4005  0.4279  0.5317
    2MPD2    H3   28   3.342   4.272  10.739  1.7433 -0.5855  1.9363
    2MPD2     N   29   3.325   4.700  10.875  0.4325 -0.0569 -0.3694
    2MPD2    H5   30   3.350   4.724  10.780  0.4402  3.0024  0.4108
    2MPD2    N1   31   3.202   4.320  11.152  0.3375  0.0802  0.1278
    2MPD2    H7   32   3.206   4.382  11.231  1.0529 -0.3071  0.3955
    3TCq1    O1   33   2.460   0.401  10.603 -0.0027 -0.1916  0.1444
    3TCq1    C1   34   2.542   0.415  10.494  0.5383  0.1097 -0.0601
    3TCq1    O2   35   2.647   0.355  10.474  0.1672 -0.3416  0.0818
    3TCq1    C2   36   2.494   0.538  10.430  0.3258 -0.3527  0.3394
    3TCq1    C3   37   2.575   0.640  10.389 -0.4175 -0.1836 -0.7654
    3TCq1    C4   38   2.531   0.759  10.356  0.4189 -0.0193 -1.0571
    3TCq1    C5   39   2.396   0.778  10.349  0.5880  0.4270 -0.1166
    3TCq1    C6   40   2.314   0.681  10.394 -1.0300 -0.7641  0.5027
    3TCq1    C7   41   2.357   0.556  10.432 -0.2981 -0.6675 -0.4433
    3TCq1    C8   42   2.173   0.703  10.391  0.7640 -0.4769  0.4521
    3TCq1    O4   43   2.092   0.620  10.357  0.2192  0.1154 -0.4433
    3TCq1    C9   44   2.623   0.854  10.304 -0.1237  0.1253  0.4781
    3TCq1    O5   45   2.726   0.807  10.251  0.7641 -0.0386  0.0081
    3TCq1    O6   46   2.582   0.977  10.314  0.3289 -0.3291  0.1492
    3TCq1    H1   47   2.384   0.463  10.597  0.4683  0.6143  2.3687
    3TCq1    H2   48   2.682   0.622  10.379 -0.5013 -0.8025 -0.5608
    3TCq1    H3   49   2.352   0.868  10.307 -0.3453 -1.4984 -3.2420
    3TCq1    H4   50   2.278   0.482  10.438 -1.4138  0.6194  0.9456
    4MPD2     C   51   1.806   1.050  10.425  0.2899  0.4540 -0.4138
    4MPD2    C1   52   1.917   1.099  10.491  0.2419  0.3843  0.0630
    4MPD2    C2   53   2.024   1.017  10.504 -0.0314  0.6042  0.2422
    4MPD2    C3   54   2.029   0.893  10.451  0.8838  0.3108  0.6353
    4MPD2    C4   55   1.914   0.847  10.383  0.5005  0.1881  0.2091
    4MPD2    C5   56   1.808   0.932  10.359 -0.0030  0.8689  0.9088
    4MPD2     H   57   2.105   1.061  10.561 -1.6485  0.9700  2.2317
    4MPD2    H1   58   1.909   0.755  10.326  1.4991 -0.2950  0.9039
    4MPD2    H2   59   1.717   1.109  10.403 -0.1490  0.3119  0.9230
    4MPD2    H3   60   1.725   0.891  10.302 -1.5103  2.2287  2.1093
    4MPD2     N   61   2.148   0.821  10.459 -0.3973  0.3351 -0.1690
    4MPD2    H5   62   2.221   0.872  10.507 -1.5897  2.1935 -0.3343
    4MPD2    N1   63   1.917   1.226  10.562  0.0897 -0.4098 -0.2686
    4MPD2    H7   64   2.003   1.256  10.607  1.1784 -1.1953 -1.8170
    5TCq1    O1   65   3.551   2.052  11.496  0.2179 -0.1142  0.2029
    5TCq1    C1   66   3.470   2.044  11.606 -0.1835 -0.2373  0.1594
    5TCq1    O2   67   3.493   1.995  11.716  0.9442 -0.1430 -0.2214
    5TCq1    C2   68   3.345   2.107  11.577 -0.3644 -0.1058  0.1052
    5TCq1    C3   69   3.251   2.123  11.680 -0.4864 -0.0936  0.3853
    5TCq1    C4   70   3.133   2.180  11.648 -0.3410  0.3666  1.0067
    5TCq1    C5   71   3.093   2.207  11.513 -0.4122  0.1857 -0.8436
    5TCq1    C6   72   3.190   2.173  11.420 -0.0228  1.0475  0.5557
    5TCq1    C7   73   3.317   2.131  11.445  0.1582 -0.4778 -0.0257
    5TCq1    C8   74   3.150   2.184  11.280 -0.2060 -0.2545 -0.8564
    5TCq1    O4   75   3.208   2.118  11.195  0.1336  0.1956  0.3621
    5TCq1    C9   76   3.039   2.216  11.749 -0.1386  0.2087  0.1475
    5TCq1    O5   77   2.916   2.230  11.720  0.0205 -0.4039 -0.2248
    5TCq1    O6   78   3.080   2.217  11.868 -0.0808 -0.2443 -0.3573
    5TCq1    H1   79   3.648   2.058  11.506  0.2910 -1.0604  0.1043
    5TCq1    H2   80   3.286   2.115  11.783 -1.2560 -0.0298  0.6560
    5TCq1    H3   81   2.996   2.252  11.493 -0.4224  1.2837  1.5964
    5TCq1    H4   82   3.382   2.095  11.366 -0.6466 -1.2095 -0.3653
    6MPD2     C   83   2.840   2.358  11.170  0.2545 -0.2067  0.1567
    6MPD2    C1   84   2.953   2.278  11.149 -0.4565  0.6171 -0.5090
    6MPD2    C2   85   2.982   2.222  11.026  0.4228  0.8309 -0.1398
    6MPD2    C3   86   2.896   2.245  10.925  0.0603 -0.2997  0.2100
    6MPD2    C4   87   2.783   2.315  10.944 -0.1257 -0.5709 -0.1261
    6MPD2    C5   88   2.758   2.379  11.062 -0.0693  0.0836 -0.4856
    6MPD2     H   89   3.068   2.156  11.013  0.9780  1.6034 -0.4048
    6MPD2    H1   90   2.711   2.333  10.865 -1.6014 -2.4839  0.8016
    6MPD2    H2   91   2.816   2.422  11.254  1.2152 -3.0129  2.5614
    6MPD2    H3   92   2.679   2.451  11.080  0.4021  0.2526  0.9234
    6MPD2     N   93   2.921   2.181  10.802 -0.0563 -0.3258  0.3776
    6MPD2    H5   94   3.010   2.133  10.791 -0.5934 -1.0936 -0.6127
    6MPD2    N1   95   3.038   2.263  11.264  0.0505 -0.0147 -0.1460
    6MPD2    H7   96   3.007   2.308  11.349  0.3972  1.1522 -0.6338
    7TCq1    O1   97   4.537   2.285  13.146 -0.1688  0.2964 -0.2659
    7TCq1    C1   98   4.652   2.344  13.124 -0.7662  1.4165  0.4534
    7TCq1    O2   99   4.698   2.434  13.188 -0.1139  0.3114 -0.4344
    7TCq1    C2  100   0.010   2.230  13.083 -0.1665 -0.1928  0.0062
    7TCq1    C3  101   4.698   2.165  12.970 -0.4161 -0.0251  0.1391
    7TCq1    C4  102   0.033   2.050  12.942 -0.2134  0.6038  0.0571
    7TCq1    C5  103   0.111   1.994  13.043 -0.8654 -0.1063  0.1524
    7TCq1    C6  104   0.144   2.067  13.151  0.2524 -0.8335  0.4532
    7TCq1    C7  105   0.099   2.195  13.175 -0.8696 -0.1552 -0.5474
    7TCq1    C8  106   0.216   2.008  13.253 -0.2167 -0.0514 -0.1561
    7TCq1    O4  107   0.192   1.889  13.259 -0.1789  0.3408 -0.0198
    7TCq1    C9  108   4.720   1.982  12.817  0.5002 -0.1504 -0.9467
    7TCq1    O5  109   0.013   1.856  12.810  0.4793 -0.3843  0.4718
    7TCq1    O6  110   4.662   2.051  12.731 -0.1558 -0.3778  0.2266
    7TCq1    H1  111   4.529   2.199  13.100 -1.6231  0.6037 -0.5988
    7TCq1    H2  112   4.634   2.210  12.895 -1.3248  0.9129  1.4535
    7TCq1    H3  113   0.141   1.892  13.019 -0.0064 -0.2026  1.6229
    7TCq1    H4  114   0.118   2.256  13.263  2.4383  1.1552 -2.1514
    8MPD2     C  115   0.566   1.928  13.600  0.2493 -0.2417 -0.0241
    8MPD2    C1  116   0.512   1.842  13.505  0.1030  0.1167  0.8366
    8MPD2    C2  117   0.426   1.901  13.412  0.0872  0.1375 -0.1347
    8MPD2    C3  118   0.400   2.036  13.410  0.4918  0.4519  0.4477
    8MPD2    C4  119   0.472   2.117  13.487 -0.3481 -0.5112 -0.6118
    8MPD2    C5  120   0.554   2.064  13.587 -0.3763 -0.4329  0.8807
    8MPD2     H  121   0.392   1.836  13.332  0.0840  0.7460 -0.6299
    8MPD2    H1  122   0.464   2.224  13.480 -0.5522 -0.6025 -1.6784
    8MPD2    H2  123   0.630   1.897  13.681 -0.5845  1.9985  1.5081
    8MPD2    H3  124   0.601   2.133  13.656 -0.0511  1.9191 -1.7073
    8MPD2     N  125   0.308   2.089  13.313  0.6523  0.3688 -0.8991
    8MPD2    H5  126   0.308   2.191  13.319  3.3373  0.4269 -1.8761
    8MPD2    N1  127   0.526   1.701  13.515 -0.1376  0.0954 -0.4544
    8MPD2    H7  128   0.562   1.661  13.601 -1.7261  0.4379  0.3580
    9TCq1    O1  129   3.047   1.388  10.804  0.3630  0.3457  0.4617
    9TCq1    C1  130   2.929   1.323  10.784  0.5725 -0.8751 -0.6369
    9TCq1    O2  131   2.829   1.371  10.737  0.2237 -0.0173  0.1449
    9TCq1    C2  132   2.935   1.192  10.846  0.8515  0.6368  0.4640
    9TCq1    C3  133   3.052   1.135  10.890 -0.3480  0.4536 -0.3810
    9TCq1    C4  134   3.045   1.025  10.969  0.7477  0.1750  0.4899
    9TCq1    C5  135   2.924   0.969  11.004 -0.0802  0.3679 -0.0049
    9TCq1    C6  136   2.806   1.021  10.946  0.1290 -0.5202  0.3736
    9TCq1    C7  137   2.809   1.135  10.868 -0.1466 -0.1086  0.0019
    9TCq1    C8  138   2.677   0.992  11.016 -0.6686  0.5851 -0.5635
    9TCq1    O4  139   2.590   1.073  10.985  0.1028 -0.3727 -0.8517
    9TCq1    C9  140   3.162   0.958  11.028  0.2114  0.0399  0.1744
    9TCq1    O5  141   3.277   0.999  11.008  0.2041 -0.2583 -0.1303
    9TCq1    O6  142   3.141   0.861  11.104  0.1263  0.3295  0.2070
    9TCq1    H1  143   3.115   1.330  10.843 -0.1989 -0.9833 -0.5195
    9TCq1    H2  144   3.150   1.175  10.868  0.2852 -0.0395  1.5199
    9TCq1    H3  145   2.921   0.886  11.074  1.3873 -1.0587 -1.6359
    9TCq1    H4  146   2.720   1.183  10.831  1.1025  0.7323 -1.9129
   10MPD2     C  147   2.459   0.880  11.202 -0.0015  0.2774  0.4567
   10MPD2    C1  148   2.587   0.828  11.185  0.1390 -0.2016  0.7011
   10MPD2    C2  149   2.618   0.711  11.250 -0.1258  0.1615  0.3315
   10MPD2    C3  150   2.539   0.661  11.356 -0.4206 -0.2035  0.1611
   10MPD2    C4  151   2.421   0.731  11.379 -0.3173  0.5350  0.4901
   10MPD2    C5  152   2.374   0.834  11.298  0.0843 -0.3516  0.4665
   10MPD2     H  153   2.718   0.672  11.232 -1.1587 -2.6597  0.6871
   10MPD2    H1  154   2.348   0.691  11.450  0.2294 -2.2110 -0.5096
   10MPD2    H2  155   2.411   0.953  11.138  0.0918  0.9513  1.1550
   10MPD2    H3  156   2.274   0.876  11.297 -0.7437 -2.3381 -0.9728
   10MPD2     N  157   2.567   0.550  11.439 -0.2679 -0.1010 -0.7749
   10MPD2    H5  158   2.500   0.526  11.512  1.2564 -0.3096  0.5421
   10MPD2    N1  159   2.681   0.879  11.096 -0.6452  0.8663  0.4638
   10MPD2    H7  160   2.767   0.825  11.097  0.4053  2.4466 -2.9068
   11TCq1    O1  161   3.676   0.517  14.728  0.0393  0.5205  0.5937
   11TCq1    C1  162   3.789   0.560  14.669 -0.2471 -0.5189  0.2151
   11TCq1    O2  163   3.886   0.616  14.726  0.4572  0.3392 -0.2383
   11TCq1    C2  164   3.760   0.562  14.531  0.6528 -0.1373  0.1199
   11TCq1    C3  165   3.800   0.664  14.452 -0.2774 -0.3699 -0.8617
   11TCq1    C4  166   3.770   0.658  14.321  0.5076 -0.7519  0.3251
   11TCq1    C5  167   3.700   0.553  14.270 -0.6096 -0.1561  0.3698
   11TCq1    C6  168   3.652   0.451  14.354  0.2518 -0.6235  0.0047
   11TCq1    C7  169   3.686   0.456  14.483  0.7023  0.4097 -0.5537
   11TCq1    C8  170   3.586   0.336  14.303  0.3801  0.1246  0.1725
   11TCq1    O4  171   3.486   0.313  14.364  0.1053  0.7819 -0.1217
   11TCq1    C9  172   3.838   0.746  14.233 -0.2899 -0.7425  0.1031
   11TCq1    O5  173   3.807   0.741  14.109  0.1131 -0.2384 -0.1133
   11TCq1    O6  174   3.917   0.832  14.290  0.1519  0.1544  0.0449
   11TCq1    H1  175   3.599   0.524  14.668  0.3676  0.5729  0.1761
   11TCq1    H2  176   3.871   0.736  14.492 -1.2826  0.2871 -0.2801
   11TCq1    H3  177   3.676   0.545  14.164  0.9752  0.4148 -0.0244
   11TCq1    H4  178   3.653   0.375  14.547  0.8291  1.1021  0.4031
   12MPD2     C  179   3.465   0.166  14.109  0.1676 -0.2740  0.2910
   12MPD2    C1  180   3.600   0.187  14.112 -0.5531  0.4044  1.2526
   12MPD2    C2  181   3.680   0.132  14.009  0.4662  0.6377  0.2195
   12MPD2    C3  182   3.622   0.045  13.919 -0.1863  0.4853 -0.1615
   12MPD2    C4  183   3.483   0.032  13.918  0.0299  0.2009  0.4209
   12MPD2    C5  184   3.407   0.079  14.018  0.7006 -0.5160  0.1435
   12MPD2     H  185   3.787   0.148  14.010  0.5327  0.1987  0.1885
   12MPD2    H1  186   3.431   4.697  13.845 -0.3434  0.8790  0.1157
   12MPD2    H2  187   3.398   0.207  14.184 -1.6304  0.7115 -1.8542
   12MPD2    H3  188   3.302   0.052  14.023  0.9995 -2.0537 -1.8778
   12MPD2     N  189   3.689   4.698  13.817  0.3592 -0.1322  0.1107
   12MPD2    H5  190   3.636   4.636  13.756  0.9588  0.1754 -0.7237
   12MPD2    N1  191   3.656   0.281  14.202 -0.0374  0.3688  0.2286
   12MPD2    H7  192   3.748   0.320  14.188 -0.3636  0.5381 -1.3422
   13TCq1    O1  193   1.989   4.513  10.223  0.1641 -0.1655  0.1675
   13TCq1    C1  194   2.094   4.529  10.143  1.1867  0.3302  0.2138
   13TCq1    O2  195   2.090   4.545  10.023  0.9906  0.5515 -0.4690
   13TCq1    C2  196   2.224   4.534  10.214 -0.3931 -0.4207  0.1787
   13TCq1    C3  197   2.328   4.512  10.134  0.4451  0.2169  0.1163
   13TCq1    C4  198   2.453   4.544  10.176 -0.4065  0.5533  0.2119
   13TCq1    C5  199   2.469   4.602  10.298  0.6378 -0.0102  0.1290
   13TCq1    C6  200   2.357   4.631  10.370 -0.6099  0.5302  0.2688
   13TCq1    C7  201   2.230   4.596  10.335  0.9050  0.4645 -0.2649
   13TCq1    C8  202   2.375   4.646  10.515 -0.6864 -0.5947 -0.0463
   13TCq1    O4  203   2.297   4.721  10.568  0.4085 -0.9501 -0.4420
   13TCq1    C9  204   2.564   4.506  10.090  0.0273  0.5097  0.9170
   13TCq1    O5  205   2.540   4.447   9.986 -1.0046 -0.2091  0.2439
   13TCq1    O6  206   2.678   4.513  10.138  0.6353  0.0920 -0.2256
   13TCq1    H1  207   2.023   4.512  10.315  0.3938 -0.7635  0.0772
   13TCq1    H2  208   2.314   4.474  10.033  2.4895  0.8149 -0.4013
   13TCq1    H3  209   2.563   4.632  10.342  0.5988 -0.1358  0.3005
   13TCq1    H4  210   2.141   4.629  10.387  1.8881  1.2090  0.9515
   14MPD2     C  211   2.604   4.495  10.759  0.6146 -0.2195  0.3760
   14MPD2    C1  212   2.509   4.578  10.717  0.0934 -0.2763  0.1450
   14MPD2    C2  213   2.463   4.675  10.805  0.0742 -0.0773  0.7552
   14MPD2    C3  214   2.512   4.692  10.929  0.8261  1.0155 -0.0727
   14MPD2    C4  215   2.615   4.608  10.973 -0.7766  0.1420  0.4840
   14MPD2    C5  216   2.653   4.509  10.885 -0.3351 -0.2415 -0.1766
   14MPD2     H  217   2.382   0.016  10.783  1.5088  1.2703 -0.3969
   14MPD2    H1  218   2.684   4.630  11.055 -1.3216 -2.4448  1.6484
   14MPD2    H2  219   2.647   4.417  10.697  0.4477  0.7073 -0.8755
   14MPD2    H3  220   2.731   4.440  10.916  0.2688  0.9501  1.0070
   14MPD2     N  221   2.463   0.071  11.012 -0.3764  0.1344  0.1800
   14MPD2    H5  222   2.389   0.126  10.969  1.1703  2.3493  0.3483
   14MPD2    N1  223   2.468   4.566  10.578  0.0213 -0.6584 -0.8522
   14MPD2    H7  224   2.517   4.493  10.529 -1.1000 -1.1950 -1.1746
   15TCq1    O1  225   0.934   0.062   1.966  0.5871  0.0461  0.3044
   15TCq1    C1  226   0.986   4.662   1.961  0.1329  0.4733  0.0861
   15TCq1    O2  227   1.102   4.636   1.937 -0.2586 -0.0030 -0.1981
   15TCq1    C2  228   0.880   4.592   1.894 -0.3754  0.0006  0.0810
   15TCq1    C3  229   0.750   4.619   1.926  0.2849 -0.7282  0.2106
   15TCq1    C4  230   0.650   4.575   1.843 -0.0553 -0.3429  0.5680
   15TCq1    C5  231   0.684   4.492   1.734  0.4601  0.7599  0.2667
   15TCq1    C6  232   0.814   4.468   1.705  0.1094 -0.1406 -0.3219
   15TCq1    C7  233   0.915   4.526   1.780  0.2164  0.0449 -0.5345
   15TCq1    C8  234   0.845   4.370   1.598  0.5903 -0.2231 -0.4290
   15TCq1    O4  235   0.967   4.341   1.594  0.2313  0.4699  0.1671
   15TCq1    C9  236   0.512   4.606   1.869  0.1939  0.5236  0.4926
   15TCq1    O5  237   0.472   4.632   1.989 -0.0029  0.0368  0.3745
   15TCq1    O6  238   0.435   4.585   1.772 -0.2230 -0.2644  0.1316
   15TCq1    H1  239   0.837   0.055   1.953  0.7532  0.3037 -1.0674
   15TCq1    H2  240   0.717   4.659   2.021  1.9141  1.8473 -0.3015
   15TCq1    H3  241   0.600   4.441   1.688 -0.2131  2.9627 -0.9475
   15TCq1    H4  242   1.015   4.502   1.747  1.3193 -0.5855  3.2598
   16MPD2     C  243   0.629   4.195   1.352 -0.0491 -0.5306  0.0981
   16MPD2    C1  244   0.744   4.240   1.414  0.7206 -0.4658  0.7778
   16MPD2    C2  245   0.867   4.200   1.359  0.6197 -0.3700 -0.3140
   16MPD2    C3  246   0.875   4.117   1.249  0.0881  0.5373  0.3410
   16MPD2    C4  247   0.760   4.067   1.191 -0.2983  0.3163  0.1961
   16MPD2    C5  248   0.642   4.119   1.242 -0.4669 -0.5389  0.1680
   16MPD2     H  249   0.964   4.215   1.406 -0.6640  2.0695  1.5122
   16MPD2    H1  250   0.757   4.007   1.101 -0.1117  2.1325 -1.0394
   16MPD2    H2  251   0.532   4.229   1.385 -0.3065 -0.6097 -0.5793
   16MPD2    H3  252   0.553   4.085   1.192  0.5969 -0.9799 -1.4261
   16MPD2     N  253   1.002   4.076   1.208 -0.1189  0.0315  0.1826
   16MPD2    H5  254   1.072   4.101   1.277 -1.1554  0.9491  0.9237
   16MPD2    N1  255   0.734   4.323   1.531  0.2126 -0.0636  0.7897
   16MPD2    H7  256   0.647   4.330   1.582  0.2390  1.3606  0.6382
   17TCq1    O1  257   3.235   3.516  11.993 -0.1814  0.1526  0.6681
   17TCq1    C1  258   3.263   3.645  11.970 -0.1262 -0.3242  0.0372
   17TCq1    O2  259   3.249   3.739  12.042 -0.0284  0.2143  0.1067
   17TCq1    C2  260   3.305   3.658  11.830 -0.7676  0.4037  0.0660
   17TCq1    C3  261   3.267   3.564  11.731  0.3295 -0.6031 -0.8477
   17TCq1    C4  262   3.257   3.616  11.604 -0.8589 -0.1257  0.2311
   17TCq1    C5  263   3.273   3.748  11.566 -0.6106  0.1713  0.0653
   17TCq1    C6  264   3.328   3.828  11.664  0.2724  0.0047  0.3573
   17TCq1    C7  265   3.329   3.788  11.799 -0.2588 -0.5331 -0.1678
   17TCq1    C8  266   3.362   3.965  11.632 -0.4751 -0.3715  0.4744
   17TCq1    O4  267   3.367   4.048  11.720 -0.0218  0.2720  0.0880
   17TCq1    C9  268   3.213   3.523  11.499 -0.0220 -0.1499 -0.0198
   17TCq1    O5  269   3.179   3.406  11.526 -0.1302 -0.6967  0.6125
   17TCq1    O6  270   3.228   3.573  11.382  0.5509  0.8905 -1.2083
   17TCq1    H1  271   3.281   3.445  11.942 -1.8001 -0.3673 -0.0632
   17TCq1    H2  272   3.235   3.461  11.746 -0.6858 -0.3084 -0.9468
   17TCq1    H3  273   3.263   3.787  11.465  1.6215 -0.2761 -0.3269
   17TCq1    H4  274   3.364   3.865  11.867 -1.9295 -2.7273  3.2285
   18MPD2     C  275   3.460   4.206  11.481  0.1472  0.1517 -0.6239
   18MPD2    C1  276   3.454   4.078  11.431  0.2424  0.0071 -0.1717
   18MPD2    C2  277   3.501   4.056  11.307 -0.2151 -0.8390 -0.5493
   18MPD2    C3  278   3.554   4.168  11.237 -0.2428 -0.1909 -0.0328
   18MPD2    C4  279   3.562   4.291  11.287  0.3527  0.1648  0.4225
   18MPD2    C5  280   3.513   4.307  11.410  0.0480  0.1888  0.7207
   18MPD2     H  281   3.494   3.957  11.264  0.8738 -1.1225 -0.0855
   18MPD2    H1  282   3.606   4.374  11.233  1.0843 -0.4919  0.0142
   18MPD2    H2  283   3.422   4.228  11.580 -2.7069 -2.1727 -1.1877
   18MPD2    H3  284   3.523   4.406  11.453  0.7376  0.6844 -0.5481
   18MPD2     N  285   3.593   4.161  11.101 -0.0714 -0.4737  0.4047
   18MPD2    H5  286   3.636   4.242  11.058 -0.6553 -0.1210  0.4808
   18MPD2    N1  287   3.413   3.964  11.507 -0.2499 -0.3206 -0.0065
   18MPD2    H7  288   3.421   3.872  11.465 -2.0755 -1.9857  3.2647
   19TMC2    C1  289   0.597   0.208  13.880 -0.3890  0.1870  0.2430
   19TMC2    C2  290   0.538   0.278  13.780 -0.9735  0.3202  0.6386
   19TMC2    C3  291   0.493   0.196  13.679  1.0951  0.2661  0.4029
   19TMC2    C4  292   0.603   0.077  13.905  0.6010 -0.6663 -0.5254
   19TMC2    C5  293   0.544   0.007  13.802 -0.2977  0.4929 -0.8011
   19TMC2    C6  294   0.488   0.060  13.687 -0.4299  0.6712  0.6567
   19TMC2     C  295   0.641   0.294  13.986  0.0636 -0.2414 -0.0234
   19TMC2     O  296   0.685   0.400  13.959  0.1487  0.0600  0.0815
   19TMC2     H  297   0.542   0.387  13.776 -1.0896  0.3575  1.7428
   19TMC2    H1  298   0.669   0.042  13.984  1.4641 -0.8013 -1.3172
   19TMC2    H2  299   0.455   4.719  13.609  3.1600 -0.1011 -0.1779
   19TMC2    C7  300   0.492   4.604  13.828  0.0233 -0.3186  0.5413
   19TMC2    C8  301   0.501   0.257  13.551 -0.6507 -0.3986  0.4690
   19TMC2    O1  302   0.427   4.544  13.743 -0.2395 -0.1963 -0.3369
   19TMC2    O2  303   0.596   0.330  13.520  0.8022 -0.2182 -0.0377
   19TMC2    O5  304   0.415   0.189  13.470  0.0745  0.7470 -0.4214
   19TMC2    H5  305   0.343   0.139  13.513  0.2052 -0.6137 -1.7732
   20MPD2     C  306   0.673   0.427  14.265 -0.6925  0.5108 -0.0294
   20MPD2    C1  307   0.599   0.311  14.231  0.5490  0.2494  0.1216
   20MPD2    C2  308   0.536   0.253  14.341 -0.2776 -0.9120 -0.2160
   20MPD2    C3  309   0.556   0.289  14.475 -0.3711 -0.6801  0.2726
   20MPD2    C4  310   0.627   0.406  14.496 -0.4848 -0.3496  0.5037
   20MPD2    C5  311   0.671   0.477  14.391 -0.2411 -0.1889  0.3685
   20MPD2     H  312   0.475   0.165  14.322 -1.0036 -0.5571  0.4952
   20MPD2    H1  313   0.662   0.433  14.594  1.4364 -1.9317  0.2396
   20MPD2    H2  314   0.715   0.494  14.191 -0.4745 -0.7258 -1.0306
   20MPD2    H3  315   0.736   0.562  14.409  1.9936 -1.8136  0.0572
   20MPD2     N  316   0.501   0.219  14.585  0.0727 -0.2459  0.6491
   20MPD2    H5  317   0.513   0.263  14.675  0.5817  2.0908 -0.5396
   20MPD2    N1  318   0.590   0.249  14.106  0.5426 -0.3245 -0.0909
   20MPD2    H7  319   0.545   0.158  14.114 -1.2888  0.4994 -1.1613
   21MPD2     C  320   2.005   0.325  14.456  0.1928 -0.7988  0.5750
   21MPD2    C1  321   2.023   0.189  14.440  0.1750 -0.3917 -0.3737
   21MPD2    C2  322   1.917   0.102  14.442  0.1227 -0.1072  0.6771
   21MPD2    C3  323   1.787   0.155  14.427 -0.1881 -0.9997 -0.1731
   21MPD2    C4  324   1.767   0.286  14.445  0.1184 -0.3897  0.0633
   21MPD2    C5  325   1.876   0.373  14.465 -0.3420 -0.0770  0.6423
   21MPD2     H  326   1.933   4.722  14.434 -0.8101 -0.2548  0.7484
   21MPD2    H1  327   1.670   0.332  14.455  1.0568  1.5259  0.4831
   21MPD2    H2  328   2.088   0.381  14.498  1.1435 -0.3449 -1.8827
   21MPD2    H3  329   1.866   0.481  14.477 -2.4512 -0.2554  0.6105
   21MPD2     N  330   1.669   0.077  14.421  0.1632 -0.5209 -0.5659
   21MPD2    H5  331   1.590   0.137  14.399 -0.4239 -0.9676  0.3456
   21MPD2    N1  332   2.155   0.128  14.446 -0.3357  0.2994  0.2101
   21MPD2    H7  333   2.164   0.027  14.456  0.5025  0.5971  2.4915
   22TCq2    C1  334   1.662   4.672  14.426 -0.1328 -0.3255  0.0123
   22TCq2    O2  335   1.745   4.587  14.442  0.2330  0.9819 -0.3507
   22TCq2    C2  336   1.531   4.624  14.406  0.2217 -0.4435 -0.5468
   22TCq2    C3  337   1.505   4.490  14.373 -0.3898 -0.3179  0.3305
   22TCq2    C4  338   1.381   4.436  14.389 -0.0305  0.6016  1.1684
   22TCq2    C5  339   1.276   4.510  14.428  0.8153 -0.3612 -0.5462
   22TCq2    C6  340   1.298   4.649  14.451 -0.5049 -0.2150 -0.2765
   22TCq2    C7  341   1.426   4.708  14.445 -0.0323 -0.0379 -0.3603
   22TCq2    C8  342   1.187   4.725  14.521  0.2170 -0.0388 -0.3733
   22TCq2    O4  343   1.104   4.661  14.586  0.6984 -0.2224  0.0699
   22TCq2    C9  344   1.359   4.297  14.355  0.0251  0.5705 -0.0507
   22TCq2    O5  345   1.469   4.239  14.321 -0.3436 -0.1442  0.3178
   22TCq2    O6  346   1.246   4.249  14.376 -0.2024  0.2220  0.1884
   22TCq2    H2  347   1.587   4.429  14.339  0.6791  0.2119  1.9398
   22TCq2    H3  348   1.180   4.465  14.448  1.1397 -1.1333 -0.7332
   22TCq2    H4  349   1.438   0.078  14.492  2.3240 -0.3768 -0.2537
   23MPD2     C  350   3.708   1.351  14.786 -0.5856  0.4039 -0.6095
   23MPD2    C1  351   3.610   1.274  14.856 -0.0727  0.1586 -0.6609
   23MPD2    C2  352   3.485   1.260  14.799  0.8331  0.0807 -0.0504
   23MPD2    C3  353   3.461   1.316  14.677 -0.1669  0.0270  0.1659
   23MPD2    C4  354   3.557   1.383  14.606 -0.1981  0.4085  0.0012
   23MPD2    C5  355   3.680   1.406  14.667 -0.5873  0.1485 -0.1541
   23MPD2     H  356   3.397   1.217  14.847 -0.3983  2.6890  0.0313
   23MPD2    H1  357   3.536   1.426  14.508 -0.0364 -0.3450 -0.3590
   23MPD2    H2  358   3.801   1.358  14.841 -2.0871 -0.3635  2.0269
   23MPD2    H3  359   3.755   1.462  14.612 -1.4720  0.5989 -0.8984
   23MPD2     N  360   3.335   1.327  14.621 -0.6649  0.1808 -0.0411
   23MPD2    H5  361   3.323   1.387  14.540 -2.3466  0.0545  0.1011
   23MPD2    N1  362   3.637   1.216  14.984 -0.3202  0.1771 -0.6036
   23MPD2    H7  363   3.725   1.242  15.028  1.0259 -2.1429 -1.9593
   24TCq2    C1  364   3.235   1.242  14.655 -0.1987 -0.3338 -1.6204
   24TCq2    O2  365   3.239   1.144  14.723 -0.5250 -0.1297 -0.7143
   24TCq2    C2  366   3.110   1.260  14.585  0.3926 -0.7343  0.2446
   24TCq2    C3  367   3.075   1.392  14.563  0.5040  0.5524 -0.5273
   24TCq2    C4  368   2.962   1.411  14.492 -0.4008  0.1807 -0.2465
   24TCq2    C5  369   2.894   1.303  14.442 -0.0070 -1.1092  0.4073
   24TCq2    C6  370   2.935   1.172  14.464  0.2666  0.5882 -0.4908
   24TCq2    C7  371   3.038   1.145  14.540 -0.5151 -0.3376 -0.1262
   24TCq2    C8  372   2.865   1.065  14.401  0.0865  0.4725 -0.0935
   24TCq2    O4  373   2.913   0.952  14.403  0.0214 -0.2026  0.2003
   24TCq2    C9  374   2.916   1.542  14.467  0.7071  0.1096 -0.1306
   24TCq2    O5  375   2.992   1.634  14.500 -0.2457 -0.1905 -0.2712
   24TCq2    O6  376   2.801   1.560  14.414  0.2278 -0.3928 -0.2369
   24TCq2    H2  377   3.126   1.478  14.604  4.1311 -0.5231 -2.7509
   24TCq2    H3  378   2.813   1.333  14.377  0.4319 -1.2787 -0.2215
   24TCq2    H4  379   3.058   1.044  14.574  0.9532 -0.2024 -0.5746
   25TMC2    C1  380   2.391   3.195  11.246 -0.0885  0.4031  0.4205
   25TMC2    C2  381   2.469   3.219  11.141  0.3697 -0.0890 -0.2685
   25TMC2    C3  382   2.525   3.343  11.131 -0.0250  0.1733  0.8185
   25TMC2    C4  383   2.375   3.285  11.350 -1.1337  0.0602  0.1908
   25TMC2    C5  384   2.442   3.406  11.338 -0.5588  0.2508 -0.4464
   25TMC2    C6  385   2.509   3.445  11.223  1.4180 -0.8330 -0.4510
   25TMC2     C  386   2.281   3.102  11.241 -0.4226  0.1210 -0.3037
   25TMC2     O  387   2.176   3.124  11.298  0.1592 -0.4992 -0.1344
   25TMC2     H  388   2.476   3.154  11.055 -1.0054 -1.8157  0.9009
   25TMC2    H1  389   2.302   3.268  11.428  0.3686 -1.4589  1.2607
   25TMC2    H2  390   2.557   3.541  11.209  2.2419 -1.2195 -0.2632
   25TMC2    C7  391   2.414   3.506  11.440  0.6635  1.1618  0.4337
   25TMC2    C8  392   2.596   3.370  11.006 -0.5214 -0.3741  0.0937
   25TMC2    O1  393   2.370   3.464  11.540 -0.3239 -0.1291 -1.0298
   25TMC2    O2  394   2.553   3.329  10.899  0.1884 -0.0089  0.1375
   25TMC2    O5  395   2.663   3.486  11.006  0.7877  0.2264 -0.2282
   25TMC2    H5  396   2.712   3.516  11.085  2.4506  0.9471 -1.5471
   26MPD2     C  397   2.090   2.660  11.069  0.5028 -0.0441 -0.5750
   26MPD2    C1  398   2.046   2.745  11.173 -0.5340  0.0299 -0.4924
   26MPD2    C2  399   2.127   2.851  11.208  0.1954 -1.1798 -0.2383
   26MPD2    C3  400   2.239   2.878  11.141 -0.2680  0.6661  0.5535
   26MPD2    C4  401   2.284   2.790  11.050  0.6689  0.1521  0.3770
   26MPD2    C5  402   2.207   2.681  11.009  0.6758  0.4899  0.7368
   26MPD2     H  403   2.102   2.911  11.295  1.8264 -1.7001  0.6021
   26MPD2    H1  404   2.375   2.802  10.994  1.4591 -2.5401  1.0742
   26MPD2    H2  405   2.022   2.584  11.033  0.1023  0.0614 -0.0485
   26MPD2    H3  406   2.237   2.625  10.921 -0.6442  5.0351 -2.5787
   26MPD2     N  407   2.318   2.989  11.169 -0.1036 -0.3060 -0.1067
   26MPD2    H5  408   2.410   2.989  11.125  0.2421  0.4470  0.6156
   26MPD2    N1  409   1.915   2.722  11.226  0.1721  0.1017  0.0184
   26MPD2    H7  410   1.863   2.639  11.198  0.6549 -0.7801  1.7487
   27TMC2    C1  411   1.097   0.948  11.779  0.0035 -0.5659 -0.2539
   27TMC2    C2  412   0.966   0.956  11.743 -0.6058 -0.4721  0.4811
   27TMC2    C3  413   0.899   1.075  11.773  0.0202 -0.0544  0.1086
   27TMC2    C4  414   1.164   1.055  11.839 -0.7100  0.3721  0.5760
   27TMC2    C5  415   1.098   1.173  11.850  0.2115 -0.7380 -0.6987
   27TMC2    C6  416   0.963   1.184  11.826 -0.2537  0.0530 -0.7575
   27TMC2     C  417   1.123   0.822  11.846  0.1030 -0.1206 -0.6866
   27TMC2     O  418   1.056   0.731  11.803 -0.0097 -0.3892  0.2919
   27TMC2     H  419   0.913   0.869  11.706  1.0496 -1.2967  0.0478
   27TMC2    H1  420   1.271   1.056  11.857 -0.5090  1.2502 -0.6362
   27TMC2    H2  421   0.915   1.279  11.846 -0.0087  0.1173 -0.4758
   27TMC2    C7  422   1.150   1.254  11.956  0.4185 -0.3985 -0.1359
   27TMC2    C8  423   0.763   1.068  11.820 -0.5127 -0.2427  0.0525
   27TMC2    O1  424   1.216   1.191  12.040 -0.2256  0.0296 -0.1785
   27TMC2    O2  425   0.722   1.149  11.902  0.1811 -0.0716 -0.2681
   27TMC2    O5  426   0.742   0.939  11.843 -0.2359  0.4668  0.3691
   27TMC2    H5  427   0.768   0.883  11.766 -1.3663 -0.0902  0.3942
   28MPD2     C  428   1.172   0.561  12.272  0.5037 -0.1120 -0.1843
   28MPD2    C1  429   1.141   0.692  12.307  0.0780  0.5305 -0.2422
   28MPD2    C2  430   1.147   0.788  12.204 -0.8207  0.1590  0.5193
   28MPD2    C3  431   1.170   0.749  12.077  0.1088 -0.3477  0.7068
   28MPD2    C4  432   1.198   0.620  12.047 -0.6325 -0.4121 -0.3944
   28MPD2    C5  433   1.194   0.525  12.144  0.3744  0.2589 -0.6132
   28MPD2     H  434   1.135   0.892  12.230 -2.7604 -0.2459  1.2522
   28MPD2    H1  435   1.227   0.589  11.947  0.0689 -2.5679  0.4711
   28MPD2    H2  436   1.179   0.478  12.342  2.8027  0.4148  0.2061
   28MPD2    H3  437   1.218   0.422  12.121 -1.2950  0.2991 -2.6111
   28MPD2     N  438   1.157   0.844  11.980 -0.0031 -0.3627 -0.4949
   28MPD2    H5  439   1.170   0.935  12.023 -0.7786  0.2552 -1.5724
   28MPD2    N1  440   1.097   0.712  12.439  0.2120 -0.1603 -0.3492
   28MPD2    H7  441   1.073   0.629  12.492 -1.0198 -0.9418 -2.1238
   29MPD2     C  442   0.816   2.961  13.590 -0.7338  0.3396 -0.1088
   29MPD2    C1  443   0.940   2.915  13.638 -0.5514  0.3536  0.0616
   29MPD2    C2  444   1.030   2.999  13.707  0.1622  0.4228  0.2754
   29MPD2    C3  445   0.991   3.126  13.734  0.4037  0.5576 -0.0355
   29MPD2    C4  446   0.867   3.169  13.697 -0.0813  0.0902 -0.4630
   29MPD2    C5  447   0.780   3.091  13.625 -0.3021  0.0638  0.4776
   29MPD2     H  448   1.129   2.956  13.711 -0.9519 -2.0619  0.9386
   29MPD2    H1  449   0.840   3.271  13.722  0.7959 -0.1323  1.4501
   29MPD2    H2  450   0.749   2.905  13.525  0.4965 -0.3053 -0.8234
   29MPD2    H3  451   0.686   3.132  13.590  1.2008  2.3221 -0.9300
   29MPD2     N  452   1.075   3.215  13.799 -0.5095 -0.8489 -0.0614
   29MPD2    H5  453   1.035   3.307  13.815 -1.1027 -1.1910  0.4241
   29MPD2    N1  454   0.993   2.789  13.605 -0.2412 -0.6753 -0.1939
   29MPD2    H7  455   1.088   2.766  13.634 -0.3517 -1.2046 -0.2535
   30TCq2    C1  456   1.200   3.186  13.855 -0.3958  0.0906  0.9292
   30TCq2    O2  457   1.269   3.087  13.836  0.3939 -0.3515  0.4564
   30TCq2    C2  458   1.255   3.296  13.935 -1.1784 -0.8366  0.1102
   30TCq2    C3  459   1.200   3.344  14.044  1.1190  0.4094 -0.2485
   30TCq2    C4  460   1.266   3.448  14.105  0.0365  0.3920 -0.3603
   30TCq2    C5  461   1.392   3.480  14.075  0.3649  0.3108  0.4386
   30TCq2    C6  462   1.462   3.415  13.976 -0.5384 -0.2794  0.7972
   30TCq2    C7  463   1.388   3.320  13.904 -0.5240  0.2933  0.2664
   30TCq2    C8  464   1.563   3.480  13.895  0.3520 -0.2691 -0.0771
   30TCq2    O4  465   1.616   3.414  13.806 -0.3001 -0.3089 -0.4553
   30TCq2    C9  466   1.212   3.504  14.222 -0.1474 -0.4708  0.1366
   30TCq2    O5  467   1.268   3.612  14.260  0.4825 -0.3207  0.6382
   30TCq2    O6  468   1.130   3.435  14.285 -0.1104 -0.1548 -0.1806
   30TCq2    H2  469   1.104   3.315  14.084  1.5547 -0.8102 -0.1099
   30TCq2    H3  470   1.441   3.557  14.134  0.7164  1.7918 -1.7920
   30TCq2    H4  471   1.430   3.276  13.814  3.8692  2.3705  1.2770
   31MPD2     C  472   4.204   1.929  14.766  0.3176  0.6244  0.5990
   31MPD2    C1  473   4.094   1.960  14.687 -0.0006 -0.2021 -0.7615
   31MPD2    C2  474   3.973   1.893  14.708 -0.3323  0.0972  0.8264
   31MPD2    C3  475   3.961   1.783  14.795 -0.8387  0.3635 -0.1840
   31MPD2    C4  476   4.076   1.754  14.866 -0.5522 -0.9753  0.0614
   31MPD2    C5  477   4.188   1.829  14.857  0.0384  0.3535  0.2219
   31MPD2     H  478   3.879   1.924  14.662 -0.6607  1.5187  2.4447
   31MPD2    H1  479   4.083   1.672  14.937 -0.0493 -1.6539 -0.7747
   31MPD2    H2  480   4.304   1.971  14.762  0.8150 -0.6359 -0.2659
   31MPD2    H3  481   4.275   1.801  14.915  0.0979 -0.0105 -0.0412
   31MPD2     N  482   3.846   1.712  14.828 -0.2558  0.0191  0.0770
   31MPD2    H5  483   3.859   1.627  14.881  0.0283  0.8235  1.2942
   31MPD2    N1  484   4.107   2.066  14.591 -0.6337  0.2838  0.2642
   31MPD2    H7  485   4.195   2.115  14.587  0.1347 -1.1488 -0.3328
   32TCq2    C1  486   3.720   1.743  14.784 -0.8882  0.0392  0.6630
   32TCq2    O2  487   3.683   1.827  14.702  0.2534  0.1862 -0.2786
   32TCq2    C2  488   3.620   1.654  14.834 -0.0815  0.0995 -0.2994
   32TCq2    C3  489   3.499   1.678  14.776 -0.6306 -0.2622  0.8940
   32TCq2    C4  490   3.386   1.631  14.831  0.6174  0.4319 -0.1130
   32TCq2    C5  491   3.387   1.571  14.949  0.3755 -0.2864  0.5762
   32TCq2    C6  492   3.513   1.561  15.011 -0.4354 -0.0516  0.3381
   32TCq2    C7  493   3.637   1.583  14.952  0.6173 -0.1254  0.1476
   32TCq2    C8  494   3.515   1.527  15.157  0.2152 -0.3442 -0.1867
   32TCq2    O4  495   3.608   1.459  15.200 -0.0257 -0.2057 -0.4181
   32TCq2    C9  496   3.252   1.666  14.775  0.4246  0.3210 -0.1544
   32TCq2    O5  497   3.150   1.647  14.852  0.1818  0.3386 -0.1627
   32TCq2    O6  498   3.258   1.741  14.673 -0.0390 -0.1761  0.9440
   32TCq2    H2  499   3.488   1.734  14.683  3.7843  1.6217  1.4930
   32TCq2    H3  500   3.293   1.544  14.996  0.3150 -1.8616 -0.4560
   32TCq2    H4  501   3.726   1.568  15.012 -1.5011 -2.3867  2.7163
   33MPD2     C  502   3.524   4.535  10.348  0.1053 -0.0106 -0.5501
   33MPD2    C1  503   3.574   4.523  10.478  0.1157 -0.4220  0.0167
   33MPD2    C2  504   3.618   4.641  10.534 -0.2264  0.0374 -0.6396
   33MPD2    C3  505   3.623   0.040  10.472  0.1112  0.2079 -0.1376
   33MPD2    C4  506   3.595   0.032  10.336 -0.4535 -0.7798 -0.0963
   33MPD2    C5  507   3.542   4.649  10.279 -0.1370 -0.2737  0.0710
   33MPD2     H  508   3.634   4.642  10.641 -0.5851  0.6061 -0.5897
   33MPD2    H1  509   3.615   0.112  10.266 -0.3056 -0.6281  0.1174
   33MPD2    H2  510   3.482   4.443  10.307 -1.2999 -0.0734  1.0093
   33MPD2    H3  511   3.532   4.666  10.173 -0.5597 -2.4316 -0.2419
   33MPD2     N  512   3.670   0.153  10.535 -0.0679 -0.4129  0.0738
   33MPD2    H5  513   3.716   0.228  10.485  0.9290 -1.1364 -0.1042
   33MPD2    N1  514   3.583   4.393  10.537  0.0333  0.0439 -0.1795
   33MPD2    H7  515   3.557   4.311  10.484 -1.4898 -0.6638  1.6403
   34TCq2    C1  516   3.668   0.174  10.670 -0.3268  0.3661 -0.2505
   34TCq2    O2  517   3.617   0.105  10.758  0.0274 -0.7040 -0.3243
   34TCq2    C2  518   3.758   0.278  10.721  0.1306  0.1631  0.3525
   34TCq2    C3  519   3.766   0.291  10.858 -0.4222  0.2805 -0.0452
   34TCq2    C4  520   3.872   0.373  10.908  0.2189  0.6971 -0.3236
   34TCq2    C5  521   3.962   0.433  10.826 -0.3487 -0.3132 -0.6519
   34TCq2    C6  522   3.950   0.411  10.695  0.1563  0.0603 -0.4709
   34TCq2    C7  523   3.861   0.327  10.639 -0.5305  0.3563  0.2287
   34TCq2    C8  524   4.029   0.491  10.611  0.6072 -0.7455  0.2263
   34TCq2    O4  525   4.129   0.539  10.659  0.3238 -0.5092 -0.6282
   34TCq2    C9  526   3.868   0.408  11.046  0.0924 -0.1998  0.1080
   34TCq2    O5  527   3.751   0.448  11.076 -0.0298  0.1860 -0.2016
   34TCq2    O6  528   3.973   0.435  11.105 -0.0865  0.5715  0.3416
   34TCq2    H2  529   3.680   0.259  10.915 -0.0290 -1.9251 -0.6835
   34TCq2    H3  530   4.049   0.484  10.866 -1.9623  2.2421 -0.4171
   34TCq2    H4  531   3.861   0.308  10.532 -1.0222  1.4039  0.0436
   35MPD2     C  532   0.714   1.650  12.064  0.6534 -0.2821 -0.1139
   35MPD2    C1  533   0.723   1.516  12.056  0.3837 -0.5158  0.3616
   35MPD2    C2  534   0.632   1.451  11.978 -0.1228  0.1333  0.5010
   35MPD2    C3  535   0.534   1.527  11.908  0.0176 -0.1074  0.1038
   35MPD2    C4  536   0.532   1.665  11.910 -0.3353 -0.2902  0.3978
   35MPD2    C5  537   0.626   1.723  11.988 -0.7774  0.1438  0.4410
   35MPD2     H  538   0.629   1.343  11.971 -0.5270  0.1634  0.2540
   35MPD2    H1  539   0.463   1.730  11.856 -1.6905 -1.7237  0.3796
   35MPD2    H2  540   0.777   1.711  12.129 -1.8758  1.0723  1.0749
   35MPD2    H3  541   0.630   1.830  12.001 -1.0220  0.0987  0.8774
   35MPD2     N  542   0.439   1.449  11.831 -0.3675  0.4129  0.1971
   35MPD2    H5  543   0.439   1.349  11.847  0.3859  0.2073 -1.1030
   35MPD2    N1  544   0.828   1.453  12.128  0.0981  0.3604 -0.1525
   35MPD2    H7  545   0.903   1.518  12.151  0.1079  0.2463  0.1369
   36TCq2    C1  546   0.335   1.507  11.755 -0.1229 -0.1183 -0.7282
   36TCq2    O2  547   0.318   1.626  11.727  0.9147 -0.5145  0.0127
   36TCq2    C2  548   0.236   1.419  11.696 -0.1313 -0.0477  0.4325
   36TCq2    C3  549   0.116   1.487  11.665 -0.8799 -0.0019  0.4194
   36TCq2    C4  550   4.726   1.412  11.676  0.0754  0.4692  1.1565
   36TCq2    C5  551   4.727   1.284  11.715 -0.3203  0.7150 -0.0428
   36TCq2    C6  552   0.122   1.224  11.741 -0.1204  0.3914 -0.1970
   36TCq2    C7  553   0.242   1.287  11.724 -0.2439 -0.2618 -0.2483
   36TCq2    C8  554   0.121   1.078  11.740 -0.0788  0.5664 -0.8828
   36TCq2    O4  555   0.023   1.022  11.695 -0.0361  0.4787  0.2737
   36TCq2    C9  556   4.599   1.473  11.652  0.4135  0.8640 -0.7384
   36TCq2    O5  557   4.501   1.418  11.705 -0.3277 -0.0697  0.4891
   36TCq2    O6  558   4.594   1.584  11.591  0.3562 -0.0017  0.1553
   36TCq2    H2  559   0.121   1.592  11.639 -0.3779  0.4153  2.2091
   36TCq2    H3  560   4.636   1.225  11.722  1.7787 -2.4334  1.0327
   36TCq2    H4  561   0.340   1.239  11.728 -0.4156 -0.5785  0.1073
   37TMC2    C1  562   2.046   1.484  11.562 -0.4029 -0.2410 -0.3562
   37TMC2    C2  563   1.987   1.510  11.444  0.0559 -0.0269  0.1728
   37TMC2    C3  564   2.059   1.474  11.330  0.0585 -0.4912 -0.1293
   37TMC2    C4  565   2.176   1.446  11.577 -0.2512 -0.8029 -0.4918
   37TMC2    C5  566   2.248   1.439  11.461 -0.9073 -0.7622 -0.5670
   37TMC2    C6  567   2.192   1.452  11.334  0.7189 -0.5870  0.2197
   37TMC2     C  568   1.963   1.512  11.679 -0.2747 -0.2463  0.8103
   37TMC2     O  569   1.873   1.591  11.663  0.0548  0.0991 -0.8447
   37TMC2     H  570   1.892   1.562  11.444  0.1126  0.1034  2.3757
   37TMC2    H1  571   2.216   1.426  11.676 -2.3090  1.6722  0.8412
   37TMC2    H2  572   2.252   1.455  11.244  0.0766  0.4737 -0.1618
   37TMC2    C7  573   2.394   1.427  11.482  0.1674 -0.8699  0.5166
   37TMC2    C8  574   2.004   1.491  11.200  0.1521 -0.2833  0.2820
   37TMC2    O1  575   2.439   1.419  11.597  0.3531 -0.2713  0.0303
   37TMC2    O2  576   1.901   1.558  11.175 -0.4346 -0.0817  0.3343
   37TMC2    O5  577   2.043   1.384  11.131  0.0121  0.1339 -0.0764
   37TMC2    H5  578   2.111   1.330  11.177 -1.4278 -0.9323  0.8084
   38MPD2     C  579   1.835   1.410  12.165  0.3892 -0.2977  0.2044
   38MPD2    C1  580   1.964   1.353  12.141 -0.2010 -0.0228 -0.3211
   38MPD2    C2  581   2.021   1.371  12.018  0.2470  0.2037  0.8045
   38MPD2    C3  582   1.950   1.442  11.920  0.5879  0.0038 -0.4642
   38MPD2    C4  583   1.827   1.498  11.947 -0.3959 -0.3216  0.2396
   38MPD2    C5  584   1.770   1.478  12.065  0.0265 -0.3514  0.2798
   38MPD2     H  585   2.116   1.324  11.995  0.1274  0.6953 -0.7211
   38MPD2    H1  586   1.772   1.549  11.869 -3.1097 -0.7566  1.8692
   38MPD2    H2  587   1.785   1.411  12.261  0.2130 -2.4170  0.1278
   38MPD2    H3  588   1.686   1.535  12.102  3.1382  2.2748  3.1547
   38MPD2     N  589   2.014   1.449  11.788 -0.3493  0.0683  0.1733
   38MPD2    H5  590   2.101   1.399  11.776 -0.2439  0.0768  0.8714
   38MPD2    N1  591   2.037   1.283  12.239  0.3261 -0.1649  0.1765
   38MPD2    H7  592   2.125   1.243  12.206 -0.1063 -2.0094  1.2363
   39MPD2     C  593   0.838   3.927   1.611 -0.0308 -0.1418  0.2149
   39MPD2    C1  594   0.910   3.850   1.523  0.2609  0.4164  0.2968
   39MPD2    C2  595   0.840   3.785   1.427 -0.0112 -0.3605  0.1815
   39MPD2    C3  596   0.702   3.793   1.414  0.5283  0.4829 -0.1391
   39MPD2    C4  597   0.629   3.866   1.510  0.7144 -0.1036 -0.1822
   39MPD2    C5  598   0.696   3.931   1.605 -0.0030 -0.0788  0.1543
   39MPD2     H  599   0.894   3.725   1.355  0.6464  1.2637 -0.6858
   39MPD2    H1  600   0.521   3.856   1.512  0.6340  0.3592 -1.8954
   39MPD2    H2  601   0.891   3.977   1.691  0.0983 -0.9152  0.6027
   39MPD2    H3  602   0.648   3.982   1.687  0.5637 -0.2552  0.5918
   39MPD2     N  603   0.626   3.745   1.304 -0.6372 -0.5826  0.0032
   39MPD2    H5  604   0.528   3.769   1.314  0.0423  3.8017 -3.8591
   39MPD2    N1  605   1.051   3.846   1.532  0.2681  0.1485  0.1367
   39MPD2    H7  606   1.090   3.894   1.612  0.0511  1.5167 -0.5886
   40TCq2    C1  607   1.133   3.775   1.458  0.2923 -0.2800  0.7757
   40TCq2    O2  608   1.105   3.692   1.373 -0.0330  0.1097 -0.7841
   40TCq2    C2  609   1.271   3.825   1.471  1.2760  1.0055 -0.8411
   40TCq2    C3  610   1.297   3.931   1.550 -0.2759 -0.6059  0.4688
   40TCq2    C4  611   1.424   3.985   1.553  0.4090  0.2158 -0.0175
   40TCq2    C5  612   1.522   3.919   1.491  0.3518 -0.2012 -0.3522
   40TCq2    C6  613   1.500   3.810   1.413 -0.3742  0.9678 -0.0238
   40TCq2    C7  614   1.368   3.764   1.398  0.4283 -0.2300  0.8747
   40TCq2    C8  615   1.616   3.736   1.357 -0.0012  0.2085  0.0428
   40TCq2    O4  616   1.584   3.648   1.274 -0.2753 -0.4312 -0.0530
   40TCq2    C9  617   1.452   4.103   1.625  0.3650  0.5580 -0.7164
   40TCq2    O5  618   1.356   4.170   1.672 -0.0943  0.3699 -0.0582
   40TCq2    O6  619   1.574   4.135   1.639 -0.1222  0.9947  0.1572
   40TCq2    H2  620   1.224   3.974   1.617  0.3968  0.4535  0.5298
   40TCq2    H3  621   1.613   3.977   1.493  1.3029 -1.6953 -0.1169
   40TCq2    H4  622   1.344   3.671   1.348 -0.2179 -0.0023  0.7532
   41TMC2    C1  623   4.370   1.598  13.023 -0.0483 -0.3108  1.1319
   41TMC2    C2  624   4.424   1.698  13.096 -0.3224  0.1021 -0.2152
   41TMC2    C3  625   4.452   1.822  13.042 -0.6422  0.7176  0.4303
   41TMC2    C4  626   4.345   1.619  12.889 -0.1237  0.3387 -0.0744
   41TMC2    C5  627   4.365   1.746  12.837  0.5654 -0.5803 -0.1071
   41TMC2    C6  628   4.426   1.845  12.909 -0.4648  0.2845 -0.9297
   41TMC2     C  629   4.311   1.474  13.091  0.0206 -0.4185 -0.0255
   41TMC2     O  630   4.262   1.402  13.006 -0.1124 -0.1714  0.5116
   41TMC2     H  631   4.414   1.698  13.204 -3.7476  1.4502 -0.5375
   41TMC2    H1  632   4.296   1.543  12.828 -1.5918  1.0791  0.1833
   41TMC2    H2  633   4.451   1.941  12.864 -0.0240  1.1096  1.0574
   41TMC2    C7  634   4.376   1.762  12.688  0.8711 -0.0774 -0.2972
   41TMC2    C8  635   4.470   1.937  13.129 -0.7983  0.2135 -0.4942
   41TMC2    O1  636   4.390   1.877  12.652  0.2713  0.0512  0.3960
   41TMC2    O2  637   4.450   2.050  13.081  0.1657 -0.7262  0.1639
   41TMC2    O5  638   4.568   1.901  13.218  0.6854  0.4486 -0.0689
   41TMC2    H5  639   4.576   1.803  13.216 -2.1161  0.1931  1.1072
   42MPD2     C  640   4.191   1.258  13.249  0.6768  0.2352 -0.7961
   42MPD2    C1  641   4.253   1.369  13.307 -0.0913  0.3558  0.1702
   42MPD2    C2  642   4.239   1.384  13.447  0.4518 -0.2218  0.0274
   42MPD2    C3  643   4.155   1.303  13.520 -0.3305 -0.1148 -0.1083
   42MPD2    C4  644   4.099   1.197  13.452 -0.6723 -0.1960  0.0256
   42MPD2    C5  645   4.111   1.176  13.314  0.6583  0.0838 -0.1118
   42MPD2     H  646   4.295   1.458  13.504  0.9584 -0.2167 -0.4748
   42MPD2    H1  647   4.025   1.139  13.505 -1.1142  0.3349 -0.0115
   42MPD2    H2  648   4.204   1.237  13.143  1.6280  0.5946 -0.7509
   42MPD2    H3  649   4.068   1.092  13.261 -0.2473  0.4230  0.0693
   42MPD2     N  650   4.119   1.326  13.660  0.0694  0.1987  0.7361
   42MPD2    H5  651   4.065   1.254  13.707 -0.1683  0.0534  0.2414
   42MPD2    N1  652   4.326   1.465  13.230 -0.0456  0.0879  0.7884
   42MPD2    H7  653   4.368   1.539  13.286  4.0114 -2.3134  0.8834
   43MPD2     C  654   1.235   4.123   0.309 -1.0496 -0.1229  0.0859
   43MPD2    C1  655   1.344   4.189   0.353 -0.4155  0.6303 -0.1203
   43MPD2    C2  656   1.339   4.288   0.452  0.0838  0.6019 -0.7437
   43MPD2    C3  657   1.213   4.327   0.505  0.2536  0.2366  0.1317
   43MPD2    C4  658   1.101   4.262   0.458  0.0519 -0.1274  0.0778
   43MPD2    C5  659   1.116   4.160   0.360  0.0124  0.0371  0.3076
   43MPD2     H  660   1.434   4.327   0.486 -0.5663 -0.9537  2.8904
   43MPD2    H1  661   0.998   4.270   0.491 -0.0146  0.8130 -0.3554
   43MPD2    H2  662   1.239   4.046   0.234  1.8634  0.4792 -0.4118
   43MPD2    H3  663   1.025   4.119   0.318 -0.0301 -0.8511  1.2737
   43MPD2     N  664   1.194   4.418   0.611 -0.0078  0.2469 -0.1989
   43MPD2    H5  665   1.102   4.445   0.645  1.2366  1.7814  1.9456
   43MPD2    N1  666   1.474   4.147   0.310 -0.2105  0.5025  0.1934
   43MPD2    H7  667   1.551   4.173   0.370 -0.1024 -0.3442  0.4146
   44TCq2    C1  668   1.436   0.101   0.978  0.0320  0.0564  0.2256
   44TCq2    O2  669   1.547   0.090   0.931  0.3320 -0.1632 -0.0482
   44TCq2    C2  670   1.319   0.031   0.916  0.1678  0.2875  0.2189
   44TCq2    C3  671   1.197   0.089   0.915  0.3865  0.2304  0.0113
   44TCq2    C4  672   1.103   0.040   0.828 -0.7285  0.0735  0.2275
   44TCq2    C5  673   1.123   4.656   0.753  0.6602 -0.3938 -0.6346
   44TCq2    C6  674   1.252   4.602   0.755 -0.3474 -0.3149 -0.9582
   44TCq2    C7  675   1.354   4.656   0.832 -0.4200 -0.3303 -0.2579
   44TCq2    C8  676   1.293   4.486   0.681  0.6452  0.2125 -0.4555
   44TCq2    O4  677   1.416   4.476   0.669 -0.0516 -1.0231 -0.2153
   44TCq2    C9  678   0.973   0.101   0.824 -0.0591 -1.0020  0.4902
   44TCq2    O5  679   0.900   0.063   0.728 -0.2032  0.0175  0.4281
   44TCq2    O6  680   0.961   0.209   0.880 -0.3880 -0.0014  0.1865
   44TCq2    H2  681   1.182   0.175   0.980  0.3813 -0.4593  0.9278
   44TCq2    H3  682   1.044   4.624   0.685 -0.9101 -2.1886  2.0071
   44TCq2    H4  683   1.456   4.620   0.834  0.1720  1.0933 -3.7177
   45TMC2    C1  684   1.542   1.495   9.501  0.6273  0.0789 -0.4871
   45TMC2    C2  685   1.636   1.450   9.589 -0.3635 -0.7418 -0.1950
   45TMC2    C3  686   1.672   1.544   9.689  0.3374 -0.4431  0.3552
   45TMC2    C4  687   1.482   1.615   9.513 -0.1030  0.1484  0.2107
   45TMC2    C5  688   1.514   1.699   9.614 -0.4114 -0.3704 -0.1512
   45TMC2    C6  689   1.610   1.666   9.698 -0.4228  0.5420 -0.2404
   45TMC2     C  690   1.481   1.389   9.427 -0.7734 -0.5184 -0.1252
   45TMC2     O  691   1.512   1.279   9.471  0.5551 -0.0396 -0.6323
   45TMC2     H  692   1.695   1.359   9.590  0.7471 -0.0209 -0.3701
   45TMC2    H1  693   1.405   1.646   9.442  0.9437  1.1985 -0.4685
   45TMC2    H2  694   1.633   1.729   9.783  0.8382  2.9023 -2.3428
   45TMC2    C7  695   1.445   1.821   9.622 -0.3114 -0.5722  0.8669
   45TMC2    C8  696   1.765   1.507   9.793  0.2393 -0.2670  0.1954
   45TMC2    O1  697   1.329   1.826   9.578 -0.3220  0.3187 -0.0884
   45TMC2    O2  698   1.833   1.591   9.853 -0.7965  0.5313  0.1448
   45TMC2    O5  699   1.786   1.373   9.797 -0.2081  0.2417  0.2289
   45TMC2    H5  700   1.703   1.329   9.766 -0.1372  0.3477 -0.1081
   46MPD2     C  701   1.314   1.200   9.264  0.1476  0.3590 -0.1773
   46MPD2    C1  702   1.307   1.334   9.262 -0.5478 -0.9111 -0.4001
   46MPD2    C2  703   1.212   1.389   9.182 -0.3066 -0.3500  0.0819
   46MPD2    C3  704   1.122   1.328   9.103 -0.3777  0.7983 -0.5133
   46MPD2    C4  705   1.130   1.191   9.108 -0.4368 -0.3589 -0.5594
   46MPD2    C5  706   1.226   1.128   9.187 -0.2529  0.6582  0.4510
   46MPD2     H  707   1.204   1.497   9.188  1.9559 -0.0991 -1.2442
   46MPD2    H1  708   1.071   1.119   9.052  1.5830 -0.6414 -2.3033
   46MPD2    H2  709   1.378   1.147   9.334 -0.3222  1.1276  0.8179
   46MPD2    H3  710   1.248   1.023   9.197 -2.1116  0.2599  0.3562
   46MPD2     N  711   1.018   1.394   9.037 -0.1525 -1.0230 -0.5071
   46MPD2    H5  712   1.019   1.495   9.041  0.1482 -0.9558 -2.2197
   46MPD2    N1  713   1.383   1.424   9.340  0.7205 -0.7836 -0.0039
   46MPD2    H7  714   1.376   1.524   9.325  1.7783 -0.6815  0.1904
   47TMC2    C1  715   4.152   2.231   9.289 -0.1819  0.2385 -0.1130
   47TMC2    C2  716   4.232   2.133   9.251  0.4207 -0.3962  0.9813
   47TMC2    C3  717   4.214   2.094   9.119  0.0955 -0.1971 -0.1411
   47TMC2    C4  718   4.057   2.291   9.217 -0.0257  0.3736 -0.1807
   47TMC2    C5  719   4.042   2.248   9.087  0.2222  1.1085 -0.2876
   47TMC2    C6  720   4.122   2.148   9.041  0.3228  0.0171 -0.1764
   47TMC2     C  721   4.188   2.304   9.412 -0.2539  0.4190  0.7190
   47TMC2     O  722   4.141   2.417   9.418 -0.3756 -0.2359 -0.2486
   47TMC2     H  723   4.316   2.098   9.309 -0.4570 -1.5731  1.5169
   47TMC2    H1  724   4.008   2.381   9.253 -0.3999  0.0437  0.1200
   47TMC2    H2  725   4.112   2.107   8.942  1.3243  0.4104 -0.4402
   47TMC2    C7  726   3.996   2.342   8.981  0.6851 -0.4299  0.1225
   47TMC2    C8  727   4.300   1.995   9.054 -0.5311 -0.1799  0.1469
   47TMC2    O1  728   4.017   2.319   8.864  0.1295  0.2989 -0.3956
   47TMC2    O2  729   4.412   1.990   9.098  0.4236  0.2986  0.1884
   47TMC2    O5  730   4.235   1.913   8.973 -0.8798  0.3260 -0.1012
   47TMC2    H5  731   4.137   1.921   8.970 -0.8048  0.7027 -1.5610
   48MPD2     C  732   4.282   2.395   9.680  0.3930  0.0373  0.8396
   48MPD2    C1  733   4.313   2.270   9.632 -0.6523 -0.4306  0.6365
   48MPD2    C2  734   4.396   2.181   9.705  0.1219 -0.1233  0.1111
   48MPD2    C3  735   4.452   2.217   9.823 -0.5105 -0.0614 -0.2234
   48MPD2    C4  736   4.422   2.345   9.870 -0.6532 -0.2597 -0.4682
   48MPD2    C5  737   4.344   2.430   9.795  0.1610 -0.6670  0.0629
   48MPD2     H  738   4.424   2.087   9.658 -2.1998 -0.3817 -0.7837
   48MPD2    H1  739   4.459   2.385   9.963  1.4562 -1.8372 -0.6477
   48MPD2    H2  740   4.223   2.471   9.630 -0.0498 -0.4630  0.6088
   48MPD2    H3  741   4.327   2.529   9.836 -1.7175  0.1602 -2.6921
   48MPD2     N  742   4.534   2.123   9.898 -0.0008  0.1911 -0.2644
   48MPD2    H5  743   4.538   2.030   9.859 -0.3688 -0.1288  0.4724
   48MPD2    N1  744   4.255   2.228   9.508  0.0781  0.0874 -0.0032
   48MPD2    H7  745   4.258   2.129   9.486  1.2602  0.0778  0.2035
   49MPD2     C  746   1.521   3.691   9.642  0.4057  0.2265  0.0440
   49MPD2    C1  747   1.524   3.664   9.773 -0.4369 -0.2598  0.6706
   49MPD2    C2  748   1.600   3.744   9.860  0.0120  1.0223  0.0648
   49MPD2    C3  749   1.678   3.844   9.806 -0.8843 -0.0821 -0.0844
   49MPD2    C4  750   1.678   3.860   9.670 -0.2017  0.1934 -0.2420
   49MPD2    C5  751   1.606   3.780   9.588 -0.2493 -0.7422  0.5482
   49MPD2     H  752   1.605   3.730   9.967  0.9765 -0.4107 -0.1648
   49MPD2    H1  753   1.711   3.956   9.633 -1.4655  1.0195  0.7573
   49MPD2    H2  754   1.465   3.636   9.567 -0.9967  0.9679  0.5413
   49MPD2    H3  755   1.606   3.792   9.480  0.4051  0.8642  0.7320
   49MPD2     N  756   1.779   3.925   9.880  0.8677  0.0376 -0.1568
   49MPD2    H5  757   1.839   3.987   9.827  0.5590  0.8012  0.3772
   49MPD2    N1  758   1.428   3.585   9.841  0.3922 -0.0753  0.0104
   49MPD2    H7  759   1.425   3.596   9.942 -0.0425  1.5355 -0.1671
   50TCq2    C1  760   1.336   3.502   9.782 -0.1882 -0.3903 -0.6922
   50TCq2    O2  761   1.299   3.495   9.664  0.5969 -0.2723  0.3677
   50TCq2    C2  762   1.236   3.442   9.877  0.2938 -0.0403  0.1728
   50TCq2    C3  763   1.114   3.413   9.828 -0.0649  0.5943  0.0848
   50TCq2    C4  764   1.010   3.395   9.914 -0.4142 -0.0634  0.0538
   50TCq2    C5  765   1.029   3.385  10.047 -0.0325  0.1816 -0.1196
   50TCq2    C6  766   1.155   3.393  10.087  0.1368  0.2137 -0.3312
   50TCq2    C7  767   1.260   3.425  10.005 -0.3781  0.0868  0.1174
   50TCq2    C8  768   1.196   3.358  10.218  0.8914  0.9204 -0.0539
   50TCq2    O4  769   1.314   3.335  10.229  0.2397 -0.0837  0.1185
   50TCq2    C9  770   0.885   3.344   9.855  0.9241  0.1302 -0.5555
   50TCq2    O5  771   0.809   3.293   9.939 -0.2068  0.2243  0.4135
   50TCq2    O6  772   0.893   3.305   9.734 -0.3902  0.7717 -0.5351
   50TCq2    H2  773   1.092   3.419   9.722  1.0989  0.0564 -0.1923
   50TCq2    H3  774   0.942   3.371  10.111 -0.4018 -1.5891 -1.0376
   50TCq2    H4  775   1.363   3.440  10.038 -0.2908 -0.6095  0.1559
   51MPD2     C  776   3.591   2.972   1.073 -0.5834 -0.2711 -0.5182
   51MPD2    C1  777   3.492   2.908   0.995 -0.3151  0.6708 -0.0372
   51MPD2    C2  778   3.375   2.969   0.957 -0.2076 -0.3134 -0.3724
   51MPD2    C3  779   3.351   3.092   1.014  0.1586 -0.4162  0.1460
   51MPD2    C4  780   3.449   3.160   1.084  0.7705 -0.1475  0.1472
   51MPD2    C5  781   3.564   3.095   1.121  0.0448  0.2272 -0.0756
   51MPD2     H  782   3.305   2.915   0.895 -1.0660  0.3715 -0.0036
   51MPD2    H1  783   3.425   3.260   1.118 -1.3383 -0.8669  0.7499
   51MPD2    H2  784   3.680   2.923   1.110  0.1473  1.9894  0.7084
   51MPD2    H3  785   3.632   3.151   1.185 -0.3080 -0.8523  1.2388
   51MPD2     N  786   3.231   3.159   0.997 -0.5353 -0.6694  0.8931
   51MPD2    H5  787   3.231   3.249   1.044 -1.1010 -0.3590  0.2935
   51MPD2    N1  788   3.501   2.768   0.965 -0.2770 -0.3119 -0.1411
   51MPD2    H7  789   3.436   2.726   0.899 -0.0710 -1.5013  0.4170
   52TCq2    C1  790   3.120   3.105   0.938  0.1397 -0.4356  0.3055
   52TCq2    O2  791   3.103   2.996   0.887  0.3753 -0.1711 -0.1236
   52TCq2    C2  792   3.001   3.186   0.958  0.9123 -0.3933 -0.5080
   52TCq2    C3  793   2.887   3.160   0.881 -0.1623 -0.0013 -0.2097
   52TCq2    C4  794   2.780   3.237   0.912 -0.4259  0.2602  0.4809
   52TCq2    C5  795   2.780   3.341   1.009 -0.2419  0.0445 -0.2404
   52TCq2    C6  796   2.890   3.360   1.084 -0.0667 -0.1680 -0.1153
   52TCq2    C7  797   2.997   3.276   1.070  0.0248 -0.4892  0.7910
   52TCq2    C8  798   2.892   3.467   1.181 -0.2598  0.3077 -0.1484
   52TCq2    O4  799   2.978   3.454   1.267  0.7595 -0.1111  0.0303
   52TCq2    C9  800   2.663   3.232   0.830 -0.3073 -0.3491  0.2792
   52TCq2    O5  801   2.562   3.301   0.859  0.3624 -0.0018  0.2070
   52TCq2    O6  802   2.670   3.157   0.733 -0.4447 -0.3115  0.2230
   52TCq2    H2  803   2.887   3.090   0.799  2.0446 -0.8459  0.5000
   52TCq2    H3  804   2.692   3.405   1.012 -0.2219  0.1256 -1.2409
   52TCq2    H4  805   3.080   3.284   1.140 -0.4877 -1.9208  1.5671
   53TMC2    C1  806   3.114   1.389  11.646  0.1323  0.0831 -0.5157
   53TMC2    C2  807   3.234   1.334  11.670 -0.0567 -0.0510 -0.8842
   53TMC2    C3  808   3.290   1.370  11.793  0.0617 -0.0241  0.5613
   53TMC2    C4  809   3.055   1.477  11.727  0.7215 -0.1784 -0.8554
   53TMC2    C5  810   3.110   1.504  11.849  0.2701 -1.1212 -0.0314
   53TMC2    C6  811   3.233   1.455  11.888 -0.2985  0.1518 -0.3800
   53TMC2     C  812   3.052   1.365  11.518 -0.0730 -0.4187 -0.2945
   53TMC2     O  813   3.124   1.360  11.422 -0.2730 -0.7666  0.4665
   53TMC2     H  814   3.287   1.292  11.586  0.7916 -0.4012 -0.1761
   53TMC2    H1  815   2.970   1.537  11.693  1.9491  1.3688 -1.1956
   53TMC2    H2  816   3.284   1.482  11.980  0.7189  5.0333 -2.3828
   53TMC2    C7  817   3.033   1.548  11.955  0.2910 -0.3402 -0.0255
   53TMC2    C8  818   3.427   1.342  11.815 -0.0956  0.5957  0.0076
   53TMC2    O1  819   2.968   1.647  11.927  0.2675  0.1020 -0.0909
   53TMC2    O2  820   3.501   1.416  11.881 -0.5238  0.0228 -0.1762
   53TMC2    O5  821   3.441   1.211  11.811 -0.1148  0.2163  0.6252
   53TMC2    H5  822   3.377   1.167  11.751 -2.3951  0.2085  3.0362
   54MPD2     C  823   2.865   1.371  11.285 -0.0290 -0.9731  0.3425
   54MPD2    C1  824   2.825   1.384  11.419  0.6089  0.0475  0.7203
   54MPD2    C2  825   2.690   1.390  11.445  0.3841  0.3237 -0.4076
   54MPD2    C3  826   2.595   1.379  11.345  0.6229  0.4002 -0.1649
   54MPD2    C4  827   2.637   1.365  11.218  0.3075  0.6691 -0.3532
   54MPD2    C5  828   2.766   1.370  11.187 -0.0746 -0.8782  0.4735
   54MPD2     H  829   2.649   1.423  11.540 -1.6176 -2.5873 -0.2796
   54MPD2    H1  830   2.569   1.377  11.134  0.5365  1.0858 -0.4791
   54MPD2    H2  831   2.967   1.356  11.254 -0.8676 -1.7825 -2.0295
   54MPD2    H3  832   2.797   1.364  11.083 -0.9956 -0.7761  0.1880
   54MPD2     N  833   2.458   1.402  11.366  0.6623  0.2128  0.1717
   54MPD2    H5  834   2.399   1.402  11.283  0.1279 -1.2695  0.5593
   54MPD2    N1  835   2.914   1.377  11.528  0.0558 -0.4022 -0.6451
   54MPD2    H7  836   2.865   1.388  11.616  1.1407 -0.7063  0.0030
   55MPD2     C  837   3.394   0.108   0.710 -0.3114  0.4508 -0.0293
   55MPD2    C1  838   3.378   4.699   0.732  0.3460  1.0683  0.6609
   55MPD2    C2  839   3.259   4.647   0.777  0.6947  0.7423  0.0258
   55MPD2    C3  840   3.144   4.726   0.779 -0.7874 -0.2018 -0.4981
   55MPD2    C4  841   3.157   0.134   0.750 -0.4615  0.7190  0.0833
   55MPD2    C5  842   3.283   0.187   0.728 -0.0534  0.2682 -0.4504
   55MPD2     H  843   3.252   4.541   0.798  3.1646  0.4363 -0.7244
   55MPD2    H1  844   3.073   0.203   0.756  0.7874  2.2837 -0.4242
   55MPD2    H2  845   3.482   0.159   0.673 -1.8944  3.3472  0.2252
   55MPD2    H3  846   3.297   0.292   0.705  0.6754  0.3897  0.5565
   55MPD2     N  847   3.019   4.664   0.803  0.2532  0.5022  0.1581
   55MPD2    H5  848   3.026   4.568   0.835 -0.9236 -0.1394 -1.5349
   55MPD2    N1  849   3.492   4.614   0.709 -0.7223 -0.3046  0.0294
   55MPD2    H7  850   3.574   4.664   0.677  0.0810 -0.2403  2.1326
   56TCq2    C1  851   3.507   4.476   0.728 -0.5950  0.7434  0.0223
   56TCq2    O2  852   3.442   4.396   0.791  0.0251 -0.6819 -1.0118
   56TCq2    C2  853   3.628   4.421   0.661 -0.5631  0.1826 -1.3148
   56TCq2    C3  854   3.694   4.498   0.560 -0.4629  0.3297  0.7771
   56TCq2    C4  855   3.783   4.440   0.478 -0.0908  0.3359 -0.6340
   56TCq2    C5  856   3.815   4.307   0.489 -0.5792  0.1948 -0.9189
   56TCq2    C6  857   3.754   4.240   0.593 -0.1087 -0.5772  0.1245
   56TCq2    C7  858   3.664   4.291   0.682  0.2509  0.4720 -0.0146
   56TCq2    C8  859   3.790   4.102   0.611  0.0899  0.4145 -0.3371
   56TCq2    O4  860   3.895   4.065   0.551  0.4003  0.4614 -0.6026
   56TCq2    C9  861   3.851   4.522   0.379 -0.4093  0.3934  0.1679
   56TCq2    O5  862   3.963   4.485   0.330 -0.3711  0.5434  0.0844
   56TCq2    O6  863   3.790   4.627   0.340 -0.4151  0.2607 -0.7624
   56TCq2    H2  864   3.679   4.604   0.542  1.6497  0.6102  0.6561
   56TCq2    H3  865   3.876   4.258   0.414  0.5716 -0.6434  0.5829
   56TCq2    H4  866   3.630   4.235   0.769 -3.7927  0.0559 -1.8728
   57TMC2    C1  867   3.200   0.274  13.455  0.5105  0.0743 -0.1000
   57TMC2    C2  868   3.272   0.175  13.516  0.0263 -0.6380 -0.1445
   57TMC2    C3  869   3.370   0.118  13.446  0.1524  0.3518 -0.0803
   57TMC2    C4  870   3.223   0.313  13.324 -0.2204 -0.3982  0.5803
   57TMC2    C5  871   3.331   0.253  13.259  0.3522 -0.3883  0.2541
   57TMC2    C6  872   3.406   0.157  13.323 -0.7453 -0.3707  0.1163
   57TMC2     C  873   3.060   0.262  13.484  0.1310 -0.2882 -0.3343
   57TMC2     O  874   3.022   0.250  13.600  0.1355  0.3734 -0.1475
   57TMC2     H  875   3.255   0.160  13.621 -1.4295 -0.3754 -0.3435
   57TMC2    H1  876   3.169   0.394  13.275 -1.4917  0.0918  2.7913
   57TMC2    H2  877   3.490   0.109  13.275 -0.7955 -0.5207  0.1765
   57TMC2    C7  878   3.370   0.295  13.122 -0.1151 -0.3048  0.1753
   57TMC2    C8  879   3.487   0.075  13.527  0.1978  0.4230  0.5204
   57TMC2    O1  880   3.329   0.404  13.090  0.2701 -0.7508  0.5082
   57TMC2    O2  881   3.598   0.088  13.478 -0.1768  0.2376  0.4093
   57TMC2    O5  882   3.440   4.687  13.578 -0.3568 -0.0518  0.7855
   57TMC2    H5  883   3.345   4.678  13.602 -0.5422 -2.5968 -0.8173
   58MPD2     C  884   2.573   0.214  13.327 -0.1847 -0.3232 -0.9370
   58MPD2    C1  885   2.623   0.261  13.449 -0.0389  0.2686 -0.6151
   58MPD2    C2  886   2.763   0.269  13.466  0.8236 -0.3881 -0.0182
   58MPD2    C3  887   2.849   0.231  13.363 -0.0749 -0.8905  0.0882
   58MPD2    C4  888   2.796   0.191  13.241  0.2592 -0.0898  0.5726
   58MPD2    C5  889   2.659   0.181  13.223  0.0315  1.1873 -0.8107
   58MPD2     H  890   2.796   0.307  13.562  0.3505  0.4467 -0.1764
   58MPD2    H1  891   2.858   0.167  13.157 -1.5207 -3.6873  0.3067
   58MPD2    H2  892   2.467   0.214  13.304 -0.4177  1.2739  0.1415
   58MPD2    H3  893   2.623   0.160  13.123 -0.2800  2.1307 -0.8993
   58MPD2     N  894   2.991   0.235  13.369 -0.2829 -0.0502  0.1601
   58MPD2    H5  895   3.042   0.226  13.281 -1.2689  0.9922 -0.5140
   58MPD2    N1  896   2.537   0.313  13.551  0.1318 -0.2545  0.0475
   58MPD2    H7  897   2.577   0.341  13.640 -1.5079  2.4435 -0.0774
   59MPD2     C  898   0.505   0.280  13.014  0.2016 -0.2961 -0.0914
   59MPD2    C1  899   0.623   0.317  12.950 -0.5851  0.0486  1.0750
   59MPD2    C2  900   0.710   0.408  13.010  0.4841  0.1436 -0.0004
   59MPD2    C3  901   0.682   0.464  13.128 -0.5271 -1.0769 -0.2701
   59MPD2    C4  902   0.569   0.422  13.191 -0.9366  0.6839 -0.1657
   59MPD2    C5  903   0.479   0.338  13.137 -0.1303 -0.3311  0.1224
   59MPD2     H  904   0.802   0.425  12.957  0.8980 -1.5931  0.1388
   59MPD2    H1  905   0.536   0.460  13.287  0.6327  2.0920 -0.2008
   59MPD2    H2  906   0.430   0.214  12.972 -0.1969 -1.0267  1.7646
   59MPD2    H3  907   0.386   0.319  13.189  1.2394 -1.2723  2.2090
   59MPD2     N  908   0.774   0.551  13.195  0.1222  1.2446  0.0482
   59MPD2    H5  909   0.750   0.577  13.290 -0.3957 -0.5171  0.3932
   59MPD2    N1  910   0.664   0.260  12.824 -0.2931  0.1849  0.9956
   59MPD2    H7  911   0.747   0.306  12.788 -1.0960  0.9984  0.1661
   60TCq2    C1  912   0.610   0.147  12.769  0.4552 -0.3109 -0.1894
   60TCq2    O2  913   0.525   0.073  12.818  0.2281 -0.5571 -0.0644
   60TCq2    C2  914   0.683   0.101  12.649  1.0410 -0.4541  0.2031
   60TCq2    C3  915   0.643   4.713  12.590  0.5769 -0.6801  0.4420
   60TCq2    C4  916   0.682   4.684  12.463  0.4084 -0.0031  0.1344
   60TCq2    C5  917   0.749   0.049  12.387  0.0718 -0.1295  0.7131
   60TCq2    C6  918   0.783   0.165  12.444 -1.0269  1.3878 -0.7142
   60TCq2    C7  919   0.753   0.193  12.575 -0.0729  0.3045  0.3368
   60TCq2    C8  920   0.846   0.261  12.360 -0.3674  0.2975  0.1417
   60TCq2    O4  921   0.909   0.213  12.267 -0.8861  0.1310 -0.0043
   60TCq2    C9  922   0.655   4.552  12.401  0.4038 -0.8713  0.3255
   60TCq2    O5  923   0.602   4.557  12.289  0.1153  0.2008  0.5511
   60TCq2    O6  924   0.656   4.454  12.478 -0.0390 -0.1834  0.2235
   60TCq2    H2  925   0.582   4.636  12.634  1.9503 -2.3054 -0.5177
   60TCq2    H3  926   0.778   0.025  12.286 -0.1170 -0.8532  0.8309
   60TCq2    H4  927   0.795   0.279  12.625  2.1051 -0.5298 -0.0335
   61MPD2     C  928   4.228   1.728  15.261 -0.9116  0.4052 -0.2519
   61MPD2    C1  929   4.361   1.786  15.272 -0.3434  0.0602 -0.6752
   61MPD2    C2  930   4.464   1.696  15.244  0.1593 -0.6686  0.3904
   61MPD2    C3  931   4.441   1.563  15.200  0.4845  0.5597  0.1950
   61MPD2    C4  932   4.313   1.519  15.185  0.0771 -0.2526  0.3100
   61MPD2    C5  933   4.214   1.599  15.216 -0.6948 -0.5363  0.5956
   61MPD2     H  934   4.566   1.731  15.256 -0.3312  0.6299  0.7562
   61MPD2    H1  935   4.296   1.416  15.155 -2.8825  0.2014  0.4431
   61MPD2    H2  936   4.135   1.777  15.288 -1.5804 -0.9787 -0.0501
   61MPD2    H3  937   4.114   1.560  15.202 -1.7157  2.0081  0.6447
   61MPD2     N  938   4.535   1.481  15.158 -0.3139  0.1091  0.2092
   61MPD2    H5  939   4.507   1.395  15.112  0.6225 -0.9210  1.5538
   61MPD2    N1  940   4.400   1.914  15.321 -0.3044 -0.0064 -0.1963
   61MPD2    H7  941   4.499   1.934  15.334 -0.3339  0.1316 -0.1852
   62TCq2    C1  942   4.306   2.009  15.366 -0.3938 -0.1647 -0.1872
   62TCq2    O2  943   4.189   2.001  15.405  0.5402  0.7577 -0.2372
   62TCq2    C2  944   4.369   2.139  15.393  0.2256  0.2455  0.8688
   62TCq2    C3  945   4.287   2.226  15.464 -0.6532 -0.8321  0.1357
   62TCq2    C4  946   4.337   2.350  15.497 -0.3777 -0.2603  0.2948
   62TCq2    C5  947   4.461   2.384  15.461  0.2244 -0.4952  0.4673
   62TCq2    C6  948   4.550   2.297  15.393  0.2097  0.2983  0.3740
   62TCq2    C7  949   4.500   2.174  15.355  0.0700 -0.6988 -0.6540
   62TCq2    C8  950   4.682   2.350  15.353 -0.3873 -0.2616  0.1838
   62TCq2    O4  951   4.720   2.465  15.386 -0.6194 -0.5125 -0.7295
   62TCq2    C9  952   4.250   2.434  15.567  0.5854  0.0537  0.3351
   62TCq2    O5  953   4.292   2.550  15.606  0.9312  0.1130 -0.0306
   62TCq2    O6  954   4.126   2.417  15.564  0.2029 -0.1973 -0.2352
   62TCq2    H2  955   4.190   2.197  15.501 -0.9863  0.8273  0.5297
   62TCq2    H3  956   4.489   2.484  15.491  1.6099 -0.5995 -0.4908
   62TCq2    H4  957   4.547   2.115  15.277  0.7406 -0.7942 -0.1770
   63TMC2    C1  958   3.630   1.918  11.241 -0.1924  0.1780  0.4057
   63TMC2    C2  959   3.697   1.843  11.329 -0.2221 -0.2773  0.1341
   63TMC2    C3  960   3.831   1.857  11.331  0.9003  0.2675  0.2090
   63TMC2    C4  961   3.692   1.989  11.141 -0.4472 -0.4510 -0.1220
   63TMC2    C5  962   3.828   1.977  11.131 -0.0586  0.6272 -0.7613
   63TMC2    C6  963   3.898   1.917  11.230  0.8372  0.2092 -0.5030
   63TMC2     C  964   3.521   1.844  11.192 -0.2375  0.3644  0.0031
   63TMC2     O  965   3.441   1.905  11.125  0.5453  0.1289 -0.3819
   63TMC2     H  966   3.654   1.785  11.410 -0.6684 -1.2448 -0.7867
   63TMC2    H1  967   3.634   2.039  11.064 -0.4315 -2.7607 -1.6310
   63TMC2    H2  968   3.997   1.879  11.206  0.9208 -0.7490  1.3178
   63TMC2    C7  969   3.888   2.012  11.002 -0.2683 -1.2396 -0.0230
   63TMC2    C8  970   3.896   1.746  11.386  0.3551  0.3402  0.1867
   63TMC2    O1  971   3.815   2.004  10.904  0.1636 -0.1867 -0.5039
   63TMC2    O2  972   3.850   1.636  11.368  0.3331 -0.2883  0.3288
   63TMC2    O5  973   3.927   1.790  11.507 -0.0158  0.2617 -0.2113
   63TMC2    H5  974   3.942   1.886  11.496  0.5041  0.0385 -1.4520
   64MPD2     C  975   3.557   1.514  10.809 -0.4962 -0.4232  0.1739
   64MPD2    C1  976   3.637   1.467  10.912  0.5013 -0.2926  0.0636
   64MPD2    C2  977   3.621   1.527  11.037 -0.5902 -0.3913  0.6267
   64MPD2    C3  978   3.543   1.640  11.050  0.0199  0.2656  1.0585
   64MPD2    C4  979   3.445   1.665  10.958 -1.5128  0.3984  0.6317
   64MPD2    C5  980   3.458   1.601  10.844  0.1981 -0.7033  0.7132
   64MPD2     H  981   3.684   1.489  11.117  3.9836  2.0447 -1.7862
   64MPD2    H1  982   3.363   1.732  10.980 -2.0908 -0.2819  0.5350
   64MPD2    H2  983   3.549   1.462  10.714  0.5743  0.3698 -0.3488
   64MPD2    H3  984   3.386   1.625  10.766 -0.1014 -1.3682  0.7924
   64MPD2     N  985   3.576   1.720  11.167  0.2294  0.4138  0.0697
   64MPD2    H5  986   3.657   1.694  11.223  0.1957  0.2051  0.0214
   64MPD2    N1  987   3.719   1.357  10.895  0.4351  0.4288  0.6215
   64MPD2    H7  988   3.759   1.328  10.984  0.4471  1.9500  1.1172
   65MPD2     C  989   0.657   1.094  15.813  0.4480  0.5348 -0.0252
   65MPD2    C1  990   0.678   1.117  15.678  0.0538  0.2170  0.2361
   65MPD2    C2  991   0.625   1.021  15.590  0.0266  0.2279  0.4256
   65MPD2    C3  992   0.557   0.908  15.642  0.2047 -0.4025 -0.0100
   65MPD2    C4  993   0.534   0.900  15.778  0.7743  0.3723 -0.2059
   65MPD2    C5  994   0.581   0.995  15.863  0.3338  0.8087  0.4060
   65MPD2     H  995   0.653   1.039  15.487 -0.7411 -1.0037 -0.0020
   65MPD2    H1  996   0.485   0.809  15.810 -0.0677  0.5547 -0.9615
   65MPD2    H2  997   0.700   1.164  15.884  0.0499  0.4011  0.3442
   65MPD2    H3  998   0.590   0.974  15.969  0.1345 -2.9216 -0.3399
   65MPD2     N  999   0.500   0.801  15.567  1.1016  0.0550 -0.9194
   65MPD2    H5 1000   0.449   0.740  15.630  1.8911 -0.8307 -1.1331
   65MPD2    N1 1001   0.765   1.212  15.630  0.0308  0.2578  0.0416
   65MPD2    H7 1002   0.783   1.229  15.531  1.9481 -1.5150  0.0892
   66TCq2    C1 1003   0.776   1.332  15.695  0.1382 -0.4889  0.8367
   66TCq2    O2 1004   0.731   1.386  15.792 -0.0204  0.2037 -0.1193
   66TCq2    C2 1005   0.859   1.424  15.613  0.1039 -0.0068  0.0375
   66TCq2    C3 1006   0.941   1.381  15.507  0.6757 -0.1814  0.0108
   66TCq2    C4 1007   0.979   1.469  15.416  0.5898 -0.5587 -0.4523
   66TCq2    C5 1008   0.932   1.602  15.417  0.5623 -0.0483  0.6600
   66TCq2    C6 1009   0.853   1.644  15.523 -0.5037  0.0660 -0.4440
   66TCq2    C7 1010   0.815   1.553  15.617 -0.1300 -0.1578 -0.7797
   66TCq2    C8 1011   0.819   1.783  15.535  0.3544 -0.3789  0.6295
   66TCq2    O4 1012   0.865   1.849  15.449 -0.7474 -0.5127  0.0635
   66TCq2    C9 1013   1.053   1.432  15.302 -0.2520 -0.0581 -1.2749
   66TCq2    O5 1014   1.065   1.307  15.299  0.0525  0.7272 -0.0367
   66TCq2    O6 1015   1.110   1.520  15.234 -0.2404  0.3554  0.1407
   66TCq2    H2 1016   0.979   1.280  15.503 -0.7612 -0.6308 -2.1220
   66TCq2    H3 1017   0.958   1.663  15.331 -2.5733 -0.9203 -0.9045
   66TCq2    H4 1018   0.746   1.590  15.692  1.6570  2.6496 -0.4899
   67MPD2     C 1019   0.376   0.831  14.044  0.1450 -0.0153 -0.2505
   67MPD2    C1 1020   0.296   0.885  14.148  0.3278 -0.7281  0.4675
   67MPD2    C2 1021   0.163   0.913  14.124  0.2312 -0.2667 -1.1991
   67MPD2    C3 1022   0.104   0.900  13.997 -0.0380 -0.0034 -0.1250
   67MPD2    C4 1023   0.195   0.864  13.896 -0.4529 -0.0277  0.0382
   67MPD2    C5 1024   0.319   0.825  13.917  0.3708  0.6255 -0.2221
   67MPD2     H 1025   0.095   0.940  14.204  0.5070 -0.1927 -0.9890
   67MPD2    H1 1026   0.154   0.847  13.796  0.3788  0.2981 -0.3550
   67MPD2    H2 1027   0.480   0.803  14.059  0.0019  0.9313  2.4693
   67MPD2    H3 1028   0.383   0.807  13.831  0.7968 -0.9258  0.4105
   67MPD2     N 1029   4.698   0.935  13.955 -0.3514 -0.6958 -0.7526
   67MPD2    H5 1030   4.680   0.931  13.855 -0.4989  0.0986 -0.7574
   67MPD2    N1 1031   0.354   0.897  14.279 -0.1816  0.5502  0.3575
   67MPD2    H7 1032   0.300   0.944  14.351  4.5329  2.1916  2.7671
   68TCq2    C1 1033   0.481   0.848  14.313 -0.1116  0.2521 -0.8372
   68TCq2    O2 1034   0.548   0.764  14.255 -0.2812  0.4821 -0.0030
   68TCq2    C2 1035   0.531   0.906  14.436 -0.4211 -0.6294 -0.0840
   68TCq2    C3 1036   0.495   1.033  14.475 -0.4709  0.7170 -0.3084
   68TCq2    C4 1037   0.551   1.089  14.586 -0.1867  0.5043 -0.3606
   68TCq2    C5 1038   0.645   1.019  14.658 -0.5865 -0.7509  0.4246
   68TCq2    C6 1039   0.675   0.893  14.610  0.5462 -0.1606  0.5066
   68TCq2    C7 1040   0.634   0.834  14.494  0.6925  0.0784  0.6227
   68TCq2    C8 1041   0.773   0.822  14.689  0.0400 -0.0451 -0.5448
   68TCq2    O4 1042   0.845   0.744  14.633  0.1191  0.1332 -0.8954
   68TCq2    C9 1043   0.510   1.224  14.622 -0.2356 -0.1247 -0.4265
   68TCq2    O5 1044   0.430   1.282  14.548 -0.6154 -0.4059  0.0896
   68TCq2    O6 1045   0.569   1.290  14.713 -0.4645 -0.0004 -0.3002
   68TCq2    H2 1046   0.437   1.100  14.413 -0.0188  3.3040  2.0808
   68TCq2    H3 1047   0.704   1.073  14.731 -3.7826  2.2372  0.8003
   68TCq2    H4 1048   0.656   0.735  14.456 -0.3595  0.2149 -0.3439
   69TMC2    C1 1049   2.330   2.097  12.055 -0.0113  0.1257 -0.2985
   69TMC2    C2 1050   2.189   2.077  12.057  0.1131  0.1120 -0.0277
   69TMC2    C3 1051   2.120   2.094  11.939  0.0665  0.1819  0.6128
   69TMC2    C4 1052   2.397   2.109  11.931  0.3387  0.6490 -0.4703
   69TMC2    C5 1053   2.318   2.107  11.822 -0.2416  1.0785 -0.0595
   69TMC2    C6 1054   2.180   2.111  11.819 -0.8284  0.2936 -0.1396
   69TMC2     C 1055   2.408   2.035  12.161  0.2158  0.5658  0.2076
   69TMC2     O 1056   2.344   1.953  12.225 -0.6935  0.3250  0.2796
   69TMC2     H 1057   2.140   2.051  12.150  0.1690 -0.4911 -0.1680
   69TMC2    H1 1058   2.503   2.092  11.925  0.1840 -0.1630 -0.9586
   69TMC2    H2 1059   2.120   2.120  11.729 -1.0237 -1.5260 -0.1980
   69TMC2    C7 1060   2.386   2.094  11.691 -0.3782 -0.1989 -0.7447
   69TMC2    C8 1061   1.982   2.078  11.958  0.3588  0.5661 -0.8310
   69TMC2    O1 1062   2.501   2.059  11.692 -0.6422 -0.1539 -0.1363
   69TMC2    O2 1063   1.941   2.029  12.063 -0.5063 -0.2620 -0.8530
   69TMC2    O5 1064   1.924   2.179  11.888 -0.5140 -0.4363 -0.1852
   69TMC2    H5 1065   2.000   2.236  11.860  0.8137 -2.3318 -0.4410
   70MPD2     C 1066   2.762   2.103  12.241 -0.0651 -0.3058  0.2266
   70MPD2    C1 1067   2.643   2.042  12.261  0.0161  0.3773 -0.1559
   70MPD2    C2 1068   2.635   1.937  12.355  0.5163 -0.1516 -0.5630
   70MPD2    C3 1069   2.748   1.896  12.429  0.1025  0.2465  0.0639
   70MPD2    C4 1070   2.865   1.949  12.392  0.1199  0.3988 -0.3798
   70MPD2    C5 1071   2.870   2.057  12.311 -0.2115 -1.1059 -0.9009
   70MPD2     H 1072   2.541   1.887  12.377 -0.0772  1.7748  1.3278
   70MPD2    H1 1073   2.958   1.915  12.435 -1.2677 -0.7297  1.6976
   70MPD2    H2 1074   2.772   2.184  12.170  2.6459 -0.8857 -0.0259
   70MPD2    H3 1075   2.968   2.099  12.292 -0.4385 -0.5943 -0.9380
   70MPD2     N 1076   2.749   1.804  12.535 -0.0320 -0.1232  0.1336
   70MPD2    H5 1077   2.830   1.747  12.552  0.1357  0.4812  1.4056
   70MPD2    N1 1078   2.537   2.080  12.167 -0.3748  0.5774  0.3137
   70MPD2    H7 1079   2.556   2.142  12.089  0.2479 -0.0840 -0.0644
   71TMC2    C1 1080   0.553   2.663   1.945  0.0769  0.6442 -0.8410
   71TMC2    C2 1081   0.613   2.569   2.028 -0.2298  0.1990 -0.7003
   71TMC2    C3 1082   0.529   2.502   2.113  0.0712  0.6202 -0.0346
   71TMC2    C4 1083   0.420   2.686   1.945  0.2773  0.4561 -0.2746
   71TMC2    C5 1084   0.340   2.622   2.037  0.1342  0.3277 -0.0338
   71TMC2    C6 1085   0.395   2.530   2.128 -0.3145 -0.3313  0.5147
   71TMC2     C 1086   0.626   2.735   1.843 -0.6349  1.0280 -0.3065
   71TMC2     O 1087   0.561   2.800   1.761 -0.1597 -0.6680  0.1223
   71TMC2     H 1088   0.713   2.536   2.005 -0.2161 -0.5896  0.4765
   71TMC2    H1 1089   0.381   2.762   1.879  1.7354  2.2231  0.9187
   71TMC2    H2 1090   0.335   2.508   2.216 -0.5922  0.1879  0.4557
   71TMC2    C7 1091   0.217   2.683   2.070 -0.3173  0.2469 -0.0350
   71TMC2    C8 1092   0.591   2.404   2.204 -0.3530 -0.3948 -0.4244
   71TMC2    O1 1093   0.200   2.711   2.186 -0.4612 -0.3435  0.2129
   71TMC2    O2 1094   0.519   2.339   2.279 -0.1244 -0.5841  0.9576
   71TMC2    O5 1095   0.704   2.467   2.240 -0.3764 -0.6206  0.5531
   71TMC2    H5 1096   0.745   2.523   2.170 -1.0124  0.8103  1.3137
   72MPD2     C 1097   1.066   2.797   1.591 -0.0598  0.6278 -0.0712
   72MPD2    C1 1098   0.940   2.808   1.543 -0.2173 -0.4295  0.3387
   72MPD2    C2 1099   0.840   2.770   1.629 -0.9749  0.0037 -0.0913
   72MPD2    C3 1100   0.859   2.737   1.759  0.1186 -1.1258  0.3307
   72MPD2    C4 1101   0.989   2.744   1.808 -0.5392  0.2445  0.1724
   72MPD2    C5 1102   1.092   2.780   1.726 -0.1442  0.2340  0.2507
   72MPD2     H 1103   0.739   2.791   1.595 -1.3609 -2.6419 -0.6345
   72MPD2    H1 1104   1.009   2.732   1.913  0.5821  0.2755 -0.0350
   72MPD2    H2 1105   1.147   2.821   1.523  0.7019  1.4796  1.1491
   72MPD2    H3 1106   1.187   2.802   1.772 -0.5618  0.2818  1.0999
   72MPD2     N 1107   0.763   2.707   1.855 -0.5247  0.0775 -0.6395
   72MPD2    H5 1108   0.794   2.680   1.948 -1.4525 -0.8272 -0.5871
   72MPD2    N1 1109   0.928   2.838   1.404  0.0107  0.3619  0.3767
   72MPD2    H7 1110   1.015   2.868   1.363 -0.1220  2.4388  1.6422
   73TMC2    C1 1111   0.589   4.144  13.751 -0.1672 -0.2391 -0.2936
   73TMC2    C2 1112   0.638   4.042  13.821 -0.7210 -1.1753  0.1232
   73TMC2    C3 1113   0.729   4.056  13.924 -0.3247 -0.0965  0.0924
   73TMC2    C4 1114   0.659   4.266  13.771 -0.7129  0.5650  0.5773
   73TMC2    C5 1115   0.758   4.279  13.869  0.5614 -0.5630 -0.7642
   73TMC2    C6 1116   0.789   4.176  13.947 -0.0647  0.7288 -0.8646
   73TMC2     C 1117   0.535   4.114  13.615 -0.2768 -0.0701 -0.1940
   73TMC2     O 1118   0.458   4.019  13.590  0.6597  0.0641 -0.3198
   73TMC2     H 1119   0.600   3.943  13.799 -1.5256 -1.4070  2.4531
   73TMC2    H1 1120   0.609   4.356  13.736  0.3639  1.8086  2.2536
   73TMC2    H2 1121   0.857   4.185  14.031  0.6198 -2.2180 -1.1261
   73TMC2    C7 1122   0.838   4.401  13.867 -0.8900 -0.3989  0.0583
   73TMC2    C8 1123   0.719   3.960  14.034  0.7917 -0.2070  0.1443
   73TMC2    O1 1124   0.867   4.439  13.980  0.4994 -0.2684 -0.0723
   73TMC2    O2 1125   0.785   3.965  14.137 -0.0063 -0.1933 -0.3608
   73TMC2    O5 1126   0.608   3.889  14.006 -0.4668 -0.1632  0.0051
   73TMC2    H5 1127   0.578   3.845  14.089 -0.0760 -0.3856  0.0277
   74MPD2     C 1128   0.511   4.299  13.122  0.2581 -0.6641 -0.8655
   74MPD2    C1 1129   0.551   4.393  13.206 -0.0206 -0.4279 -0.6115
   74MPD2    C2 1130   0.572   4.352  13.340  0.8303 -0.2419  0.4622
   74MPD2    C3 1131   0.548   4.229  13.386  0.0395  0.2597 -0.5286
   74MPD2    C4 1132   0.490   4.135  13.300 -0.3349 -0.1622  0.6719
   74MPD2    C5 1133   0.473   4.179  13.170  0.5140  0.4720 -0.1927
   74MPD2     H 1134   0.613   4.424  13.410  0.0069  0.7305 -0.0474
   74MPD2    H1 1135   0.459   4.038  13.334  1.5075 -0.2546  2.0641
   74MPD2    H2 1136   0.497   4.327  13.018  0.6122 -1.7960 -1.2102
   74MPD2    H3 1137   0.431   4.099  13.109  1.4135 -0.9868  1.1022
   74MPD2     N 1138   0.571   4.216  13.526  0.0324 -0.0867  0.1141
   74MPD2    H5 1139   0.628   4.285  13.573  1.1731 -0.8994 -0.0859
   74MPD2    N1 1140   0.592   4.516  13.155 -0.0425  0.0427  0.3135
   74MPD2    H7 1141   0.602   4.518  13.054  2.3169 -2.1384  0.4906
   75TCq2    C1 1142   4.594   0.938  14.044 -0.1376 -0.3272 -0.3342
   75TCq2    O2 1143   4.593   0.910  14.165 -0.5521  0.6687 -0.0169
   75TCq2    C2 1144   4.463   0.960  13.974  0.3389 -0.0473  0.0643
   75TCq2    C3 1145   4.352   0.884  14.005  0.7625  0.3365 -0.4621
   75TCq2    C4 1146   4.247   0.880  13.929  0.1308  0.0735 -0.6947
   75TCq2    C5 1147   4.253   0.944  13.810  0.0570  0.7860 -0.2798
   75TCq2    C6 1148   4.360   1.021  13.770 -0.7440 -0.2147  0.1638
   75TCq2    C7 1149   4.466   1.029  13.856 -0.7879  0.5005  0.3253
   75TCq2    C8 1150   4.379   1.043  13.628 -0.3837 -0.6512  0.1379
   75TCq2    O4 1151   4.314   0.977  13.544 -0.0819  0.1789  0.2934
   75TCq2    C9 1152   4.143   0.781  13.943  0.3184 -0.3104 -0.2684
   75TCq2    O5 1153   4.039   0.787  13.875  0.1354 -0.2667 -0.0754
   75TCq2    O6 1154   4.172   0.680  14.012 -0.5590  0.0102 -0.4565
   75TCq2    H2 1155   4.346   0.822  14.094  2.8838  0.3826 -0.3052
   75TCq2    H3 1156   4.171   0.932  13.741  0.1294  1.6211 -0.5147
   75TCq2    H4 1157   4.550   1.089  13.822  1.4414 -3.3420 -0.9476
   76MPD2     C 1158   3.416   1.679  11.562 -0.2630 -0.1480  0.1607
   76MPD2    C1 1159   3.371   1.613  11.450 -0.7461 -0.6134 -0.6046
   76MPD2    C2 1160   3.444   1.505  11.397 -0.4986 -0.7366  0.0060
   76MPD2    C3 1161   3.557   1.458  11.462  0.1510 -0.1262 -0.4971
   76MPD2    C4 1162   3.607   1.535  11.564 -0.0156 -0.6497 -0.0851
   76MPD2    C5 1163   3.536   1.642  11.616  0.1793  0.2479 -1.3856
   76MPD2     H 1164   3.395   1.454  11.314 -2.3009 -0.3469  0.8330
   76MPD2    H1 1165   3.702   1.513  11.609 -0.9600 -1.3711  1.5393
   76MPD2    H2 1166   3.380   1.774  11.599 -0.8793 -0.7438  1.0777
   76MPD2    H3 1167   3.585   1.691  11.700  1.0913 -0.8917 -1.2472
   76MPD2     N 1168   3.624   1.343  11.424  0.0979  0.8137  0.7109
   76MPD2    H5 1169   3.711   1.329  11.474  1.2205  2.4428 -0.7646
   76MPD2    N1 1170   3.261   1.666  11.377 -0.0287 -0.0243 -0.0684
   76MPD2    H7 1171   3.235   1.622  11.289 -0.4816 -0.6124  0.3581
   77TCq2    C1 1172   3.590   1.264  11.322 -0.5403  0.2300 -0.1550
   77TCq2    O2 1173   3.480   1.249  11.268  0.1382 -0.1976  0.3143
   77TCq2    C2 1174   3.689   1.154  11.305  0.3206 -0.1126 -0.1450
   77TCq2    C3 1175   3.662   1.057  11.215  0.3555  0.6907 -0.3159
   77TCq2    C4 1176   3.745   0.952  11.208 -0.0111 -0.0485  0.0873
   77TCq2    C5 1177   3.860   0.937  11.286  0.2929 -0.2539 -0.1824
   77TCq2    C6 1178   3.884   1.045  11.364  0.7936 -0.6366  0.0053
   77TCq2    C7 1179   3.804   1.155  11.383  0.2248  0.7752 -0.5958
   77TCq2    C8 1180   4.011   1.049  11.439 -0.2082  0.4095  0.0055
   77TCq2    O4 1181   4.010   1.121  11.539  0.3012 -0.3835 -0.2926
   77TCq2    C9 1182   3.699   0.841  11.130 -0.9112  0.1932  0.6990
   77TCq2    O5 1183   3.771   0.738  11.137  0.0543 -0.2694 -0.6075
   77TCq2    O6 1184   3.590   0.848  11.064 -0.2507  0.5464  0.0290
   77TCq2    H2 1185   3.573   1.063  11.154  0.0971 -0.1552 -0.0164
   77TCq2    H3 1186   3.918   0.845  11.291  2.7836  1.4944  3.4134
   77TCq2    H4 1187   3.840   1.233  11.450  0.8023 -2.3281  2.6996
   78MPD1     C 1188   0.197   2.374   1.731 -0.0045  0.6526  0.2296
   78MPD1    C1 1189   0.271   2.324   1.838 -0.1346 -0.1930  0.1089
   78MPD1    C2 1190   0.403   2.307   1.828 -0.1603  0.3179 -0.2714
   78MPD1    C3 1191   0.471   2.353   1.710  0.0394 -0.7151  0.1863
   78MPD1    C4 1192   0.400   2.416   1.608  0.2541  0.2061 -0.4753
   78MPD1    C5 1193   0.263   2.415   1.615  0.1987 -0.2523 -0.3175
   78MPD1     H 1194   0.459   2.253   1.904  0.0943  1.6371  0.4603
   78MPD1    H1 1195   0.439   2.456   1.515  2.8597 -0.4797  0.3294
   78MPD1    H2 1196   0.089   2.382   1.729 -0.1290 -1.3972 -1.5013
   78MPD1    H3 1197   0.202   2.460   1.538 -2.1548 -0.4178  1.4564
   78MPD1     N 1198   0.605   2.343   1.695 -0.6475 -0.1502 -0.3995
   78MPD1    H5 1199   0.634   2.382   1.605  0.8450  0.7988  0.5023
   78MPD1    N1 1200   0.203   2.265   1.943  0.3659  1.2873  0.0971
   78MPD1    H6 1201   0.107   2.295   1.955 -0.6446 -1.3688 -1.3380
   78MPD1    H7 1202   0.264   2.276   2.024  2.8269 -0.5314 -1.5007
   79TCq2    C1 1203   0.696   2.315   1.796 -0.3035  0.0531  0.3145
   79TCq2    O2 1204   0.671   2.276   1.908 -0.6530 -0.0131 -0.5736
   79TCq2    C2 1205   0.834   2.371   1.768  0.4083  0.7918 -0.4238
   79TCq2    C3 1206   0.912   2.377   1.885 -0.4569 -0.2995 -0.0255
   79TCq2    C4 1207   1.045   2.399   1.866  0.7505  0.3491 -0.5379
   79TCq2    C5 1208   1.097   2.438   1.744 -0.3116  0.4118  0.8908
   79TCq2    C6 1209   1.015   2.420   1.632  0.0911 -0.0328  0.3641
   79TCq2    C7 1210   0.886   2.375   1.637 -0.6898 -0.3171 -0.7351
   79TCq2    C8 1211   1.079   2.425   1.504  0.7097 -0.0129  0.1155
   79TCq2    O4 1212   1.203   2.426   1.504 -0.0622 -0.1756  0.2816
   79TCq2    C9 1213   1.133   2.394   1.978  0.9941  0.2448 -0.1276
   79TCq2    O5 1214   1.253   2.444   1.968 -0.6784 -0.0051 -0.3002
   79TCq2    O6 1215   1.090   2.362   2.087 -0.1375 -0.2454  0.7133
   79TCq2    H2 1216   0.875   2.365   1.986  1.5908  0.1917  0.7697
   79TCq2    H3 1217   1.200   2.467   1.728  0.2025 -2.7833 -1.5742
   79TCq2    H4 1218   0.816   2.359   1.557 -0.6950 -0.8226 -0.6267
   80MPD2     C 1219   2.977   1.045  12.381  0.4197 -0.2841  0.4586
   80MPD2    C1 1220   2.882   1.087  12.289  0.4672  0.1797 -0.3609
   80MPD2    C2 1221   2.758   1.123  12.331  0.3903 -1.1969 -0.6695
   80MPD2    C3 1222   2.715   1.106  12.462  0.3089  0.8564 -0.8714
   80MPD2    C4 1223   2.812   1.067  12.548 -0.2597  0.0023  0.3051
   80MPD2    C5 1224   2.942   1.040  12.513 -0.2467 -0.3563  0.6595
   80MPD2     H 1225   2.693   1.158  12.251  0.5371  0.7117  0.0267
   80MPD2    H1 1226   2.785   1.070  12.653  2.5182 -0.3978  1.0183
   80MPD2    H2 1227   3.079   1.014  12.365  1.2185  2.9475 -0.8933
   80MPD2    H3 1228   3.020   1.021  12.586 -2.1209  0.1381  2.8137
   80MPD2     N 1229   2.586   1.130  12.510  0.5323  0.1069 -0.0390
   80MPD2    H5 1230   2.573   1.125  12.611  2.0414 -2.1396  0.0430
   80MPD2    N1 1231   2.905   1.094  12.155  0.0931 -0.0242 -0.0700
   80MPD2    H7 1232   2.825   1.123  12.100 -0.1880 -0.3008  0.1978
   81TCq2    C1 1233   3.022   1.063  12.092  0.2816 -0.2519  0.0580
   81TCq2    O2 1234   3.135   1.052  12.133 -0.3404 -0.0912  0.3130
   81TCq2    C2 1235   2.990   1.032  11.955  0.0895  0.2011 -0.1434
   81TCq2    C3 1236   3.093   1.054  11.857 -0.2226 -0.1237  0.0088
   81TCq2    C4 1237   3.076   1.009  11.728  0.2884  0.6144 -0.5122
   81TCq2    C5 1238   2.948   0.960  11.687  0.1362  0.6123 -0.7363
   81TCq2    C6 1239   2.852   0.957  11.780 -0.0768  0.1712  0.0237
   81TCq2    C7 1240   2.862   1.002  11.910 -0.5226 -0.1088  0.4100
   81TCq2    C8 1241   2.737   0.883  11.742  0.3685 -0.1267 -0.1262
   81TCq2    O4 1242   2.690   0.892  11.633  0.4721 -0.3685  0.1873
   81TCq2    C9 1243   3.185   1.005  11.635  0.1635 -0.1144  0.7827
   81TCq2    O5 1244   3.171   0.934  11.533 -0.3398 -0.2693 -0.2448
   81TCq2    O6 1245   3.293   1.062  11.669  0.4557  0.1040  0.4563
   81TCq2    H2 1246   3.189   1.074  11.904 -0.6221 -1.0265  1.2272
   81TCq2    H3 1247   2.930   0.926  11.586  0.4697  0.2874 -0.6822
   81TCq2    H4 1248   2.776   1.009  11.976 -1.7776 -1.2044 -1.0946
   82MPD2     C 1249   1.001   1.088  10.350  0.0738 -0.3686 -0.2277
   82MPD2    C1 1250   0.934   0.966  10.358 -0.3097 -0.3171 -0.3802
   82MPD2    C2 1251   0.992   0.868  10.439  0.0780 -0.2478  0.1070
   82MPD2    C3 1252   1.114   0.899  10.506  0.4018 -0.8859 -0.3999
   82MPD2    C4 1253   1.182   1.020  10.496 -0.0905 -0.3927  0.0617
   82MPD2    C5 1254   1.120   1.113  10.416 -0.0123 -0.7051  0.2028
   82MPD2     H 1255   0.953   0.767  10.447 -0.5658  0.1001  1.3106
   82MPD2    H1 1256   1.284   1.029  10.530 -0.1013 -0.6855  0.1645
   82MPD2    H2 1257   0.962   1.171  10.294 -0.9846 -0.2711  0.6555
   82MPD2    H3 1258   1.169   1.209  10.405  0.1113 -0.7464  0.3823
   82MPD2     N 1259   1.190   0.800  10.571 -0.0984 -0.6173 -0.1259
   82MPD2    H5 1260   1.288   0.825  10.581 -0.5536  0.6540  1.0871
   82MPD2    N1 1261   0.809   0.949  10.290  0.2832  0.1594  0.1334
   82MPD2    H7 1262   0.769   1.029  10.242 -0.2862  0.5858  1.3057
   83TCq2    C1 1263   1.134   0.679  10.631  0.3720 -0.1349  0.7071
   83TCq2    O2 1264   1.018   0.659  10.659 -0.0554  0.0190 -0.3491
   83TCq2    C2 1265   1.236   0.601  10.710 -0.2686  0.5081  0.2486
   83TCq2    C3 1266   1.371   0.625  10.725 -0.3081  0.1298  0.0591
   83TCq2    C4 1267   1.454   0.541  10.779  0.1368  0.0237  0.7172
   83TCq2    C5 1268   1.415   0.417  10.829  0.4805  0.5342  0.0343
   83TCq2    C6 1269   1.282   0.397  10.806 -0.2820  0.0696 -0.1321
   83TCq2    C7 1270   1.193   0.478  10.747  0.0605  0.3327 -0.6047
   83TCq2    C8 1271   1.231   0.273  10.864  0.6896 -0.1325  0.1747
   83TCq2    O4 1272   1.284   0.238  10.967 -0.1217 -0.5855  0.1215
   83TCq2    C9 1273   1.593   0.577  10.805  0.3841 -0.0301 -0.2042
   83TCq2    O5 1274   1.644   0.662  10.728 -0.7377  0.3678 -0.2643
   83TCq2    O6 1275   1.651   0.514  10.897  0.0921 -0.2019  0.1948
   83TCq2    H2 1276   1.425   0.713  10.693 -0.4980 -0.0523 -0.7608
   83TCq2    H3 1277   1.476   0.353  10.891 -2.0575 -0.0686  1.8996
   83TCq2    H4 1278   1.089   0.448  10.738  0.2178 -0.5035  0.3531
   84TCq2    C1 1279   1.791   3.936  10.013  0.3252 -0.3111  0.5894
   84TCq2    O2 1280   1.723   3.891  10.101 -0.2647  0.3559 -0.3489
   84TCq2    C2 1281   1.896   4.032  10.054 -0.1387  0.8704 -1.2285
   84TCq2    C3 1282   1.970   4.102   9.960 -0.6697 -0.1174 -0.3789
   84TCq2    C4 1283   2.085   4.158  10.000 -0.5748 -0.1578 -0.0792
   84TCq2    C5 1284   2.123   4.161  10.125  0.8047 -0.3248  0.7920
   84TCq2    C6 1285   2.037   4.112  10.220 -0.4886  0.4936 -0.2776
   84TCq2    C7 1286   1.934   4.031  10.185 -0.7010  0.2836  0.4366
   84TCq2    C8 1287   2.095   4.105  10.355  0.5879 -0.4936 -0.0442
   84TCq2    O4 1288   2.187   4.179  10.382  0.2796  0.7698 -0.4610
   84TCq2    C9 1289   2.163   4.215   9.896  0.3932  0.2137  0.4515
   84TCq2    O5 1290   2.124   4.194   9.777  0.4341  0.6332  0.0277
   84TCq2    O6 1291   2.279   4.244   9.929  0.6080 -0.5519  0.2347
   84TCq2    H2 1292   1.930   4.111   9.860 -0.8968 -1.1359 -0.3742
   84TCq2    H3 1293   2.218   4.203  10.153  1.4176 -2.5541  2.0217
   84TCq2    H4 1294   1.866   3.992  10.259 -0.3040  1.6772  1.5198
   85MPD2     C 1295   2.724   2.112  16.322  0.4151 -0.3488 -0.6217
   85MPD2    C1 1296   2.695   2.092  16.191 -0.0812  0.0087 -0.2135
   85MPD2    C2 1297   2.775   2.150  16.099  0.3954 -0.2336  0.1721
   85MPD2    C3 1298   2.867   2.253  16.127 -0.0928 -0.2270 -0.3444
   85MPD2    C4 1299   2.888   2.274  16.262  0.2535 -0.0750 -0.0364
   85MPD2    C5 1300   2.823   2.194  16.354 -0.2922  0.4825  0.0271
   85MPD2     H 1301   2.768   2.131  15.993 -0.4661  0.3336  0.1312
   85MPD2    H1 1302   2.967   2.334  16.305  0.9145 -1.3547  0.5160
   85MPD2    H2 1303   2.675   2.060  16.403  1.8322  1.1634  1.1913
   85MPD2    H3 1304   2.848   2.207  16.458 -0.2710  1.3339 -0.0813
   85MPD2     N 1305   2.929   2.324  16.024 -0.0795  0.5123 -0.7917
   85MPD2    H5 1306   2.917   2.289  15.930 -0.7775 -0.8983 -0.1773
   85MPD2    N1 1307   2.579   2.027  16.147  0.5661  0.3227 -0.6645
   85MPD2    H7 1308   2.557   2.030  16.048 -0.9581  2.0722 -0.2856
   86TCq2    C1 1309   3.027   2.419  16.037 -0.1747  1.0406 -0.1356
   86TCq2    O2 1310   3.088   2.446  16.141  0.3966  0.5506  0.0904
   86TCq2    C2 1311   3.043   2.498  15.909  0.4472  0.0696  0.0159
   86TCq2    C3 1312   2.928   2.526  15.835  0.4461 -0.1856 -0.6282
   86TCq2    C4 1313   2.946   2.598  15.721 -0.3156 -0.0998  0.3167
   86TCq2    C5 1314   3.065   2.655  15.688  0.1022 -0.0757  0.4462
   86TCq2    C6 1315   3.174   2.625  15.763 -0.0696 -0.1393 -0.0653
   86TCq2    C7 1316   3.163   2.546  15.874  0.4473 -0.3078 -1.2467
   86TCq2    C8 1317   3.311   2.643  15.713 -0.2371  0.1215  0.4517
   86TCq2    O4 1318   3.388   2.557  15.750 -0.3675  0.7199  0.0382
   86TCq2    C9 1319   2.827   2.605  15.639 -0.1335 -0.0474 -0.6005
   86TCq2    O5 1320   2.738   2.513  15.643  0.4226 -0.1577  0.9183
   86TCq2    O6 1321   2.820   2.702  15.557 -0.0423  0.1845 -0.2456
   86TCq2    H2 1322   2.828   2.494  15.862  0.4207 -0.7041 -1.3369
   86TCq2    H3 1323   3.075   2.698  15.589 -0.4608 -2.7531 -0.7745
   86TCq2    H4 1324   3.252   2.514  15.928 -0.2897  0.2650  0.2793
   87MPD2     C 1325   0.236   0.550   1.225  0.3368  0.3235 -0.1661
   87MPD2    C1 1326   0.298   0.674   1.211  0.3026  0.5500 -0.0475
   87MPD2    C2 1327   0.221   0.781   1.161 -0.2121  0.9535 -0.6317
   87MPD2    C3 1328   0.085   0.766   1.136  0.0498 -0.1947 -0.2554
   87MPD2    C4 1329   0.035   0.643   1.149 -0.2202  0.7053  0.1711
   87MPD2    C5 1330   0.106   0.533   1.185  0.0324  0.6969 -0.6877
   87MPD2     H 1331   0.269   0.877   1.147  1.2458  0.1872 -0.8859
   87MPD2    H1 1332   4.661   0.619   1.117 -0.3721 -1.5987  2.3849
   87MPD2    H2 1333   0.302   0.466   1.246 -0.3075 -0.2237 -0.3359
   87MPD2    H3 1334   0.064   0.435   1.168 -1.1655  0.7746  1.7341
   87MPD2     N 1335   4.724   0.868   1.095  0.0493  0.3511 -0.0525
   87MPD2    H5 1336   4.630   0.838   1.073 -0.0347 -1.2926  2.4796
   87MPD2    N1 1337   0.431   0.691   1.247  0.2357  0.1853  0.1585
   87MPD2    H7 1338   0.491   0.613   1.271 -2.3022 -2.0274 -0.6245
   88TCq2    C1 1339   0.488   0.817   1.267 -0.3545  0.3241 -0.5372
   88TCq2    O2 1340   0.431   0.927   1.287  0.0619 -0.7346 -0.0470
   88TCq2    C2 1341   0.634   0.811   1.267 -0.2434 -0.1496  0.0103
   88TCq2    C3 1342   0.701   0.891   1.356 -0.0922  0.1188  0.7516
   88TCq2    C4 1343   0.831   0.921   1.329  0.6294  0.1991 -0.1470
   88TCq2    C5 1344   0.890   0.876   1.219 -0.1753 -0.6204 -0.5131
   88TCq2    C6 1345   0.823   0.798   1.131  0.5505  0.2905 -0.5175
   88TCq2    C7 1346   0.692   0.759   1.160 -0.7628 -0.3945 -0.6415
   88TCq2    C8 1347   0.886   0.775   1.006  0.0050  0.6752  0.2438
   88TCq2    O4 1348   0.862   0.680   0.934 -0.2698  0.2669 -0.8444
   88TCq2    C9 1349   0.901   0.995   1.432  0.0977 -0.1016 -0.5332
   88TCq2    O5 1350   0.842   1.054   1.531  0.2220 -0.2576  0.0377
   88TCq2    O6 1351   1.024   1.005   1.405 -0.2027 -0.5013  0.1546
   88TCq2    H2 1352   0.647   0.926   1.444 -2.5363 -3.6482  0.7368
   88TCq2    H3 1353   0.998   0.885   1.207  0.1102 -2.2974  0.8347
   88TCq2    H4 1354   0.639   0.700   1.086  2.3457 -0.5447 -2.7230
   89MPD2     C 1355   1.852   3.564   1.354  0.0754 -0.6345  0.3744
   89MPD2    C1 1356   1.852   3.689   1.414 -0.5044 -0.2923  0.0824
   89MPD2    C2 1357   1.969   3.732   1.478 -0.4768 -0.1809 -0.1015
   89MPD2    C3 1358   2.088   3.669   1.478 -0.6461  0.2212  0.7075
   89MPD2    C4 1359   2.087   3.542   1.427  0.4390  0.1407  0.5052
   89MPD2    C5 1360   1.969   3.492   1.369  0.4147  0.3491  0.5214
   89MPD2     H 1361   1.955   3.833   1.514 -1.7488 -0.7072  0.8729
   89MPD2    H1 1362   2.172   3.475   1.424  0.0274 -0.5013  3.3974
   89MPD2    H2 1363   1.767   3.515   1.309  0.2054 -1.3668  0.9411
   89MPD2    H3 1364   1.969   3.396   1.317  0.6036 -0.3294  1.7728
   89MPD2     N 1365   2.194   3.736   1.534 -0.1408  0.1204  0.8601
   89MPD2    H5 1366   2.182   3.833   1.562 -1.8932 -0.2762  1.4300
   89MPD2    N1 1367   1.734   3.772   1.422  0.6078  0.3498 -0.6826
   89MPD2    H7 1368   1.728   3.856   1.479 -0.5251  0.8688 -1.5767
   90TCq2    C1 1369   2.316   3.675   1.565  0.0271 -0.1054 -0.3229
   90TCq2    O2 1370   2.366   3.569   1.523  0.5083  0.0461 -0.1171
   90TCq2    C2 1371   2.402   3.757   1.651 -0.1966 -0.0343 -0.4951
   90TCq2    C3 1372   2.502   3.691   1.706  0.0809  0.3760  0.1509
   90TCq2    C4 1373   2.597   3.761   1.779 -0.2298  0.9434 -1.0705
   90TCq2    C5 1374   2.587   3.895   1.806 -0.7910 -0.0348 -0.0767
   90TCq2    C6 1375   2.479   3.958   1.755 -0.6160 -0.1638  1.2992
   90TCq2    C7 1376   2.392   3.892   1.665 -0.3044  0.5241 -0.5491
   90TCq2    C8 1377   2.433   4.071   1.838  0.7789  0.3490 -0.1226
   90TCq2    O4 1378   2.474   4.087   1.951 -0.7649  0.0248 -0.6492
   90TCq2    C9 1379   2.694   3.681   1.856  0.1430 -0.3827 -0.7898
   90TCq2    O5 1380   2.794   3.750   1.894 -0.0509 -0.4535  0.4347
   90TCq2    O6 1381   2.664   3.564   1.892 -0.2096 -0.4869 -0.3892
   90TCq2    H2 1382   2.519   3.584   1.703 -2.4242  0.0019 -0.9436
   90TCq2    H3 1383   2.649   3.940   1.883 -0.6389 -2.9728  1.5269
   90TCq2    H4 1384   2.302   3.934   1.621 -0.6267 -0.7739 -1.1134
   91TMC2    C1 1385   2.844   3.890  15.978  0.5130 -0.4183  0.5572
   91TMC2    C2 1386   2.906   3.964  16.076 -0.5238  0.2005  0.2767
   91TMC2    C3 1387   2.832   3.974  16.192  0.5455 -0.0399 -0.0098
   91TMC2    C4 1388   2.727   3.828  15.991 -0.0792 -0.9308  0.4094
   91TMC2    C5 1389   2.665   3.832  16.112  0.3320 -0.5064 -0.4374
   91TMC2    C6 1390   2.714   3.912  16.211 -0.4128  0.3952  0.3558
   91TMC2     C 1391   2.926   3.832  15.869 -0.2268 -0.3149  0.9384
   91TMC2     O 1392   2.877   3.753  15.785  0.0435  0.5028  0.0280
   91TMC2     H 1393   2.998   4.019  16.056 -1.0815  0.9308 -0.2552
   91TMC2    H1 1394   2.672   3.786  15.908  0.5011  0.9860 -0.9296
   91TMC2    H2 1395   2.654   3.913  16.302  0.7602 -0.8572  1.1346
   91TMC2    C7 1396   2.564   3.730  16.139 -0.4137 -0.1600  0.2394
   91TMC2    C8 1397   2.892   4.066  16.290  0.5799 -0.6936 -0.5910
   91TMC2    O1 1398   2.486   3.745  16.231  0.1517 -0.1145  0.1290
   91TMC2    O2 1399   3.009   4.077  16.316  0.2865 -0.4198 -0.2810
   91TMC2    O5 1400   2.798   4.088  16.383 -0.2114  0.0010  0.5935
   91TMC2    H5 1401   2.704   4.087  16.355 -0.4648  1.7651  1.3916
   92MPD2     C 1402   3.149   3.705  15.721  0.3916  0.1978 -0.9995
   92MPD2    C1 1403   3.153   3.751  15.855  0.0479  0.4992  0.0281
   92MPD2    C2 1404   3.267   3.729  15.932  0.2791 -0.7808 -0.1428
   92MPD2    C3 1405   3.374   3.647  15.882 -0.4570 -0.3127 -0.0512
   92MPD2    C4 1406   3.366   3.600  15.753  0.6933  0.1641  0.2771
   92MPD2    C5 1407   3.258   3.638  15.673 -0.5715 -0.2166 -0.4602
   92MPD2     H 1408   3.276   3.773  16.031 -1.7140 -3.2510  1.1170
   92MPD2    H1 1409   3.439   3.534  15.708 -1.1361  0.7581 -3.5417
   92MPD2    H2 1410   3.067   3.716  15.651 -1.4480 -0.8018  1.0142
   92MPD2    H3 1411   3.246   3.599  15.572  2.2211 -1.1206 -0.4379
   92MPD2     N 1412   3.485   3.622  15.967 -0.1510 -0.0051 -0.3828
   92MPD2    H5 1413   3.484   3.659  16.061  1.5207 -0.7836 -0.0571
   92MPD2    N1 1414   3.046   3.824  15.918 -0.1890 -0.4228 -0.5637
   92MPD2    H7 1415   3.066   3.859  16.011  3.8375  1.0843 -1.9968
   93MPD2     C 1416   0.298   3.055  13.946  0.7384 -0.4300 -0.5967
   93MPD2    C1 1417   0.276   3.195  13.936  0.1949  0.2555 -0.0340
   93MPD2    C2 1418   0.140   3.242  13.919 -0.0647  0.3781 -0.6884
   93MPD2    C3 1419   0.031   3.152  13.907 -0.5521  0.0012 -0.0458
   93MPD2    C4 1420   0.057   3.018  13.930  0.0218  0.2052 -0.8034
   93MPD2    C5 1421   0.191   2.975  13.946 -0.3363 -0.3165 -0.1514
   93MPD2     H 1422   0.129   3.350  13.920 -1.7294  0.1973  0.0834
   93MPD2    H1 1423   4.705   2.944  13.927 -0.9085  0.9883  3.7779
   93MPD2    H2 1424   0.397   3.011  13.954  1.0566 -0.0211 -2.4479
   93MPD2    H3 1425   0.204   2.868  13.957 -0.7183 -0.2303  1.2363
   93MPD2     N 1426   4.625   3.203  13.885 -0.8238 -0.3064  0.4278
   93MPD2    H5 1427   4.560   3.124  13.883 -1.9162  0.6364 -0.9344
   93MPD2    N1 1428   0.374   3.290  13.948  0.4007 -0.2972 -0.1233
   93MPD2    H7 1429   0.357   3.388  13.964  0.2844 -0.1416 -1.2264
   94TCq2    C1 1430   0.504   3.264  13.959 -0.0025  0.6201 -0.5232
   94TCq2    O2 1431   0.568   3.167  13.914 -0.0287 -0.1078  0.0091
   94TCq2    C2 1432   0.577   3.374  14.015  0.0124  0.0824 -0.3222
   94TCq2    C3 1433   0.503   3.470  14.088  0.2086  0.0067  0.1009
   94TCq2    C4 1434   0.576   3.572  14.141 -0.1919 -0.0275  0.3733
   94TCq2    C5 1435   0.710   3.580  14.119  0.4707 -0.2498 -0.2152
   94TCq2    C6 1436   0.778   3.490  14.044 -0.5869  0.5815 -0.4874
   94TCq2    C7 1437   0.712   3.381  13.992  0.3449  0.2339  0.2644
   94TCq2    C8 1438   0.887   3.535  13.968 -0.1979 -0.2527  0.2742
   94TCq2    O4 1439   0.918   3.454  13.879 -0.9579  0.0028  0.0079
   94TCq2    C9 1440   0.522   3.661  14.241 -0.1352 -0.1428 -0.1883
   94TCq2    O5 1441   0.562   3.778  14.228  0.8178  0.2959 -0.3214
   94TCq2    O6 1442   0.424   3.621  14.310  0.1229 -0.3872 -0.0918
   94TCq2    H2 1443   0.407   3.445  14.132 -0.7415  1.8598 -0.9484
   94TCq2    H3 1444   0.746   3.666  14.174  1.3641 -1.1897  0.6673
   94TCq2    H4 1445   0.758   3.310  13.922 -0.1085 -0.2732  0.4838
   95TMC2    C1 1446   4.382   0.214  15.811  0.6429  0.0743 -0.5499
   95TMC2    C2 1447   4.384   0.081  15.763 -0.6151  0.3025 -0.0992
   95TMC2    C3 1448   4.350   4.707  15.845 -0.1536  0.1932 -0.3094
   95TMC2    C4 1449   4.330   0.242  15.934  0.5599 -0.1132 -0.9872
   95TMC2    C5 1450   4.295   0.130  16.008 -0.1660 -0.1808 -0.0458
   95TMC2    C6 1451   4.306   4.726  15.970  0.4079 -0.3533 -0.1651
   95TMC2     C 1452   4.443   0.317  15.733  0.3773  0.3092  0.1096
   95TMC2     O 1453   4.482   0.277  15.626  0.5741  0.2154  0.0015
   95TMC2     H 1454   4.426   0.064  15.664  0.5488 -0.4710  0.5355
   95TMC2    H1 1455   4.315   0.341  15.976  0.0490 -1.0893  1.1370
   95TMC2    H2 1456   4.283   4.639  16.030  2.9875 -0.6283  0.4333
   95TMC2    C7 1457   4.255   0.143  16.149 -0.9150  0.1988 -0.6470
   95TMC2    C8 1458   4.397   4.580  15.812  0.1678  0.1393  0.2275
   95TMC2    O1 1459   4.205   0.045  16.211 -0.3193 -0.0243  0.4586
   95TMC2    O2 1460   4.425   4.503  15.904 -0.0032 -0.5410  0.6911
   95TMC2    O5 1461   4.353   4.551  15.690  0.1531  0.5590  0.0717
   95TMC2    H5 1462   4.310   4.625  15.644 -1.0563  0.3969  0.9438
   96MPD2     C 1463   4.667   0.779  15.683  0.1003  0.1194  0.4125
   96MPD2    C1 1464   4.676   0.667  15.604 -0.1685  0.0374 -0.0495
   96MPD2    C2 1465   4.594   0.548  15.628 -0.5810  0.2190  0.2225
   96MPD2    C3 1466   4.524   0.547  15.748 -0.4151  0.3524 -0.5413
   96MPD2    C4 1467   4.524   0.654  15.835  0.2754 -0.2841 -0.3449
   96MPD2    C5 1468   4.601   0.763  15.806 -0.4660 -0.4088  0.1643
   96MPD2     H 1469   4.597   0.466  15.558 -1.1134 -0.8930  1.5055
   96MPD2    H1 1470   4.473   0.645  15.930 -0.3553 -1.0591 -0.7598
   96MPD2    H2 1471   0.003   0.865  15.661  0.6536 -0.5797 -0.6990
   96MPD2    H3 1472   4.613   0.840  15.881  0.8476 -0.6874  0.2465
   96MPD2     N 1473   4.442   0.439  15.791 -0.2488 -0.2196 -0.3573
   96MPD2    H5 1474   4.399   0.448  15.882  0.7482 -0.7915  0.1664
   96MPD2    N1 1475   0.051   0.681  15.503 -0.3508  0.2146 -0.3433
   96MPD2    H7 1476   0.110   0.764  15.502 -0.3601  0.2725  2.9285
   97MPD2     C 1477   2.456   2.397   0.583 -0.2602  0.0426  0.2284
   97MPD2    C1 1478   2.524   2.519   0.590 -0.7098 -0.0001  0.5097
   97MPD2    C2 1479   2.540   2.579   0.471 -1.1088 -0.3915  0.0777
   97MPD2    C3 1480   2.475   2.534   0.351  0.7351  0.1442  0.4601
   97MPD2    C4 1481   2.405   2.414   0.361 -0.4389 -0.2301 -0.4744
   97MPD2    C5 1482   2.395   2.342   0.474 -0.7548 -0.7600  0.1925
   97MPD2     H 1483   2.606   2.664   0.471  0.0052 -1.2485 -1.3962
   97MPD2    H1 1484   2.359   2.373   0.271  0.5930  1.4814 -1.7684
   97MPD2    H2 1485   2.450   2.329   0.667  0.4562 -0.9080 -0.4724
   97MPD2    H3 1486   2.327   2.258   0.490 -2.2704  0.3608 -0.3369
   97MPD2     N 1487   2.484   2.585   0.219  0.1950  0.0641 -0.0158
   97MPD2    H5 1488   2.451   2.527   0.143 -2.3904 -0.6262  1.6265
   97MPD2    N1 1489   2.576   2.568   0.713  0.1988  0.0819 -0.5489
   97MPD2    H7 1490   2.551   2.508   0.791 -2.9156  1.8766 -0.1572
   98TCq2    C1 1491   2.536   2.707   0.190 -0.1198 -0.1147 -0.2573
   98TCq2    O2 1492   2.617   2.768   0.261  0.4413 -0.2525 -0.1583
   98TCq2    C2 1493   2.535   2.730   0.047  0.5013  0.2845  0.3611
   98TCq2    C3 1494   2.429   2.680  17.674  0.9210 -0.4743  0.4461
   98TCq2    C4 1495   2.405   2.744  17.555  0.2865  0.0370 -0.2973
   98TCq2    C5 1496   2.471   2.860  17.520  0.5003  1.0013 -0.2409
   98TCq2    C6 1497   2.571   2.906  17.602 -0.3635  0.6601  0.2721
   98TCq2    C7 1498   2.614   2.841   0.006 -0.4211 -0.5636 -0.3021
   98TCq2    C8 1499   2.613   3.041  17.592 -0.0020  0.7464  0.2908
   98TCq2    O4 1500   2.684   3.080  17.682  0.5527 -0.2196 -0.1015
   98TCq2    C9 1501   2.288   2.699  17.479  0.1647 -0.3688  0.3124
   98TCq2    O5 1502   2.258   2.753  17.365  0.0837 -0.0180  0.1071
   98TCq2    O6 1503   2.223   2.604  17.524  0.6521 -0.2515  0.3828
   98TCq2    H2 1504   2.383   2.584  17.695  0.4261 -0.1984  0.6304
   98TCq2    H3 1505   2.422   2.909  17.436 -2.4727 -0.6145  0.5222
   98TCq2    H4 1506   2.700   2.880   0.059 -1.2438  1.8383 -0.7505
   99MPD2     C 1507   1.572   0.486   1.306  0.4092  0.4748  0.2403
   99MPD2    C1 1508   1.452   0.423   1.352  0.2046  1.0132  0.2403
   99MPD2    C2 1509   1.402   0.322   1.274  0.4100 -0.0349 -0.3024
   99MPD2    C3 1510   1.455   0.275   1.161  0.6134 -0.1082 -0.5440
   99MPD2    C4 1511   1.567   0.341   1.111 -0.2275 -0.0327  0.2702
   99MPD2    C5 1512   1.628   0.435   1.189 -0.2208  0.4109 -0.2914
   99MPD2     H 1513   1.305   0.284   1.305 -0.0969  2.2583  0.9484
   99MPD2    H1 1514   1.629   0.306   1.029  0.0299 -1.7811  1.2010
   99MPD2    H2 1515   1.630   0.561   1.359  1.2856  1.1944 -1.7315
   99MPD2    H3 1516   1.722   0.480   1.158  0.6144 -1.2543 -0.1473
   99MPD2     N 1517   1.392   0.162   1.094  0.8125  0.2803 -0.6628
   99MPD2    H5 1518   1.308   0.125   1.136  1.6330  1.1634  1.7197
   99MPD2    N1 1519   1.388   0.459   1.467 -0.2720  0.1620 -0.1807
   99MPD2    H7 1520   1.293   0.428   1.484 -1.2515  1.6360 -3.0071
  100TCq2    C1 1521   1.437   0.547   1.562 -0.5751  0.6968 -0.7545
  100TCq2    O2 1522   1.547   0.596   1.566  0.5739  0.2053  0.4129
  100TCq2    C2 1523   1.351   0.565   1.680 -0.2881  0.6268  0.5068
  100TCq2    C3 1524   1.417   0.604   1.796  0.6591  0.2481 -0.0444
  100TCq2    C4 1525   1.345   0.622   1.910  0.0196  0.6927  0.1463
  100TCq2    C5 1526   1.209   0.605   1.902  0.4665  0.2210  0.2412
  100TCq2    C6 1527   1.142   0.562   1.786  0.4056  0.3243  0.2842
  100TCq2    C7 1528   1.213   0.535   1.675  0.5337  0.4855 -0.3286
  100TCq2    C8 1529   1.015   0.500   1.802  0.3933  0.3969  0.3279
  100TCq2    O4 1530   0.960   0.545   1.904  0.8896  0.9766 -0.6033
  100TCq2    C9 1531   1.401   0.650   2.038  0.6578  0.0979  0.2679
  100TCq2    O5 1532   1.525   0.627   2.052  0.2406  0.0937  0.3578
  100TCq2    O6 1533   1.326   0.703   2.122 -0.0976 -0.2479  0.2319
  100TCq2    H2 1534   1.522   0.629   1.806  0.8799 -1.2900  1.4934
  100TCq2    H3 1535   1.153   0.620   1.994 -0.2909 -1.0023 -0.0221
  100TCq2    H4 1536   1.171   0.499   1.582  0.3342  1.9011 -0.7818
  101MPD2     C 1537   1.595   1.211  13.048 -0.0264  0.3811 -0.1972
  101MPD2    C1 1538   1.478   1.282  13.058 -0.4212  0.6940 -0.7183
  101MPD2    C2 1539   1.367   1.219  13.114  0.3876 -0.0251 -0.1207
  101MPD2    C3 1540   1.378   1.092  13.162  0.0574  0.0337 -0.1864
  101MPD2    C4 1541   1.495   1.022  13.146 -0.0258 -0.5238 -1.2447
  101MPD2    C5 1542   1.596   1.085  13.083 -0.1195 -0.4599  0.7607
  101MPD2     H 1543   1.274   1.272  13.132  0.8994 -0.0208  2.4975
  101MPD2    H1 1544   1.518   0.924  13.187  0.1506 -0.7533 -1.8950
  101MPD2    H2 1545   1.679   1.245  12.989  0.7322  1.1892  1.3665
  101MPD2    H3 1546   1.691   1.039  13.058  0.9273  2.8640 -1.3637
  101MPD2     N 1547   1.258   1.037  13.212  0.5678  0.5771 -0.4942
  101MPD2    H5 1548   1.170   1.089  13.211 -0.2040 -0.7541 -1.2260
  101MPD2    N1 1549   1.484   1.416  13.005 -0.8289 -0.0931 -1.0414
  101MPD2    H7 1550   1.569   1.443  12.955  0.0825  2.5938  1.9689
  102TCq2    C1 1551   1.567   1.694  12.620  0.2307 -0.4820 -0.9083
  102TCq2    O2 1552   1.681   1.669  12.650 -0.5106  0.7762 -0.4690
  102TCq2    C2 1553   1.467   1.713  12.728  0.2082 -0.1496  0.1281
  102TCq2    C3 1554   1.361   1.799  12.716  0.1322  0.6010  0.1609
  102TCq2    C4 1555   1.266   1.793  12.816 -0.6992  0.3714 -0.1839
  102TCq2    C5 1556   1.282   1.709  12.925 -0.1151  0.3109  0.2539
  102TCq2    C6 1557   1.396   1.629  12.932  0.2466  0.4940 -0.1022
  102TCq2    C7 1558   1.496   1.639  12.840  0.2620  0.1467 -0.0946
  102TCq2    C8 1559   1.387   1.511  13.025 -0.3771 -0.5721  0.0487
  102TCq2    O4 1560   1.284   1.497  13.084 -0.1456 -0.2918  0.7236
  102TCq2    C9 1561   1.152   1.878  12.799 -0.4099  0.6782  0.2937
  102TCq2    O5 1562   1.163   1.963  12.712  0.5389  0.6652  0.0176
  102TCq2    O6 1563   1.043   1.840  12.846  0.4971  0.3735 -0.1897
  102TCq2    H2 1564   1.343   1.860  12.629 -1.2500  2.4340  1.7475
  102TCq2    H3 1565   1.208   1.713  13.004  0.7615 -1.2744  1.1460
  102TCq2    H4 1566   1.578   1.569  12.830 -0.5695 -0.8421 -0.1003
  103TMC2    C1 1567   4.465   1.061  11.954  0.3324 -0.1688 -0.6994
  103TMC2    C2 1568   4.586   0.991  11.970  0.0978 -0.1362  0.5149
  103TMC2    C3 1569   4.639   0.990  12.096 -0.6035 -0.2890 -0.0163
  103TMC2    C4 1570   4.419   1.133  12.063 -0.0085  0.3544  0.6220
  103TMC2    C5 1571   4.487   1.137  12.184  0.0715  0.8033  0.1581
  103TMC2    C6 1572   4.597   1.056  12.212  0.4549  0.3787  0.3128
  103TMC2     C 1573   4.405   1.084  11.825  0.1195  0.0937  0.5872
  103TMC2     O 1574   4.297   1.147  11.830 -0.1822  0.5051  0.2092
  103TMC2     H 1575   4.626   0.935  11.886  1.0345  1.2973  0.0133
  103TMC2    H1 1576   4.346   1.212  12.052 -2.3934 -2.1065 -1.5393
  103TMC2    H2 1577   4.655   1.057  12.303  1.1732  0.3769 -0.1455
  103TMC2    C7 1578   4.459   1.242  12.279 -0.9277 -0.1629  0.3773
  103TMC2    C8 1579   0.031   0.910  12.106  0.0702  0.0431  0.0621
  103TMC2    O1 1580   4.463   1.211  12.398  0.1151  0.4586 -0.3240
  103TMC2    O2 1581   0.136   0.960  12.145  0.3829  0.5434  0.0692
  103TMC2    O5 1582   0.024   0.781  12.082 -0.3404 -0.0934 -0.4940
  103TMC2    H5 1583   4.671   0.752  12.033  0.2970 -0.2866 -1.4038
  104MPD2     C 1584   4.491   0.872  11.535 -0.2024  0.2319  0.1981
  104MPD2    C1 1585   4.411   0.961  11.604  0.0736  0.4236  0.1845
  104MPD2    C2 1586   4.281   0.987  11.557  0.3011  0.5037 -0.4372
  104MPD2    C3 1587   4.239   0.944  11.436  0.1622  0.6897 -0.8569
  104MPD2    C4 1588   4.323   0.870  11.360 -0.3758  0.5468 -0.0812
  104MPD2    C5 1589   4.445   0.833  11.412 -0.2192 -0.7445 -0.0556
  104MPD2     H 1590   4.213   1.044  11.620 -0.8331  0.3619 -1.5287
  104MPD2    H1 1591   4.294   0.833  11.262  1.8095 -1.5815  0.0832
  104MPD2    H2 1592   4.593   0.856  11.569 -1.0263 -0.4976  2.3500
  104MPD2    H3 1593   4.499   0.751  11.366 -2.2329 -0.0597 -3.6317
  104MPD2     N 1594   4.109   0.966  11.383 -0.0951 -0.3561 -0.7849
  104MPD2    H5 1595   4.088   0.911  11.300 -1.5737 -0.6800 -0.1790
  104MPD2    N1 1596   4.469   1.011  11.726  1.1291  0.1340 -0.2986
  104MPD2    H7 1597   4.564   0.977  11.736  0.8223 -0.8689 -0.8363
  105MPD2     C 1598   1.547   0.538  17.344  0.0766 -0.3488  0.3315
  105MPD2    C1 1599   1.411   0.515  17.367 -0.0423  0.6761 -0.7620
  105MPD2    C2 1600   1.362   0.481  17.495 -0.4907  0.6205 -1.1595
  105MPD2    C3 1601   1.451   0.469  17.597  0.7064 -0.2923  1.3878
  105MPD2    C4 1602   1.587   0.501  17.574  0.0373 -0.5935  0.3106
  105MPD2    C5 1603   1.634   0.547  17.449 -0.0390  0.8853  0.7116
  105MPD2     H 1604   1.258   0.455  17.514  0.5053 -0.7209  2.5295
  105MPD2    H1 1605   1.656   0.504  17.657  1.1867 -1.6983 -0.5995
  105MPD2    H2 1606   1.583   0.579  17.250  0.2200  0.1197  0.5876
  105MPD2    H3 1607   1.739   0.568  17.437 -0.5840  2.0859 -1.9527
  105MPD2     N 1608   1.394   0.440   0.016  0.2276 -0.5610 -0.0506
  105MPD2    H5 1609   1.293   0.432   0.021  0.2664 -1.3661 -0.4478
  105MPD2    N1 1610   1.321   0.514  17.259 -0.0646  0.7651 -0.0158
  105MPD2    H7 1611   1.222   0.500  17.279  0.0548  1.0273  0.7440
  106TCq2    C1 1612   1.454   0.458   0.138  0.2848  0.3343 -0.8757
  106TCq2    O2 1613   1.563   0.504   0.170 -0.3387 -0.0275  0.2992
  106TCq2    C2 1614   1.369   0.430   0.255  0.2492  0.0221  0.6562
  106TCq2    C3 1615   1.251   0.361   0.230  0.5385  0.6946  1.0875
  106TCq2    C4 1616   1.145   0.407   0.306  0.1364  0.2385  0.4984
  106TCq2    C5 1617   1.156   0.507   0.403 -0.2425  0.2369  0.0635
  106TCq2    C6 1618   1.282   0.552   0.431 -0.4116 -0.2897  0.3932
  106TCq2    C7 1619   1.390   0.512   0.360  0.2263  0.4008 -0.2546
  106TCq2    C8 1620   1.303   0.663   0.530 -0.2492  0.0814 -0.0274
  106TCq2    O4 1621   1.394   0.745   0.505 -0.1148  0.1401 -0.0128
  106TCq2    C9 1622   1.011   0.362   0.277  0.0829 -0.3382  0.3427
  106TCq2    O5 1623   1.001   0.282   0.175 -0.0646 -0.3705 -0.3933
  106TCq2    O6 1624   0.919   0.393   0.356 -0.4502 -0.1517  0.1115
  106TCq2    H2 1625   1.236   0.305   0.139  2.5006  0.1033  1.1238
  106TCq2    H3 1626   1.069   0.547   0.454 -0.2589  1.1679 -0.6986
  106TCq2    H4 1627   1.485   0.561   0.377  0.0858  1.0467 -1.3402
  107TMC2    C1 1628   2.339   4.407  11.107  0.3756 -0.1124 -0.7782
  107TMC2    C2 1629   2.439   4.406  11.199  0.0540  0.5154  0.4089
  107TMC2    C3 1630   2.502   4.284  11.216 -0.7888 -0.1768  0.4750
  107TMC2    C4 1631   2.304   4.303  11.028 -0.5387  0.0989  0.4960
  107TMC2    C5 1632   2.370   4.187  11.043 -0.4592 -0.1231  0.0908
  107TMC2    C6 1633   2.462   4.171  11.146  0.3784  0.0815 -0.2618
  107TMC2     C 1634   2.254   4.518  11.103  0.0919 -0.4883  0.6093
  107TMC2     O 1635   2.213   4.559  10.997 -0.0341 -0.0972  0.0462
  107TMC2     H 1636   2.465   4.489  11.263 -0.3424  2.1145 -1.5258
  107TMC2    H1 1637   2.216   4.313  10.965 -1.3860  0.8704  1.8316
  107TMC2    H2 1638   2.504   4.072  11.163 -0.9735 -0.6466 -1.1849
  107TMC2    C7 1639   2.306   4.064  10.986  0.3909 -0.2871  0.2873
  107TMC2    C8 1640   2.592   4.266  11.325 -0.4581 -0.1934  0.5748
  107TMC2    O1 1641   2.288   3.963  11.056 -0.4685  0.4829  0.0100
  107TMC2    O2 1642   2.678   4.177  11.325  0.0917  0.0542  0.5889
  107TMC2    O5 1643   2.590   4.369  11.411 -0.7088 -0.2867 -0.1439
  107TMC2    H5 1644   2.500   4.406  11.418 -0.3942  0.6753 -1.2506
  108MPD2     C 1645   2.093   0.038  11.167 -0.6202  0.1969 -0.4496
  108MPD2    C1 1646   2.126   4.672  11.261  0.5591  0.3562 -0.3338
  108MPD2    C2 1647   2.087   4.693  11.389 -0.2574  0.8044  0.0302
  108MPD2    C3 1648   2.000   0.073  11.421 -0.2859 -0.3772  0.6465
  108MPD2    C4 1649   1.969   0.168  11.320  0.1910  0.1128  0.2874
  108MPD2    C5 1650   2.015   0.144  11.190  0.0545 -0.5101 -1.1051
  108MPD2     H 1651   2.118   4.626  11.468  1.2385  0.9483 -0.4346
  108MPD2    H1 1652   1.897   0.249  11.329 -0.1470  0.1038 -2.1454
  108MPD2    H2 1653   2.129   0.031  11.065 -0.0550  0.3640 -0.2588
  108MPD2    H3 1654   1.997   0.228  11.123  1.5058  0.7274  0.0499
  108MPD2     N 1655   1.932   0.092  11.549  0.7295  0.3830  0.1698
  108MPD2    H5 1656   1.865   0.168  11.555  0.8793  0.5091  0.2468
  108MPD2    N1 1657   2.217   4.566  11.231  0.1742  0.9421  0.0490
  108MPD2    H7 1658   2.256   4.521  11.313  0.3242  0.8415 -0.0782
  109MPD2     C 1659   1.519   2.045   1.514  0.6331  0.4861  0.0061
  109MPD2    C1 1660   1.630   2.055   1.428  0.4601 -0.6927  0.2579
  109MPD2    C2 1661   1.759   2.059   1.474  0.6850 -0.2662 -0.2614
  109MPD2    C3 1662   1.782   2.069   1.608 -0.0540  0.2150  0.4581
  109MPD2    C4 1663   1.672   2.050   1.704 -0.5008 -0.1759  0.0614
  109MPD2    C5 1664   1.540   2.040   1.647 -0.4269  0.2737  0.3134
  109MPD2     H 1665   1.844   2.064   1.408  0.2203  0.2632 -0.8130
  109MPD2    H1 1666   1.677   2.050   1.813 -0.9016 -1.7816  0.0725
  109MPD2    H2 1667   1.418   2.045   1.473  0.4671 -0.4777  0.4274
  109MPD2    H3 1668   1.452   2.034   1.710 -0.8781 -2.2943 -0.5638
  109MPD2     N 1669   1.911   2.115   1.644 -0.4637 -0.4192 -0.6260
  109MPD2    H5 1670   1.983   2.113   1.572  0.3364 -2.4113  0.2188
  109MPD2    N1 1671   1.596   2.039   1.295  0.3049 -0.3534  0.1646
  109MPD2    H7 1672   1.496   2.051   1.283  0.1405 -1.8699 -0.0689
  110TCq2    C1 1673   1.943   2.152   1.771 -0.3810  0.2957 -0.2250
  110TCq2    O2 1674   1.873   2.158   1.868 -0.1428 -0.1771  0.1873
  110TCq2    C2 1675   2.093   2.165   1.792  0.1880  0.9276  0.1093
  110TCq2    C3 1676   2.138   2.147   1.922  0.3922 -0.1204  0.3938
  110TCq2    C4 1677   2.274   2.127   1.937 -0.2949  0.1573 -0.5256
  110TCq2    C5 1678   2.370   2.129   1.838  0.1817 -0.4020  0.9096
  110TCq2    C6 1679   2.317   2.165   1.711  1.0207  0.4319 -0.7132
  110TCq2    C7 1680   2.176   2.170   1.683  0.1113  0.0449 -0.6077
  110TCq2    C8 1681   2.401   2.215   1.601  0.1998  0.0184  0.3045
  110TCq2    O4 1682   2.353   2.248   1.494 -0.6153 -0.2040 -0.1545
  110TCq2    C9 1683   2.320   2.114   2.072 -0.0734  0.5441  0.0294
  110TCq2    O5 1684   2.234   2.109   2.164  0.3398  0.0453 -0.2346
  110TCq2    O6 1685   2.443   2.142   2.083  0.2185 -0.3135  0.1514
  110TCq2    H2 1686   2.065   2.138   2.002  0.9966 -0.5590  0.8988
  110TCq2    H3 1687   2.473   2.097   1.853  0.2200 -0.2241  1.0384
  110TCq2    H4 1688   2.140   2.217   1.593  1.4770 -0.0177 -1.1972
  111TMC2    C1 1689   1.986   1.972  11.149  0.4001 -0.2812  0.7571
  111TMC2    C2 1690   2.075   2.007  11.048 -0.8063  0.1657 -0.5611
  111TMC2    C3 1691   2.190   1.937  11.049  0.2412  0.1336  0.3943
  111TMC2    C4 1692   2.011   1.883  11.252 -0.1530 -0.0689  0.0259
  111TMC2    C5 1693   2.136   1.835  11.248  0.8325  0.2997 -0.2082
  111TMC2    C6 1694   2.222   1.853  11.145 -0.7062 -0.0009  0.4133
  111TMC2     C 1695   1.877   2.066  11.165  0.1236  0.2158 -0.5044
  111TMC2     O 1696   1.865   2.140  11.066  0.6108  0.3896 -0.9406
  111TMC2     H 1697   2.060   2.089  10.979 -1.0696  0.2074 -0.4560
  111TMC2    H1 1698   1.939   1.840  11.321  1.6424 -3.2552 -0.0757
  111TMC2    H2 1699   2.316   1.798  11.144 -0.9357 -0.3943  0.4508
  111TMC2    C7 1700   2.194   1.790  11.371 -0.4293  0.1835 -0.4631
  111TMC2    C8 1701   2.288   1.956  10.946  0.7163  0.7625  0.0140
  111TMC2    O1 1702   2.119   1.792  11.467 -0.0728 -0.0528  0.5588
  111TMC2    O2 1703   2.327   2.068  10.912  0.3874 -0.4549  0.4394
  111TMC2    O5 1704   2.344   1.836  10.910  0.3341 -0.9000 -0.1892
  111TMC2    H5 1705   2.282   1.761  10.920 -0.1871 -0.3932  0.3389
  112MPD2     C 1706   1.511   2.303  11.425  0.1068  0.4225  0.3283
  112MPD2    C1 1707   1.505   2.270  11.292 -0.6361 -0.0323  0.5779
  112MPD2    C2 1708   1.616   2.200  11.252  0.3509 -0.4401 -1.3871
  112MPD2    C3 1709   1.718   2.164  11.339  0.5437  0.1752 -0.3687
  112MPD2    C4 1710   1.709   2.184  11.477  0.3268  0.0916 -0.4559
  112MPD2    C5 1711   1.610   2.272  11.514 -0.3339 -0.3121 -0.1202
  112MPD2     H 1712   1.628   2.182  11.146  1.3092  1.8843 -1.6702
  112MPD2    H1 1713   1.782   2.156  11.552  0.1238  1.1021  0.1161
  112MPD2    H2 1714   1.434   2.368  11.464  0.4017  2.1711 -2.0381
  112MPD2    H3 1715   1.601   2.305  11.617 -0.9297 -2.1811  0.4435
  112MPD2     N 1716   1.828   2.081  11.298 -0.1168 -0.3660  0.2861
  112MPD2    H5 1717   1.883   2.038  11.372  1.1344  2.3000  0.9062
  112MPD2    N1 1718   1.397   2.304  11.206  0.3564  0.2394  0.0102
  112MPD2    H7 1719   1.405   2.264  11.113 -0.5491 -0.0071  0.0366
  113MPD2     C 1720   0.469   4.654   0.638 -0.0490  0.2016 -0.6126
  113MPD2    C1 1721   0.359   4.646   0.728  0.6339  0.1640  0.3885
  113MPD2    C2 1722   0.252   4.564   0.694 -0.3842 -0.1181  0.1967
  113MPD2    C3 1723   0.254   4.481   0.587  0.5689 -0.5296  0.5828
  113MPD2    C4 1724   0.360   4.487   0.500  0.5473  0.1337 -0.3862
  113MPD2    C5 1725   0.462   4.577   0.522 -0.2147 -0.4327 -0.6854
  113MPD2     H 1726   0.174   4.557   0.769  0.7822 -1.5745  1.2764
  113MPD2    H1 1727   0.366   4.414   0.420  0.6084  1.6914 -1.7722
  113MPD2    H2 1728   0.543   0.007   0.645  0.2253 -0.0688 -0.3823
  113MPD2    H3 1729   0.547   4.574   0.455 -0.7489  0.4192 -1.4074
  113MPD2     N 1730   0.163   4.377   0.559 -0.3264 -0.7923 -0.5306
  113MPD2    H5 1731   0.162   4.343   0.463  0.9970  0.8534 -1.1514
  113MPD2    N1 1732   0.343   4.719   0.846  0.0850  0.1344  0.1732
  113MPD2    H7 1733   0.247   4.721   0.879 -0.2853  1.4945 -0.9499
  114TCq2    C1 1734   0.060   4.340   0.642 -0.2762  0.4850 -0.3180
  114TCq2    O2 1735   0.031   4.389   0.750  0.4603 -0.0815 -0.5717
  114TCq2    C2 1736   4.691   4.255   0.577  0.1383 -0.5707 -0.6031
  114TCq2    C3 1737   4.721   4.194   0.456 -0.3559 -0.4855 -0.6440
  114TCq2    C4 1738   4.617   4.122   0.400 -0.2244  0.4290 -0.0418
  114TCq2    C5 1739   4.493   4.116   0.451 -0.3590  0.6101 -0.1876
  114TCq2    C6 1740   4.467   4.179   0.575 -0.6917  0.1501 -0.5642
  114TCq2    C7 1741   4.567   4.241   0.642 -0.3945 -0.9630  0.3845
  114TCq2    C8 1742   4.331   4.198   0.631  0.0337  0.1746 -0.1277
  114TCq2    O4 1743   4.237   4.224   0.560  0.0788  0.0816  0.2465
  114TCq2    C9 1744   4.639   4.065   0.277 -0.5418  0.5425 -0.0119
  114TCq2    O5 1745   0.034   4.047   0.237  0.1386  0.0619  0.6975
  114TCq2    O6 1746   4.543   4.033   0.199  1.2065 -0.1390  0.5528
  114TCq2    H2 1747   0.086   4.198   0.400  0.3140 -0.3771  0.4732
  114TCq2    H3 1748   4.422   4.057   0.394  1.5025  0.9986 -2.9184
  114TCq2    H4 1749   4.552   4.286   0.740  0.2971 -1.6905  0.8265
  115TMC2    C1 1750   0.827   2.765  17.326  0.3473  0.5091  0.8338
  115TMC2    C2 1751   0.845   2.745  17.198  0.1132 -0.0806  0.7557
  115TMC2    C3 1752   0.905   2.843  17.131  0.3959 -0.5333 -0.2172
  115TMC2    C4 1753   0.866   2.876  17.383 -0.4331 -0.9962 -0.2551
  115TMC2    C5 1754   0.945   2.966  17.318  0.2662 -0.8081 -0.1607
  115TMC2    C6 1755   0.962   2.954  17.184  0.4939 -0.7249 -0.4681
  115TMC2     C 1756   0.759   2.654  17.391 -0.7382 -0.1554 -0.1547
  115TMC2     O 1757   0.700   2.580  17.312 -0.7563  0.2159  0.6174
  115TMC2     H 1758   0.804   2.662  17.140  1.3704 -1.4370  1.8377
  115TMC2    H1 1759   0.831   2.911  17.480 -1.1309 -0.4687 -0.7015
  115TMC2    H2 1760   0.986   3.040  17.122  0.9140  2.5101  4.2010
  115TMC2    C7 1761   1.015   3.064  17.391 -0.6032 -0.6517 -0.0515
  115TMC2    C8 1762   0.889   2.845  16.981  0.2855 -0.0742 -0.0667
  115TMC2    O1 1763   0.968   3.106  17.496 -0.0065 -0.0264 -0.0103
  115TMC2    O2 1764   0.921   2.944  16.913 -0.1481 -0.1637  0.0389
  115TMC2    O5 1765   0.919   2.721  16.938  0.5821 -0.2517  0.1384
  115TMC2    H5 1766   0.932   2.660  17.014 -0.7881  0.2779  0.7848
  116MPD2     C 1767   0.513   2.402   0.069  0.1201  0.0167  0.2337
  116MPD2    C1 1768   0.511   2.394  17.637 -0.5102 -0.4269 -0.6419
  116MPD2    C2 1769   0.589   2.483  17.561 -0.4056 -0.6661 -0.4856
  116MPD2    C3 1770   0.673   2.572  17.614  0.1832  0.2126  0.6844
  116MPD2    C4 1771   0.689   2.569   0.041 -0.1286  0.7200 -0.1388
  116MPD2    C5 1772   0.605   2.481   0.113 -0.3556  0.2629 -0.1236
  116MPD2     H 1773   0.570   2.480  17.454 -0.8416 -0.6350 -0.4094
  116MPD2    H1 1774   0.758   2.638   0.090  0.6796  0.4570 -0.8937
  116MPD2    H2 1775   0.466   2.335   0.140 -2.2340 -0.3456 -1.6693
  116MPD2    H3 1776   0.614   2.480   0.221  2.1942  0.0644 -0.3433
  116MPD2     N 1777   0.745   2.664  17.525 -0.4096 -0.8283  0.0778
  116MPD2    H5 1778   0.800   2.734  17.573 -0.2744 -0.6705 -0.3053
  116MPD2    N1 1779   0.427   2.290  17.586 -0.4330 -0.1274  0.2175
  116MPD2    H7 1780   0.377   2.235  17.655 -0.4027 -0.7523 -0.2579
  117TMC2    C1 1781   4.715   3.871  13.788  0.4029 -0.1168  0.3941
  117TMC2    C2 1782   0.050   3.755  13.812  0.7007 -0.8942  0.8151
  117TMC2    C3 1783   0.150   3.760  13.903  1.0593  0.0343 -1.0102
  117TMC2    C4 1784   0.034   3.989  13.832  0.1071 -0.4375 -0.0151
  117TMC2    C5 1785   0.131   3.990  13.931  0.3162 -0.3287 -0.8658
  117TMC2    C6 1786   0.191   3.872  13.972  0.1682  0.2613  0.6803
  117TMC2     C 1787   4.599   3.861  13.698 -0.1218 -0.6783  0.3523
  117TMC2     O 1788   4.589   3.760  13.632  0.0652  0.2611 -0.2031
  117TMC2     H 1789   0.038   3.662  13.758 -1.8973 -0.5284  0.7409
  117TMC2    H1 1790   4.717   4.085  13.806 -0.8352 -0.9431 -0.2803
  117TMC2    H2 1791   0.282   3.867  14.031  0.5104  2.6445  0.3538
  117TMC2    C7 1792   0.206   4.115  13.932  0.7863  0.3849 -0.0625
  117TMC2    C8 1793   0.234   3.650  13.909  0.2387  0.0385  0.3633
  117TMC2    O1 1794   0.167   4.203  13.861  0.1204  0.2375 -0.0240
  117TMC2    O2 1795   0.237   3.568  14.003 -0.0001 -0.0390  0.5888
  117TMC2    O5 1796   0.262   3.621  13.786  0.6668  0.3265  0.8358
  117TMC2    H5 1797   0.257   3.690  13.716  1.3138 -1.9452 -1.4459
  118MPD2     C 1798   0.485   4.203  14.160 -0.1217  0.0324  0.3793
  118MPD2    C1 1799   0.401   4.218  14.046 -0.2410 -0.0796 -0.1970
  118MPD2    C2 1800   0.407   4.338  13.971 -1.1541 -0.3345  0.4296
  118MPD2    C3 1801   0.500   4.437  14.015 -0.3687  0.6535  0.4346
  118MPD2    C4 1802   0.580   4.411  14.128 -0.2143 -0.3388  0.2523
  118MPD2    C5 1803   0.569   4.294  14.199 -0.1295  0.5825 -0.0028
  118MPD2     H 1804   0.356   4.343  13.876  0.0235 -0.9822 -0.2338
  118MPD2    H1 1805   0.656   4.484  14.154 -0.2653  0.1587 -0.9936
  118MPD2    H2 1806   0.493   4.112  14.219  0.2169 -0.8785 -1.0664
  118MPD2    H3 1807   0.622   4.277  14.292 -0.4905 -0.0547  0.0880
  118MPD2     N 1808   0.525   4.564  13.952  0.4045  0.2157 -0.5307
  118MPD2    H5 1809   0.558   4.644  14.005  0.4061 -2.6291  3.7279
  118MPD2    N1 1810   0.308   4.116  14.023 -0.0986 -0.4014 -0.2806
  118MPD2    H7 1811   0.320   4.040  14.088 -1.0352  0.1626  0.5525
  119MPD2     C 1812   2.803   0.462  13.971 -0.4214  0.4166 -0.0622
  119MPD2    C1 1813   2.684   0.520  13.923  0.9211  0.4075 -0.1936
  119MPD2    C2 1814   2.679   0.582  13.801  0.0091 -0.2067  0.0987
  119MPD2    C3 1815   2.787   0.582  13.710 -0.1319 -0.6508 -0.1895
  119MPD2    C4 1816   2.902   0.529  13.752 -0.5950  0.4448 -0.5293
  119MPD2    C5 1817   2.907   0.475  13.879 -0.1412 -0.0976 -0.2240
  119MPD2     H 1818   2.579   0.614  13.774  0.5390  1.1716 -0.2438
  119MPD2    H1 1819   2.991   0.515  13.692  1.0041  0.2568  1.8674
  119MPD2    H2 1820   2.819   0.399  14.058  1.4398  1.1193  0.1158
  119MPD2    H3 1821   3.002   0.426  13.898  0.0787  0.7190  0.7302
  119MPD2     N 1822   2.777   0.616  13.570  0.5383 -1.2314  0.4091
  119MPD2    H5 1823   2.856   0.598  13.509  0.7378  0.1356  0.2751
  119MPD2    N1 1824   2.569   0.492  14.004  0.6877  0.6936  0.3117
  119MPD2    H7 1825   2.601   0.440  14.085  1.9143 -0.1600 -0.7197
  120TCq2    C1 1826   2.656   0.653  13.505 -0.4979 -0.5027 -0.4738
  120TCq2    O2 1827   2.550   0.691  13.555 -0.2253  0.3113  0.4666
  120TCq2    C2 1828   2.668   0.651  13.359  0.0084 -0.0145  0.6266
  120TCq2    C3 1829   2.784   0.629  13.298 -0.5695  0.2548  0.0662
  120TCq2    C4 1830   2.782   0.576  13.166 -0.0005 -0.1629 -0.2367
  120TCq2    C5 1831   2.666   0.553  13.097  0.5229 -0.1395  0.0974
  120TCq2    C6 1832   2.551   0.576  13.162  0.0040  0.2262  0.2239
  120TCq2    C7 1833   2.550   0.624  13.294  0.3263  0.0880 -0.6204
  120TCq2    C8 1834   2.432   0.549  13.087  0.1991  0.2628 -0.1391
  120TCq2    O4 1835   2.439   0.558  12.966  0.2084  0.1049  0.0879
  120TCq2    C9 1836   2.906   0.549  13.098 -0.0580  0.0582  0.4687
  120TCq2    O5 1837   2.902   0.511  12.975  0.8273  0.1100 -0.1611
  120TCq2    O6 1838   3.005   0.536  13.176 -0.9424 -0.1304 -0.1489
  120TCq2    H2 1839   2.877   0.669  13.335  0.3760 -0.3745 -1.6109
  120TCq2    H3 1840   2.673   0.518  12.995 -1.9213 -0.0186 -0.1079
  120TCq2    H4 1841   2.457   0.635  13.348  0.1476 -1.0759 -0.6945
  121TMC2    C1 1842   4.141   1.829  14.228 -0.1315  0.5917 -0.9801
  121TMC2    C2 1843   4.197   1.770  14.338 -0.1815  1.0715 -0.4658
  121TMC2    C3 1844   4.120   1.689  14.410  0.2289  0.3118 -0.1203
  121TMC2    C4 1845   4.007   1.812  14.200 -0.7280  0.0201  0.4571
  121TMC2    C5 1846   3.930   1.730  14.282  0.3244  1.0536 -0.6992
  121TMC2    C6 1847   3.991   1.661  14.384  0.2273 -0.5186 -0.4192
  121TMC2     C 1848   4.220   1.923  14.149 -0.0374  0.4597  0.7811
  121TMC2     O 1849   4.341   1.928  14.174  0.0224 -0.1383  0.0004
  121TMC2     H 1850   4.299   1.791  14.367 -0.3720 -0.0317  1.0180
  121TMC2    H1 1851   3.960   1.854  14.112  2.1600  0.2669 -0.9621
  121TMC2    H2 1852   3.924   1.619  14.458 -1.2283 -2.0223 -2.5998
  121TMC2    C7 1853   3.785   1.718  14.278 -0.0737  0.3515  0.4778
  121TMC2    C8 1854   4.194   1.625  14.523  1.0632 -0.2677  0.2610
  121TMC2    O1 1855   3.738   1.634  14.350 -0.1748 -0.3700 -0.2212
  121TMC2    O2 1856   4.293   1.665  14.581  0.3679  0.1906 -0.5401
  121TMC2    O5 1857   4.121   1.516  14.556 -0.2126 -0.1202 -0.2220
  121TMC2    H5 1858   4.056   1.488  14.488 -0.9863  1.2242 -0.0268
  122MPD2     C 1859   4.307   2.200  14.124 -0.0309 -0.3415  0.8170
  122MPD2    C1 1860   4.200   2.152  14.056  0.0390  0.3083 -0.4740
  122MPD2    C2 1861   4.146   2.247  13.971  0.3637 -0.1962 -0.0137
  122MPD2    C3 1862   4.205   2.367  13.945  0.1585 -0.3300  0.7854
  122MPD2    C4 1863   4.317   2.408  14.012 -0.2686 -0.1018 -0.1795
  122MPD2    C5 1864   4.366   2.324  14.104 -0.2073 -0.0745 -1.4953
  122MPD2     H 1865   4.059   2.214  13.916  1.7089 -2.4900 -0.8096
  122MPD2    H1 1866   4.367   2.498  13.977 -1.1251  0.6449  0.5291
  122MPD2    H2 1867   4.348   2.159  14.216 -0.0949 -1.3305  0.4023
  122MPD2    H3 1868   4.449   2.351  14.168 -0.1551 -2.6550 -0.4705
  122MPD2     N 1869   4.154   2.462  13.853  0.0995  0.2904  0.3861
  122MPD2    H5 1870   4.204   2.550  13.856  0.2560  0.2610 -1.8321
  122MPD2    N1 1871   4.148   2.025  14.085  0.3534  0.0372 -0.3332
  122MPD2    H7 1872   4.051   2.012  14.062  0.2526  0.8575 -0.3709
  123MPD2     C 1873   2.136   0.184  10.330 -1.2526  0.1847  0.3765
  123MPD2    C1 1874   2.069   0.149  10.212  0.7176  0.0402  0.5520
  123MPD2    C2 1875   2.134   0.158  10.085 -0.0135  0.3875  0.1969
  123MPD2    C3 1876   2.266   0.197  10.084  0.6676 -0.4484  0.2878
  123MPD2    C4 1877   2.332   0.212  10.205 -0.6819  0.2616  0.1214
  123MPD2    C5 1878   2.271   0.218  10.325 -0.1849 -0.5545 -0.1555
  123MPD2     H 1879   2.088   0.128   9.992  2.2561 -0.9821 -0.4768
  123MPD2    H1 1880   2.437   0.238  10.202  0.1508 -3.1889 -0.6805
  123MPD2    H2 1881   2.094   0.185  10.429  0.6994 -1.9290  1.2249
  123MPD2    H3 1882   2.321   0.236  10.419  1.3517 -0.3972 -1.0198
  123MPD2     N 1883   2.326   0.215   9.960  0.2284 -0.2455 -0.3267
  123MPD2    H5 1884   2.271   0.183   9.880 -1.0721  1.4759 -0.1349
  123MPD2    N1 1885   1.940   0.091  10.227 -0.3152 -0.2525  0.1564
  123MPD2    H7 1886   1.912   0.063  10.321 -1.1715 -0.2134 -0.0907
  124TCq2    C1 1887   2.457   0.247   9.934  0.6058  0.1801 -0.0529
  124TCq2    O2 1888   2.548   0.284  10.007 -0.6685 -0.4617 -0.5960
  124TCq2    C2 1889   2.480   0.276   9.791  0.2764  0.0741  0.5098
  124TCq2    C3 1890   2.600   0.246   9.741 -0.1227 -0.0582 -0.0128
  124TCq2    C4 1891   2.619   0.225   9.612 -0.1906  0.1446  0.9640
  124TCq2    C5 1892   2.520   0.233   9.519  0.8964 -0.5116  0.2353
  124TCq2    C6 1893   2.392   0.256   9.573  0.2320  0.0762  0.4318
  124TCq2    C7 1894   2.377   0.287   9.705  0.3621 -0.1946 -0.0600
  124TCq2    C8 1895   2.272   0.241   9.498 -0.5573  0.2077 -0.0186
  124TCq2    O4 1896   2.169   0.261   9.556  0.0961  0.0158 -0.1500
  124TCq2    C9 1897   2.763   0.204   9.569 -0.2628  0.4740  0.0218
  124TCq2    O5 1898   2.766   0.134   9.465  0.4671  0.6523  0.6122
  124TCq2    O6 1899   2.834   0.189   9.670  0.3601  0.2032  0.5254
  124TCq2    H2 1900   2.684   0.251   9.809  1.3097  3.5906 -2.0762
  124TCq2    H3 1901   2.531   0.208   9.414 -1.3220 -0.2005 -0.0757
  124TCq2    H4 1902   2.278   0.305   9.744  0.9199  1.3333  0.6592
  125TMC2    C1 1903   3.900   2.975   8.261  0.0255  0.1301 -0.1763
  125TMC2    C2 1904   4.015   2.917   8.238  0.3839 -0.3752 -0.3930
  125TMC2    C3 1905   4.086   2.855   8.340  0.0226  0.3567  0.0493
  125TMC2    C4 1906   3.840   2.971   8.385 -0.3138  0.1054  0.3516
  125TMC2    C5 1907   3.913   2.907   8.486 -0.0199 -0.7146  0.0486
  125TMC2    C6 1908   4.038   2.856   8.470  0.3671 -0.4435  0.0980
  125TMC2     C 1909   3.840   3.048   8.150 -0.0167 -0.8573 -0.2293
  125TMC2     O 1910   3.887   3.029   8.040 -0.2889 -0.0409  0.0174
  125TMC2     H 1911   4.057   2.928   8.139 -1.4069  1.2116 -0.9870
  125TMC2    H1 1912   3.750   3.022   8.418 -0.1182  0.4191  0.4014
  125TMC2    H2 1913   4.102   2.830   8.553 -0.3390  2.4696  1.5305
  125TMC2    C7 1914   3.844   2.883   8.612 -0.1246 -0.0424  0.0097
  125TMC2    C8 1915   4.230   2.863   8.345 -0.4102 -0.0815 -0.0351
  125TMC2    O1 1916   3.742   2.954   8.632 -0.0871  0.5210 -0.3180
  125TMC2    O2 1917   4.294   2.940   8.420  0.3633  0.1430 -0.1578
  125TMC2    O5 1918   4.270   2.816   8.226  0.2295  0.2369 -0.5535
  125TMC2    H5 1919   4.206   2.756   8.181 -0.2533 -0.1902  0.6966
  126MPD1     C 1920   3.379   3.204   7.975 -0.8652  0.0059  0.4385
  126MPD1    C1 1921   3.378   3.210   8.110 -0.4995  0.2042  0.0523
  126MPD1    C2 1922   3.490   3.159   8.181  0.1671 -0.2893 -1.0889
  126MPD1    C3 1923   3.600   3.116   8.109 -0.1012  0.2311  0.1893
  126MPD1    C4 1924   3.608   3.139   7.977 -0.3145  0.0261 -0.4703
  126MPD1    C5 1925   3.493   3.173   7.908  0.2497  0.3892 -0.3362
  126MPD1     H 1926   3.480   3.143   8.288 -1.6518 -2.9116 -1.6542
  126MPD1    H1 1927   3.693   3.118   7.913 -0.7391 -0.9957 -0.7062
  126MPD1    H2 1928   3.292   3.207   7.910 -1.1091 -1.6015  0.7030
  126MPD1    H3 1929   3.491   3.175   7.800  1.5759  0.5149 -0.3608
  126MPD1     N 1930   3.717   3.080   8.189  0.4788 -0.0677 -0.7407
  126MPD1    H5 1931   3.691   3.059   8.285  0.7060 -1.7950 -1.0544
  126MPD1    N1 1932   3.248   3.227   8.168  0.0341  0.1961 -0.2058
  126MPD1    H6 1933   3.200   3.307   8.128  0.7225  0.6994 -0.0284
  126MPD1    H7 1934   3.253   3.257   8.265  2.0807 -1.7882  0.3244
  127MPD2     C 1935   0.035   1.207   9.764  0.2494  0.4365  1.1246
  127MPD2    C1 1936   0.015   1.208   9.896  0.4520 -0.1164  0.2931
  127MPD2    C2 1937   0.018   1.334   9.960 -0.0227  0.0258  0.2998
  127MPD2    C3 1938   0.041   1.453   9.889 -0.4052  0.2935  0.3399
  127MPD2    C4 1939   0.059   1.447   9.751  0.9927 -0.6115  0.2031
  127MPD2    C5 1940   0.059   1.323   9.691 -0.2098  0.4660  0.2284
  127MPD2     H 1941   4.720   1.332  10.066 -2.7297 -0.5120 -0.3646
  127MPD2    H1 1942   0.069   1.535   9.688  1.3089 -1.6948 -1.2534
  127MPD2    H2 1943   0.027   1.119   9.702 -1.3161  0.6962  0.9516
  127MPD2    H3 1944   0.095   1.316   9.589  0.2576  0.0787  0.4241
  127MPD2     N 1945   0.049   1.569   9.974 -0.0568  0.0247 -0.2166
  127MPD2    H5 1946   0.019   1.561  10.071 -0.9768  0.6536 -0.4537
  127MPD2    N1 1947   4.719   1.079   9.959  0.4049  0.0868 -0.0882
  127MPD2    H7 1948   4.712   1.006   9.889 -0.7891 -2.1521  2.3742
  128TCq2    C1 1949   4.704   1.063  10.095  0.0637 -0.6521 -0.5678
  128TCq2    O2 1950   0.002   1.137  10.188  0.5278  0.0550  0.2189
  128TCq2    C2 1951   4.670   0.924  10.136 -0.3594  0.1538  0.2121
  128TCq2    C3 1952   4.721   0.885  10.255  0.7511  0.2312  0.0937
  128TCq2    C4 1953   4.667   0.770  10.304  0.2188  0.2335  0.3364
  128TCq2    C5 1954   4.574   0.701  10.233  0.4194  0.2620 -0.3535
  128TCq2    C6 1955   4.521   0.754  10.117 -0.5685 -0.6057  0.2003
  128TCq2    C7 1956   4.573   0.860  10.066 -0.5499 -0.1304  0.0069
  128TCq2    C8 1957   4.373   0.743  10.101 -0.5071 -0.0576  0.1844
  128TCq2    O4 1958   4.322   0.760   9.986 -0.7692 -0.3659 -0.1080
  128TCq2    C9 1959   4.714   0.704  10.426  0.1784  0.0448  0.0126
  128TCq2    O5 1960   4.642   0.611  10.476 -0.4337  0.0836 -0.2101
  128TCq2    O6 1961   0.075   0.769  10.486 -0.3684 -0.0916 -0.1427
  128TCq2    H2 1962   0.070   0.945  10.304  1.2749 -0.7183  0.4387
  128TCq2    H3 1963   4.535   0.609  10.277 -0.9042  0.2990 -1.4565
  128TCq2    H4 1964   4.514   0.911   9.991  0.1994  2.1407  0.9563
  129MPD2     C 1965   2.792   2.210   0.823 -0.0904 -0.0598 -0.0639
  129MPD2    C1 1966   2.866   2.209   0.941 -0.5911  0.0077 -0.2049
  129MPD2    C2 1967   3.004   2.239   0.944  0.2983  0.0078  0.0564
  129MPD2    C3 1968   3.067   2.272   0.823  0.0831  0.5321 -0.1373
  129MPD2    C4 1969   2.995   2.287   0.712 -0.9159 -0.4920 -0.2373
  129MPD2    C5 1970   2.858   2.251   0.710  0.0313 -1.0612 -0.8223
  129MPD2     H 1971   3.057   2.236   1.039 -1.3011  1.5634  0.9965
  129MPD2    H1 1972   3.023   2.318   0.612 -0.2957 -1.5793 -0.3986
  129MPD2    H2 1973   2.688   2.182   0.809 -0.6251  1.8735 -0.0839
  129MPD2    H3 1974   2.802   2.251   0.617 -0.1960  0.2707 -0.6935
  129MPD2     N 1975   3.203   2.315   0.814 -0.3726 -0.3996  0.7898
  129MPD2    H5 1976   3.243   2.328   0.722  1.8912  1.5589  2.0233
  129MPD2    N1 1977   2.816   2.167   1.068  0.3045 -0.4312 -0.6772
  129MPD2    H7 1978   2.887   2.148   1.138 -0.3429 -1.4690 -0.2864
  130TCq2    C1 1979   2.689   2.117   1.095 -0.4806  0.3363  0.4804
  130TCq2    O2 1980   2.594   2.120   1.022 -0.2298  0.2916  0.6874
  130TCq2    C2 1981   2.684   2.050   1.225  0.3188  0.4684  0.7309
  130TCq2    C3 1982   2.792   2.057   1.312  0.1594 -0.2851 -0.0456
  130TCq2    C4 1983   2.783   2.006   1.442  0.0415  0.9035  0.0555
  130TCq2    C5 1984   2.665   1.956   1.493 -0.1011 -0.1804  0.3973
  130TCq2    C6 1985   2.563   1.950   1.400  0.8386  0.5206 -0.0152
  130TCq2    C7 1986   2.569   1.993   1.271 -0.3850  0.9921 -0.4120
  130TCq2    C8 1987   2.436   1.876   1.430  0.7478  0.2111  0.7249
  130TCq2    O4 1988   2.355   1.857   1.344  0.2403  0.3128 -0.4350
  130TCq2    C9 1989   2.895   2.020   1.538 -0.2652  0.5646  0.0967
  130TCq2    O5 1990   2.883   1.993   1.664 -0.6424  0.3039  0.1633
  130TCq2    O6 1991   3.005   2.048   1.478  0.1604  0.2268 -0.0216
  130TCq2    H2 1992   2.883   2.111   1.289  0.2712 -0.6801 -0.5380
  130TCq2    H3 1993   2.675   1.915   1.593 -0.4205  1.3914  1.0789
  130TCq2    H4 1994   2.490   1.982   1.197 -1.0471  0.0152  0.4417
  131MPD2     C 1995   1.107   4.710   9.621  0.3634  1.0184 -0.6972
  131MPD2    C1 1996   1.214   0.071   9.623 -0.3470 -0.0234 -0.1028
  131MPD2    C2 1997   1.315   0.053   9.713 -0.5843 -0.0620 -0.0228
  131MPD2    C3 1998   1.315   4.686   9.814  0.0400  0.4003 -0.8897
  131MPD2    C4 1999   1.203   4.607   9.821  0.1747 -0.7771 -0.6828
  131MPD2    C5 2000   1.111   4.614   9.719  0.3209  0.8915  0.3577
  131MPD2     H 2001   1.400   0.120   9.707  1.7798 -3.0924 -0.2716
  131MPD2    H1 2002   1.204   4.522   9.888  0.3043 -0.3018 -0.0792
  131MPD2    H2 2003   1.028   4.710   9.546  0.3145 -0.4808 -0.6443
  131MPD2    H3 2004   1.036   4.536   9.708  0.1644  1.1180 -0.2522
  131MPD2     N 2005   1.419   4.681   9.908  0.8330 -0.0497 -0.2741
  131MPD2    H5 2006   1.491   0.025   9.897  0.6172  0.2206  0.0861
  131MPD2    N1 2007   1.214   0.159   9.516 -0.4585  0.5913  0.6606
  131MPD2    H7 2008   1.133   0.165   9.456 -0.1452 -0.0090  0.1872
  132TCq2    C1 2009   1.380   0.665   9.263  0.0038  0.1467 -0.2602
  132TCq2    O2 2010   1.352   0.758   9.190 -0.0682 -0.3181  0.2004
  132TCq2    C2 2011   1.291   0.554   9.286  0.1945 -0.2085 -0.4727
  132TCq2    C3 2012   1.160   0.570   9.254  0.3000  0.0966  0.0785
  132TCq2    C4 2013   1.076   0.461   9.284  0.4821 -0.3284  0.2066
  132TCq2    C5 2014   1.122   0.356   9.356 -0.5123  0.2889 -0.4750
  132TCq2    C6 2015   1.257   0.346   9.390 -0.1999  0.0826  0.6395
  132TCq2    C7 2016   1.332   0.451   9.365  0.1880 -0.4113  0.2146
  132TCq2    C8 2017   1.310   0.251   9.492  0.2749  0.3577  0.3303
  132TCq2    O4 2018   1.408   0.287   9.559 -0.5276  0.4272  0.3628
  132TCq2    C9 2019   0.941   0.461   9.232  0.4140 -0.3582  0.0647
  132TCq2    O5 2020   0.883   0.348   9.244  0.9590 -0.2993  0.2768
  132TCq2    O6 2021   0.894   0.567   9.178  0.0699  0.0135 -0.2202
  132TCq2    H2 2022   1.120   0.643   9.185 -0.7410 -2.1900 -1.7569
  132TCq2    H3 2023   1.054   0.273   9.369 -2.2341  2.0594  1.6085
  132TCq2    H4 2024   1.438   0.443   9.388  0.3435 -0.3438 -0.4636
  133MPD2     C 2025   1.042   2.236   9.232  0.0220  0.4126  0.6030
  133MPD2    C1 2026   1.121   2.121   9.238  0.2551 -0.1284  0.3327
  133MPD2    C2 2027   1.076   2.006   9.183  0.1918 -0.3132  0.3579
  133MPD2    C3 2028   0.947   2.004   9.131  0.6945 -0.2255 -0.2072
  133MPD2    C4 2029   0.868   2.116   9.130  0.5388 -0.4846 -0.6976
  133MPD2    C5 2030   0.914   2.227   9.185  0.2887  0.3776 -0.1622
  133MPD2     H 2031   1.136   1.916   9.186 -0.9519 -1.1804 -2.5665
  133MPD2    H1 2032   0.766   2.129   9.095 -0.8757 -2.7208  2.5760
  133MPD2    H2 2033   1.081   2.329   9.272 -0.7266  1.5016 -1.1997
  133MPD2    H3 2034   0.848   2.313   9.191  0.5116  0.5870 -0.7842
  133MPD2     N 2035   0.880   1.883   9.086  0.1082  0.1691 -0.2476
  133MPD2    H5 2036   0.786   1.891   9.049 -0.1534 -4.3167 -0.5533
  133MPD2    N1 2037   1.252   2.140   9.292 -0.4176  0.3706  0.1802
  133MPD2    H7 2038   1.268   2.228   9.341 -0.6055  0.9222 -0.7589
  134TCq2    C1 2039   1.366   2.060   9.262  0.2835  0.4226  0.9846
  134TCq2    O2 2040   1.383   1.953   9.205 -0.4506 -0.3119 -0.1894
  134TCq2    C2 2041   1.486   2.117   9.331 -0.4918  0.6433  0.3036
  134TCq2    C3 2042   1.583   2.028   9.361 -0.3121 -0.3903  0.4965
  134TCq2    C4 2043   1.699   2.070   9.416 -0.1377  0.3584  0.0251
  134TCq2    C5 2044   1.707   2.201   9.450 -0.2170  0.3520 -0.1327
  134TCq2    C6 2045   1.599   2.287   9.434 -0.0914 -0.0162 -0.2384
  134TCq2    C7 2046   1.490   2.244   9.366 -0.3717 -0.0834  0.2566
  134TCq2    C8 2047   1.595   2.412   9.502  1.0084 -0.5361  0.4037
  134TCq2    O4 2048   1.493   2.476   9.475 -0.3889  0.7645 -0.1945
  134TCq2    C9 2049   1.808   1.981   9.440  0.4129  0.1956 -0.8315
  134TCq2    O5 2050   1.804   1.865   9.394 -0.1557 -0.0493 -0.9985
  134TCq2    O6 2051   1.913   2.031   9.491  0.0231 -0.4137  0.6494
  134TCq2    H2 2052   1.581   1.927   9.322 -1.2384  0.4018 -1.5048
  134TCq2    H3 2053   1.805   2.230   9.485  0.2076 -2.6533  1.1116
  134TCq2    H4 2054   1.420   2.311   9.318  1.2479  1.1918 -0.3492
  135MPD2     C 2055   3.445   2.910   9.514 -0.2760 -0.4278  0.4570
  135MPD2    C1 2056   3.513   2.792   9.543 -0.2814  0.6761  0.0345
  135MPD2    C2 2057   3.624   2.774   9.466  0.5670 -0.3476  0.0841
  135MPD2    C3 2058   3.661   2.857   9.359 -0.1371 -0.6595  0.3887
  135MPD2    C4 2059   3.585   2.969   9.329  0.5580  0.5278 -0.7705
  135MPD2    C5 2060   3.478   3.001   9.411 -0.4503 -0.7050 -1.0987
  135MPD2     H 2061   3.676   2.680   9.485  1.4142 -0.2175 -1.5800
  135MPD2    H1 2062   3.615   3.045   9.258 -0.9670  0.7687 -1.1420
  135MPD2    H2 2063   3.350   2.926   9.563  0.2149  1.1182  0.9198
  135MPD2    H3 2064   3.419   3.090   9.392  2.0782  0.9284 -1.3089
  135MPD2     N 2065   3.780   2.845   9.280  0.5148 -0.4705 -0.0291
  135MPD2    H5 2066   3.805   2.917   9.213 -0.8507  1.6026  1.6853
  135MPD2    N1 2067   3.486   2.691   9.635 -0.1887 -0.4538  0.3743
  135MPD2    H7 2068   3.548   2.610   9.637  0.5901  0.1314  0.1609
  136TCq2    C1 2069   3.381   2.693   9.723 -0.3265  0.5323 -0.7577
  136TCq2    O2 2070   3.293   2.779   9.749 -0.1733  0.1523 -0.6837
  136TCq2    C2 2071   3.367   2.562   9.782 -0.1351  0.3912 -0.2254
  136TCq2    C3 2072   3.352   2.555   9.918  0.0281  0.4547 -0.0020
  136TCq2    C4 2073   3.362   2.434   9.982 -0.3989  0.4772 -0.1749
  136TCq2    C5 2074   3.404   2.324   9.910 -0.0903  0.9067  0.5389
  136TCq2    C6 2075   3.426   2.334   9.770  0.1867  0.2640  0.1167
  136TCq2    C7 2076   3.394   2.453   9.709 -0.3611 -0.3724 -0.7339
  136TCq2    C8 2077   3.392   2.208   9.697  0.5697  1.2823 -0.6381
  136TCq2    O4 2078   3.423   2.204   9.579 -0.3905  0.2561 -0.6752
  136TCq2    C9 2079   3.358   2.423  10.125  0.2956 -0.8103 -0.1614
  136TCq2    O5 2080   3.384   2.310  10.175 -0.1820 -0.1663 -0.0154
  136TCq2    O6 2081   3.303   2.516  10.191  0.6974 -0.0379 -0.1734
  136TCq2    H2 2082   3.331   2.643   9.978 -2.4901  1.6939 -2.6988
  136TCq2    H3 2083   3.421   2.230   9.962  0.8734  1.8518  1.9380
  136TCq2    H4 2084   3.402   2.466   9.602 -3.2487  1.6184 -0.7227
  137MPD2     C 2085   3.638   0.742   9.105  0.4805  0.2029  0.1098
  137MPD2    C1 2086   3.535   0.743   9.189 -0.2862  0.4014  0.4751
  137MPD2    C2 2087   3.554   0.807   9.315  0.7691 -0.0419  0.7634
  137MPD2    C3 2088   3.676   0.882   9.339 -0.8085 -0.6861 -0.4475
  137MPD2    C4 2089   3.783   0.861   9.253 -0.1674  0.4107  0.3776
  137MPD2    C5 2090   3.768   0.794   9.131 -0.3378 -0.0641  0.3296
  137MPD2     H 2091   3.474   0.817   9.387 -0.5138 -0.2026 -0.6628
  137MPD2    H1 2092   3.881   0.902   9.278 -1.1746  3.8294 -1.2236
  137MPD2    H2 2093   3.618   0.684   9.016 -0.3213 -1.3207  1.2901
  137MPD2    H3 2094   3.851   0.781   9.063 -1.0156  1.8909 -0.8846
  137MPD2     N 2095   3.689   0.952   9.466  0.2155  0.5139  0.2770
  137MPD2    H5 2096   3.612   0.947   9.532  0.0232 -2.9316 -0.1721
  137MPD2    N1 2097   3.414   0.683   9.148 -1.2643 -0.1861  1.0007
  137MPD2    H7 2098   3.420   0.633   9.060  1.6541  3.6146 -0.9515
  138TCq2    C1 2099   3.309   0.665   9.234 -0.3611  0.1996 -0.1847
  138TCq2    O2 2100   3.280   0.732   9.327 -0.4200  0.5887 -0.0168
  138TCq2    C2 2101   3.201   0.578   9.189  0.0105  0.2856 -0.1632
  138TCq2    C3 2102   3.239   0.483   9.100  0.1578  0.2127 -0.1708
  138TCq2    C4 2103   3.143   0.405   9.042  0.4186 -0.0736 -0.3810
  138TCq2    C5 2104   3.012   0.420   9.080  0.4943 -0.0529 -0.2913
  138TCq2    C6 2105   2.978   0.507   9.175 -0.1733 -0.3473  0.6689
  138TCq2    C7 2106   3.075   0.589   9.230  0.2960  0.4773 -0.2238
  138TCq2    C8 2107   2.848   0.529   9.216  0.6473  0.5060  0.4686
  138TCq2    O4 2108   2.830   0.563   9.333  0.4741  0.6166 -0.2997
  138TCq2    C9 2109   3.178   0.338   8.924  0.2847  0.3306  0.4400
  138TCq2    O5 2110   3.105   0.251   8.866  0.2451  0.0564 -0.1980
  138TCq2    O6 2111   3.284   0.381   8.865  0.1473  0.3040  0.2525
  138TCq2    H2 2112   3.341   0.456   9.075  0.8753  1.0245  1.9667
  138TCq2    H3 2113   2.948   0.346   9.031 -0.8624  0.7454  0.2740
  138TCq2    H4 2114   3.058   0.657   9.312  0.6338  0.2697  0.0172
  139TMC2    C1 2115   3.824   0.249  13.074  0.6323 -0.1821  0.3838
  139TMC2    C2 2116   3.848   0.342  12.967 -0.0730  0.0703  0.3833
  139TMC2    C3 2117   3.824   0.472  12.997 -0.3382 -0.8776 -0.1672
  139TMC2    C4 2118   3.769   0.300  13.194  0.1692 -1.1615  0.4049
  139TMC2    C5 2119   3.746   0.432  13.212  0.1871  0.3098 -0.0919
  139TMC2    C6 2120   3.770   0.518  13.115 -0.4253  0.1529  0.1132
  139TMC2     C 2121   3.906   0.128  13.079  0.7298  0.0950  1.0906
  139TMC2     O 2122   3.952   0.086  12.975 -0.0948  0.7490 -0.6121
  139TMC2     H 2123   3.887   0.308  12.872 -2.0821 -0.1193 -0.3706
  139TMC2    H1 2124   3.751   0.224  13.268 -2.8917  1.0958  1.9945
  139TMC2    H2 2125   3.733   0.620  13.118 -2.0152 -0.4346  0.4686
  139TMC2    C7 2126   3.655   0.474  13.313  0.2977 -0.4777  0.1235
  139TMC2    C8 2127   3.828   0.566  12.885  0.4195 -0.3222 -0.2275
  139TMC2    O1 2128   3.578   0.562  13.272  0.5970 -0.1173 -0.3211
  139TMC2    O2 2129   3.818   0.512  12.777 -0.0428 -0.2691  0.2466
  139TMC2    O5 2130   3.915   0.664  12.919 -0.0909  0.8347  0.4558
  139TMC2    H5 2131   3.943   0.668  13.013  1.2442  1.0653  0.0509
  140MPD2     C 2132   4.080   4.707  13.376 -0.5989  0.3451 -0.5919
  140MPD2    C1 2133   4.033   4.718  13.246  0.0271 -0.1234 -0.2900
  140MPD2    C2 2134   4.087   4.619  13.154 -0.1981  0.7499  0.0463
  140MPD2    C3 2135   4.170   4.515  13.197 -0.2185  0.2945  0.2105
  140MPD2    C4 2136   4.211   4.517  13.330 -0.7401 -0.4441  0.0754
  140MPD2    C5 2137   4.163   4.612  13.416  0.9763 -0.1616  0.0026
  140MPD2     H 2138   4.040   4.606  13.057 -0.9592 -0.1450  0.5385
  140MPD2    H1 2139   4.278   4.439  13.366 -1.2838 -0.2094  1.5517
  140MPD2    H2 2140   4.057   0.058  13.448 -0.7941  1.4506 -1.8510
  140MPD2    H3 2141   4.200   4.616  13.518  0.9385  0.9720 -0.0253
  140MPD2     N 2142   4.200   4.411  13.110  0.6187 -0.7375 -0.2446
  140MPD2    H5 2143   4.153   4.417  13.020  0.8107 -0.6259 -0.3371
  140MPD2    N1 2144   3.949   0.099  13.212 -0.4179  0.2097  0.0802
  140MPD2    H7 2145   3.915   0.152  13.292  0.8912 -1.9616  2.0915
  141TCq2    C1 2146   4.181   1.423  13.739 -0.2815 -0.0098 -0.1455
  141TCq2    O2 2147   4.240   1.524  13.700  0.0529  0.0882  0.5235
  141TCq2    C2 2148   4.185   1.392  13.877  0.0564  0.0827  0.9272
  141TCq2    C3 2149   4.127   1.282  13.929 -0.2942 -0.6124  0.7749
  141TCq2    C4 2150   4.135   1.271  14.066 -0.1071 -0.1352  0.2363
  141TCq2    C5 2151   4.220   1.347  14.144  0.5153  0.0708 -0.0770
  141TCq2    C6 2152   4.279   1.456  14.082  0.8615 -0.2844  0.5165
  141TCq2    C7 2153   4.256   1.484  13.950  0.0316  0.2889 -0.5112
  141TCq2    C8 2154   4.379   1.531  14.164 -0.0494  0.8241 -0.1296
  141TCq2    O4 2155   4.423   1.630  14.107 -0.2762  0.1679 -0.4485
  141TCq2    C9 2156   4.079   1.158  14.132 -0.2132 -0.1898 -0.8930
  141TCq2    O5 2157   4.088   1.153  14.253 -0.2503 -0.6080 -0.7684
  141TCq2    O6 2158   4.000   1.082  14.066  0.0113  0.0274 -0.2491
  141TCq2    H2 2159   4.062   1.211  13.880 -1.8058  0.5858  1.0396
  141TCq2    H3 2160   4.247   1.315  14.243 -0.2952  2.2497  0.8541
  141TCq2    H4 2161   4.309   1.570  13.911  1.9017 -1.4550 -1.8086
  142MPD2     C 2162   1.532   4.129   9.978 -0.8176 -0.0799 -0.6263
  142MPD2    C1 2163   1.455   4.105   9.858 -0.0789 -0.0909 -0.1185
  142MPD2    C2 2164   1.465   4.196   9.754  0.3016 -0.8311  0.5515
  142MPD2    C3 2165   1.532   4.315   9.767 -0.1121 -0.0502 -0.1616
  142MPD2    C4 2166   1.603   4.338   9.885 -0.3698 -0.2674  0.6684
  142MPD2    C5 2167   1.601   4.245   9.986 -0.4005 -0.3568  0.5891
  142MPD2     H 2168   1.407   4.183   9.664  1.0228 -1.7723  0.2168
  142MPD2    H1 2169   1.665   4.427   9.891 -0.9604  0.3532 -2.1436
  142MPD2    H2 2170   1.517   4.069  10.066  3.6706  0.1842  0.3453
  142MPD2    H3 2171   1.641   4.260  10.086  0.8798  2.1308 -0.2863
  142MPD2     N 2172   1.534   4.421   9.677 -1.0045 -0.0368  0.0890
  142MPD2    H5 2173   1.587   4.503   9.706  1.6980 -1.9309  0.4812
  142MPD2    N1 2174   1.366   3.991   9.874 -0.0764  0.2013 -0.1019
  142MPD2    H7 2175   1.375   3.932   9.956  3.0595  0.1035 -0.4991
  143TCq2    C1 2176   1.473   4.422   9.558  0.6034  0.2810 -0.2085
  143TCq2    O2 2177   1.398   4.342   9.490 -0.1937 -0.6215  0.2716
  143TCq2    C2 2178   1.504   4.545   9.478 -0.2295 -0.3267 -0.4282
  143TCq2    C3 2179   1.418   4.579   9.374 -0.3326 -0.4202 -0.2723
  143TCq2    C4 2180   1.459   4.670   9.283  0.3683 -0.4594  0.2134
  143TCq2    C5 2181   1.581   4.725   9.286  0.3724 -0.9959 -0.0321
  143TCq2    C6 2182   1.669   4.693   9.381 -0.2163 -0.2731  0.4231
  143TCq2    C7 2183   1.631   4.602   9.477 -0.0142  0.5739  0.1527
  143TCq2    C8 2184   1.809   4.724   9.372 -0.0893  0.2681  0.4577
  143TCq2    O4 2185   1.881   4.699   9.464 -0.3878 -0.0009  0.2061
  143TCq2    C9 2186   1.368   4.704   9.177 -0.1652 -0.3187 -0.0254
  143TCq2    O5 2187   1.259   4.642   9.174 -0.6523 -0.3315 -0.2168
  143TCq2    O6 2188   1.404   0.077   9.100  0.3943  0.0123  0.5880
  143TCq2    H2 2189   1.325   4.524   9.357  0.7673 -2.5665  0.6190
  143TCq2    H3 2190   1.599   0.059   9.198 -0.5675 -1.6516 -0.6885
  143TCq2    H4 2191   1.715   4.563   9.533  0.2438  1.1329  0.1570
  144MPD2     C 2192   0.475   3.753   0.756  0.4545  0.5104  0.1415
  144MPD2    C1 2193   0.531   3.671   0.661 -0.1591 -0.3280 -0.6808
  144MPD2    C2 2194   0.669   3.669   0.661  0.4164 -0.3828 -0.6141
  144MPD2    C3 2195   0.747   3.753   0.742  0.0911  0.1215  0.0639
  144MPD2    C4 2196   0.684   3.827   0.842 -0.3293  1.2804 -0.4595
  144MPD2    C5 2197   0.549   3.819   0.845 -0.2231 -0.6491 -0.2788
  144MPD2     H 2198   0.716   3.613   0.581  1.5171 -0.3186 -0.0092
  144MPD2    H1 2199   0.738   3.894   0.908  3.4475 -2.3829  0.2191
  144MPD2    H2 2200   0.367   3.765   0.763  0.2701 -1.7185  1.1442
  144MPD2    H3 2201   0.492   3.868   0.923  0.3193  0.3614 -0.5145
  144MPD2     N 2202   0.894   3.770   0.737 -0.0480 -0.0900 -0.4344
  144MPD2    H5 2203   0.923   3.856   0.782 -1.6933 -1.2025  2.7101
  144MPD2    N1 2204   0.464   3.609   0.553  0.8110  0.1022  0.3557
  144MPD2    H7 2205   0.527   3.556   0.493  1.7452  1.1580  0.4096
  145TCq2    C1 2206   0.975   3.713   0.646 -0.3683  0.6229 -0.6723
  145TCq2    O2 2207   0.944   3.625   0.569  0.0901  0.5353  0.0443
  145TCq2    C2 2208   1.110   3.779   0.629  0.5767 -0.0265  0.4054
  145TCq2    C3 2209   1.176   3.726   0.523 -0.1606  0.2061  0.4751
  145TCq2    C4 2210   1.301   3.782   0.499 -0.3771 -1.1864 -0.0607
  145TCq2    C5 2211   1.346   3.896   0.562 -0.1947 -0.2589 -0.6260
  145TCq2    C6 2212   1.268   3.948   0.656 -0.0161  1.5549  0.4346
  145TCq2    C7 2213   1.144   3.899   0.692 -0.0750  0.2669 -0.2751
  145TCq2    C8 2214   1.330   4.049   0.739 -0.6293 -0.1137 -0.0410
  145TCq2    O4 2215   1.452   4.049   0.763 -0.0150  0.4558 -0.1594
  145TCq2    C9 2216   1.387   3.728   0.397  1.0929  1.1277 -0.0383
  145TCq2    O5 2217   1.347   3.626   0.336 -0.7008 -0.5008 -0.3492
  145TCq2    O6 2218   1.507   3.771   0.389 -0.3340  0.3133 -0.1380
  145TCq2    H2 2219   1.150   3.632   0.476  1.0227 -0.0223  0.2726
  145TCq2    H3 2220   1.445   3.931   0.535 -0.3257  0.9327  0.4641
  145TCq2    H4 2221   1.094   3.944   0.777 -0.3606 -1.0724  0.2697
  146TMC2    C1 2222   0.778   2.030  12.644 -0.5061  0.1282 -0.5271
  146TMC2    C2 2223   0.658   2.003  12.587  0.3240  0.2978 -0.1999
  146TMC2    C3 2224   0.653   1.957  12.457  0.4183  0.0811  0.1562
  146TMC2    C4 2225   0.895   2.030  12.564 -0.4394 -0.6458  0.2647
  146TMC2    C5 2226   0.885   1.974  12.440 -0.2438  0.2340 -0.7129
  146TMC2    C6 2227   0.767   1.940  12.389 -0.5465  0.3154  0.5295
  146TMC2     C 2228   0.780   2.107  12.772  0.4907  0.2933 -0.4405
  146TMC2     O 2229   0.678   2.174  12.791  0.0034 -0.2302  0.2157
  146TMC2     H 2230   0.569   1.991  12.647  1.0140 -0.5657  0.6375
  146TMC2    H1 2231   0.978   2.088  12.603 -0.7722 -1.0138  1.5259
  146TMC2    H2 2232   0.762   1.899  12.289 -0.4047  1.2430  0.1364
  146TMC2    C7 2233   0.998   1.982  12.354  0.3355  0.2058 -0.4499
  146TMC2    C8 2234   0.530   1.891  12.409 -0.3143 -0.0102  0.3369
  146TMC2    O1 2235   0.976   1.961  12.236  0.1328 -0.4063 -0.1765
  146TMC2    O2 2236   0.524   1.774  12.379 -0.1595 -0.0299 -0.2227
  146TMC2    O5 2237   0.427   1.957  12.469 -0.0609  0.1792  0.1382
  146TMC2    H5 2238   0.439   2.054  12.478  2.2525 -0.3350  2.7580
  147MPD2     C 2239   1.473   2.136  12.254  0.1115 -0.0787  0.4868
  147MPD2    C1 2240   1.461   2.125  12.394 -0.0182 -0.0064 -0.6203
  147MPD2    C2 2241   1.337   2.081  12.443 -0.0839  0.3023 -0.5983
  147MPD2    C3 2242   1.235   2.053  12.358  0.7054  0.4144  0.0174
  147MPD2    C4 2243   1.250   2.070  12.220  0.3670 -0.3370  0.2236
  147MPD2    C5 2244   1.366   2.118  12.170  1.0491  0.6223  0.5383
  147MPD2     H 2245   1.334   2.047  12.546 -0.6184 -0.9938 -1.0409
  147MPD2    H1 2246   1.169   2.046  12.153  2.5618 -1.4828 -2.0213
  147MPD2    H2 2247   1.570   2.159  12.211  0.9930 -1.5443  1.7099
  147MPD2    H3 2248   1.375   2.137  12.064  2.0619 -0.1033  0.4949
  147MPD2     N 2249   1.113   2.013  12.417 -0.5196 -0.0156  0.3303
  147MPD2    H5 2250   1.109   2.020  12.518 -0.6981 -0.7090  0.3677
  147MPD2    N1 2251   1.577   2.137  12.471  0.0180 -0.0934  0.2678
  147MPD2    H7 2252   1.667   2.136  12.424  0.7497 -1.6414  1.6881
  148MPD2     C 2253   1.558   1.569  10.347  1.0799  0.5662  0.6878
  148MPD2    C1 2254   1.600   1.496  10.234 -0.4957  0.1783  0.1300
  148MPD2    C2 2255   1.508   1.429  10.152  0.0985  0.2958 -0.6827
  148MPD2    C3 2256   1.373   1.417  10.193  0.1596  0.0629 -0.2948
  148MPD2    C4 2257   1.333   1.492  10.309 -0.0681 -0.5777 -0.7456
  148MPD2    C5 2258   1.424   1.572  10.375 -0.3599  0.4839 -0.9941
  148MPD2     H 2259   1.538   1.373  10.065 -1.8229  0.3708 -1.3906
  148MPD2    H1 2260   1.230   1.497  10.343 -0.0780  1.4076 -1.0695
  148MPD2    H2 2261   1.622   1.604  10.427  2.6669 -0.1407 -0.2668
  148MPD2    H3 2262   1.391   1.626  10.464 -2.6268 -0.2257 -1.3935
  148MPD2     N 2263   1.290   1.332  10.117  0.1305  0.0337  0.2819
  148MPD2    H5 2264   1.347   1.283  10.048  0.0697  0.1481  0.1504
  148MPD2    N1 2265   1.732   1.471  10.203  0.2708  0.3858 -0.4842
  148MPD2    H7 2266   1.754   1.409  10.125 -1.4118 -3.1303  1.8446
  149TCq2    C1 2267   1.838   1.510  10.280  0.0303 -0.1342 -0.5927
  149TCq2    O2 2268   1.847   1.592  10.372 -0.0072 -0.0823 -0.2450
  149TCq2    C2 2269   1.962   1.435  10.246  0.1528  0.8798  0.4771
  149TCq2    C3 2270   2.082   1.456  10.314  0.0985 -1.2533  0.0569
  149TCq2    C4 2271   2.180   1.364  10.305  0.5845  0.1092  0.5734
  149TCq2    C5 2272   2.163   1.241  10.242  0.6658  0.0603  0.7185
  149TCq2    C6 2273   2.051   1.227  10.172  0.1727  0.1133  0.1566
  149TCq2    C7 2274   1.953   1.323  10.168 -0.3038 -0.2193  0.4650
  149TCq2    C8 2275   2.021   1.105  10.100  0.8481 -0.1399 -0.3137
  149TCq2    O4 2276   1.909   1.108  10.048  0.0257 -0.6965  0.0982
  149TCq2    C9 2277   2.274   1.352  10.415 -0.0993  0.4750 -0.2531
  149TCq2    O5 2278   2.291   1.237  10.467  0.8157 -0.3771  0.3604
  149TCq2    O6 2279   2.314   1.456  10.470 -0.6508  0.2476  0.1118
  149TCq2    H2 2280   2.103   1.531  10.389  2.9095 -2.5438  0.5531
  149TCq2    H3 2281   2.227   1.159  10.272  0.1470 -0.4069  0.5354
  149TCq2    H4 2282   1.860   1.305  10.115 -0.5659  0.6954  0.6160
  150MPD2     C 2283   2.943   0.649  12.220 -0.4896  0.0999 -0.7710
  150MPD2    C1 2284   2.984   0.627  12.091  0.1292 -0.4587  0.2194
  150MPD2    C2 2285   3.108   0.672  12.054 -0.1521 -0.0919  0.6135
  150MPD2    C3 2286   3.192   0.730  12.143  0.1544 -0.6594 -0.5473
  150MPD2    C4 2287   3.150   0.751  12.271  0.0050  0.2242 -0.1382
  150MPD2    C5 2288   3.023   0.718  12.302 -0.6903 -0.0836  0.5009
  150MPD2     H 2289   3.141   0.647  11.954  1.0964  0.5546  0.8709
  150MPD2    H1 2290   3.210   0.799  12.348 -0.9161 -0.7451  1.1639
  150MPD2    H2 2291   2.845   0.615  12.254 -0.3529 -0.0015 -0.4731
  150MPD2    H3 2292   2.983   0.734  12.401 -1.1032 -1.1091  0.5069
  150MPD2     N 2293   3.321   0.762  12.091  0.4188  0.0003  0.6917
  150MPD2    H5 2294   3.343   0.736  11.996  3.1958 -2.2312  1.9364
  150MPD2    N1 2295   2.890   0.562  12.003  0.2875 -0.2844  0.0584
  150MPD2    H7 2296   2.804   0.521  12.041  0.4221  0.2217  0.9000
  151TCq2    C1 2297   3.422   0.820  12.156  0.1168  0.0984 -0.0273
  151TCq2    O2 2298   3.419   0.891  12.253 -0.7504  0.2559  0.6308
  151TCq2    C2 2299   3.554   0.778  12.111 -0.5953 -0.4075  0.8221
  151TCq2    C3 2300   3.571   0.668  12.032  0.5340  0.6940  0.2399
  151TCq2    C4 2301   3.695   0.635  12.001 -0.3630  1.0884 -0.0633
  151TCq2    C5 2302   3.804   0.705  12.041  0.5949 -0.0483  0.6175
  151TCq2    C6 2303   3.785   0.816  12.125 -0.3706 -0.0773  0.6614
  151TCq2    C7 2304   3.660   0.856  12.156 -0.9454 -0.3886  0.2811
  151TCq2    C8 2305   3.887   0.874  12.221 -0.2582  0.7402  0.9797
  151TCq2    O4 2306   3.874   0.994  12.245  0.2720 -0.1543  0.2727
  151TCq2    C9 2307   3.710   0.515  11.924 -0.5580  0.0869 -1.1194
  151TCq2    O5 2308   3.620   0.423  11.929  0.0736  0.4603  0.0872
  151TCq2    O6 2309   3.805   0.508  11.840 -0.0596  0.2729  0.3635
  151TCq2    H2 2310   3.486   0.616  11.990  0.8278  0.4224 -0.0228
  151TCq2    H3 2311   3.900   0.659  12.020  0.1843  0.1457 -1.6662
  151TCq2    H4 2312   3.651   0.931  12.233 -0.1319  1.1384 -1.1322
  152MPD2     C 2313   3.187   0.121  12.529 -0.0010  0.3029  0.0273
  152MPD2    C1 2314   3.168   0.259  12.514  0.1289 -0.0947 -0.1887
  152MPD2    C2 2315   3.039   0.306  12.518  0.0504  0.3012  0.5246
  152MPD2    C3 2316   2.934   0.221  12.533 -0.1700  0.6358 -0.3388
  152MPD2    C4 2317   2.958   0.087  12.544 -0.3262  0.6783 -0.1911
  152MPD2    C5 2318   3.082   0.038  12.549 -0.6735  0.4192  0.1102
  152MPD2     H 2319   3.019   0.410  12.498  1.4999  1.4269  4.7387
  152MPD2    H1 2320   2.879   0.016  12.563 -1.2420  1.5312 -0.8017
  152MPD2    H2 2321   3.286   0.081  12.511  0.1906  1.1258 -0.7773
  152MPD2    H3 2322   3.087   4.659  12.569 -1.3028  0.0637 -1.5999
  152MPD2     N 2323   2.807   0.269  12.520  0.3549  0.3616  0.1863
  152MPD2    H5 2324   2.800   0.370  12.513 -1.5844  0.1365 -1.3013
  152MPD2    N1 2325   3.284   0.340  12.488  0.7030 -0.2403  0.3951
  152MPD2    H7 2326   3.370   0.287  12.478  0.5019 -0.4585 -0.2105
  153TCq2    C1 2327   3.285   0.477  12.489 -0.8235  0.1232  0.0913
  153TCq2    O2 2328   3.200   0.551  12.533  0.0797 -0.1318  0.0975
  153TCq2    C2 2329   3.424   0.526  12.460 -0.3675  0.4068 -0.1521
  153TCq2    C3 2330   3.488   0.451  12.364  0.5704  0.0863 -0.3759
  153TCq2    C4 2331   3.623   0.476  12.364 -0.4909  0.3313 -0.3992
  153TCq2    C5 2332   3.668   0.588  12.429  0.0682 -0.2528 -0.0115
  153TCq2    C6 2333   3.593   0.665  12.513 -0.6871 -0.7548  0.4670
  153TCq2    C7 2334   3.464   0.632  12.527 -0.0863 -0.0303  0.8468
  153TCq2    C8 2335   3.640   0.793  12.551 -0.7320  0.1822  0.4376
  153TCq2    O4 2336   3.553   0.878  12.574  0.0408  0.0933  0.4292
  153TCq2    C9 2337   3.704   0.393  12.282 -0.2564  0.4842  1.0418
  153TCq2    O5 2338   3.645   0.300  12.227  0.3003 -0.4709  0.0795
  153TCq2    O6 2339   3.827   0.411  12.300 -0.1911 -0.3407  0.1658
  153TCq2    H2 2340   3.445   0.362  12.319 -0.5761 -0.7884  2.4587
  153TCq2    H3 2341   3.774   0.606  12.409  0.4437 -0.5258  1.7067
  153TCq2    H4 2342   3.398   0.680  12.598 -0.9447 -1.7159  1.1655
  154MPD2     C 2343   4.415   0.279   0.041 -0.4298 -0.3019  0.1491
  154MPD2    C1 2344   4.497   0.336   0.142  0.1559  0.3162  0.1593
  154MPD2    C2 2345   4.446   0.338   0.271 -0.2552  0.5682 -0.1504
  154MPD2    C3 2346   4.312   0.319   0.295  0.3208 -0.4420  0.6187
  154MPD2    C4 2347   4.228   0.294   0.185  0.1286  0.0240 -0.1632
  154MPD2    C5 2348   4.281   0.268   0.061  0.3739  0.0102 -0.1952
  154MPD2     H 2349   4.501   0.363   0.361  0.7042 -2.3912  0.0568
  154MPD2    H1 2350   4.122   0.274   0.195  0.5286 -2.4054 -0.7332
  154MPD2    H2 2351   4.450   0.281  17.647  0.9636 -1.6239  0.6026
  154MPD2    H3 2352   4.225   0.227  17.687 -0.8769  1.3147  0.0026
  154MPD2     N 2353   4.262   0.317   0.429 -0.4335 -0.2535  0.4089
  154MPD2    H5 2354   4.325   0.336   0.506  0.0903 -0.1562 -0.0409
  154MPD2    N1 2355   4.633   0.362   0.108  0.2294  0.3169  0.2055
  154MPD2    H7 2356   4.661   0.371   0.011  2.6002 -2.7813  0.6153
  155TCq2    C1 2357   4.719   0.411   0.197 -0.2631 -0.6716 -0.2444
  155TCq2    O2 2358   4.711   0.440   0.315 -0.3862 -0.3974 -0.3073
  155TCq2    C2 2359   0.111   0.451   0.120 -0.4717 -0.3778  0.2489
  155TCq2    C3 2360   0.184   0.545   0.180 -0.5997 -0.8033  0.9421
  155TCq2    C4 2361   0.300   0.585   0.115 -0.6479  0.2051  0.3865
  155TCq2    C5 2362   0.342   0.521   0.003  0.2641  0.2382 -0.1331
  155TCq2    C6 2363   0.261   0.423  17.650 -0.2773 -0.6536 -0.1203
  155TCq2    C7 2364   0.147   0.379   0.008  0.8219 -0.2883  0.6045
  155TCq2    C8 2365   0.312   0.330  17.552 -0.3166 -0.2727 -0.2168
  155TCq2    O4 2366   0.280   0.217  17.554 -0.0712  0.4892  0.6268
  155TCq2    C9 2367   0.374   0.692   0.171 -0.2733 -0.5523  0.3508
  155TCq2    O5 2368   0.312   0.778   0.239 -0.3495  0.4081  0.1761
  155TCq2    O6 2369   0.488   0.708   0.124  0.0305  0.6565 -0.0261
  155TCq2    H2 2370   0.146   0.601   0.266 -1.3188 -0.9601  0.7219
  155TCq2    H3 2371   0.435   0.553  17.665 -0.3633  0.8195 -0.9793
  155TCq2    H4 2372   0.098   0.288  17.685 -0.7558  0.2504  1.4976
  156MPD2     C 2373   2.906   2.373  12.440 -0.0300  0.0179 -0.4997
  156MPD2    C1 2374   2.953   2.502  12.428  0.6043  0.8869  0.7922
  156MPD2    C2 2375   3.035   2.551  12.531 -0.3110  0.2401  0.4834
  156MPD2    C3 2376   3.068   2.475  12.640  0.2659  0.3287 -0.5556
  156MPD2    C4 2377   3.011   2.350  12.653  0.3054 -0.1876 -0.1931
  156MPD2    C5 2378   2.924   2.309  12.558 -0.3695  0.9103  0.7015
  156MPD2     H 2379   3.078   2.650  12.524 -1.9618  0.9702  0.5507
  156MPD2    H1 2380   3.033   2.283  12.735 -0.1696  0.8544  0.7765
  156MPD2    H2 2381   2.844   2.329  12.362  0.9783 -0.0304 -1.2689
  156MPD2    H3 2382   2.884   2.210  12.575 -0.6201  1.2873  2.2983
  156MPD2     N 2383   3.149   2.535  12.734  0.3405  0.8807 -0.4409
  156MPD2    H5 2384   3.179   2.630  12.716  2.0260  0.9133  2.5149
  156MPD2    N1 2385   2.929   2.566  12.298  0.0371 -0.4653  0.2204
  156MPD2    H7 2386   2.881   2.505  12.233 -0.0080 -0.4576  0.2469
  157TCq2    C1 2387   2.985   2.682  12.266  0.5333  0.2534  0.2052
  157TCq2    O2 2388   3.058   2.752  12.330 -0.0237 -0.0025 -0.6116
  157TCq2    C2 2389   2.964   2.713  12.130 -0.3180  0.5186 -0.2969
  157TCq2    C3 2390   2.842   2.693  12.081  0.2800  0.0432  0.4917
  157TCq2    C4 2391   2.825   2.711  11.948 -0.1579  0.2080 -0.5439
  157TCq2    C5 2392   2.930   2.748  11.870 -0.0754 -0.3709 -0.7556
  157TCq2    C6 2393   3.047   2.773  11.921  1.1583  0.1558 -0.3490
  157TCq2    C7 2394   3.073   2.750  12.051  0.1774 -0.5329 -0.4278
  157TCq2    C8 2395   3.161   2.789  11.829  1.0839  0.1654 -0.6795
  157TCq2    O4 2396   3.139   2.828  11.721 -0.0546  0.0442 -0.4753
  157TCq2    C9 2397   2.694   2.701  11.887 -0.3990 -0.2414 -0.9216
  157TCq2    O5 2398   2.595   2.730  11.956  0.3347  0.7071 -0.4669
  157TCq2    O6 2399   2.695   2.645  11.768  0.5208  0.0597 -0.3615
  157TCq2    H2 2400   2.755   2.670  12.141  0.3410  3.0152  1.7096
  157TCq2    H3 2401   2.904   2.789  11.773 -0.9042  0.6620 -0.0932
  157TCq2    H4 2402   3.163   2.778  12.104  0.8048 -1.9360 -0.7592
  158TMC2    C1 2403   3.733   1.872  13.388  0.3537 -0.5948  0.5247
  158TMC2    C2 2404   3.766   1.954  13.287  0.0656 -0.7847 -0.6666
  158TMC2    C3 2405   3.728   1.922  13.158 -0.5312  0.5035  0.3668
  158TMC2    C4 2406   3.649   1.758  13.370 -0.1491 -0.4689 -0.2967
  158TMC2    C5 2407   3.602   1.736  13.241 -0.2695  0.4623  0.1486
  158TMC2    C6 2408   3.648   1.814  13.133  0.2735  0.1913 -0.0052
  158TMC2     C 2409   3.797   1.895  13.518 -0.3446  0.0090  0.1998
  158TMC2     O 2410   3.895   1.968  13.534  0.2651  0.1139  0.3170
  158TMC2     H 2411   3.825   2.044  13.302  0.2366 -0.4930 -3.0998
  158TMC2    H1 2412   3.609   1.691  13.445  0.0917 -1.2935 -0.9076
  158TMC2    H2 2413   3.609   1.804  13.033 -0.1626  0.6837  0.1161
  158TMC2    C7 2414   3.477   1.673  13.203  0.3240 -0.1878 -0.5512
  158TMC2    C8 2415   3.744   2.026  13.059  0.1346  0.0710  0.5560
  158TMC2    O1 2416   3.422   1.710  13.102 -0.3475 -0.3421 -0.0779
  158TMC2    O2 2417   3.766   2.145  13.094 -0.8851 -0.7919 -0.1939
  158TMC2    O5 2418   3.765   1.969  12.938 -0.2321  0.4907  0.3306
  158TMC2    H5 2419   3.744   1.873  12.935  1.3917  0.1577 -0.2501
  159MPD2     C 2420   3.930   1.622  13.930  0.3550 -0.2329 -0.2837
  159MPD2    C1 2421   3.795   1.621  13.928  0.5202 -0.2697  0.5409
  159MPD2    C2 2422   3.732   1.692  13.823 -0.0598  0.3552 -0.4269
  159MPD2    C3 2423   3.807   1.762  13.728 -0.0487 -0.0490 -0.3249
  159MPD2    C4 2424   3.942   1.772  13.743 -0.0508  0.3563 -0.1176
  159MPD2    C5 2425   4.000   1.701  13.844  0.1531  0.3016 -0.7202
  159MPD2     H 2426   3.625   1.692  13.810 -0.1903 -0.0205  0.5990
  159MPD2    H1 2427   4.011   1.832  13.685  1.0862 -0.0390  0.8273
  159MPD2    H2 2428   3.980   1.569  14.011  1.5312  2.6184  0.8605
  159MPD2    H3 2429   4.107   1.718  13.851 -0.2851  2.7528 -0.1126
  159MPD2     N 2430   3.737   1.823  13.617  0.4188 -0.7889  0.4068
  159MPD2    H5 2431   3.642   1.789  13.602  0.5542 -0.8383 -0.3255
  159MPD2    N1 2432   3.721   1.539  14.019  0.4580 -0.2081 -0.1010
  159MPD2    H7 2433   3.775   1.507  14.099 -0.2512 -1.2622 -0.0402
  160TMC2    C1 2434   3.525   4.505   1.472 -0.1426  0.6015  0.4007
  160TMC2    C2 2435   3.616   4.408   1.505 -0.4546 -0.0656  0.0705
  160TMC2    C3 2436   3.701   4.368   1.405  0.0397 -0.6394 -0.3673
  160TMC2    C4 2437   3.531   4.571   1.349  0.4015 -0.4817 -0.4444
  160TMC2    C5 2438   3.630   4.527   1.259  0.2790 -0.2953  0.2902
  160TMC2    C6 2439   3.725   4.438   1.285  0.0785 -0.0068  0.4022
  160TMC2     C 2440   3.396   4.486   1.529  0.1323 -0.1414  0.1963
  160TMC2     O 2441   3.381   4.390   1.601 -0.1978 -0.0230 -0.5022
  160TMC2     H 2442   3.604   4.341   1.589  2.7433  1.3381  1.6405
  160TMC2    H1 2443   3.474   4.660   1.325  2.0357  0.7342  0.1867
  160TMC2    H2 2444   3.796   4.396   1.215 -0.9264  2.0813 -1.8805
  160TMC2    C7 2445   3.651   4.607   1.142 -0.1080 -0.0396 -0.3355
  160TMC2    C8 2446   3.801   4.268   1.445 -0.5266 -0.5444  0.1606
  160TMC2    O1 2447   3.549   4.653   1.085 -0.4494 -0.0639 -0.1729
  160TMC2    O2 2448   3.860   4.206   1.366  0.0190 -0.3055 -0.2139
  160TMC2    O5 2449   3.856   4.333   1.545 -0.1195 -0.1536 -0.0992
  160TMC2    H5 2450   3.798   4.400   1.588 -1.8038 -0.7047 -1.4980
  161MPD2     C 2451   3.108   4.492   1.550 -0.0916 -0.2406 -0.0023
  161MPD2    C1 2452   3.170   4.607   1.523 -0.3474 -0.4548  0.7459
  161MPD2    C2 2453   3.109   0.003   1.512  0.2268  0.3795  0.1648
  161MPD2    C3 2454   2.976   0.019   1.550 -0.2078  0.1942 -0.1128
  161MPD2    C4 2455   2.910   4.626   1.584 -0.2910  0.6139  0.9463
  161MPD2    C5 2456   2.976   4.501   1.579  0.1479 -0.3249 -0.0021
  161MPD2     H 2457   3.169   0.089   1.485 -1.3966  1.8004  1.1161
  161MPD2    H1 2458   2.806   4.630   1.614 -0.2261  0.9976  1.1131
  161MPD2    H2 2459   3.154   4.393   1.551 -0.0392 -0.2364 -2.4583
  161MPD2    H3 2460   2.912   4.423   1.617  1.4171 -1.1035  0.5108
  161MPD2     N 2461   2.909   0.145   1.551 -0.5221 -0.6115  0.1776
  161MPD2    H5 2462   2.809   0.132   1.539 -0.3928 -2.1133  0.7296
  161MPD2    N1 2463   3.311   4.596   1.511  0.0198  0.3412  0.9279
  161MPD2    H7 2464   3.350   4.683   1.476  3.6379 -0.9235  1.7861
  162TMC2    C1 2465   0.948   2.105   1.009  0.0492 -0.3268  0.2065
  162TMC2    C2 2466   0.820   2.140   0.965 -0.6061 -0.1028 -0.4005
  162TMC2    C3 2467   0.731   2.176   1.057  0.1588 -0.6677  0.0578
  162TMC2    C4 2468   0.968   2.076   1.141 -0.0121 -0.9933  0.2469
  162TMC2    C5 2469   0.873   2.111   1.233  0.3018  0.0261 -0.5055
  162TMC2    C6 2470   0.753   2.170   1.191 -0.6938 -0.3381 -0.5024
  162TMC2     C 2471   1.052   2.073   0.917 -0.3291  0.2471  0.1482
  162TMC2     O 2472   1.132   1.989   0.960  0.2803 -0.3536  0.2647
  162TMC2     H 2473   0.798   2.152   0.860 -1.0751 -2.5957 -0.5660
  162TMC2    H1 2474   1.069   2.066   1.181  0.5701  1.3072 -0.6303
  162TMC2    H2 2475   0.681   2.201   1.266 -1.1389  1.2393 -1.5717
  162TMC2    C7 2476   0.884   2.077   1.377 -0.2630 -0.6502  0.1090
  162TMC2    C8 2477   0.590   2.193   1.016 -0.4315  0.0905 -0.4915
  162TMC2    O1 2478   0.811   2.134   1.457  0.5057  0.2375  0.0249
  162TMC2    O2 2479   0.509   2.248   1.093 -0.3191  0.1308 -1.0372
  162TMC2    O5 2480   0.557   2.096   0.923 -0.2342  0.4219 -0.2575
  162TMC2    H5 2481   0.621   2.068   0.855 -0.5709  0.3246 -0.5326
  163MPD2     C 2482   1.255   2.094   0.447 -0.2436 -0.4399 -0.1037
  163MPD2    C1 2483   1.309   2.029   0.560 -0.4803  0.7901  0.3753
  163MPD2    C2 2484   1.240   2.042   0.682  0.3205  0.2739  0.8606
  163MPD2    C3 2485   1.123   2.106   0.680  0.2475 -0.0548  0.1014
  163MPD2    C4 2486   1.077   2.176   0.570  0.2838 -0.2997  0.0962
  163MPD2    C5 2487   1.140   2.168   0.453  0.1124 -0.0082  0.2503
  163MPD2     H 2488   1.285   1.998   0.771  0.3015 -0.9223  0.2814
  163MPD2    H1 2489   0.989   2.238   0.567  1.6495  1.6659  0.8835
  163MPD2    H2 2490   1.296   2.077   0.348  0.0196 -1.3466  0.1644
  163MPD2    H3 2491   1.102   2.222   0.367 -1.3384  1.0575  1.5542
  163MPD2     N 2492   1.040   2.126   0.793  0.4817 -0.5419  0.3040
  163MPD2    H5 2493   0.968   2.196   0.779  1.2866 -0.2473 -2.4021
  163MPD2    N1 2494   1.422   1.945   0.540 -0.0146 -0.1681  0.1999
  163MPD2    H7 2495   1.451   1.951   0.443  0.4607  2.2461  0.4769
  164TCq2    C1 2496   1.813   1.318  10.568  0.3999 -0.0575 -0.2160
  164TCq2    O2 2497   1.701   1.312  10.517  0.1981  0.1296 -0.1587
  164TCq2    C2 2498   1.848   1.425  10.661 -0.1584 -0.8629  0.2044
  164TCq2    C3 2499   1.987   1.446  10.695 -0.1352 -0.4384  0.1182
  164TCq2    C4 2500   2.010   1.535  10.793  0.2334 -0.3986  0.2908
  164TCq2    C5 2501   1.907   1.604  10.861 -0.7387 -0.9642 -0.0722
  164TCq2    C6 2502   1.774   1.573  10.828  0.1864 -0.9528  0.0225
  164TCq2    C7 2503   1.751   1.480  10.729  0.5048 -0.4845 -0.6219
  164TCq2    C8 2504   1.662   1.640  10.897 -0.5289  0.0816 -1.0779
  164TCq2    O4 2505   1.555   1.596  10.862 -0.4277 -0.2796 -0.0027
  164TCq2    C9 2506   2.143   1.565  10.831  0.7770  0.0543  0.1223
  164TCq2    O5 2507   2.164   1.675  10.892  0.1767 -0.0977  0.0786
  164TCq2    O6 2508   2.227   1.488  10.780  0.4618 -0.2198  0.2925
  164TCq2    H2 2509   2.068   1.403  10.638  0.9540 -1.2958  2.2984
  164TCq2    H3 2510   1.944   1.673  10.937  0.0160 -3.9789  2.2712
  164TCq2    H4 2511   1.653   1.438  10.711 -0.4642  0.9923  1.2553
  165MPD2     C 2512   2.657   3.761   1.205 -0.7809  0.1691  0.1899
  165MPD2    C1 2513   2.761   3.677   1.242 -0.7867 -0.3217  0.0442
  165MPD2    C2 2514   2.830   3.705   1.358  0.0412  0.2363  0.9428
  165MPD2    C3 2515   2.801   3.815   1.442 -0.3837  0.4191  0.1457
  165MPD2    C4 2516   2.701   3.895   1.395  0.1008  0.6928  0.0700
  165MPD2    C5 2517   2.627   3.868   1.287 -0.1113 -0.6030 -0.1001
  165MPD2     H 2518   2.907   3.641   1.400 -1.2048 -0.8513  1.5532
  165MPD2    H1 2519   2.676   3.978   1.460 -2.6133 -0.5667  0.6298
  165MPD2    H2 2520   2.608   3.744   1.110  0.9834 -0.7322 -0.5592
  165MPD2    H3 2521   2.537   3.927   1.274  0.6418  0.3379 -0.9630
  165MPD2     N 2522   2.878   3.861   1.554 -0.5241 -0.2447  0.1594
  165MPD2    H5 2523   2.845   3.952   1.585  0.2248 -0.4583  1.5871
  165MPD2    N1 2524   2.790   3.564   1.161 -0.0620 -0.1128 -0.0235
  165MPD2    H7 2525   2.737   3.556   1.075  3.0332 -0.3680 -1.9239
  166TCq2    C1 2526   2.988   3.797   1.599  0.2688 -0.7406 -0.0746
  166TCq2    O2 2527   3.036   3.692   1.560  0.3501  0.5588 -0.4113
  166TCq2    C2 2528   3.053   3.874   1.701  0.0394 -0.2922 -0.0014
  166TCq2    C3 2529   2.988   3.978   1.761  0.2741  0.2821  0.1909
  166TCq2    C4 2530   3.063   4.061   1.840 -0.0572 -0.3232 -0.6906
  166TCq2    C5 2531   3.196   4.050   1.856  0.7104  0.3811  0.6629
  166TCq2    C6 2532   3.263   3.956   1.787  0.2777  0.1606  0.2996
  166TCq2    C7 2533   3.188   3.863   1.710  0.2119  0.2390  0.1178
  166TCq2    C8 2534   3.407   3.962   1.759 -0.0834 -0.0953 -0.4558
  166TCq2    O4 2535   3.457   3.874   1.693 -0.1881  0.1089  0.4900
  166TCq2    C9 2536   2.997   4.165   1.903 -0.5441 -0.3390 -1.0651
  166TCq2    O5 2537   3.059   4.257   1.960 -0.4240  0.5203 -1.0235
  166TCq2    O6 2538   2.874   4.175   1.889  0.3528 -0.7763 -0.3706
  166TCq2    H2 2539   2.880   3.983   1.768  0.3085 -0.7175  1.3345
  166TCq2    H3 2540   3.245   4.123   1.919  0.6929 -0.3877  1.5600
  166TCq2    H4 2541   3.246   3.779   1.674  0.1151  0.1617  0.1431
  167TMC2    C1 2542   1.120   1.486  12.635  0.5042  0.4691 -0.1947
  167TMC2    C2 2543   1.053   1.548  12.732 -0.8888 -0.6931  0.3365
  167TMC2    C3 2544   1.045   1.492  12.854  0.1633 -0.4398  0.1784
  167TMC2    C4 2545   1.182   1.365  12.650 -0.3431 -0.1604  0.9196
  167TMC2    C5 2546   1.173   1.308  12.776  0.6685 -0.1470 -0.3415
  167TMC2    C6 2547   1.109   1.371  12.879  0.2379 -0.0141 -0.0396
  167TMC2     C 2548   1.149   1.566  12.514 -0.2566  0.4532 -0.4516
  167TMC2     O 2549   1.147   1.689  12.534  0.2446 -0.4170  0.5677
  167TMC2     H 2550   0.995   1.635  12.705  0.2948 -0.2525 -0.7248
  167TMC2    H1 2551   1.235   1.316  12.569 -0.7465  1.4912 -0.3593
  167TMC2    H2 2552   1.110   1.320  12.975 -1.3206 -1.2507 -0.6689
  167TMC2    C7 2553   1.201   1.165  12.792 -0.0481  0.0346  0.0191
  167TMC2    C8 2554   0.956   1.536  12.964 -0.2222  0.2106 -0.0209
  167TMC2    O1 2555   1.135   1.097  12.873 -0.2768  0.1822  0.3294
  167TMC2    O2 2556   0.898   1.451  13.029 -0.2254 -0.0928 -0.3329
  167TMC2    O5 2557   0.894   1.647  12.921 -0.6441  0.0928  0.7392
  167TMC2    H5 2558   0.965   1.704  12.884 -0.5117  0.3301  1.3612
  168MPD2     C 2559   1.159   1.677  12.237 -0.0581  0.0675  0.6311
  168MPD2    C1 2560   1.170   1.545  12.269 -0.0163 -0.2658  0.4473
  168MPD2    C2 2561   1.185   1.456  12.164 -0.0607 -0.3042  0.6360
  168MPD2    C3 2562   1.150   1.491  12.037  0.4448  0.7972  0.1868
  168MPD2    C4 2563   1.133   1.623  12.003  0.1548  0.1723 -0.3708
  168MPD2    C5 2564   1.140   1.718  12.105 -0.5978 -0.7013 -0.1879
  168MPD2     H 2565   1.182   1.351  12.192  0.2708 -0.9179 -1.6766
  168MPD2    H1 2566   1.098   1.654  11.905 -1.2509  2.8038  0.9433
  168MPD2    H2 2567   1.150   1.765  12.300 -1.0870 -0.4102  1.1452
  168MPD2    H3 2568   1.111   1.821  12.088 -0.2793 -1.0149 -2.6513
  168MPD2     N 2569   1.119   1.388  11.938  0.5723  0.3564 -0.8357
  168MPD2    H5 2570   1.080   1.420  11.850 -0.1334  2.3606  0.1967
  168MPD2    N1 2571   1.177   1.494  12.400 -0.1388 -0.0011  0.1929
  168MPD2    H7 2572   1.184   1.393  12.401 -0.6055 -0.0657 -1.4131
  169MPD1     C 2573   2.721   1.362   9.583 -0.1446  0.6369  0.5807
  169MPD1    C1 2574   2.669   1.239   9.632  0.2610 -0.4852 -0.4427
  169MPD1    C2 2575   2.758   1.143   9.668  0.4833  0.3505  0.6892
  169MPD1    C3 2576   2.893   1.163   9.676 -0.4241  0.0932  0.0670
  169MPD1    C4 2577   2.941   1.285   9.638 -0.0906 -0.1983  0.4726
  169MPD1    C5 2578   2.855   1.377   9.587 -0.5477  0.0380 -0.4130
  169MPD1     H 2579   2.731   1.041   9.692  1.0604  0.0666  0.1423
  169MPD1    H1 2580   3.045   1.314   9.643  0.3483 -1.4764 -1.5164
  169MPD1    H2 2581   2.655   1.439   9.546 -1.5156 -0.6140  0.3959
  169MPD1    H3 2582   2.893   1.473   9.553 -0.4038 -0.2963 -1.1817
  169MPD1     N 2583   2.970   1.060   9.737 -0.6326  0.0081 -0.3597
  169MPD1    H5 2584   2.918   0.993   9.794 -0.6823  1.1047  0.8897
  169MPD1    N1 2585   2.537   1.213   9.601 -0.4319 -0.7113 -0.7011
  169MPD1    H6 2586   2.474   1.294   9.600  1.5103  0.8167  0.6400
  169MPD1    H7 2587   2.498   1.139   9.658  0.1290 -1.1827 -0.9301
  170MPD1     C 2588   1.638   3.102  13.184  0.4191 -0.3475 -0.0993
  170MPD1    C1 2589   1.742   3.013  13.201  0.2080 -0.2167  0.8309
  170MPD1    C2 2590   1.870   3.063  13.215  0.0153  0.2790  1.0141
  170MPD1    C3 2591   1.891   3.194  13.194  0.2809 -0.0229  0.2253
  170MPD1    C4 2592   1.791   3.281  13.165  0.3602  0.3000  0.7440
  170MPD1    C5 2593   1.657   3.238  13.163 -0.7729  0.2405 -0.1885
  170MPD1     H 2594   1.951   2.996  13.241  1.0381  1.5621  1.1449
  170MPD1    H1 2595   1.804   3.386  13.144  2.2513  0.3292  2.0432
  170MPD1    H2 2596   1.536   3.066  13.174  1.2475 -3.2720  1.9683
  170MPD1    H3 2597   1.574   3.304  13.139 -1.2319 -0.7215 -1.2259
  170MPD1     N 2598   2.021   3.240  13.224  0.5113 -0.0429  0.1602
  170MPD1    H5 2599   2.083   3.174  13.268  0.1736  0.7752  1.8405
  170MPD1    N1 2600   1.713   2.880  13.242  0.1369  0.0238 -0.0671
  170MPD1    H6 2601   1.623   2.845  13.211  0.0186 -0.3548  0.6805
  170MPD1    H7 2602   1.789   2.813  13.233 -0.1634 -0.1245 -1.3689
  171MPD1     C 2603   0.348   4.398  15.503  0.0542 -0.0955  0.6004
  171MPD1    C1 2604   0.454   4.468  15.443  0.2435  0.2251 -0.3071
  171MPD1    C2 2605   0.580   4.415  15.464  0.0907  0.2351  0.2779
  171MPD1    C3 2606   0.603   4.305  15.535 -0.1362  0.3783 -0.4803
  171MPD1    C4 2607   0.498   4.255  15.610  0.4014 -0.4458 -0.7331
  171MPD1    C5 2608   0.369   4.301  15.595 -0.8403  0.3007 -0.6501
  171MPD1     H 2609   0.665   4.459  15.413  1.3013 -2.0830  0.2968
  171MPD1    H1 2610   0.516   4.178  15.684 -3.0062 -1.7693 -1.2737
  171MPD1    H2 2611   0.245   4.428  15.488  0.8482  1.5226 -1.6390
  171MPD1    H3 2612   0.286   4.270  15.658  1.9357 -2.9207  1.4098
  171MPD1     N 2613   0.732   4.243  15.547  0.0579  0.2052  0.4952
  171MPD1    H5 2614   0.743   4.166  15.612 -0.2695 -0.7269 -0.5545
  171MPD1    N1 2615   0.434   4.552  15.333 -0.2796  0.5990  0.2297
  171MPD1    H6 2616   0.353   4.610  15.356 -1.4952 -0.7731 -0.5614
  171MPD1    H7 2617   0.513   4.615  15.317  0.0260 -0.1238 -1.1265
  172MPD1     C 2618   0.004   4.130   1.011  0.1778  0.3480 -0.1719
  172MPD1    C1 2619   4.703   4.044   0.902  0.0601  0.9222 -0.0427
  172MPD1    C2 2620   0.077   4.026   0.804 -0.0902 -0.4222 -0.4340
  172MPD1    C3 2621   0.206   4.084   0.819 -0.3307 -0.6340  0.6755
  172MPD1    C4 2622   0.228   4.160   0.938  0.0964 -0.8426  0.6355
  172MPD1    C5 2623   0.130   4.174   1.032  0.5220  0.2383 -0.3575
  172MPD1     H 2624   0.054   3.963   0.719  0.8377 -0.8707 -0.3636
  172MPD1    H1 2625   0.323   4.212   0.942 -0.5686  0.5176 -1.4060
  172MPD1    H2 2626   4.652   4.160   1.078  1.0923 -1.2274  1.6121
  172MPD1    H3 2627   0.149   4.242   1.114 -0.4261  0.7719 -0.5755
  172MPD1     N 2628   0.305   4.082   0.723  0.6109  0.0775 -0.2873
  172MPD1    H5 2629   0.393   4.122   0.752  1.4727 -1.8916 -0.2163
  172MPD1    N1 2630   4.573   3.995   0.883 -0.8024  0.5977 -0.1363
  172MPD1    H6 2631   4.526   3.975   0.971 -2.2120 -1.2195 -1.3018
  172MPD1    H7 2632   4.565   3.928   0.806 -1.8301  0.9303 -0.3217
  173MPD1     C 2633   1.706   3.018  13.871 -0.2207 -0.3123 -0.2814
  173MPD1    C1 2634   1.657   2.890  13.842 -0.3203  0.2289  0.5909
  173MPD1    C2 2635   1.593   2.813  13.937 -0.2132  0.2615 -0.1525
  173MPD1    C3 2636   1.599   2.844  14.068  0.3367 -0.0355 -0.3525
  173MPD1    C4 2637   1.648   2.969  14.097 -0.6864  0.6588 -0.0447
  173MPD1    C5 2638   1.691   3.058  13.998 -0.0141  0.1860 -0.1376
  173MPD1     H 2639   1.542   2.720  13.913  1.8526 -0.9194  0.0861
  173MPD1    H1 2640   1.654   3.007  14.199 -1.1221  0.6958 -0.0293
  173MPD1    H2 2641   1.749   3.075  13.790 -1.7901  0.8021 -0.3298
  173MPD1    H3 2642   1.711   3.161  14.023  0.6486 -0.7037  3.0851
  173MPD1     N 2643   1.534   2.755  14.165 -0.4744  0.5562  0.8086
  173MPD1    H5 2644   1.500   2.666  14.129 -1.7585  1.9611 -1.4939
  173MPD1    N1 2645   1.648   2.850  13.711 -0.3076 -0.5624  0.2316
  173MPD1    H6 2646   1.719   2.899  13.657 -1.9967  1.7265  0.1005
  173MPD1    H7 2647   1.652   2.749  13.703  1.1314 -0.5435  0.7441
  174MPD1     C 2648   1.414   1.822  14.348  0.1283 -0.1642  0.8200
  174MPD1    C1 2649   1.392   1.915  14.237 -1.0999 -0.2683 -0.3237
  174MPD1    C2 2650   1.350   2.037  14.274  0.5731  0.2831 -0.6290
  174MPD1    C3 2651   1.380   2.082  14.405  0.3477  0.9483 -0.4164
  174MPD1    C4 2652   1.391   1.992  14.515  0.1501 -0.4468 -0.0354
  174MPD1    C5 2653   1.413   1.862  14.480  0.1516  0.6635  0.1888
  174MPD1     H 2654   1.305   2.097  14.196  0.8631  0.9347 -0.2965
  174MPD1    H1 2655   1.408   2.017  14.619  0.6060 -1.0053  0.0251
  174MPD1    H2 2656   1.416   1.715  14.333  3.2079  0.0016  0.1463
  174MPD1    H3 2657   1.441   1.799  14.564 -0.7862  0.6682  0.5001
  174MPD1     N 2658   1.377   2.221  14.429 -0.3521 -0.4943 -0.1754
  174MPD1    H5 2659   1.357   2.247  14.525  0.0983  0.2152 -0.2755
  174MPD1    N1 2660   1.385   1.865  14.105 -0.0652 -0.5905  0.3085
  174MPD1    H6 2661   1.387   1.935  14.031 -0.4481 -1.7931 -0.8385
  174MPD1    H7 2662   1.466   1.806  14.089  1.6319  2.4990 -2.5964
  175MPD1     C 2663   4.442   4.533  15.174  0.6841 -0.2038 -0.3147
  175MPD1    C1 2664   4.564   4.484  15.214  0.3022 -0.1831 -0.3425
  175MPD1    C2 2665   4.564   4.397  15.323 -0.0027  0.2465  0.0345
  175MPD1    C3 2666   4.442   4.360  15.385 -0.6883 -0.1655 -0.4411
  175MPD1    C4 2667   4.323   4.405  15.338 -0.6105 -0.9581  0.1355
  175MPD1    C5 2668   4.329   4.496  15.236 -0.3005 -0.0995 -0.2236
  175MPD1     H 2669   4.657   4.364  15.367 -1.0317 -1.5415  0.8493
  175MPD1    H1 2670   4.221   4.393  15.375 -0.5644  0.6325  0.7768
  175MPD1    H2 2671   4.446   4.618  15.106  1.0371  1.1295  1.3773
  175MPD1    H3 2672   4.233   4.539  15.211 -0.7216 -0.8267  0.1285
  175MPD1     N 2673   4.439   4.284  15.502  0.2734  0.2069 -0.0057
  175MPD1    H5 2674   4.345   4.254  15.526 -0.6312  1.5522 -1.8993
  175MPD1    N1 2675   4.684   4.549  15.174  0.2405  0.5745  0.0692
  175MPD1    H6 2676   0.044   4.499  15.189 -0.4543 -0.0945  1.8461
  175MPD1    H7 2677   4.692   4.569  15.074 -0.9882  0.4249 -0.0592
  176MPD1     C 2678   1.934   0.815  16.688  1.0291 -0.7403 -0.8760
  176MPD1    C1 2679   1.832   0.870  16.621 -0.0053  0.5590  0.0584
  176MPD1    C2 2680   1.754   0.970  16.683 -0.4958 -0.9688 -0.4766
  176MPD1    C3 2681   1.798   1.020  16.806  0.1783 -0.4379 -0.3326
  176MPD1    C4 2682   1.920   0.977  16.856  0.5248  0.4650  1.2850
  176MPD1    C5 2683   1.985   0.865  16.803 -0.1689  0.4474  0.1008
  176MPD1     H 2684   1.657   0.996  16.643 -1.4887 -2.6095  0.8370
  176MPD1    H1 2685   1.948   1.017  16.953 -0.6649  1.3301  1.2698
  176MPD1    H2 2686   1.992   0.735  16.643 -1.1620 -3.2030  0.6671
  176MPD1    H3 2687   2.088   0.840  16.824 -0.9137 -1.8724  0.9500
  176MPD1     N 2688   1.710   1.110  16.869  0.0051  0.9331  0.6815
  176MPD1    H5 2689   1.639   1.145  16.805 -1.8506 -1.9678  1.1797
  176MPD1    N1 2690   1.796   0.812  16.500 -0.1451 -0.3470 -0.1865
  176MPD1    H6 2691   1.871   0.821  16.431  0.9890  0.2941  1.1281
  176MPD1    H7 2692   1.724   0.873  16.462  0.8327  0.5457 -0.6025
  177MPD1     C 2693   0.038   1.681  10.836 -0.5984 -0.2817 -0.3868
  177MPD1    C1 2694   4.723   1.577  10.756  0.5518 -0.5989  0.4432
  177MPD1    C2 2695   4.715   1.594  10.619 -0.7043 -0.1763  0.1610
  177MPD1    C3 2696   0.029   1.717  10.561 -0.1130  0.8176  0.8499
  177MPD1    C4 2697   0.095   1.810  10.644 -1.5341  0.0215  0.4294
  177MPD1    C5 2698   0.094   1.794  10.778 -0.1535  0.4082 -0.4060
  177MPD1     H 2699   4.681   1.508  10.563 -3.9064  0.6374  0.8373
  177MPD1    H1 2700   0.145   1.895  10.600 -2.0499 -0.2865 -0.7665
  177MPD1    H2 2701   0.042   1.666  10.943 -1.9899  2.9088  0.1166
  177MPD1    H3 2702   0.137   1.868  10.844 -1.4633  0.0755  0.8151
  177MPD1     N 2703   0.013   1.747  10.427 -0.2093 -0.1192 -0.3001
  177MPD1    H5 2704   4.721   1.668  10.366 -2.3108  0.2739 -0.1523
  177MPD1    N1 2705   4.681   1.451  10.809  0.2532  0.0607  0.9948
  177MPD1    H6 2706   4.725   1.413  10.893  2.0372  3.6568  1.7037
  177MPD1    H7 2707   4.671   1.380  10.736  2.7753  0.6875  0.0551
  178MPD1     C 2708   2.736   2.335   0.278 -0.3445 -0.3165 -0.5462
  178MPD1    C1 2709   2.643   2.278   0.194 -0.1096 -0.7690 -0.1101
  178MPD1    C2 2710   2.647   2.324   0.059  0.0577 -0.0430  0.3523
  178MPD1    C3 2711   2.733   2.428   0.019 -0.2761 -0.0946 -0.0981
  178MPD1    C4 2712   2.824   2.482   0.108 -0.3676  0.2758  0.3723
  178MPD1    C5 2713   2.820   2.432   0.236  0.2412  0.0921 -0.6507
  178MPD1     H 2714   2.578   2.287  17.693  0.4422 -1.9402  0.9257
  178MPD1    H1 2715   2.903   2.548   0.074  0.1996 -0.2872  0.5869
  178MPD1    H2 2716   2.734   2.304   0.382 -3.0135 -0.3306 -0.5985
  178MPD1    H3 2717   2.895   2.469   0.305 -0.1538 -0.5328  0.1178
  178MPD1     N 2718   2.735   2.471  17.589 -0.0456 -0.8213 -0.1375
  178MPD1    H5 2719   2.791   2.552  17.562 -0.6790  0.2070  1.6077
  178MPD1    N1 2720   2.581   2.149   0.226 -0.4802 -0.2083 -0.3093
  178MPD1    H6 2721   2.556   2.139   0.324  1.7046 -0.0708  0.2684
  178MPD1    H7 2722   2.498   2.137   0.169 -0.6687 -0.0425 -0.0696
  179MPD1     C 2723   2.079   1.305  16.110  0.9294 -0.6100 -0.1430
  179MPD1    C1 2724   2.038   1.242  16.223 -0.4252  0.0211  0.1117
  179MPD1    C2 2725   2.006   1.112  16.214  0.2002  0.0736  0.4720
  179MPD1    C3 2726   2.029   1.043  16.092  0.2443 -0.9854 -0.4487
  179MPD1    C4 2727   2.083   1.112  15.980 -0.4258 -0.6522  0.0473
  179MPD1    C5 2728   2.101   1.248  15.988  0.1374  0.2743  0.1988
  179MPD1     H 2729   1.970   1.061  16.303 -0.6497 -1.0635 -0.5202
  179MPD1    H1 2730   2.113   1.064  15.887  0.2679  1.2211 -0.7115
  179MPD1    H2 2731   2.105   1.410  16.119  0.3530 -0.2752 -2.3653
  179MPD1    H3 2732   2.140   1.309  15.907  2.9156 -0.5341  0.9371
  179MPD1     N 2733   2.009   0.905  16.073 -0.6866 -0.7575 -0.3199
  179MPD1    H5 2734   2.013   0.882  15.974  0.5696 -0.9138 -0.2317
  179MPD1    N1 2735   2.006   1.316  16.336 -0.5383 -0.0077  0.0600
  179MPD1    H6 2736   2.075   1.387  16.358  1.2328 -0.9697 -2.3736
  179MPD1    H7 2737   2.003   1.258  16.420  1.5836  0.3966  0.4101
  180MPD1     C 2738   2.286   1.277  14.502 -0.8127 -0.0881 -0.5342
  180MPD1    C1 2739   2.227   1.384  14.557  0.1265  0.2254  0.4284
  180MPD1    C2 2740   2.093   1.389  14.567  0.4038 -0.0951  0.7832
  180MPD1    C3 2741   2.018   1.273  14.548  0.6868  0.4847 -0.2752
  180MPD1    C4 2742   2.074   1.167  14.478 -0.0785 -0.2012  0.2052
  180MPD1    C5 2743   2.210   1.174  14.453  0.3672 -0.1535 -0.0093
  180MPD1     H 2744   2.039   1.464  14.624 -0.6317  0.5463 -1.0348
  180MPD1    H1 2745   2.029   1.071  14.460  0.9774 -0.6522 -0.0187
  180MPD1    H2 2746   2.393   1.278  14.485 -0.4760  1.6645  1.6642
  180MPD1    H3 2747   2.259   1.085  14.415  0.2503 -0.0460 -0.4073
  180MPD1     N 2748   1.880   1.281  14.585 -0.0228 -0.8333 -0.0056
  180MPD1    H5 2749   1.849   1.366  14.632 -2.9946 -1.6087 -0.6132
  180MPD1    N1 2750   2.306   1.496  14.573  0.3103 -0.0655 -0.2198
  180MPD1    H6 2751   2.403   1.478  14.599 -0.0442  1.4883  2.1566
  180MPD1    H7 2752   2.261   1.566  14.631  1.4350  0.9830 -0.5949
  181MPD1     C 2753   2.848   3.728  10.847 -0.1358 -0.5883 -0.4735
  181MPD1    C1 2754   2.933   3.837  10.887  0.8469  1.0628  0.4418
  181MPD1    C2 2755   3.033   3.860  10.797  0.6013  0.2804  0.1715
  181MPD1    C3 2756   3.055   3.786  10.680 -0.3636  0.4222 -0.6737
  181MPD1    C4 2757   2.973   3.681  10.654  0.2619  0.5533 -0.2521
  181MPD1    C5 2758   2.863   3.665  10.731  0.2261  0.3651  0.2610
  181MPD1     H 2759   3.095   3.945  10.826  0.2810  0.0680  1.4971
  181MPD1    H1 2760   2.974   3.619  10.565 -1.2327  0.6360 -0.3249
  181MPD1    H2 2761   2.762   3.698  10.906  0.0256 -0.7032 -0.2945
  181MPD1    H3 2762   2.790   3.591  10.703 -0.6603  1.1276  0.5707
  181MPD1     N 2763   3.157   3.801  10.583 -0.6769  0.0591  0.2262
  181MPD1    H5 2764   3.158   3.736  10.505 -2.3841  3.2854 -2.5096
  181MPD1    N1 2765   2.931   3.892  11.017  0.1197  0.4082  0.4836
  181MPD1    H6 2766   2.835   3.905  11.050 -0.4623 -2.4909 -0.0791
  181MPD1    H7 2767   2.985   3.978  11.025 -0.1246  0.5431  0.6911
  182MPD1     C 2768   0.548   3.146   1.341 -0.4930  0.7524  0.5002
  182MPD1    C1 2769   0.422   3.157   1.387  0.3358  0.2675  0.5526
  182MPD1    C2 2770   0.319   3.191   1.300 -0.1852 -0.3274 -0.3730
  182MPD1    C3 2771   0.340   3.190   1.166  0.1388  1.4370  0.1485
  182MPD1    C4 2772   0.467   3.162   1.121  0.4201  0.1527 -0.3567
  182MPD1    C5 2773   0.570   3.146   1.213  0.3309 -0.1409  0.0726
  182MPD1     H 2774   0.229   3.224   1.350 -0.9697 -0.9638 -1.3608
  182MPD1    H1 2775   0.492   3.158   1.015 -0.2392  0.3316 -0.5150
  182MPD1    H2 2776   0.630   3.144   1.411  0.9921 -0.4873 -1.2691
  182MPD1    H3 2777   0.672   3.135   1.176  0.5312  0.8500  0.3315
  182MPD1     N 2778   0.236   3.209   1.075 -0.0006 -0.5784  0.9065
  182MPD1    H5 2779   0.266   3.219   0.978 -0.4421  1.8520  1.0133
  182MPD1    N1 2780   0.411   3.175   1.522 -0.2604 -0.0036 -0.9786
  182MPD1    H6 2781   0.475   3.113   1.571 -0.4703  0.9199  0.4517
  182MPD1    H7 2782   0.329   3.137   1.568 -0.4346  0.4921 -0.8862
  183MPD1     C 2783   4.396   3.163   8.930  0.1479  0.5934 -0.7509
  183MPD1    C1 2784   4.343   3.287   8.967  0.1732 -0.5391 -0.6478
  183MPD1    C2 2785   4.356   3.321   9.097  0.3534 -0.8503 -0.3500
  183MPD1    C3 2786   4.411   3.232   9.193 -0.3176  0.3670  0.0750
  183MPD1    C4 2787   4.472   3.123   9.149 -0.6487  0.2013  0.2925
  183MPD1    C5 2788   4.458   3.082   9.020  0.1304  0.3539  0.2753
  183MPD1     H 2789   4.332   3.413   9.148 -3.4816 -1.2546 -1.4393
  183MPD1    H1 2790   4.525   3.052   9.212 -2.0380  0.5739  1.8858
  183MPD1    H2 2791   4.395   3.142   8.824 -4.4494  2.1840 -1.0012
  183MPD1    H3 2792   4.482   2.978   9.003  1.7321  0.7156  0.3709
  183MPD1     N 2793   4.421   3.280   9.322  0.0695  0.1005 -0.6538
  183MPD1    H5 2794   4.372   3.368   9.334  0.3947  0.2650 -0.5343
  183MPD1    N1 2795   4.314   3.380   8.874  0.2490  0.2373 -0.1402
  183MPD1    H6 2796   4.240   3.439   8.911 -2.2842 -1.1531 -2.9227
  183MPD1    H7 2797   4.272   3.331   8.795 -0.4864  1.5217 -0.5591
  184MPD1     C 2798   4.160   1.086   9.720  0.1016  0.7066  0.2236
  184MPD1    C1 2799   4.110   1.157   9.829 -0.6639 -0.1162 -0.9462
  184MPD1    C2 2800   4.108   1.297   9.826 -0.8394 -0.0473  0.2162
  184MPD1    C3 2801   4.160   1.364   9.718 -0.1005  0.0294 -0.3712
  184MPD1    C4 2802   4.200   1.293   9.608  0.3574  0.1479  0.1849
  184MPD1    C5 2803   4.194   1.153   9.609 -0.8496 -0.7444 -0.6937
  184MPD1     H 2804   4.084   1.353   9.915 -0.0599  1.4233 -0.5021
  184MPD1    H1 2805   4.220   1.343   9.514 -2.4770 -0.0875 -0.5268
  184MPD1    H2 2806   4.159   0.979   9.730  4.6724  0.4863 -1.7914
  184MPD1    H3 2807   4.233   1.103   9.521  4.5208  0.2049  1.1544
  184MPD1     N 2808   4.152   1.506   9.707  0.0912 -0.1823 -0.0330
  184MPD1    H5 2809   4.177   1.554   9.622  1.7214 -1.1242 -0.0829
  184MPD1    N1 2810   4.078   1.091   9.953  0.4148  0.1908  0.3559
  184MPD1    H6 2811   4.033   1.002   9.933 -0.0571  0.0222  2.2098
  184MPD1    H7 2812   4.005   1.146   9.998 -0.4967  0.0612 -0.9552
  185MPD1     C 2813   3.816   2.032   8.989 -0.1292  0.1058 -0.0548
  185MPD1    C1 2814   3.893   1.919   9.022 -0.0497  0.0475 -0.7332
  185MPD1    C2 2815   3.919   1.891   9.156  0.3061 -0.1039  0.0389
  185MPD1    C3 2816   3.845   1.948   9.259  0.9815 -0.5356  0.1527
  185MPD1    C4 2817   3.759   2.051   9.221  0.1245 -0.6152 -0.2949
  185MPD1    C5 2818   3.751   2.094   9.093 -0.5082  0.1755 -0.6732
  185MPD1     H 2819   4.006   1.834   9.188  0.0373 -1.4218 -1.5514
  185MPD1    H1 2820   3.705   2.109   9.296  0.6232 -0.8637  0.2617
  185MPD1    H2 2821   3.801   2.060   8.885 -0.4158  3.0701  0.7962
  185MPD1    H3 2822   3.682   2.171   9.061  0.6268  1.6375  0.3738
  185MPD1     N 2823   3.861   1.921   9.394  0.1583 -0.4752  0.2299
  185MPD1    H5 2824   3.807   1.976   9.460 -1.0355 -1.3986  0.0216
  185MPD1    N1 2825   3.961   1.848   8.918  0.1527  0.2353  0.5494
  185MPD1    H6 2826   3.913   1.837   8.829  0.4458  2.5842  0.1022
  185MPD1    H7 2827   3.983   1.753   8.949 -1.2246 -0.2180  0.1632
  186MPD1     C 2828   2.459   0.300  16.073 -0.5764 -0.0700 -0.1311
  186MPD1    C1 2829   2.390   0.391  15.994  0.1583  0.0700 -0.0787
  186MPD1    C2 2830   2.360   0.518  16.048 -0.3270  0.5696  0.1747
  186MPD1    C3 2831   2.398   0.546  16.177  0.0517 -0.1401 -0.3301
  186MPD1    C4 2832   2.464   0.451  16.254  0.2936  0.2802  0.0889
  186MPD1    C5 2833   2.491   0.329  16.198  0.7214  0.9529 -0.3387
  186MPD1     H 2834   2.322   0.596  15.984 -0.1866  0.5940  0.1211
  186MPD1    H1 2835   2.487   0.465  16.359 -0.4175  0.8617  0.1611
  186MPD1    H2 2836   2.480   0.203  16.029 -0.1580 -0.2940  0.5681
  186MPD1    H3 2837   2.544   0.261  16.264  0.5454  1.6163  0.4954
  186MPD1     N 2838   2.388   0.672  16.238 -0.0545 -0.2185  0.4873
  186MPD1    H5 2839   2.427   0.692  16.330  2.1303 -1.4927 -0.1540
  186MPD1    N1 2840   2.324   0.343  15.875 -0.9549  0.0616  0.2134
  186MPD1    H6 2841   2.301   0.418  15.810 -3.7808 -0.2865  0.7868
  186MPD1    H7 2842   2.362   0.267  15.821 -0.0646  0.9769 -0.4471
  187MPD1     C 2843   1.815   2.679   0.372  0.3419 -0.4448 -0.6686
  187MPD1    C1 2844   1.733   2.595   0.313  0.5417  0.4118  0.0728
  187MPD1    C2 2845   1.701   2.623   0.184 -0.6214  0.3551  0.4770
  187MPD1    C3 2846   1.752   2.736   0.118  0.6956 -0.8983 -0.2831
  187MPD1    C4 2847   1.836   2.819   0.182  0.1954  0.6535  0.4240
  187MPD1    C5 2848   1.872   2.785   0.304  0.2812 -0.0878  0.8461
  187MPD1     H 2849   1.638   2.547   0.139  1.5895 -0.7006 -0.8442
  187MPD1    H1 2850   1.886   2.908   0.145 -1.2573  1.3841  0.2389
  187MPD1    H2 2851   1.849   2.663   0.474 -1.5893  0.0473  0.0524
  187MPD1    H3 2852   1.943   2.843   0.362 -0.3382  1.9978 -0.4949
  187MPD1     N 2853   1.726   2.756  17.688  0.7790  0.9937  0.4243
  187MPD1    H5 2854   1.802   2.808  17.644 -0.8596  3.3173  0.3463
  187MPD1    N1 2855   1.703   2.474   0.366  0.0506 -0.0383  0.2697
  187MPD1    H6 2856   1.619   2.437   0.324 -0.4562 -0.6508  1.8162
  187MPD1    H7 2857   1.695   2.473   0.468  0.1422 -0.9733  0.2633
  188MPD1     C 2858   1.008   2.806  10.520 -0.1273 -0.1575 -0.1745
  188MPD1    C1 2859   0.955   2.842  10.395  0.0831  0.0358 -0.9825
  188MPD1    C2 2860   0.957   2.747  10.292  0.1990 -0.5851 -0.0123
  188MPD1    C3 2861   1.020   2.623  10.309 -0.2272 -0.2339 -0.2553
  188MPD1    C4 2862   1.087   2.595  10.423 -0.6079  0.7439  0.6967
  188MPD1    C5 2863   1.072   2.684  10.529  0.0117 -0.3934  0.4002
  188MPD1     H 2864   0.907   2.770  10.199  1.0757 -2.7182 -0.9958
  188MPD1    H1 2865   1.155   2.511  10.420 -2.2948 -0.6321  0.8998
  188MPD1    H2 2866   1.015   2.873  10.605  1.7797  0.2429 -0.6419
  188MPD1    H3 2867   1.135   2.666  10.616 -0.1083 -0.2969  0.5069
  188MPD1     N 2868   1.026   2.526  10.208  0.6811 -0.0503 -0.3201
  188MPD1    H5 2869   1.092   2.455  10.235  1.7504  0.9874 -0.1881
  188MPD1    N1 2870   0.879   2.958  10.397 -0.2144 -0.2051 -0.4642
  188MPD1    H6 2871   0.865   3.005  10.308 -0.0273 -0.1945 -0.4895
  188MPD1    H7 2872   0.892   3.030  10.468  1.7805 -1.9013  0.8879
  189MPD1     C 2873   3.507   3.559   0.484  0.2393  0.7296 -0.3770
  189MPD1    C1 2874   3.406   3.465   0.491 -0.0368  0.5525 -0.3924
  189MPD1    C2 2875   3.285   3.494   0.443  0.1666 -0.3528 -0.7010
  189MPD1    C3 2876   3.259   3.622   0.394 -0.1503  0.2572  0.1776
  189MPD1    C4 2877   3.357   3.717   0.380  0.1687 -0.5025  0.3740
  189MPD1    C5 2878   3.479   3.681   0.425 -0.1766  0.1620 -0.3191
  189MPD1     H 2879   3.200   3.426   0.447 -0.2602  0.2020 -0.4911
  189MPD1    H1 2880   3.330   3.815   0.341 -0.0538 -0.4452  0.6638
  189MPD1    H2 2881   3.604   3.541   0.529  0.4403  0.9165 -0.7394
  189MPD1    H3 2882   3.550   3.762   0.432  0.3436 -0.0131 -3.5177
  189MPD1     N 2883   3.126   3.639   0.351 -0.0183 -0.4376 -0.3622
  189MPD1    H5 2884   3.072   3.557   0.324 -0.3158 -0.4115  0.1480
  189MPD1    N1 2885   3.444   3.340   0.539 -0.2060 -0.4520 -0.0934
  189MPD1    H6 2886   3.371   3.295   0.593  0.9875 -1.7238  0.4621
  189MPD1    H7 2887   3.532   3.344   0.590  0.4553 -2.6734 -1.0213
  190MPD1     C 2888   1.702   1.330  15.927 -0.8501  0.1604 -0.6730
  190MPD1    C1 2889   1.730   1.372  15.797  0.0611 -0.0537 -0.1292
  190MPD1    C2 2890   1.815   1.476  15.776  0.1099  0.5048 -0.0333
  190MPD1    C3 2891   1.867   1.544  15.879 -0.0078  0.1166 -0.1728
  190MPD1    C4 2892   1.842   1.495  16.004  0.2613  0.2684 -0.1924
  190MPD1    C5 2893   1.748   1.400  16.033  0.0226 -0.2934 -0.6845
  190MPD1     H 2894   1.839   1.495  15.672 -1.4255 -0.1800 -0.5263
  190MPD1    H1 2895   1.890   1.533  16.093  2.3851 -0.9486 -0.7970
  190MPD1    H2 2896   1.640   1.246  15.956  1.5637 -2.7121 -3.7885
  190MPD1    H3 2897   1.732   1.371  16.136  1.1760  0.4129 -0.3074
  190MPD1     N 2898   1.964   1.642  15.857  0.0366 -0.1130 -0.6676
  190MPD1    H5 2899   1.994   1.667  15.763  1.0071 -1.3339 -0.6887
  190MPD1    N1 2900   1.691   1.286  15.691  0.1361 -0.7334  0.5219
  190MPD1    H6 2901   1.591   1.270  15.696  0.2813 -1.2000  1.9466
  190MPD1    H7 2902   1.703   1.325  15.598 -1.0784 -1.7722 -0.0694
  191MPD1     C 2903   1.239   3.875  12.296  0.5670 -0.2993  0.0566
  191MPD1    C1 2904   1.351   3.822  12.237 -0.1279 -0.1531 -0.7969
  191MPD1    C2 2905   1.436   3.915  12.174  0.9074  0.0166  0.2210
  191MPD1    C3 2906   1.405   4.048  12.164  0.1588  0.1949  0.2305
  191MPD1    C4 2907   1.285   4.094  12.206  0.1052  1.0889 -0.0813
  191MPD1    C5 2908   1.211   4.003  12.281 -0.0087 -0.0051 -0.3726
  191MPD1     H 2909   1.534   3.881  12.143  0.1378 -2.0555  0.1198
  191MPD1    H1 2910   1.251   4.196  12.193  2.1964  1.5788 -1.5250
  191MPD1    H2 2911   1.172   3.832  12.370  0.8842 -2.3368 -0.8485
  191MPD1    H3 2912   1.117   4.038  12.322  0.6833 -1.4764  2.4465
  191MPD1     N 2913   1.507   4.128  12.111 -0.4481 -0.1231 -0.3595
  191MPD1    H5 2914   1.590   4.076  12.085  0.6435  1.0865  0.7333
  191MPD1    N1 2915   1.385   3.686  12.257 -0.3274  0.2067 -0.6969
  191MPD1    H6 2916   1.448   3.653  12.184 -0.3656 -2.1557  0.3575
  191MPD1    H7 2917   1.298   3.633  12.266 -1.1626  1.8311  0.8569
  192MPD1     C 2918   1.610   0.061  11.282  0.1408 -0.5603 -0.3111
  192MPD1    C1 2919   1.561   0.088  11.406 -0.6463  0.0277  0.1747
  192MPD1    C2 2920   1.604   0.007  11.511  0.0057  0.6695  0.3148
  192MPD1    C3 2921   1.679   4.615  11.492  0.3741  0.5873  0.4854
  192MPD1    C4 2922   1.720   4.588  11.364 -0.2321  0.3768  0.1404
  192MPD1    C5 2923   1.690   4.676  11.262 -0.0056  0.1127  0.2600
  192MPD1     H 2924   1.571   0.025  11.612 -0.5102  1.9754 -0.0873
  192MPD1    H1 2925   1.800   4.517  11.346  0.0302  0.7092 -0.0174
  192MPD1    H2 2926   1.597   0.139  11.208  1.2676  0.2310  0.3332
  192MPD1    H3 2927   1.734   4.666  11.163  3.3638 -0.0715  1.7554
  192MPD1     N 2928   1.697   4.521  11.591  0.2973  0.1736  0.0560
  192MPD1    H5 2929   1.756   4.447  11.554  1.4081  0.5853  1.0246
  192MPD1    N1 2930   1.487   0.208  11.428 -0.1832  0.0616  0.6064
  192MPD1    H6 2931   1.429   0.192  11.511 -1.6778  2.0110 -0.0738
  192MPD1    H7 2932   1.420   0.224  11.353 -1.2408 -1.2385  1.2720
  193MPD1     C 2933   0.938   3.844  15.727  0.0574  0.1889 -0.3550
  193MPD1    C1 2934   0.887   3.952  15.800 -0.1407  0.5374  0.0038
  193MPD1    C2 2935   0.973   4.022  15.881  0.1300  0.3772 -0.1128
  193MPD1    C3 2936   1.104   3.975  15.909  0.1538  0.3668  0.5541
  193MPD1    C4 2937   1.146   3.852  15.852  0.2325  0.1314 -0.6940
  193MPD1    C5 2938   1.064   3.796  15.760 -0.4254  0.8593 -0.5081
  193MPD1     H 2939   0.937   4.105  15.941  0.7107  0.4874  0.0818
  193MPD1    H1 2940   1.243   3.809  15.874 -0.8095 -2.0384 -0.3064
  193MPD1    H2 2941   0.871   3.788  15.663 -1.7744 -0.4593  2.1493
  193MPD1    H3 2942   1.103   3.702  15.722  2.7228  1.9795 -0.0432
  193MPD1     N 2943   1.189   4.055  15.991 -0.0794 -0.0746  0.4268
  193MPD1    H5 2944   1.280   4.011  16.004  0.9108  1.3120 -1.9089
  193MPD1    N1 2945   0.765   4.013  15.769  0.5231 -0.0038 -0.3215
  193MPD1    H6 2946   0.694   3.953  15.727  1.5612  0.1273 -2.2506
  193MPD1    H7 2947   0.729   4.059  15.852 -0.7271 -0.0214 -0.8520
  194MPD1     C 2948   3.504   1.443  17.025  0.4844  0.1991 -0.6692
  194MPD1    C1 2949   3.418   1.338  17.045 -0.2414 -0.5505 -0.3543
  194MPD1    C2 2950   3.474   1.207  17.062  0.1292 -0.2424 -0.2067
  194MPD1    C3 2951   3.614   1.184  17.062 -0.2827 -0.7484 -0.0779
  194MPD1    C4 2952   3.695   1.291  17.049  0.2537  0.3400  0.0094
  194MPD1    C5 2953   3.642   1.418  17.020  0.4393 -0.0453  0.3191
  194MPD1     H 2954   3.407   1.123  17.065  0.7866 -0.8283 -1.7790
  194MPD1    H1 2955   3.803   1.283  17.054  0.1773 -2.6627 -3.0113
  194MPD1    H2 2956   3.468   1.543  17.003  0.2813  0.3032  0.1039
  194MPD1    H3 2957   3.713   1.500  17.012  1.6021 -1.1648 -0.9672
  194MPD1     N 2958   3.669   1.058  17.083  0.1944 -0.0876 -0.4677
  194MPD1    H5 2959   3.768   1.054  17.060 -0.1373  0.7890 -2.1159
  194MPD1    N1 2960   3.280   1.359  17.060  0.7275  0.3426  0.0152
  194MPD1    H6 2961   3.240   1.445  17.023 -1.2590 -1.6483 -2.4503
  194MPD1    H7 2962   3.225   1.280  17.030  1.4664 -0.2103  0.1117
  195MPD1     C 2963   1.305   2.873  17.355 -0.1352  0.3031 -0.8376
  195MPD1    C1 2964   1.261   2.841  17.228  0.1455 -0.4573 -0.3907
  195MPD1    C2 2965   1.177   2.729  17.220 -0.5377  0.2328 -0.0850
  195MPD1    C3 2966   1.161   2.643  17.326 -0.4608  0.0635  0.2996
  195MPD1    C4 2967   1.224   2.676  17.447  0.7258 -0.2360  0.0809
  195MPD1    C5 2968   1.290   2.796  17.461 -0.8353 -1.0377  0.1292
  195MPD1     H 2969   1.130   2.696  17.128  1.9623 -0.4087 -1.1169
  195MPD1    H1 2970   1.200   2.625  17.540 -3.6968  0.1654 -0.8103
  195MPD1    H2 2971   1.350   2.968  17.377 -0.6247  0.0036  1.4022
  195MPD1    H3 2972   1.323   2.820  17.561  1.8866 -1.7824 -0.5832
  195MPD1     N 2973   1.087   2.524  17.315 -0.2695 -0.2627  0.2280
  195MPD1    H5 2974   1.085   2.461  17.395 -0.7588  0.9374  1.1677
  195MPD1    N1 2975   1.264   2.943  17.129 -0.1650 -0.0819 -0.1766
  195MPD1    H6 2976   1.357   2.985  17.125 -0.7509  1.2828  0.6016
  195MPD1    H7 2977   1.256   2.901  17.037  1.0647  0.4221 -0.5249
  196MPD1     C 2978   0.471   2.375   0.681  0.0600 -0.0306  0.3823
  196MPD1    C1 2979   0.563   2.440   0.620 -0.3082  0.0712  0.3380
  196MPD1    C2 2980   0.616   2.551   0.691  0.5515 -0.0958  0.0462
  196MPD1    C3 2981   0.554   2.609   0.791  0.2202  0.5204 -0.0636
  196MPD1    C4 2982   0.428   2.560   0.826  0.4682 -0.3914 -0.0315
  196MPD1    C5 2983   0.391   2.436   0.775  0.2444 -0.2377  0.2611
  196MPD1     H 2984   0.697   2.602   0.639 -0.7226  0.1294 -1.7172
  196MPD1    H1 2985   0.371   2.593   0.912 -1.0962 -0.2624 -1.1111
  196MPD1    H2 2986   0.447   2.276   0.642 -1.8268 -0.2112  2.0058
  196MPD1    H3 2987   0.304   2.383   0.812 -1.3180  2.1328  0.0010
  196MPD1     N 2988   0.611   2.711   0.868 -0.2854 -0.6285 -0.2676
  196MPD1    H5 2989   0.553   2.733   0.948  0.2170  1.4978 -0.4883
  196MPD1    N1 2990   0.639   2.378   0.525  0.3662 -0.0980  0.1600
  196MPD1    H6 2991   0.682   2.451   0.468 -0.3955 -1.3825 -2.0607
  196MPD1    H7 2992   0.580   2.318   0.468  0.4647 -0.4944  0.4810
  197MPD1     C 2993   0.039   4.274  17.616  0.4018  0.1981  0.1894
  197MPD1    C1 2994   4.630   4.270  17.589 -0.1349  0.5491  0.6520
  197MPD1    C2 2995   4.585   4.298  17.465 -0.1527 -0.0948  0.3770
  197MPD1    C3 2996   4.677   4.319  17.362 -0.2923  0.8465  0.2932
  197MPD1    C4 2997   0.089   4.306  17.381  0.2551  0.1852 -0.2794
  197MPD1    C5 2998   0.131   4.282  17.511  0.0267  0.0810 -1.0317
  197MPD1     H 2999   4.479   4.293  17.445  0.0980  2.4946 -1.5217
  197MPD1    H1 3000   0.165   4.319  17.304 -1.8800  0.3409 -2.3465
  197MPD1    H2 3001   0.080   4.270   0.007  0.3525  0.9205  0.2363
  197MPD1    H3 3002   0.237   4.268  17.528 -0.3121 -1.3073 -0.0563
  197MPD1     N 3003   4.625   4.360  17.236  0.4277 -0.4275  0.4915
  197MPD1    H5 3004   4.692   4.382  17.163  0.6349 -2.3956  0.0689
  197MPD1    N1 3005   4.535   4.265  17.696  0.2771 -0.0989 -0.0608
  197MPD1    H6 3006   4.578   4.207   0.060 -0.7182  0.7908  1.2296
  197MPD1    H7 3007   4.451   4.213  17.670  1.4628 -2.2230  0.2943
  198MPD1     C 3008   2.069   2.423  15.348  0.4556  0.2894 -0.3488
  198MPD1    C1 3009   2.071   2.447  15.482 -0.1877 -0.5911 -0.4718
  198MPD1    C2 3010   2.079   2.576  15.531 -0.6317 -0.0118 -0.0192
  198MPD1    C3 3011   2.085   2.676  15.440 -0.1448 -0.0638 -0.7621
  198MPD1    C4 3012   2.068   2.650  15.305 -0.1368  0.5134  0.2729
  198MPD1    C5 3013   2.060   2.522  15.258 -0.1414  0.3416  0.5235
  198MPD1     H 3014   2.088   2.595  15.637 -0.4852  0.7702 -0.1710
  198MPD1    H1 3015   2.074   2.731  15.234 -1.5818  1.0970  0.8038
  198MPD1    H2 3016   2.077   2.320  15.316 -2.4907  0.5943 -2.0365
  198MPD1    H3 3017   2.049   2.499  15.152 -1.1973 -0.0910  0.7328
  198MPD1     N 3018   2.132   2.802  15.485 -0.0788  0.3515 -0.6947
  198MPD1    H5 3019   2.177   2.800  15.576 -0.4048  1.8106 -0.5005
  198MPD1    N1 3020   2.059   2.331  15.566  0.0093 -0.0979  0.6131
  198MPD1    H6 3021   2.095   2.347  15.660  1.4082 -0.2882  0.0937
  198MPD1    H7 3022   2.111   2.254  15.525  1.2592  0.0190  1.9703
  199MPD1     C 3023   3.265   3.855   9.985  0.8200  0.4386 -1.0375
  199MPD1    C1 3024   3.322   3.963   9.937 -0.1647  0.3175  0.5327
  199MPD1    C2 3025   3.301   4.082  10.002  0.0224  0.1137  0.5790
  199MPD1    C3 3026   3.228   4.089  10.119  0.9996  0.7041  0.1735
  199MPD1    C4 3027   3.175   3.969  10.169  0.6882  0.0007  0.2403
  199MPD1    C5 3028   3.184   3.857  10.096 -0.3837  0.0042  0.7024
  199MPD1     H 3029   3.345   4.173   9.961  1.9473 -0.4859  1.3029
  199MPD1    H1 3030   3.119   3.964  10.262  0.4675  2.8751  0.2637
  199MPD1    H2 3031   3.283   3.758   9.939  2.2997  1.2313 -2.1490
  199MPD1    H3 3032   3.127   3.768  10.122 -0.8942 -0.2237 -1.2192
  199MPD1     N 3033   3.216   4.206  10.195 -0.0958  0.0723 -0.2341
  199MPD1    H5 3034   3.156   4.209  10.276 -0.7172  0.8059 -0.7314
  199MPD1    N1 3035   3.378   3.968   9.810  0.3350 -0.4110 -0.1726
  199MPD1    H6 3036   3.444   3.891   9.810  0.9040  0.0781 -0.3515
  199MPD1    H7 3037   3.437   4.048   9.788 -2.1624  1.7294  0.8754
  200MPD1     C 3038   3.199   3.948  15.052 -0.5292 -0.8445 -1.4938
  200MPD1    C1 3039   3.112   3.908  14.950 -0.0330 -0.1168 -0.1145
  200MPD1    C2 3040   3.142   3.959  14.824  0.6226  0.6841  0.2500
  200MPD1    C3 3041   3.251   4.030  14.789 -0.6318  0.2708  0.0295
  200MPD1    C4 3042   3.345   4.061  14.885  0.4631  0.0051  0.3259
  200MPD1    C5 3043   3.306   4.022  15.014  0.3781  0.5722  0.8494
  200MPD1     H 3044   3.078   3.935  14.740 -0.4602  0.9895  0.9872
  200MPD1    H1 3045   3.437   4.118  14.872  1.1096 -1.0924  0.1413
  200MPD1    H2 3046   3.186   3.921  15.156  1.2490 -0.2408 -1.1013
  200MPD1    H3 3047   3.375   4.042  15.095 -0.4241 -0.7868  1.8498
  200MPD1     N 3048   3.260   4.052  14.651  0.7764  0.2403 -0.1493
  200MPD1    H5 3049   3.195   4.011  14.585 -0.3670 -1.1791  1.8292
  200MPD1    N1 3050   2.984   3.844  14.967 -0.3273 -0.0639  0.0928
  200MPD1    H6 3051   2.943   3.797  14.886  2.7055  0.8146 -1.9716
  200MPD1    H7 3052   2.985   3.768  15.035 -0.8656 -0.1607 -0.0079
  201MPD1     C 3053   0.622   3.560  13.636  0.0640  0.1422 -0.2494
  201MPD1    C1 3054   0.745   3.557  13.574  0.5303 -0.3789 -0.2140
  201MPD1    C2 3055   0.763   3.472  13.468  0.0159 -0.4297  0.2658
  201MPD1    C3 3056   0.666   3.378  13.431 -0.5685 -0.2427 -0.3259
  201MPD1    C4 3057   0.551   3.381  13.495  0.5147  0.3777  0.1482
  201MPD1    C5 3058   0.528   3.469  13.598 -0.5918 -0.3420 -0.5808
  201MPD1     H 3059   0.853   3.491  13.411 -0.2762  2.6325  0.8253
  201MPD1    H1 3060   0.474   3.307  13.479  1.6437 -0.8810  0.5621
  201MPD1    H2 3061   0.608   3.621  13.724 -0.7023 -1.1404  0.5296
  201MPD1    H3 3062   0.434   3.455  13.651 -2.2124  0.9240 -3.1396
  201MPD1     N 3063   0.694   3.282  13.333 -0.5105  0.3866 -0.0674
  201MPD1    H5 3064   0.790   3.274  13.301 -0.6816 -1.2965 -0.1961
  201MPD1    N1 3065   0.843   3.649  13.618 -0.3671 -0.4904  0.2192
  201MPD1    H6 3066   0.845   3.653  13.720  0.6437  0.4680  0.1601
  201MPD1    H7 3067   0.932   3.607  13.593  0.7274  2.7229 -1.2970
  202MPD1     C 3068   0.329   2.270   9.395 -0.1193  0.5055 -0.4383
  202MPD1    C1 3069   0.290   2.393   9.437 -0.7718  0.4742 -0.3665
  202MPD1    C2 3070   0.366   2.452   9.540 -1.8830 -0.3578  0.4761
  202MPD1    C3 3071   0.431   2.374   9.641  0.7111  0.4748 -0.2935
  202MPD1    C4 3072   0.447   2.246   9.610  0.4256 -0.2524 -0.3114
  202MPD1    C5 3073   0.394   2.199   9.491  0.2665  0.0301  0.3303
  202MPD1     H 3074   0.343   2.557   9.546  0.7013  0.3263 -1.6408
  202MPD1    H1 3075   0.493   2.184   9.686  0.1364 -1.5971 -1.2466
  202MPD1    H2 3076   0.280   2.218   9.313  0.2989  0.3822 -0.6104
  202MPD1    H3 3077   0.398   2.092   9.476  0.1679  0.1319 -0.4473
  202MPD1     N 3078   0.457   2.419   9.773 -0.3703 -0.4981 -0.1759
  202MPD1    H5 3079   0.481   2.350   9.843 -0.0121 -0.0835  0.1043
  202MPD1    N1 3080   0.238   2.482   9.340  0.1184  0.5191 -0.1793
  202MPD1    H6 3081   0.194   2.559   9.390 -1.0673 -1.2278  1.4928
  202MPD1    H7 3082   0.174   2.429   9.281 -0.0237  2.3798 -1.6675
  203MPD1     C 3083   4.562   4.084  13.169  0.2491 -0.0369  0.4030
  203MPD1    C1 3084   4.536   3.978  13.250  0.4910  0.2614  0.3990
  203MPD1    C2 3085   4.513   3.855  13.197 -0.5265  0.1691 -0.0350
  203MPD1    C3 3086   4.499   3.845  13.061 -0.3549 -0.8991 -0.6928
  203MPD1    C4 3087   4.524   3.956  12.980  0.1938  1.1500  0.2796
  203MPD1    C5 3088   4.554   4.074  13.029 -0.5351  0.6852  0.4783
  203MPD1     H 3089   4.513   3.768  13.262 -1.2261  0.3706  0.2335
  203MPD1    H1 3090   4.518   3.942  12.872 -0.8284  2.4114  0.1701
  203MPD1    H2 3091   4.597   4.179  13.207 -1.0891  0.1388  1.2113
  203MPD1    H3 3092   4.588   4.161  12.974 -1.2118  1.3961  1.1892
  203MPD1     N 3093   4.478   3.716  13.006 -0.3065  0.3680  0.1233
  203MPD1    H5 3094   4.487   3.637  13.068  0.0495 -0.4802 -1.0005
  203MPD1    N1 3095   4.565   3.983  13.387  0.6724  0.3292  0.0380
  203MPD1    H6 3096   4.497   3.929  13.441  0.8788 -0.0500 -0.0847
  203MPD1    H7 3097   4.556   4.074  13.432  0.8281 -0.2812  1.2878
  204MPD1     C 3098   3.308   4.318   0.463  0.1235 -0.0906 -0.1386
  204MPD1    C1 3099   3.283   4.188   0.416 -0.3868  0.0137 -1.1489
  204MPD1    C2 3100   3.350   4.130   0.314  0.5394  0.0321  0.3153
  204MPD1    C3 3101   3.436   4.213   0.241 -0.4087  0.6563  0.4140
  204MPD1    C4 3102   3.463   4.343   0.289  0.3519 -0.6432 -0.0496
  204MPD1    C5 3103   3.390   4.398   0.395  0.2212 -0.2496 -0.4841
  204MPD1     H 3104   3.324   4.033   0.273  0.3772  1.4427 -2.9312
  204MPD1    H1 3105   3.533   4.411   0.242 -0.1621  1.5430  2.3351
  204MPD1    H2 3106   3.256   4.365   0.546 -1.4142  1.0819 -1.7552
  204MPD1    H3 3107   3.426   4.497   0.422 -1.3326  0.5311 -1.2586
  204MPD1     N 3108   3.505   4.159   0.130  0.1586  1.1419  0.4083
  204MPD1    H5 3109   3.485   4.062   0.109 -0.5398  0.7067  3.2387
  204MPD1    N1 3110   3.204   4.102   0.494  0.7436 -0.0319 -0.0767
  204MPD1    H6 3111   3.161   4.022   0.449  0.8715  0.3555 -0.8878
  204MPD1    H7 3112   3.134   4.160   0.541  2.5645  2.1598 -0.0928
  205MPD1     C 3113   3.075   3.092  16.857 -0.1501 -0.1003  0.5621
  205MPD1    C1 3114   3.076   2.975  16.938 -0.2172  0.1069  0.3410
  205MPD1    C2 3115   3.168   2.970  17.041 -0.0629  0.0906  0.0009
  205MPD1    C3 3116   3.257   3.075  17.067 -0.0008  1.2924  0.5911
  205MPD1    C4 3117   3.254   3.192  16.989 -0.2356  0.0291 -0.1308
  205MPD1    C5 3118   3.161   3.198  16.888  0.9441 -0.2927 -0.1474
  205MPD1     H 3119   3.168   2.882  17.104  2.1963 -0.1972 -0.4021
  205MPD1    H1 3120   3.312   3.282  17.008  2.8279 -1.5857 -1.8512
  205MPD1    H2 3121   3.026   3.090  16.761 -0.4469  1.9238  0.6595
  205MPD1    H3 3122   3.163   3.289  16.829  2.3141  0.8463  1.6236
  205MPD1     N 3123   3.355   3.070  17.175  0.1007 -0.2383  0.1763
  205MPD1    H5 3124   3.429   3.140  17.177  2.2977 -2.5225 -0.5897
  205MPD1    N1 3125   3.019   2.855  16.890 -0.3086 -0.4324  0.1515
  205MPD1    H6 3126   2.934   2.867  16.834 -0.4070  0.0575  0.4042
  205MPD1    H7 3127   3.000   2.782  16.958 -0.0981  0.4387  1.1472
  206MPD1     C 3128   3.522   1.146  16.696 -0.6018 -0.0796 -0.7624
  206MPD1    C1 3129   3.579   1.252  16.635 -0.0586 -0.2155  0.2452
  206MPD1    C2 3130   3.598   1.236  16.495 -1.0044 -0.4614  0.1662
  206MPD1    C3 3131   3.554   1.128  16.415 -0.2362  0.2656 -0.6932
  206MPD1    C4 3132   3.482   1.029  16.484  0.3801  0.0774 -1.1180
  206MPD1    C5 3133   3.469   1.044  16.619 -0.1078 -0.1641  0.4228
  206MPD1     H 3134   3.654   1.316  16.447 -0.5011 -0.1114  1.3336
  206MPD1    H1 3135   3.424   0.949  16.440 -0.2137  0.4551 -1.0211
  206MPD1    H2 3136   3.519   1.130  16.804 -0.1703  2.4771 -0.3662
  206MPD1    H3 3137   3.409   0.967  16.667 -1.2027  0.1150 -0.4865
  206MPD1     N 3138   3.570   1.117  16.280 -0.1463  0.6943 -0.5386
  206MPD1    H5 3139   3.527   1.033  16.244  0.8703  0.1750 -0.5366
  206MPD1    N1 3140   3.654   1.344  16.712  0.5304  0.2127  0.5330
  206MPD1    H6 3141   3.647   1.435  16.667  0.6638 -0.1798 -0.2959
  206MPD1    H7 3142   3.622   1.362  16.807  0.5946  0.3500  0.5272
  207MPD1     C 3143   0.396   3.553   9.538 -0.2540 -0.0954 -0.0176
  207MPD1    C1 3144   0.513   3.574   9.474  0.0641  1.1701  0.1579
  207MPD1    C2 3145   0.626   3.607   9.540 -0.2942 -0.0819  0.2047
  207MPD1    C3 3146   0.628   3.631   9.679 -0.8078  0.5211 -0.2828
  207MPD1    C4 3147   0.505   3.621   9.739  0.1636  0.3182 -0.7957
  207MPD1    C5 3148   0.395   3.583   9.670  0.3605  0.3443  0.3720
  207MPD1     H 3149   0.716   3.623   9.481 -0.9714 -0.0586 -0.8273
  207MPD1    H1 3150   0.499   3.641   9.846 -0.8693 -1.2344 -0.5697
  207MPD1    H2 3151   0.309   3.520   9.482 -0.5689 -0.5353  0.7350
  207MPD1    H3 3152   0.304   3.576   9.729  0.3166 -0.8377  0.1663
  207MPD1     N 3153   0.741   3.675   9.749  0.5273  0.2853  0.2024
  207MPD1    H5 3154   0.729   3.686   9.849 -0.7382  1.3647 -0.0580
  207MPD1    N1 3155   0.518   3.536   9.342  0.1792 -0.1382 -0.1081
  207MPD1    H6 3156   0.597   3.582   9.298  0.8694  0.4980  1.7951
  207MPD1    H7 3157   0.432   3.567   9.296  0.3437 -1.5579 -1.3504
  208MPD1     C 3158   4.671   2.964  16.918 -0.1533  0.5328  0.2559
  208MPD1    C1 3159   4.548   2.940  16.984  1.4344 -0.7502  0.8478
  208MPD1    C2 3160   4.545   2.921  17.122 -0.0762  0.0633  0.6436
  208MPD1    C3 3161   4.655   2.958  17.188  0.3452 -0.1211 -0.5100
  208MPD1    C4 3162   0.048   2.993  17.126  0.0226 -0.8971 -0.1723
  208MPD1    C5 3163   0.055   2.991  16.992 -0.5293  0.1801  0.2883
  208MPD1     H 3164   4.456   2.877  17.166 -1.0465  3.7104  2.3563
  208MPD1    H1 3165   0.143   3.012  17.174 -0.5013 -1.1156  0.9353
  208MPD1    H2 3166   4.669   2.974  16.811 -1.4719  0.4439  0.2706
  208MPD1    H3 3167   0.151   3.024  16.952 -1.9121  0.8801 -2.4362
  208MPD1     N 3168   4.648   2.942  17.327  1.0043 -0.8303 -0.4755
  208MPD1    H5 3169   4.557   2.910  17.358  0.2374  0.1095 -1.7335
  208MPD1    N1 3170   4.445   2.895  16.905 -0.5317 -0.2420  0.6660
  208MPD1    H6 3171   4.351   2.892  16.945 -0.9229 -1.0265 -0.2972
  208MPD1    H7 3172   4.449   2.929  16.809 -2.2753 -0.7537  0.3991
  209MPD1     C 3173   1.476   3.038  11.369 -0.5027 -0.2203 -0.3185
  209MPD1    C1 3174   1.568   3.139  11.375  0.7490  0.3411 -0.1922
  209MPD1    C2 3175   1.545   3.255  11.302  0.4618  0.2612  0.6137
  209MPD1    C3 3176   1.441   3.269  11.207 -0.2447 -0.4915 -0.1504
  209MPD1    C4 3177   1.360   3.161  11.198  0.0524  0.3443 -0.2438
  209MPD1    C5 3178   1.376   3.052  11.278 -0.0753 -0.7160  0.5472
  209MPD1     H 3179   1.609   3.340  11.316  0.9652  0.0366 -0.3047
  209MPD1    H1 3180   1.282   3.153  11.123  0.5181 -1.4197 -0.5613
  209MPD1    H2 3181   1.472   2.953  11.436 -0.4814 -0.3648 -0.5009
  209MPD1    H3 3182   1.304   2.971  11.279 -1.1878  0.2478 -3.6615
  209MPD1     N 3183   1.425   3.392  11.136  0.3329 -0.0425  0.2665
  209MPD1    H5 3184   1.501   3.459  11.141  0.3662  0.0342 -1.2990
  209MPD1    N1 3185   1.649   3.127  11.487 -0.0602  0.4429 -0.1694
  209MPD1    H6 3186   1.742   3.165  11.469  1.4471 -1.9479  2.4576
  209MPD1    H7 3187   1.661   3.029  11.515 -0.3362  0.1045 -1.2335
  210MPD1     C 3188   1.618   4.363  10.982 -0.1861 -0.2948  0.1587
  210MPD1    C1 3189   1.635   4.258  11.073 -0.3700  0.6165  0.6419
  210MPD1    C2 3190   1.605   4.130  11.036  0.1767  0.0580 -0.3921
  210MPD1    C3 3191   1.521   4.105  10.925  0.1913  0.5154  0.2770
  210MPD1    C4 3192   1.482   4.212  10.844 -0.1346 -1.1116  0.0741
  210MPD1    C5 3193   1.539   4.339  10.869  0.5621 -0.3665 -0.1961
  210MPD1     H 3194   1.637   4.050  11.103  2.0380  0.6355 -0.5927
  210MPD1    H1 3195   1.424   4.201  10.753 -0.2144 -1.5040  0.1734
  210MPD1    H2 3196   1.663   4.459  11.005  0.2341 -0.2643 -0.7850
  210MPD1    H3 3197   1.525   4.414  10.791 -2.8683 -2.0029 -1.1595
  210MPD1     N 3198   1.485   3.974  10.886 -0.1224 -0.5741 -0.1198
  210MPD1    H5 3199   1.410   3.971  10.818 -0.4190  0.5692  0.1517
  210MPD1    N1 3200   1.728   4.280  11.177  0.1626  0.1589  0.2390
  210MPD1    H6 3201   1.727   4.376  11.210 -1.6348 -0.2107  1.2933
  210MPD1    H7 3202   1.712   4.215  11.254 -0.9387 -0.5061 -0.5458
  211MPD1     C 3203   4.395   3.076  16.289  0.3208 -0.1201 -0.4293
  211MPD1    C1 3204   4.439   3.195  16.231  0.0306  0.3261  0.2283
  211MPD1    C2 3205   4.337   3.276  16.182 -0.1825 -0.6587 -0.0013
  211MPD1    C3 3206   4.203   3.248  16.201 -0.4118 -0.1153 -0.2085
  211MPD1    C4 3207   4.168   3.130  16.256 -0.1266 -0.4241  0.3268
  211MPD1    C5 3208   4.265   3.044  16.299  0.6377 -0.3744 -0.0741
  211MPD1     H 3209   4.357   3.372  16.136  0.4532  0.1597  1.9929
  211MPD1    H1 3210   4.068   3.096  16.278 -1.5045  1.3143 -3.1742
  211MPD1    H2 3211   4.466   3.011  16.340  1.0173  1.8702  1.1214
  211MPD1    H3 3212   4.243   2.953  16.355 -0.5403 -1.1054 -1.7432
  211MPD1     N 3213   4.103   3.335  16.151 -0.0325  0.4500  0.4108
  211MPD1    H5 3214   4.133   3.423  16.110 -0.4163  1.4323  2.2424
  211MPD1    N1 3215   4.576   3.218  16.199 -0.4021 -0.2047  0.1065
  211MPD1    H6 3216   4.635   3.189  16.277  0.3190 -2.8084 -1.4102
  211MPD1    H7 3217   4.586   3.319  16.196 -0.3574 -0.2211 -0.2993
  212MPD1     C 3218   3.385   1.755  16.099  0.3588  0.1211 -0.9144
  212MPD1    C1 3219   3.426   1.769  16.228 -0.6960 -0.8025  0.4530
  212MPD1    C2 3220   3.388   1.670  16.311  0.0037  0.0490 -0.2708
  212MPD1    C3 3221   3.320   1.562  16.266 -0.0990 -0.2500 -0.5154
  212MPD1    C4 3222   3.301   1.546  16.132 -0.3724  0.4404 -0.1501
  212MPD1    C5 3223   3.330   1.645  16.046  0.4021 -0.8291 -0.7237
  212MPD1     H 3224   3.417   1.686  16.414 -1.3214 -1.2905  0.2994
  212MPD1    H1 3225   3.249   1.458  16.095 -1.0631  0.4917  0.6899
  212MPD1    H2 3226   3.402   1.831  16.024 -0.0598 -0.1240 -1.2607
  212MPD1    H3 3227   3.307   1.645  15.940 -1.0950 -1.6280 -0.3944
  212MPD1     N 3228   3.275   1.462  16.359  0.4228 -0.1322  0.0294
  212MPD1    H5 3229   3.225   1.384  16.319 -0.0738 -0.7697  1.8822
  212MPD1    N1 3230   3.474   1.891  16.272  0.3550 -0.3771 -0.5812
  212MPD1    H6 3231   3.542   1.876  16.347  1.6982  1.3419 -1.4261
  212MPD1    H7 3232   3.507   1.950  16.196  0.2989 -1.2832 -1.2945
  213MPD1     C 3233   1.601   3.259  15.688  0.3770 -0.4908  0.2414
  213MPD1    C1 3234   1.554   3.240  15.559 -0.8132 -0.5387  0.1540
  213MPD1    C2 3235   1.595   3.125  15.503  0.4075  0.2845  0.3713
  213MPD1    C3 3236   1.643   3.017  15.571 -1.0719  0.4468 -0.3698
  213MPD1    C4 3237   1.672   3.031  15.705 -0.3712  0.1923 -0.4866
  213MPD1    C5 3238   1.647   3.154  15.762 -0.0963  0.1544  0.3740
  213MPD1     H 3239   1.585   3.099  15.398 -0.1324  2.0821 -0.0296
  213MPD1    H1 3240   1.702   2.949  15.768 -3.1561 -1.2642 -1.0680
  213MPD1    H2 3241   1.564   3.349  15.735 -0.9187  0.1648 -2.0312
  213MPD1    H3 3242   1.670   3.168  15.867  2.0417  0.0488 -0.0814
  213MPD1     N 3243   1.654   2.900  15.493  0.0794  0.4733 -0.0337
  213MPD1    H5 3244   1.609   2.901  15.402  0.0226  2.6616  0.0124
  213MPD1    N1 3245   1.534   3.354  15.484 -0.4153 -0.2046 -0.3669
  213MPD1    H6 3246   1.481   3.328  15.401 -0.1987 -0.5347 -0.4052
  213MPD1    H7 3247   1.483   3.426  15.534  0.5796 -0.6525  1.2984
  214MPD1     C 3248   1.685   1.956  15.767 -0.5435  0.7809 -0.0445
  214MPD1    C1 3249   1.594   1.980  15.668  0.1144 -0.1485  0.7768
  214MPD1    C2 3250   1.617   2.086  15.580 -0.1653 -0.8832 -0.0615
  214MPD1    C3 3251   1.737   2.158  15.581  0.1321 -0.2734 -0.2303
  214MPD1    C4 3252   1.834   2.120  15.676  0.3695 -0.5853  0.3858
  214MPD1    C5 3253   1.801   2.029  15.769  0.1089 -0.1522  0.3142
  214MPD1     H 3254   1.542   2.115  15.507  0.5653 -4.0844 -2.0765
  214MPD1    H1 3255   1.927   2.168  15.705  0.8216 -1.1344 -0.1642
  214MPD1    H2 3256   1.661   1.890  15.849 -0.2214  2.0637  1.0877
  214MPD1    H3 3257   1.867   1.998  15.848 -2.2912 -0.2508  2.2871
  214MPD1     N 3258   1.771   2.268  15.501 -0.1785 -0.2239  0.1236
  214MPD1    H5 3259   1.854   2.320  15.525 -0.2361  0.2315 -0.6570
  214MPD1    N1 3260   1.468   1.919  15.687  0.1685  0.5351 -0.1326
  214MPD1    H6 3261   1.421   1.927  15.597  0.9910  0.4742 -0.5752
  214MPD1    H7 3262   1.486   1.820  15.707 -1.4318 -0.6201 -4.3185
  215MPD1     C 3263   0.970   2.717  11.375 -0.6210 -0.5879  0.3718
  215MPD1    C1 3264   1.078   2.729  11.457 -0.2782 -0.1139 -0.6816
  215MPD1    C2 3265   1.109   2.858  11.501 -0.0865  0.9547  0.2226
  215MPD1    C3 3266   1.052   2.967  11.445  0.1612 -0.7496 -0.4120
  215MPD1    C4 3267   0.946   2.953  11.361 -0.2044 -0.5314  0.4282
  215MPD1    C5 3268   0.906   2.824  11.321  0.5135  0.4325  0.2142
  215MPD1     H 3269   1.194   2.871  11.567  1.4739 -0.3614 -1.5158
  215MPD1    H1 3270   0.891   3.038  11.323  3.1202  1.2649 -0.4219
  215MPD1    H2 3271   0.927   2.620  11.353  0.2483 -0.8882 -0.0184
  215MPD1    H3 3272   0.831   2.813  11.244  0.6550  0.7566  0.0335
  215MPD1     N 3273   1.098   3.095  11.479  0.3187  0.2881 -0.0151
  215MPD1    H5 3274   1.163   3.104  11.556  1.2339  0.5479 -0.8353
  215MPD1    N1 3275   1.131   2.616  11.520  0.0442 -0.2827 -0.3023
  215MPD1    H6 3276   1.126   2.536  11.456 -0.1230  0.3118 -1.0324
  215MPD1    H7 3277   1.229   2.630  11.546  0.1327  0.8452 -1.2562
  216MPD1     C 3278   3.925   1.026  17.473  0.3019 -0.8892 -0.4866
  216MPD1    C1 3279   3.996   0.918  17.488 -0.3335 -0.5587 -0.2200
  216MPD1    C2 3280   3.923   0.799  17.496  0.1134 -0.2129  0.1514
  216MPD1    C3 3281   3.787   0.790  17.475 -0.4377 -0.1335 -0.6101
  216MPD1    C4 3282   3.718   0.905  17.453  0.0244 -0.1844 -0.5605
  216MPD1    C5 3283   3.788   1.022  17.448  0.1348  0.2451  0.0498
  216MPD1     H 3284   3.980   0.706  17.497  0.1322 -0.1974  0.8180
  216MPD1    H1 3285   3.610   0.905  17.437 -0.3085 -0.5028  1.6144
  216MPD1    H2 3286   3.971   1.124  17.474  0.6514 -1.0579  0.5401
  216MPD1    H3 3287   3.726   1.111  17.442  0.2625  0.1439 -2.4762
  216MPD1     N 3288   3.731   0.664  17.493  0.1617  0.1064  0.6713
  216MPD1    H5 3289   3.793   0.584  17.496 -0.0328 -0.0790 -0.2418
  216MPD1    N1 3290   4.126   0.916  17.539  0.3274  0.1551  0.1757
  216MPD1    H6 3291   4.176   0.996  17.501  1.5949 -0.6690  0.0907
  216MPD1    H7 3292   4.180   0.831  17.524  2.9475  1.8324 -0.0420
  217MPD1     C 3293   4.057   3.284   8.601  0.4266  0.6128 -0.5488
  217MPD1    C1 3294   4.142   3.182   8.585 -0.5048 -0.1047 -0.0234
  217MPD1    C2 3295   4.158   3.095   8.688  0.2944  0.2574 -0.1675
  217MPD1    C3 3296   4.075   3.093   8.797 -0.5416 -0.0716  0.6975
  217MPD1    C4 3297   3.979   3.195   8.800  0.2521 -0.8915  0.2746
  217MPD1    C5 3298   3.962   3.285   8.704  0.0276 -0.2271 -0.0330
  217MPD1     H 3299   4.220   3.009   8.665  0.8501  0.3706  0.9322
  217MPD1    H1 3300   3.913   3.199   8.886 -1.2903 -0.0786 -0.9495
  217MPD1    H2 3301   4.052   3.350   8.515  3.4494 -2.0072 -2.7745
  217MPD1    H3 3302   3.890   3.365   8.694  0.0979 -0.4078 -2.1790
  217MPD1     N 3303   4.059   2.991   8.895  0.1688 -1.4272 -0.4062
  217MPD1    H5 3304   3.994   3.004   8.971 -0.9723 -0.4273 -1.5442
  217MPD1    N1 3305   4.240   3.195   8.479 -0.2040  0.2777 -0.2849
  217MPD1    H6 3306   4.189   3.236   8.401 -0.5494 -1.2720 -0.8858
  217MPD1    H7 3307   4.288   3.109   8.452  0.2185  0.1623  0.8251
  218MPD1     C 3308   0.936   4.054  13.293 -0.9744  0.2913 -0.1607
  218MPD1    C1 3309   0.917   4.046  13.160  0.2315 -0.5234 -0.6810
  218MPD1    C2 3310   1.006   3.976  13.084  0.4081  0.2797 -0.0731
  218MPD1    C3 3311   1.111   3.902  13.135  0.1415 -0.4635  0.0507
  218MPD1    C4 3312   1.128   3.909  13.268  0.1046 -0.1442 -0.0418
  218MPD1    C5 3313   1.045   3.984  13.346 -0.5000  0.0182 -0.9922
  218MPD1     H 3314   0.979   3.967  12.980  0.1944  1.3609 -0.1116
  218MPD1    H1 3315   1.210   3.859  13.319 -0.7484 -1.0973  0.3964
  218MPD1    H2 3316   0.861   4.104  13.353 -1.4217 -1.4187  0.7092
  218MPD1    H3 3317   1.056   3.985  13.454 -0.5692 -1.9735 -0.9818
  218MPD1     N 3318   1.178   3.817  13.049  0.4766 -0.3292  0.4063
  218MPD1    H5 3319   1.150   3.833  12.952 -2.5848  1.3688  1.5550
  218MPD1    N1 3320   0.799   4.103  13.101 -0.2745  0.4911 -0.2283
  218MPD1    H6 3321   0.781   4.197  13.136  0.8321 -0.7089  3.5232
  218MPD1    H7 3322   0.821   4.115  13.002  1.3728  0.5325  0.1505
  219MPD1     C 3323   1.098   3.449  12.116  0.1195 -0.3824  0.2292
  219MPD1    C1 3324   1.034   3.541  12.195 -1.0673 -0.3271  0.0348
  219MPD1    C2 3325   1.080   3.567  12.330 -0.2948 -0.1505 -0.1489
  219MPD1    C3 3326   1.182   3.483  12.380 -0.0882 -0.3871 -0.3904
  219MPD1    C4 3327   1.238   3.384  12.309 -0.3164  0.5402  0.2943
  219MPD1    C5 3328   1.199   3.368  12.177  0.3910  1.1193  0.0673
  219MPD1     H 3329   1.030   3.644  12.388  0.4527  1.1792 -1.2649
  219MPD1    H1 3330   1.310   3.318  12.355  1.9905  0.3728 -3.5844
  219MPD1    H2 3331   1.065   3.421  12.016  0.6279 -0.1702  0.0011
  219MPD1    H3 3332   1.236   3.285  12.118  0.6111 -0.2774  2.1743
  219MPD1     N 3333   1.224   3.505  12.513 -0.1785  0.3126  0.1390
  219MPD1    H5 3334   1.267   3.421  12.550  1.0598  0.4908 -0.9028
  219MPD1    N1 3335   0.940   3.628  12.140 -0.0449 -0.0246 -0.0174
  219MPD1    H6 3336   0.898   3.599  12.052 -1.4350  0.5435  0.4548
  219MPD1    H7 3337   0.874   3.668  12.207  1.4450 -0.8837  1.9646
  220MPD1     C 3338   0.990   4.261   9.836  0.2508  0.0203 -0.2610
  220MPD1    C1 3339   0.866   4.206   9.867  0.0841  0.6362  0.2942
  220MPD1    C2 3340   0.866   4.148   9.993  0.5934 -0.0263  0.1439
  220MPD1    C3 3341   0.974   4.135  10.084  0.0961  0.7075 -0.5723
  220MPD1    C4 3342   1.092   4.190  10.047  0.0314 -0.9032 -0.1220
  220MPD1    C5 3343   1.093   4.252   9.920  0.5275  0.7421  0.5812
  220MPD1     H 3344   0.769   4.116  10.031  0.3158 -0.6239 -1.0630
  220MPD1    H1 3345   1.177   4.193  10.115  0.5117  4.4547 -0.9703
  220MPD1    H2 3346   0.997   4.307   9.738 -2.1966 -1.1048 -0.9731
  220MPD1    H3 3347   1.187   4.297   9.889  2.3541 -3.4175  0.0548
  220MPD1     N 3348   0.948   4.069  10.208  0.0900  0.0721  0.3982
  220MPD1    H5 3349   0.853   4.034  10.217  1.0414 -2.7680 -0.5878
  220MPD1    N1 3350   0.756   4.231   9.780 -0.6675 -0.2698 -0.0445
  220MPD1    H6 3351   0.688   4.159   9.805  0.1879  0.0624  3.2409
  220MPD1    H7 3352   0.769   4.228   9.679  1.9100  1.6424  0.2343
  221MPD1     C 3353   3.596   3.571  16.453  0.6884 -0.0364 -0.4621
  221MPD1    C1 3354   3.489   3.523  16.381  0.1882 -0.3367 -0.0290
  221MPD1    C2 3355   3.491   3.386  16.346  0.7328  0.8187 -0.2498
  221MPD1    C3 3356   3.608   3.316  16.357  0.1784 -0.2889  0.3319
  221MPD1    C4 3357   3.724   3.371  16.409  0.4813  0.4741 -0.6373
  221MPD1    C5 3358   3.714   3.499  16.456 -0.1897 -0.4236  0.5275
  221MPD1     H 3359   3.404   3.341  16.300  0.0408  0.3154  1.5507
  221MPD1    H1 3360   3.817   3.316  16.425  0.1080 -0.7795 -2.8091
  221MPD1    H2 3361   3.599   3.669  16.499 -0.6858  0.0468 -0.5413
  221MPD1    H3 3362   3.798   3.539  16.513 -0.3607 -1.0516  1.2328
  221MPD1     N 3363   3.620   3.190  16.300 -0.6552  0.0316 -0.2621
  221MPD1    H5 3364   3.717   3.162  16.288  0.3219  3.1280  0.4762
  221MPD1    N1 3365   3.381   3.610  16.373  0.0277  0.2023  0.1752
  221MPD1    H6 3366   3.398   3.710  16.379 -0.8340  0.3228  0.6854
  221MPD1    H7 3367   3.312   3.600  16.299 -1.7482 -1.3050  2.0534
  222MPD1     C 3368   2.868   2.415  16.605  0.1448  0.0615  1.0982
  222MPD1    C1 3369   2.738   2.372  16.635  0.0170  0.6686 -0.2658
  222MPD1    C2 3370   2.718   2.313  16.767 -0.7094  0.2163 -0.1043
  222MPD1    C3 3371   2.830   2.285  16.848  0.0241 -1.0391 -0.1646
  222MPD1    C4 3372   2.956   2.320  16.802  0.7456 -0.0263 -0.1308
  222MPD1    C5 3373   2.971   2.396  16.687  0.5313 -0.5216 -0.1697
  222MPD1     H 3374   2.620   2.288  16.805 -0.4426 -1.1603 -0.3331
  222MPD1    H1 3375   3.043   2.311  16.866  0.0268  2.2776  1.1503
  222MPD1    H2 3376   2.899   2.462  16.513 -1.9859 -0.6525  0.0071
  222MPD1    H3 3377   3.070   2.432  16.658  0.6597  1.2630  2.4915
  222MPD1     N 3378   2.825   2.221  16.974  0.4290 -1.1177  0.0258
  222MPD1    H5 3379   2.911   2.201  17.024 -0.1249 -0.3120  1.2845
  222MPD1    N1 3380   2.632   2.416  16.563 -0.1158  0.3652  0.5273
  222MPD1    H6 3381   2.547   2.361  16.575  0.5889 -0.7182  0.4472
  222MPD1    H7 3382   2.656   2.407  16.464 -0.2360  3.4571  0.2046
  223MPD1     C 3383   2.357   1.659   0.101 -0.0585  0.2452 -0.8040
  223MPD1    C1 3384   2.439   1.749   0.160 -0.0201  0.1406 -0.4247
  223MPD1    C2 3385   2.499   1.843   0.081 -0.4925 -0.2973 -0.5744
  223MPD1    C3 3386   2.479   1.839  17.650  0.3339  0.0321 -0.7103
  223MPD1    C4 3387   2.389   1.745  17.594  0.5421 -0.6328 -0.1765
  223MPD1    C5 3388   2.327   1.660  17.682 -0.2624  0.0391 -0.2248
  223MPD1     H 3389   2.567   1.914   0.128  3.4128 -3.2863 -1.7147
  223MPD1    H1 3390   2.359   1.737  17.490 -1.5055  0.6312  0.3172
  223MPD1    H2 3391   2.305   1.585   0.161 -0.8405  0.4952 -1.1689
  223MPD1    H3 3392   2.261   1.587  17.637 -1.3959  1.2643 -0.5661
  223MPD1     N 3393   2.558   1.933  17.574  0.8527 -0.0020 -0.4600
  223MPD1    H5 3394   2.632   1.981  17.624  0.7907 -0.7513  0.3630
  223MPD1    N1 3395   2.465   1.748   0.298  0.2437  0.4595 -0.5146
  223MPD1    H6 3396   2.471   1.841   0.339  0.9819  0.7887 -1.3964
  223MPD1    H7 3397   2.394   1.690   0.344 -1.0527  1.0022 -1.8390
  224MPD1     C 3398   4.011   3.202   9.231 -0.3706  0.0263 -0.0846
  224MPD1    C1 3399   3.888   3.233   9.278 -0.3533 -0.0142  0.5125
  224MPD1    C2 3400   3.853   3.172   9.399  0.4062 -0.0044 -0.1555
  224MPD1    C3 3401   3.941   3.092   9.474  0.5174  0.2543  0.0990
  224MPD1    C4 3402   4.064   3.062   9.417 -0.0696 -0.5416  0.4386
  224MPD1    C5 3403   4.097   3.122   9.299 -0.1031  0.3020 -0.4064
  224MPD1     H 3404   3.750   3.171   9.434  0.2506  2.1470 -0.6003
  224MPD1    H1 3405   4.140   3.005   9.470  2.3212  1.6363 -0.6304
  224MPD1    H2 3406   4.049   3.241   9.138  1.0900  3.1553  1.8192
  224MPD1    H3 3407   4.199   3.106   9.265 -0.1249 -4.2652  1.7757
  224MPD1     N 3408   3.920   3.046   9.598 -0.1985  0.3282  0.3413
  224MPD1    H5 3409   3.986   2.978   9.634 -0.6024  0.1046  0.6606
  224MPD1    N1 3410   3.799   3.302   9.193  0.6981 -0.4478 -0.6344
  224MPD1    H6 3411   3.842   3.378   9.141 -2.4767  1.1565 -0.9241
  224MPD1    H7 3412   3.714   3.336   9.238  0.5755  0.8627 -1.8576
  225MPD1     C 3413   1.438   0.111  12.270  0.3213  0.7843 -0.8394
  225MPD1    C1 3414   1.415   4.725  12.195 -0.1762 -0.4760 -0.0635
  225MPD1    C2 3415   1.302   4.714  12.122  0.1069  0.4430 -0.2177
  225MPD1    C3 3416   1.199   0.079  12.148 -0.1695  0.3378  0.2726
  225MPD1    C4 3417   1.218   0.186  12.229  0.4081  0.0519 -0.3044
  225MPD1    C5 3418   1.346   0.209  12.279  0.1305  0.3502  0.8138
  225MPD1     H 3419   1.283   4.627  12.061 -0.6886 -0.3985  1.2320
  225MPD1    H1 3420   1.135   0.253  12.249 -0.8425 -0.7558 -2.8279
  225MPD1    H2 3421   1.522   0.115  12.339 -1.1933 -1.3528  1.1218
  225MPD1    H3 3422   1.375   0.295  12.339 -1.5539 -0.5397  2.8887
  225MPD1     N 3423   1.064   0.055  12.103 -0.1608 -0.5321  0.5668
  225MPD1    H5 3424   0.999   0.124  12.138  0.1236 -0.6587  1.3492
  225MPD1    N1 3425   1.523   4.648  12.156  0.1550 -0.3577  0.0873
  225MPD1    H6 3426   1.588   4.632  12.232  0.0781 -0.7501  0.0709
  225MPD1    H7 3427   1.496   4.556  12.121 -1.8763  0.8811 -1.5890
  226MPD1     C 3428   0.800   4.099   9.479  0.9720 -0.0229  0.2443
  226MPD1    C1 3429   0.786   4.237   9.472  0.5240 -0.3477 -0.5181
  226MPD1    C2 3430   0.659   4.296   9.492  0.0503  0.3341 -0.8352
  226MPD1    C3 3431   0.545   4.217   9.522 -0.3458  0.1573  0.8009
  226MPD1    C4 3432   0.562   4.077   9.541  0.2319  0.5430 -0.2387
  226MPD1    C5 3433   0.686   4.027   9.515 -0.5241  0.0138  0.3553
  226MPD1     H 3434   0.642   4.403   9.494 -0.3096  0.2699 -0.4164
  226MPD1    H1 3435   0.487   4.006   9.573 -0.1667  1.2573  0.4221
  226MPD1    H2 3436   0.887   4.046   9.441  0.7661 -0.0356 -0.2053
  226MPD1    H3 3437   0.707   3.921   9.522  0.7623  0.1961 -0.7849
  226MPD1     N 3438   0.418   4.282   9.543  0.1969  0.2452 -0.1248
  226MPD1    H5 3439   0.414   4.380   9.520 -1.8301  0.2972  0.5030
  226MPD1    N1 3440   0.894   4.324   9.433 -0.4635  0.6082  0.2337
  226MPD1    H6 3441   0.886   4.422   9.460 -3.7783  0.4506 -0.1616
  226MPD1    H7 3442   0.986   4.295   9.464 -0.8014  0.4616  1.0948
  227MPD1     C 3443   0.322   0.380   9.497 -0.4673  0.0092  0.5773
  227MPD1    C1 3444   0.401   0.297   9.579  0.4703  0.1404  0.0256
  227MPD1    C2 3445   0.348   0.171   9.603  0.6086 -0.4735 -0.1890
  227MPD1    C3 3446   0.230   0.121   9.548 -0.6809  0.3636 -0.1593
  227MPD1    C4 3447   0.159   0.202   9.464 -0.7058 -0.2156  0.4599
  227MPD1    C5 3448   0.201   0.333   9.442  0.7283 -0.1200 -0.9255
  227MPD1     H 3449   0.406   0.106   9.667 -0.4429 -1.6630 -0.4420
  227MPD1    H1 3450   0.073   0.150   9.424  0.1201 -1.5756  0.4378
  227MPD1    H2 3451   0.347   0.484   9.477  1.4829 -0.9694 -2.0685
  227MPD1    H3 3452   0.145   0.397   9.375  1.3349  0.9731 -0.3888
  227MPD1     N 3453   0.199   4.708   9.567  0.4428 -0.1543  0.0829
  227MPD1    H5 3454   0.272   4.648   9.604  0.7233  0.8341  1.1201
  227MPD1    N1 3455   0.511   0.336   9.649 -0.3167 -0.1945  0.0600
  227MPD1    H6 3456   0.582   0.397   9.609  0.3303 -1.9446 -1.4681
  227MPD1    H7 3457   0.561   0.257   9.689  1.1591 -0.9627 -3.2901
  228MPD1     C 3458   2.381   2.331  12.346 -0.1728  0.0042 -0.4509
  228MPD1    C1 3459   2.246   2.354  12.304 -0.1259 -0.5491  0.0531
  228MPD1    C2 3460   2.144   2.306  12.379 -0.0458  0.6235 -0.1356
  228MPD1    C3 3461   2.174   2.227  12.492 -0.0861 -0.5719  0.0626
  228MPD1    C4 3462   2.305   2.203  12.521 -0.4016  0.1653 -0.2866
  228MPD1    C5 3463   2.407   2.256  12.453  0.2938  0.0483  0.0918
  228MPD1     H 3464   2.042   2.328  12.351  0.0355 -0.3536 -1.1864
  228MPD1    H1 3465   2.340   2.149  12.608 -0.2334  1.1487  0.2549
  228MPD1    H2 3466   2.462   2.382  12.297  1.8048  1.1404  4.0323
  228MPD1    H3 3467   2.510   2.251  12.485 -0.7383 -5.1702  2.5133
  228MPD1     N 3468   2.063   2.185  12.557 -0.7166  0.8290 -0.4182
  228MPD1    H5 3469   1.975   2.229  12.532 -1.4498 -0.8158 -0.7608
  228MPD1    N1 3470   2.211   2.451  12.202  0.0807 -0.0568 -0.0742
  228MPD1    H6 3471   2.282   2.490  12.140 -0.1032  2.0919  1.0677
  228MPD1    H7 3472   2.116   2.454  12.166  1.3557 -1.3368 -3.5367
  229MPD1     C 3473   1.493   0.305  14.788  0.2854 -0.3619 -0.6987
  229MPD1    C1 3474   1.580   0.409  14.816  0.8274 -0.2641 -0.5381
  229MPD1    C2 3475   1.715   0.378  14.830 -0.0682 -0.0534  0.1681
  229MPD1    C3 3476   1.762   0.248  14.811 -0.2595  0.0412  0.1308
  229MPD1    C4 3477   1.672   0.150  14.758 -0.6361  0.5513 -0.3671
  229MPD1    C5 3478   1.536   0.179  14.748  0.4369  0.1803  0.2545
  229MPD1     H 3479   1.774   0.457  14.876  1.2406 -1.8039  1.4869
  229MPD1    H1 3480   1.703   0.049  14.736 -0.0653  0.4122  1.1302
  229MPD1    H2 3481   1.385   0.314  14.796  0.4920  3.0867 -1.7216
  229MPD1    H3 3482   1.464   0.099  14.738  0.8237 -0.3350  1.6761
  229MPD1     N 3483   1.894   0.208  14.847 -0.1717 -0.4370  0.1744
  229MPD1    H5 3484   1.927   0.120  14.808  0.7430 -0.4282  0.9033
  229MPD1    N1 3485   1.531   0.528  14.873 -0.5078 -0.5602 -0.3825
  229MPD1    H6 3486   1.601   0.603  14.878 -1.0411 -0.1176  0.4021
  229MPD1    H7 3487   1.444   0.563  14.833  0.4169  2.5695  0.3196
  230MPD1     C 3488   2.446   0.482  15.588  0.1046 -0.5629 -0.1563
  230MPD1    C1 3489   2.307   0.474  15.572  0.3627 -0.3230 -0.1252
  230MPD1    C2 3490   2.256   0.403  15.467 -0.0653 -0.3509  1.0370
  230MPD1    C3 3491   2.341   0.354  15.373 -0.2032  0.3041  0.0772
  230MPD1    C4 3492   2.478   0.362  15.384 -0.4706  0.3015 -0.8493
  230MPD1    C5 3493   2.528   0.427  15.493 -0.4762  0.0827  0.0379
  230MPD1     H 3494   2.150   0.392  15.448  0.3277 -0.6728 -1.0116
  230MPD1    H1 3495   2.549   0.314  15.318 -1.6810  0.0160 -1.9540
  230MPD1    H2 3496   2.481   0.527  15.680  1.2821  0.4093 -1.0740
  230MPD1    H3 3497   2.636   0.421  15.500 -0.3738  0.8925 -0.7914
  230MPD1     N 3498   2.280   0.284  15.273  0.2776  0.7077  0.5252
  230MPD1    H5 3499   2.179   0.275  15.276  0.1421  2.3296  1.1064
  230MPD1    N1 3500   2.217   0.525  15.660  0.2487 -0.0094  0.2489
  230MPD1    H6 3501   2.233   0.615  15.705  0.2014  0.3819 -0.5244
  230MPD1    H7 3502   2.120   0.498  15.645  1.4121 -2.8202 -2.3423
  231MPD1     C 3503   0.008   2.134  15.720 -0.4878 -0.5535 -0.5826
  231MPD1    C1 3504   0.077   2.022  15.688 -0.7058 -0.1431 -0.6816
  231MPD1    C2 3505   0.189   2.038  15.608 -0.5517 -0.0689  0.2214
  231MPD1    C3 3506   0.239   2.166  15.572 -0.1887 -0.5375  0.0711
  231MPD1    C4 3507   0.165   2.276  15.615  0.6129 -0.5577 -0.3735
  231MPD1    C5 3508   0.043   2.254  15.677  0.1783 -0.3396  0.1978
  231MPD1     H 3509   0.248   1.955  15.570  0.1079  0.0853  0.9245
  231MPD1    H1 3510   0.198   2.378  15.597 -0.1042 -0.3370 -0.4727
  231MPD1    H2 3511   4.644   2.144  15.779 -0.5242 -2.8126 -0.2317
  231MPD1    H3 3512   4.722   2.341  15.719 -2.6916 -2.2223  0.7632
  231MPD1     N 3513   0.363   2.169  15.504 -0.2160  0.0665  0.3523
  231MPD1    H5 3514   0.400   2.079  15.475  0.2037  0.8782 -1.6374
  231MPD1    N1 3515   0.025   1.892  15.708 -0.3501  0.6520 -0.4812
  231MPD1    H6 3516   0.094   1.818  15.712 -0.3991  0.6451  0.4582
  231MPD1    H7 3517   4.696   1.894  15.794 -0.3542 -2.0448 -0.4315
  232MPD1     C 3518   2.319   1.658   0.739  0.7149 -0.6846 -0.1606
  232MPD1    C1 3519   2.284   1.582   0.626  0.5436 -0.3419 -0.2057
  232MPD1    C2 3520   2.293   1.445   0.634  0.7579 -0.0073  0.3359
  232MPD1    C3 3521   2.303   1.382   0.758 -0.3506 -0.6929 -0.5674
  232MPD1    C4 3522   2.305   1.458   0.872  0.0927  0.2652  0.2087
  232MPD1    C5 3523   2.319   1.596   0.858  0.4926  0.6460  1.2054
  232MPD1     H 3524   2.280   1.394   0.539  3.1836 -0.4355  0.2323
  232MPD1    H1 3525   2.320   1.416   0.971 -0.9687  0.1237  0.3123
  232MPD1    H2 3526   2.321   1.766   0.740  1.4638 -0.7074  1.1377
  232MPD1    H3 3527   2.334   1.650   0.950  2.8104  0.5225  0.8941
  232MPD1     N 3528   2.309   1.237   0.759 -0.1847  0.5811 -0.0030
  232MPD1    H5 3529   2.323   1.195   0.668  0.7711  3.1324 -1.0407
  232MPD1    N1 3530   2.280   1.649   0.506 -0.5805  0.4104  0.4770
  232MPD1    H6 3531   2.248   1.745   0.516 -0.8704  0.2307  1.2244
  232MPD1    H7 3532   2.213   1.610   0.440  1.3916 -0.4455 -1.0257
  233MPD1     C 3533   3.257   4.334   1.266 -0.0058  0.8111  0.8923
  233MPD1    C1 3534   3.329   4.342   1.147  0.6017  0.5982 -0.0845
  233MPD1    C2 3535   3.432   4.251   1.129 -0.1970 -0.0649 -0.1423
  233MPD1    C3 3536   3.458   4.160   1.216 -0.3612  0.4589 -1.0847
  233MPD1    C4 3537   3.391   4.147   1.340 -0.0779 -0.5342 -0.4374
  233MPD1    C5 3538   3.286   4.232   1.361 -0.1835 -0.8081 -0.6133
  233MPD1     H 3539   3.480   4.243   1.032  0.3862 -2.9398  0.3834
  233MPD1    H1 3540   3.408   4.069   1.413 -2.3875 -0.8755 -0.2468
  233MPD1    H2 3541   3.188   4.415   1.283 -0.2253  0.9662 -0.7694
  233MPD1    H3 3542   3.235   4.224   1.456 -1.9261 -0.4086 -1.5061
  233MPD1     N 3543   3.565   4.066   1.204  0.6041 -0.4487 -0.1477
  233MPD1    H5 3544   3.569   3.987   1.268 -0.1736  0.1417  0.6323
  233MPD1    N1 3545   3.308   4.436   1.047 -0.2350 -0.4081 -0.0111
  233MPD1    H6 3546   3.314   4.524   1.097 -1.7189 -0.5416  0.3985
  233MPD1    H7 3547   3.383   4.435   0.978 -1.2475 -0.7346 -1.1063
  234MPD1     C 3548   0.445   1.796   9.903 -0.5119 -0.0471 -0.0991
  234MPD1    C1 3549   0.406   1.853   9.779 -0.8287 -0.2099 -0.0084
  234MPD1    C2 3550   0.336   1.968   9.782 -0.3257 -0.2112 -0.4770
  234MPD1    C3 3551   0.306   2.036   9.899 -0.2818  0.2123 -0.0481
  234MPD1    C4 3552   0.349   1.982  10.022  0.0485  0.2577 -0.0370
  234MPD1    C5 3553   0.419   1.865  10.020 -0.2362  0.1569  0.6998
  234MPD1     H 3554   0.301   2.008   9.688 -1.3893 -1.5894 -0.6721
  234MPD1    H1 3555   0.336   2.031  10.118  1.7575  1.2522 -0.3136
  234MPD1    H2 3556   0.509   1.708   9.899  0.2835  0.4995  0.7416
  234MPD1    H3 3557   0.454   1.828  10.116  0.2940 -1.8847 -0.2854
  234MPD1     N 3558   0.241   2.165   9.882 -0.3699  0.2108 -0.1989
  234MPD1    H5 3559   0.198   2.174   9.790  1.5545  0.4891 -1.0705
  234MPD1    N1 3560   0.458   1.804   9.662  0.1042  0.0544 -0.2214
  234MPD1    H6 3561   0.504   1.715   9.676  2.6827  1.5192  0.4991
  234MPD1    H7 3562   0.393   1.796   9.583  1.2279 -1.3611 -1.0133
  235MPD1     C 3563   1.544   3.969  10.538 -0.0098 -0.4470 -0.6833
  235MPD1    C1 3564   1.466   4.003  10.433 -0.2869 -0.2634 -0.1182
  235MPD1    C2 3565   1.493   4.121  10.367  0.2030  0.2503  0.4489
  235MPD1    C3 3566   1.588   4.203  10.417 -1.1918 -0.3107  0.4047
  235MPD1    C4 3567   1.667   4.166  10.523 -0.5322 -0.3798  0.0628
  235MPD1    C5 3568   1.642   4.047  10.581 -0.0965 -0.5535 -0.7063
  235MPD1     H 3569   1.422   4.159  10.294  0.7710  1.2074  0.3860
  235MPD1    H1 3570   1.743   4.233  10.563  0.5240 -0.5152 -1.7258
  235MPD1    H2 3571   1.518   3.881  10.597  1.3505 -0.6848 -0.4485
  235MPD1    H3 3572   1.700   4.014  10.666  0.1794  1.0937 -0.2430
  235MPD1     N 3573   1.586   4.333  10.357  0.2089 -0.0049 -0.1212
  235MPD1    H5 3574   1.514   4.355  10.289 -0.6002  0.5037  0.8812
  235MPD1    N1 3575   1.376   3.902  10.382  0.2927  0.2460  0.1944
  235MPD1    H6 3576   1.339   3.842  10.455  2.9157 -1.4363  0.1333
  235MPD1    H7 3577   1.294   3.945  10.340  1.0843 -0.3759 -1.9899
  236MPD1     C 3578   0.515   0.858   9.518  1.4261 -0.9864 -0.5225
  236MPD1    C1 3579   0.548   0.995   9.542 -0.2480 -0.3299  0.0206
  236MPD1    C2 3580   0.640   1.016   9.647  0.5515  0.0637  0.2240
  236MPD1    C3 3581   0.680   0.908   9.732  0.1156  0.0556  0.4925
  236MPD1    C4 3582   0.646   0.777   9.696 -0.5878  0.2902 -0.1985
  236MPD1    C5 3583   0.566   0.756   9.594  0.2290  0.3813 -0.4115
  236MPD1     H 3584   0.673   1.119   9.660  1.4685 -0.5217  2.5792
  236MPD1    H1 3585   0.683   0.696   9.758  2.3014  1.6422 -0.1531
  236MPD1    H2 3586   0.447   0.840   9.435  0.8834 -0.2854 -0.2406
  236MPD1    H3 3587   0.543   0.652   9.572  2.8762 -0.3675  0.3424
  236MPD1     N 3588   0.778   0.922   9.837  0.0702  0.2164  0.2991
  236MPD1    H5 3589   0.814   0.842   9.888  2.1611  0.6565 -0.4964
  236MPD1    N1 3590   0.507   1.090   9.447  0.1966 -0.0277  0.4549
  236MPD1    H6 3591   0.423   1.054   9.401  0.2098  1.5713 -0.8213
  236MPD1    H7 3592   0.495   1.182   9.487  0.1945 -0.2861  1.0547
  237MPD1     C 3593   1.151   3.468  15.577 -0.3105  0.2919 -0.7636
  237MPD1    C1 3594   1.029   3.428  15.623 -0.1493 -0.7256 -0.2443
  237MPD1    C2 3595   0.917   3.481  15.560  0.4618 -0.5098 -0.3732
  237MPD1    C3 3596   0.929   3.584  15.468  0.4817 -0.3938 -0.2205
  237MPD1    C4 3597   1.053   3.642  15.447  0.0062  0.4438  0.5833
  237MPD1    C5 3598   1.165   3.581  15.501  0.1592 -0.3253 -0.0809
  237MPD1     H 3599   0.817   3.453  15.592  0.5974  1.7091  1.9909
  237MPD1    H1 3600   1.069   3.724  15.378  1.1519 -1.0743 -0.9689
  237MPD1    H2 3601   1.241   3.427  15.621 -0.8205 -0.3696 -0.3358
  237MPD1    H3 3602   1.259   3.623  15.469 -0.0636  1.0464  1.1009
  237MPD1     N 3603   0.819   3.635  15.390 -0.1939 -0.2195  0.3526
  237MPD1    H5 3604   0.851   3.711  15.331  0.7104 -0.8056  0.0963
  237MPD1    N1 3605   1.031   3.324  15.715 -0.0077 -0.3024 -0.4315
  237MPD1    H6 3606   1.107   3.332  15.782 -1.5658  2.9532  0.9542
  237MPD1    H7 3607   0.953   3.324  15.781  0.2181 -2.2666 -0.1700
  238MPD1     C 3608   2.113   3.238  14.893  0.0961  0.2705  0.2981
  238MPD1    C1 3609   2.093   3.144  14.992  0.1131  0.0064 -0.6718
  238MPD1    C2 3610   2.052   3.017  14.954 -0.2485 -0.7862  0.0562
  238MPD1    C3 3611   2.041   2.982  14.825  0.7877  0.0254  0.4743
  238MPD1    C4 3612   2.057   3.079  14.730 -1.2031  0.4241  0.4653
  238MPD1    C5 3613   2.098   3.206  14.764  0.9565 -0.1092  0.6860
  238MPD1     H 3614   2.051   2.936  15.027  0.1728 -0.6680  0.1899
  238MPD1    H1 3615   2.044   3.062  14.624  0.7843  0.5257  0.1999
  238MPD1    H2 3616   2.129   3.341  14.925  0.4803  0.0440  0.8394
  238MPD1    H3 3617   2.115   3.280  14.687  1.4176 -2.1621 -1.1899
  238MPD1     N 3618   2.008   2.851  14.779 -0.3692  0.7255  0.0828
  238MPD1    H5 3619   1.979   2.834  14.683  3.0186 -0.4833 -0.7541
  238MPD1    N1 3620   2.102   3.183  15.123 -0.1260 -0.4516 -0.3487
  238MPD1    H6 3621   2.190   3.233  15.137  1.6818 -3.2453 -1.8315
  238MPD1    H7 3622   2.106   3.099  15.181  2.3520 -2.4045 -3.4093
  239MPD1     C 3623   2.922   3.331  14.775 -0.0903  0.1165  0.6758
  239MPD1    C1 3624   2.794   3.363  14.794  1.3913  0.2000  0.2053
  239MPD1    C2 3625   2.736   3.415  14.686  0.1118  0.0784 -0.5795
  239MPD1    C3 3626   2.795   3.426  14.567  0.1444 -0.0060 -0.7038
  239MPD1    C4 3627   2.929   3.407  14.552 -0.1059  0.4937 -0.1647
  239MPD1    C5 3628   2.997   3.350  14.664 -0.0604  0.5318 -0.1023
  239MPD1     H 3629   2.631   3.441  14.698  0.4691  1.8727 -1.3171
  239MPD1    H1 3630   2.986   3.440  14.467  0.0625  1.3336  0.2717
  239MPD1    H2 3631   2.975   3.290  14.861  1.4080  0.4054 -0.1238
  239MPD1    H3 3632   3.102   3.324  14.665  0.6798  3.5033  0.5101
  239MPD1     N 3633   2.733   3.484  14.456  0.5168  0.6885 -0.4632
  239MPD1    H5 3634   2.788   3.478  14.371  0.2536  1.5987 -0.6969
  239MPD1    N1 3635   2.731   3.343  14.921  0.3412 -0.1050  0.7592
  239MPD1    H6 3636   2.784   3.267  14.965 -0.4018 -0.7649  0.5190
  239MPD1    H7 3637   2.639   3.302  14.903  0.1973  0.5366  0.0588
  240MPD1     C 3638   2.349   3.237  14.202 -0.0008 -0.5771  0.0790
  240MPD1    C1 3639   2.360   3.131  14.294 -0.8784 -0.8305  0.9895
  240MPD1    C2 3640   2.265   3.030  14.286  0.5624  0.3927  0.3152
  240MPD1    C3 3641   2.175   3.019  14.186 -0.2107 -0.6537  0.5373
  240MPD1    C4 3642   2.176   3.115  14.088 -0.5493 -0.6973  0.3798
  240MPD1    C5 3643   2.245   3.231  14.109 -0.6117 -0.3448 -0.0008
  240MPD1     H 3644   2.258   2.947  14.356 -0.0694  0.1288 -0.0569
  240MPD1    H1 3645   2.108   3.106  14.005 -0.3398 -0.0126  0.1349
  240MPD1    H2 3646   2.400   3.332  14.210  0.4011 -0.9012  1.3513
  240MPD1    H3 3647   2.233   3.313  14.039 -1.5916  0.8253  1.5379
  240MPD1     N 3648   2.108   2.896  14.180  0.0899  0.2491 -0.0974
  240MPD1    H5 3649   2.119   2.834  14.260 -0.3920 -0.7430 -0.8007
  240MPD1    N1 3650   2.449   3.143  14.401  0.1139  0.0195  0.6435
  240MPD1    H6 3651   2.476   3.053  14.440 -0.1643 -0.2434  0.2311
  240MPD1    H7 3652   2.533   3.193  14.372 -0.4300 -0.9383 -2.5795
  241MPD1     C 3653   1.696   2.149  14.690 -0.4329  0.1474  0.1426
  241MPD1    C1 3654   1.696   2.286  14.697 -0.1800 -0.0467 -0.4960
  241MPD1    C2 3655   1.725   2.365  14.593  0.3211 -0.1430 -0.3374
  241MPD1    C3 3656   1.782   2.311  14.478 -0.2003 -0.5336  0.0599
  241MPD1    C4 3657   1.780   2.171  14.468 -0.0924 -0.0931 -0.0075
  241MPD1    C5 3658   1.736   2.093  14.573 -0.0428  0.0559 -0.2705
  241MPD1     H 3659   1.694   2.469  14.592  3.7589  0.9140  1.4019
  241MPD1    H1 3660   1.801   2.111  14.380  1.2127 -0.6323  0.6750
  241MPD1    H2 3661   1.669   2.082  14.770 -2.4448  1.0857  0.2320
  241MPD1    H3 3662   1.734   1.987  14.551 -0.6209  0.2325 -1.0531
  241MPD1     N 3663   1.814   2.386  14.361  0.2353  0.0933 -0.0572
  241MPD1    H5 3664   1.848   2.341  14.277  1.5031  0.8940  0.0360
  241MPD1    N1 3665   1.630   2.344  14.807 -0.5703 -0.0181  0.1074
  241MPD1    H6 3666   1.642   2.443  14.825 -1.7595  0.2004 -0.3153
  241MPD1    H7 3667   1.651   2.290  14.891  1.0982  0.2645 -0.1294
  242MPD1     C 3668   1.508   1.038  16.021  0.4886  0.4361  0.2603
  242MPD1    C1 3669   1.388   1.037  15.949  0.2477 -0.2157 -0.3231
  242MPD1    C2 3670   1.385   0.998  15.817 -0.5327  0.0791 -0.1573
  242MPD1    C3 3671   1.497   0.956  15.755  0.4735  0.5715 -0.5554
  242MPD1    C4 3672   1.615   0.951  15.822 -0.3589 -0.0065 -0.5882
  242MPD1    C5 3673   1.615   0.989  15.955  0.7364 -0.3597 -0.1161
  242MPD1     H 3674   1.293   0.978  15.763 -0.4630 -2.5897  0.7092
  242MPD1    H1 3675   1.702   0.911  15.772 -1.6183 -3.4452 -0.0336
  242MPD1    H2 3676   1.517   1.053  16.128  1.9210 -0.5574  0.2750
  242MPD1    H3 3677   1.709   0.985  16.009  2.0518 -1.4495 -2.4763
  242MPD1     N 3678   1.502   0.923  15.611  0.9428 -0.4990 -0.4517
  242MPD1    H5 3679   1.585   0.878  15.575  0.9984  0.3248 -1.3487
  242MPD1    N1 3680   1.267   1.055  16.024 -0.0316  0.2203  0.5078
  242MPD1    H6 3681   1.191   1.095  15.969  0.4765  1.8115  0.9726
  242MPD1    H7 3682   1.282   1.115  16.105  1.2927 -0.6278  0.8950
  243MPD1     C 3683   3.171   4.497   0.077 -0.5449 -0.0409  0.0243
  243MPD1    C1 3684   3.166   4.364   0.053 -0.5894 -0.7193  0.5194
  243MPD1    C2 3685   3.192   4.311  17.641 -0.2716  0.4473  0.0280
  243MPD1    C3 3686   3.231   4.394  17.535  0.1817  0.4848  0.0331
  243MPD1    C4 3687   3.246   4.527  17.566 -0.2278  0.2108  0.3835
  243MPD1    C5 3688   3.215   4.578  17.688 -0.0117  0.7313  0.4853
  243MPD1     H 3689   3.192   4.203  17.634 -1.0760  0.2603  3.0860
  243MPD1    H1 3690   3.286   4.596  17.493 -0.2120 -0.8383 -0.6203
  243MPD1    H2 3691   3.147   4.536   0.175  2.3332 -0.5674  0.9420
  243MPD1    H3 3692   3.224   4.683   0.003 -0.2877  0.8599  0.0423
  243MPD1     N 3693   3.268   4.331  17.413 -0.4363 -0.0450  0.2146
  243MPD1    H5 3694   3.258   4.230  17.412  0.7983 -0.1799  1.8677
  243MPD1    N1 3695   3.106   4.289   0.153 -0.3608  0.6132  0.3808
  243MPD1    H6 3696   3.127   4.189   0.151 -1.8943  0.3560 -2.1695
  243MPD1    H7 3697   3.108   4.326   0.248  1.8963 -0.6663  0.8354
  244MPD1     C 3698   3.776   3.571  17.055  0.1820  0.0865 -0.2755
  244MPD1    C1 3699   3.695   3.599  16.948  0.3615  0.3760  0.3158
  244MPD1    C2 3700   3.619   3.713  16.962 -0.9633  0.9589  0.9739
  244MPD1    C3 3701   3.614   3.792  17.073  0.2517  0.4861  0.1171
  244MPD1    C4 3702   3.688   3.747  17.183 -0.3769 -0.7055  0.1219
  244MPD1    C5 3703   3.772   3.646  17.163  0.2938 -0.1155 -0.2759
  244MPD1     H 3704   3.553   3.725  16.877  1.4988 -1.9444 -1.3174
  244MPD1    H1 3705   3.700   3.808  17.271 -2.5260  0.1308 -0.1626
  244MPD1    H2 3706   3.856   3.499  17.045  0.0277  0.3074 -2.9575
  244MPD1    H3 3707   3.840   3.614  17.241  0.8129  0.1587 -0.6174
  244MPD1     N 3708   3.542   3.911  17.063 -0.4400  0.4612  0.5163
  244MPD1    H5 3709   3.518   3.940  16.969  0.6782 -1.4135 -0.3410
  244MPD1    N1 3710   3.714   3.531  16.824 -0.2377 -0.1617 -0.4621
  244MPD1    H6 3711   3.627   3.531  16.772  0.4072 -1.4417 -1.5653
  244MPD1    H7 3712   3.760   3.442  16.838  0.2753  0.4204  1.5222
  245MPD1     C 3713   0.383   0.686  13.164  0.8240 -0.1782 -0.3986
  245MPD1    C1 3714   0.341   0.701  13.296 -0.3180  0.1114  0.5846
  245MPD1    C2 3715   0.372   0.825  13.351  0.7965 -0.2956  0.8089
  245MPD1    C3 3716   0.460   0.921  13.286 -0.3274 -0.1221  0.0402
  245MPD1    C4 3717   0.520   0.893  13.162 -0.5158  0.0305  0.5422
  245MPD1    C5 3718   0.477   0.771  13.108  0.1792 -0.3201  0.5038
  245MPD1     H 3719   0.316   0.863  13.436  0.8192  1.8556 -0.1304
  245MPD1    H1 3720   0.589   0.963  13.117  0.0862 -1.2260 -0.4533
  245MPD1    H2 3721   0.358   0.599  13.105  0.8435  0.0373 -0.7214
  245MPD1    H3 3722   0.527   0.740  13.017  0.2496 -1.3853  0.9087
  245MPD1     N 3723   0.494   1.040  13.360  0.1087  0.0091 -0.4167
  245MPD1    H5 3724   0.440   1.062  13.442  1.1698 -2.0567  0.8388
  245MPD1    N1 3725   0.238   0.617  13.340 -0.3931 -0.1475 -0.1702
  245MPD1    H6 3726   0.259   0.519  13.322  0.1641 -0.0437 -0.0729
  245MPD1    H7 3727   0.232   0.615  13.442  0.6815 -0.3568 -0.1121
  246MPD1     C 3728   1.678   2.715   9.914  0.0301 -0.3309  0.2255
  246MPD1    C1 3729   1.761   2.604   9.921 -0.3267 -0.7873 -0.3986
  246MPD1    C2 3730   1.763   2.513   9.820  0.2330  0.2455 -0.2086
  246MPD1    C3 3731   1.673   2.525   9.712 -0.2756 -0.3902 -0.6148
  246MPD1    C4 3732   1.582   2.632   9.708  0.7021  0.2464  0.1260
  246MPD1    C5 3733   1.587   2.731   9.806 -0.3494 -0.1013 -0.0579
  246MPD1     H 3734   1.836   2.433   9.819 -0.0559 -0.0316  0.6042
  246MPD1    H1 3735   1.516   2.648   9.623 -1.0310  1.2143  1.6525
  246MPD1    H2 3736   1.672   2.794   9.988 -2.4341 -1.8593  1.6460
  246MPD1    H3 3737   1.512   2.808   9.814  0.8720  0.9967  0.8550
  246MPD1     N 3738   1.674   2.415   9.616  0.4320  0.4107  0.4074
  246MPD1    H5 3739   1.737   2.336   9.626 -0.5975 -0.3043  1.1340
  246MPD1    N1 3740   1.868   2.604  10.016  0.3024 -0.7699 -0.4335
  246MPD1    H6 3741   1.841   2.642  10.107 -0.5882  0.3735 -1.1790
  246MPD1    H7 3742   1.911   2.515  10.040  1.2178 -0.5453 -1.2700
  247MPD1     C 3743   4.179   0.406  16.568 -0.3954  0.1774 -0.3370
  247MPD1    C1 3744   4.089   0.318  16.505 -0.2781  0.2713 -0.0377
  247MPD1    C2 3745   4.127   0.267  16.382 -0.2210  0.4655  1.0017
  247MPD1    C3 3746   4.253   0.305  16.329  0.1170  0.2594 -0.1178
  247MPD1    C4 3747   4.339   0.403  16.393 -0.3571  0.4575  1.2354
  247MPD1    C5 3748   4.295   0.447  16.513  0.3820  0.2049  0.3755
  247MPD1     H 3749   4.063   0.206  16.319 -1.0103  1.7337  0.5633
  247MPD1    H1 3750   4.437   0.427  16.355 -0.4503 -0.0153  0.6932
  247MPD1    H2 3751   4.166   0.453  16.665 -1.3377  0.1954 -0.4704
  247MPD1    H3 3752   4.365   0.513  16.564 -0.1934  0.3346  1.0103
  247MPD1     N 3753   4.297   0.261  16.204 -0.1173 -0.1066  0.1161
  247MPD1    H5 3754   4.363   0.319  16.154  0.9710 -2.7963 -1.5448
  247MPD1    N1 3755   3.970   0.290  16.571  0.3227  0.2711  0.1667
  247MPD1    H6 3756   3.956   0.372  16.630 -3.6132  0.0012 -0.3680
  247MPD1    H7 3757   3.890   0.280  16.509 -0.3895 -0.4782  1.2018
  248MPD1     C 3758   0.662   0.245  17.187 -0.2754 -0.8030  0.0142
  248MPD1    C1 3759   0.638   0.381  17.190  1.0789 -0.3334 -0.1006
  248MPD1    C2 3760   0.548   0.424  17.282 -0.0918 -0.3963  0.7243
  248MPD1    C3 3761   0.490   0.342  17.377  0.1371 -0.3213 -0.1451
  248MPD1    C4 3762   0.537   0.207  17.385  0.0453 -0.0792 -0.6583
  248MPD1    C5 3763   0.623   0.166  17.287  0.3277  0.2656  0.2880
  248MPD1     H 3764   0.516   0.528  17.279 -0.9175 -0.6802 -0.2053
  248MPD1    H1 3765   0.502   0.137  17.460 -1.4225  0.4618 -0.8282
  248MPD1    H2 3766   0.718   0.200  17.106 -1.4909 -1.3832 -0.5107
  248MPD1    H3 3767   0.656   0.063  17.296  1.6189  0.3850 -2.9467
  248MPD1     N 3768   0.397   0.399  17.471 -0.1350 -0.5860  0.4380
  248MPD1    H5 3769   0.391   0.500  17.473  1.7021 -0.4959  1.0785
  248MPD1    N1 3770   0.672   0.464  17.089  0.2950  0.2283 -0.3580
  248MPD1    H6 3771   0.765   0.452  17.048 -0.7166  0.7916 -2.7811
  248MPD1    H7 3772   0.678   0.562  17.115  2.4860  0.1844 -0.6739
  249MPD1     C 3773   1.126   3.155  10.682  0.3151  0.4613 -0.1935
  249MPD1    C1 3774   1.007   3.182  10.625  0.1645 -0.0579  0.0449
  249MPD1    C2 3775   0.999   3.234  10.497  0.3993  0.4260 -0.4760
  249MPD1    C3 3776   1.114   3.276  10.432  0.1744  0.4206 -0.6882
  249MPD1    C4 3777   1.232   3.252  10.496 -0.2827  0.1225 -0.4597
  249MPD1    C5 3778   1.245   3.190  10.621 -0.2428 -0.5075 -0.5749
  249MPD1     H 3779   0.902   3.243  10.450  0.3952  0.3152 -0.4887
  249MPD1    H1 3780   1.327   3.288  10.458  0.0527  0.1178  0.3610
  249MPD1    H2 3781   1.143   3.102  10.775  0.4519 -0.8139 -0.9365
  249MPD1    H3 3782   1.346   3.179  10.658  0.0931 -3.3786 -2.2994
  249MPD1     N 3783   1.098   3.337  10.307  0.3082  0.4832 -0.8812
  249MPD1    H5 3784   1.004   3.337  10.269 -0.8647 -0.3812  2.0465
  249MPD1    N1 3785   0.885   3.137  10.686 -0.5681 -0.0583  0.2119
  249MPD1    H6 3786   0.892   3.121  10.786  0.6983  1.1057  0.3125
  249MPD1    H7 3787   0.794   3.174  10.659 -0.5463 -0.9008 -1.0372
  250MPD2     C 3788   3.331   3.980  12.835  0.0577  0.0170  0.3523
  250MPD2    C1 3789   3.357   3.986  12.697  0.0877 -0.0641  0.5649
  250MPD2    C2 3790   3.284   3.901  12.611  0.2250 -0.0138 -0.5384
  250MPD2    C3 3791   3.206   3.800  12.669  0.3783  0.3373  0.5464
  250MPD2    C4 3792   3.191   3.797  12.806 -0.2338 -0.0974 -0.2215
  250MPD2    C5 3793   3.250   3.886  12.886 -0.3512  0.4413  0.5062
  250MPD2     H 3794   3.296   3.913  12.504  2.1004  0.3428 -0.2994
  250MPD2    H1 3795   3.122   3.724  12.849 -0.3212  0.4423  0.5490
  250MPD2    H2 3796   3.378   4.050  12.903 -0.5419  0.8112 -0.0497
  250MPD2    H3 3797   3.229   3.874  12.992  2.6825  2.0460  1.2887
  250MPD2     N 3798   3.127   3.711  12.590  0.5917  0.1083 -0.0721
  250MPD2    H5 3799   3.078   3.637  12.640  0.0641 -0.3780 -1.3055
  250MPD2    N1 3800   3.432   4.098  12.650  0.6814  0.4458 -0.2540
  250MPD2    H7 3801   3.473   4.152  12.726  0.4431  2.4469 -1.5676
  251TMC3    C1 3802   3.523   4.249  12.502  0.1271  0.1355  0.7164
  251TMC3    C2 3803   3.471   4.349  12.584 -0.0478  0.2259 -0.2956
  251TMC3    C3 3804   3.529   4.471  12.574  0.2657 -0.1478 -0.0201
  251TMC3    C4 3805   3.635   4.261  12.420 -0.1871  0.3344 -0.5729
  251TMC3    C5 3806   3.692   4.383  12.422  0.2904  0.1439 -0.1407
  251TMC3    C6 3807   3.641   4.492  12.489  0.2952  0.1133 -0.0995
  251TMC3     C 3808   3.466   4.121  12.525  0.2347 -0.3608  0.0889
  251TMC3     O 3809   3.474   4.045  12.432  0.1674  0.1088 -0.3872
  251TMC3     H 3810   3.385   4.342  12.649  0.6175  0.6207  0.6194
  251TMC3    H1 3811   3.676   4.170  12.378 -0.0029 -0.1763  0.7208
  251TMC3    H2 3812   3.687   4.589  12.474 -1.2307  0.4503 -2.5635
  251TMC3    C7 3813   3.837   4.392  12.384 -0.5591  0.1373 -0.2618
  251TMC3    C8 3814   3.490   4.566  12.671  0.0284  1.0147 -0.0514
  251TMC3    O1 3815   3.898   4.477  12.447 -0.0890  0.0550  0.4762
  251TMC3    O2 3816   3.402   4.537  12.756  0.1590 -0.1793 -0.3219
  252TMC3    C1 3817   3.165   0.956   9.810 -0.6669 -0.2309  0.3682
  252TMC3    C2 3818   3.286   0.913   9.774 -0.2212 -0.4958 -0.1347
  252TMC3    C3 3819   3.345   0.803   9.826  0.2173  0.1087  0.2650
  252TMC3    C4 3820   3.092   0.888   9.899  0.3303 -0.0809 -0.4298
  252TMC3    C5 3821   3.149   0.773   9.950  0.8877 -0.0720 -0.7223
  252TMC3    C6 3822   3.278   0.728   9.914 -0.6293 -0.6255  0.4813
  252TMC3     C 3823   3.108   1.061   9.732 -0.2175  0.2433  0.0472
  252TMC3     O 3824   3.183   1.132   9.673  0.1566  0.1854  0.7557
  252TMC3     H 3825   3.354   0.973   9.715  2.4783 -0.2199  3.2211
  252TMC3    H1 3826   3.005   0.932   9.946  0.2726 -0.9318  0.2564
  252TMC3    H2 3827   3.330   0.644   9.959 -1.7517 -2.6409 -1.9363
  252TMC3    C7 3828   3.082   0.708  10.061 -0.3433  0.1436  0.8311
  252TMC3    C8 3829   3.453   0.746   9.740 -0.3088 -0.0820  0.8140
  252TMC3    O1 3830   2.991   0.773  10.117 -0.3050  0.2576 -0.0855
  252TMC3    O2 3831   3.469   0.799   9.631  0.0944  0.2915  0.3795
  253MPD2     C 3832   0.544   3.979  15.423 -0.0112 -0.6387 -0.0543
  253MPD2    C1 3833   0.411   3.969  15.450  0.1164 -0.3243 -0.3576
  253MPD2    C2 3834   0.360   3.896  15.556  0.5307  0.5736  1.1547
  253MPD2    C3 3835   0.441   3.828  15.636  0.2389 -0.3542 -0.2641
  253MPD2    C4 3836   0.577   3.823  15.604 -0.2619  0.3829 -0.5232
  253MPD2    C5 3837   0.625   3.905  15.508 -0.1180 -0.7973 -0.3044
  253MPD2     H 3838   0.252   3.893  15.566  0.6394 -0.9399  1.8896
  253MPD2    H1 3839   0.649   3.767  15.661 -1.2450  0.9258  1.2402
  253MPD2    H2 3840   0.588   4.037  15.342  2.1549  0.8488  2.1973
  253MPD2    H3 3841   0.731   3.920  15.496 -0.2192 -0.9582 -1.3883
  253MPD2     N 3842   0.396   3.754  15.750 -0.3462  0.3419 -0.1124
  253MPD2    H5 3843   0.462   3.691  15.795  3.2882  1.5286 -3.8157
  253MPD2    N1 3844   0.310   4.025  15.367 -0.1971 -0.0965  0.2288
  253MPD2    H7 3845   0.214   4.003  15.391 -0.5286  1.2072  0.0756
  254TMC3    C1 3846   0.235   3.666  15.917 -0.4209 -0.0146 -0.9340
  254TMC3    C2 3847   0.100   3.624  15.924  0.0642  0.0449  0.4715
  254TMC3    C3 3848   0.079   3.511  15.999 -0.0640  0.0433 -0.0494
  254TMC3    C4 3849   0.344   3.611  15.982  0.3790  0.6623 -0.1654
  254TMC3    C5 3850   0.314   3.497  16.055  0.6308 -0.2915  0.0888
  254TMC3    C6 3851   0.185   3.450  16.063 -0.2206  0.0468 -0.3058
  254TMC3     C 3852   0.265   3.751  15.801  0.2585 -0.2557 -0.2505
  254TMC3     O 3853   0.166   3.809  15.754 -0.5985  0.4209  0.1703
  254TMC3     H 3854   0.024   3.672  15.864 -1.8884 -1.2099  1.9240
  254TMC3    H1 3855   0.445   3.649  15.973  1.6447 -2.8876 -1.0791
  254TMC3    H2 3856   0.171   3.375  16.141 -0.2284  1.1719  0.7674
  254TMC3    C7 3857   0.429   3.446  16.131 -0.0352 -1.4121  0.1566
  254TMC3    C8 3858   4.677   3.504  16.067 -0.2427  0.7634 -0.2714
  254TMC3    O1 3859   0.514   3.527  16.159 -0.6994  0.0526 -0.1657
  254TMC3    O2 3860   4.674   3.461  16.179  0.3191  0.0068 -0.8944
  255MPD2     C 3861   3.193   1.015  10.203  0.1120 -0.0607 -0.9981
  255MPD2    C1 3862   3.196   1.127  10.124  0.2797 -0.2487  0.4596
  255MPD2    C2 3863   3.309   1.153  10.049  0.2935  0.3145 -0.1664
  255MPD2    C3 3864   3.424   1.079  10.057  0.0012  0.6274  0.5223
  255MPD2    C4 3865   3.417   0.970  10.142 -0.5957 -0.2513  0.6596
  255MPD2    C5 3866   3.304   0.943  10.216  0.3290 -0.1137  0.6995
  255MPD2     H 3867   3.319   1.241   9.985  3.8675 -0.6533 -0.9229
  255MPD2    H1 3868   3.502   0.906  10.159 -0.9799 -0.1785  2.8160
  255MPD2    H2 3869   3.106   0.992  10.265  0.3682 -2.1248 -1.3971
  255MPD2    H3 3870   3.310   0.857  10.282 -2.5328 -0.9624 -0.1277
  255MPD2     N 3871   3.530   1.115   9.974 -0.5631  0.3672 -0.0782
  255MPD2    H5 3872   3.521   1.201   9.919  0.3784 -0.2913 -1.2625
  255MPD2    N1 3873   3.080   1.204  10.120  0.0401  0.7363 -0.0081
  255MPD2    H7 3874   2.998   1.156  10.157 -0.0188  1.2271  0.4987
  256TMC3    C1 3875   2.955   1.406  10.052  0.4049 -1.0270  0.7776
  256TMC3    C2 3876   2.970   1.542  10.008  0.6039  0.0391  0.4676
  256TMC3    C3 3877   2.870   1.587   9.924 -0.5403  0.3887  0.1917
  256TMC3    C4 3878   2.833   1.349  10.047 -0.3524 -0.0058 -0.0373
  256TMC3    C5 3879   2.731   1.411   9.982  0.0776 -0.4438 -0.0121
  256TMC3    C6 3880   2.747   1.529   9.919 -0.1406 -0.0571  0.3861
  256TMC3     C 3881   3.079   1.333  10.084  0.2910 -0.0338  0.4897
  256TMC3     O 3882   3.175   1.406  10.066  0.7581 -0.2099  0.0420
  256TMC3     H 3883   3.057   1.604  10.027 -0.8236  1.9845  0.6222
  256TMC3    H1 3884   2.816   1.249  10.085  0.8304 -0.6610 -1.2660
  256TMC3    H2 3885   2.672   1.576   9.857 -0.3580 -2.7797 -1.3823
  256TMC3    C7 3886   2.605   1.337   9.984 -0.5251  0.1155 -0.5970
  256TMC3    C8 3887   2.912   1.686   9.821  0.0227 -0.5178  0.1545
  256TMC3    O1 3888   2.615   1.216   9.989  0.0209 -0.0391 -0.3740
  256TMC3    O2 3889   2.835   1.704   9.724  0.1444 -0.0620  0.3758
  257MPD2     C 3890   2.566   4.071  12.978  0.4273 -0.0854 -0.1248
  257MPD2    C1 3891   2.500   3.987  12.896 -0.1947 -0.6317  0.2338
  257MPD2    C2 3892   2.444   3.868  12.948 -0.2595  0.1926  0.7696
  257MPD2    C3 3893   2.465   3.837  13.084  0.0226  0.8055 -1.1839
  257MPD2    C4 3894   2.531   3.931  13.166 -0.0003 -0.3357 -0.0700
  257MPD2    C5 3895   2.580   4.050  13.113 -0.2162 -0.4707  0.1841
  257MPD2     H 3896   2.396   3.796  12.882 -2.2987  1.7147  0.6001
  257MPD2    H1 3897   2.551   3.913  13.271  0.2027  1.7116  0.2234
  257MPD2    H2 3898   2.601   4.168  12.942 -0.0478  0.6304  1.3522
  257MPD2    H3 3899   2.645   4.117  13.167  0.5477 -1.3248  0.3257
  257MPD2     N 3900   2.410   3.715  13.135 -0.5020  0.0728 -0.0990
  257MPD2    H5 3901   2.357   3.653  13.074  1.0178 -0.1755 -1.1978
  257MPD2    N1 3902   2.492   4.027  12.770  0.3206 -0.5509  1.1039
  257MPD2    H7 3903   2.516   4.126  12.762 -0.3687 -0.5024 -0.4517
  258TMC3    C1 3904   2.357   3.547  13.299 -1.2886 -0.7489  1.0718
  258TMC3    C2 3905   2.259   3.510  13.217 -0.6481 -0.1896 -0.1214
  258TMC3    C3 3906   2.206   3.385  13.242 -0.4954  1.0374 -0.0962
  258TMC3    C4 3907   2.415   3.466  13.395 -0.4108  0.0198  0.6550
  258TMC3    C5 3908   2.368   3.342  13.406  0.6798  0.7501 -0.5041
  258TMC3    C6 3909   2.270   3.296  13.323 -0.0413  0.5138 -0.3371
  258TMC3     C 3910   2.433   3.668  13.267 -0.3022 -0.6032 -0.5543
  258TMC3     O 3911   2.518   3.703  13.349 -0.5950  0.1494 -0.5984
  258TMC3     H 3912   2.226   3.569  13.132  0.0289  1.6018  0.8442
  258TMC3    H1 3913   2.485   3.511  13.464  0.3005  0.9188 -0.6625
  258TMC3    H2 3914   2.229   3.198  13.341  0.8419  0.4358  1.2308
  258TMC3    C7 3915   2.422   3.244  13.508  0.3969  0.0715  0.8662
  258TMC3    C8 3916   2.069   3.361  13.186 -0.2068 -0.0439  0.4625
  258TMC3    O1 3917   2.371   3.130  13.503 -0.0465 -0.3124 -0.2548
  258TMC3    O2 3918   2.033   3.440  13.098 -0.2342 -0.1722  0.4853
  259MPD2     C 3919   1.291   0.240   0.634 -0.4789  0.4456 -1.3033
  259MPD2    C1 3920   1.402   0.314   0.667  0.2238 -0.4457 -0.3538
  259MPD2    C2 3921   1.517   0.308   0.593 -0.6577 -0.1109  0.1207
  259MPD2    C3 3922   1.533   0.223   0.487 -0.5500 -0.4498  0.3725
  259MPD2    C4 3923   1.424   0.143   0.450  0.0289 -0.2930 -0.7084
  259MPD2    C5 3924   1.306   0.152   0.528 -0.3089  0.2391  0.3997
  259MPD2     H 3925   1.600   0.370   0.626 -1.6570  0.9131  0.7127
  259MPD2    H1 3926   1.431   0.076   0.366  1.5954 -1.4147  0.3151
  259MPD2    H2 3927   1.201   0.233   0.693 -0.2938 -0.0364 -1.0805
  259MPD2    H3 3928   1.220   0.091   0.507 -0.7504  0.5956  1.1771
  259MPD2     N 3929   1.649   0.241   0.412  0.2634 -0.4109 -0.2546
  259MPD2    H5 3930   1.725   0.302   0.439  1.4965 -1.2330 -1.9199
  259MPD2    N1 3931   1.370   0.401   0.777  0.4548 -0.0339 -0.4710
  259MPD2    H7 3932   1.276   0.395   0.814  1.1817  0.8850  1.5221
  260TMC3    C1 3933   1.757   0.205   0.196  0.3366  0.1304  0.1185
  260TMC3    C2 3934   1.816   0.320   0.206  0.4107  0.1429 -0.5866
  260TMC3    C3 3935   1.877   0.380   0.096  0.6573  0.1919  0.1225
  260TMC3    C4 3936   1.731   0.149   0.076 -0.6980  0.5136  0.9936
  260TMC3    C5 3937   1.787   0.207  17.682  0.3910  0.1873 -0.6131
  260TMC3    C6 3938   1.871   0.321  17.684  0.0784 -0.3703 -0.0844
  260TMC3     C 3939   1.668   0.155   0.308  0.2491  0.6615  0.2721
  260TMC3     O 3940   1.625   0.042   0.279  0.3583  0.3873  0.1350
  260TMC3     H 3941   1.818   0.376   0.299  0.7045 -2.6413  1.0659
  260TMC3    H1 3942   1.667   0.063   0.066 -0.1672  0.2943 -0.3993
  260TMC3    H2 3943   1.907   0.365  17.592  1.7005  0.0929  0.7781
  260TMC3    C7 3944   1.741   0.175  17.544  0.4764 -0.3468 -0.2917
  260TMC3    C8 3945   1.928   0.521   0.092  0.4974  0.2512 -0.0787
  260TMC3    O1 3946   1.822   0.188  17.454 -0.9258 -0.1257  0.4258
  260TMC3    O2 3947   1.940   0.567  17.692 -0.5794 -0.6569  0.6387
  261MPD2     C 3948   2.872   3.513  11.812 -0.1080 -0.3581 -0.1050
  261MPD2    C1 3949   2.900   3.626  11.887  0.2117  0.1361 -1.2937
  261MPD2    C2 3950   2.920   3.746  11.819  0.1946  0.2568  0.4296
  261MPD2    C3 3951   2.896   3.760  11.684  0.2319 -0.1492 -0.7390
  261MPD2    C4 3952   2.858   3.650  11.613 -0.3571  0.2250  0.0422
  261MPD2    C5 3953   2.856   3.527  11.671 -0.3814  0.2973  0.3701
  261MPD2     H 3954   2.967   3.828  11.872  0.8050  0.1212  0.1048
  261MPD2    H1 3955   2.844   3.649  11.505 -0.0555 -0.0478  0.0057
  261MPD2    H2 3956   2.869   3.411  11.849 -0.3352 -0.8123 -1.3736
  261MPD2    H3 3957   2.858   3.443  11.602  1.8984  0.3740  0.3585
  261MPD2     N 3958   2.934   3.881  11.613 -0.0696 -0.2870  0.7482
  261MPD2    H5 3959   2.987   3.946  11.671 -0.3602  0.2219  0.4417
  261MPD2    N1 3960   2.923   3.614  12.026 -0.1831  0.1252 -0.0561
  261MPD2    H7 3961   2.961   3.695  12.074  0.9768 -0.0989 -0.6041
  262TMC3    C1 3962   2.993   4.040  11.459 -0.2399 -0.3557  0.3824
  262TMC3    C2 3963   2.958   4.146  11.535  0.0814  0.1880 -0.2157
  262TMC3    C3 3964   3.001   4.269  11.495  0.0100  1.0864  0.3391
  262TMC3    C4 3965   3.069   4.056  11.349 -1.1910  0.6299  0.1192
  262TMC3    C5 3966   3.112   4.179  11.311 -0.2519  0.1755  0.2054
  262TMC3    C6 3967   3.080   4.289  11.388 -0.0273  0.5602 -0.5894
  262TMC3     C 3968   2.926   3.914  11.478  0.4340 -0.2682  0.1315
  262TMC3     O 3969   2.896   3.841  11.387  0.0600  0.2191  0.1420
  262TMC3     H 3970   2.894   4.127  11.621 -1.2808  1.0193 -1.0467
  262TMC3    H1 3971   3.091   3.977  11.278 -1.9392  1.1964 -0.7410
  262TMC3    H2 3972   3.123   4.388  11.375  0.6228  0.4887  1.0449
  262TMC3    C7 3973   3.154   4.193  11.173  0.0493  0.4614  0.1482
  262TMC3    C8 3974   2.942   4.392  11.547  0.7460  0.0076 -0.8537
  262TMC3    O1 3975   3.135   4.105  11.094 -0.1474  0.0265 -0.2194
  262TMC3    O2 3976   2.964   4.498  11.488  0.4445  0.1216 -0.4742
  263MPD2     C 3977   3.937   3.214  11.460  0.1820  0.0466  0.8853
  263MPD2    C1 3978   3.967   3.350  11.477  0.0296  0.0860  0.2037
  263MPD2    C2 3979   3.939   3.436  11.372  0.4794 -0.2996 -0.5321
  263MPD2    C3 3980   3.886   3.385  11.255 -0.1159 -0.0878 -0.0902
  263MPD2    C4 3981   3.866   3.252  11.241 -0.3077 -0.5366  0.1076
  263MPD2    C5 3982   3.885   3.173  11.344  0.2771 -0.2471 -0.6286
  263MPD2     H 3983   3.956   3.543  11.380  0.3231 -0.1310 -2.4685
  263MPD2    H1 3984   3.821   3.211  11.152 -0.0033 -0.0059 -0.2913
  263MPD2    H2 3985   3.960   3.137  11.533 -2.8484 -0.2485  1.5212
  263MPD2    H3 3986   3.867   3.066  11.346  0.0735 -0.2052 -0.1138
  263MPD2     N 3987   3.870   3.478  11.149 -0.3076  0.7042  0.3973
  263MPD2    H5 3988   3.907   3.571  11.164  1.0182 -0.3963  3.8767
  263MPD2    N1 3989   4.036   3.397  11.593 -0.0173  0.2805 -0.5813
  263MPD2    H7 3990   4.063   3.328  11.662 -1.5106  0.8224  0.5394
  264TMC3    C1 3991   3.816   3.565  10.937 -0.6067  0.4356  0.0348
  264TMC3    C2 3992   3.850   3.693  10.983 -0.9614 -0.4016  0.3583
  264TMC3    C3 3993   3.919   3.777  10.901  0.1644  0.0586 -0.0097
  264TMC3    C4 3994   3.855   3.526  10.818  0.5231 -0.2705  0.0892
  264TMC3    C5 3995   3.942   3.611  10.740 -0.4556 -0.3346  0.0787
  264TMC3    C6 3996   3.976   3.731  10.787 -0.2991 -0.7424  0.1035
  264TMC3     C 3997   3.816   3.450  11.023  0.5956 -0.4097 -0.1822
  264TMC3     O 3998   3.786   3.342  10.978 -0.1215 -0.7984 -0.5552
  264TMC3     H 3999   3.837   3.706  11.090 -2.2098  0.5643  0.0759
  264TMC3    H1 4000   3.834   3.434  10.765 -0.3772 -0.3292  0.5468
  264TMC3    H2 4001   4.040   3.792  10.724 -0.5255  1.2323  1.7660
  264TMC3    C7 4002   4.027   3.567  10.634  0.1153  0.5795  0.2866
  264TMC3    C8 4003   3.957   3.908  10.944 -0.0428 -0.2869  0.0293
  264TMC3    O1 4004   4.123   3.642  10.610 -0.1841 -0.1171 -0.2868
  264TMC3    O2 4005   4.011   3.969  10.853  0.0613  0.3877 -0.2535
  265MPD2     C 4006   1.083   3.689  15.082  0.2071 -0.3816  0.2453
  265MPD2    C1 4007   1.178   3.784  15.073 -0.5549 -0.4520 -0.1111
  265MPD2    C2 4008   1.294   3.768  15.000  0.2237  0.3714 -0.4980
  265MPD2    C3 4009   1.316   3.643  14.944 -0.3549  0.3186 -0.6551
  265MPD2    C4 4010   1.227   3.544  14.967  0.0948  0.8842 -0.2968
  265MPD2    C5 4011   1.117   3.563  15.041 -0.2178 -0.4542 -0.1019
  265MPD2     H 4012   1.373   3.842  14.994  1.2152 -0.5252  1.5078
  265MPD2    H1 4013   1.246   3.445  14.926  1.3495  0.3866  1.4843
  265MPD2    H2 4014   0.984   3.697  15.127  0.9501  2.4170  1.4068
  265MPD2    H3 4015   1.047   3.482  15.058  0.7809 -1.4371 -0.7188
  265MPD2     N 4016   1.432   3.610  14.869 -0.1719 -0.2361 -0.2725
  265MPD2    H5 4017   1.435   3.519  14.825 -1.8720  0.6686 -2.2883
  265MPD2    N1 4018   1.166   3.908  15.139 -0.3457 -0.0767 -0.3148
  265MPD2    H7 4019   1.248   3.967  15.130 -0.5576 -0.0789 -2.4060
  266TMC3    C1 4020   1.069   4.056  15.306 -0.3712  0.1109  0.9123
  266TMC3    C2 4021   1.166   4.038  15.401 -0.2233  0.3715 -1.4515
  266TMC3    C3 4022   1.150   4.097  15.517 -0.3307 -0.5648 -0.3635
  266TMC3    C4 4023   0.948   4.113  15.334 -0.0788  0.3235 -0.0709
  266TMC3    C5 4024   0.931   4.163  15.463 -0.4848 -0.5736  0.0709
  266TMC3    C6 4025   1.035   4.162  15.548  0.4378 -0.0458 -0.4494
  266TMC3     C 4026   1.051   3.949  15.205 -0.1527 -0.4810 -0.1278
  266TMC3     O 4027   0.940   3.898  15.208  0.0577 -0.0030  0.8437
  266TMC3     H 4028   1.252   3.973  15.383 -1.9541 -2.2281 -0.3351
  266TMC3    H1 4029   0.879   4.128  15.252  0.0408 -3.2356 -0.8268
  266TMC3    H2 4030   1.012   4.214  15.640 -0.0293  0.7984 -1.0482
  266TMC3    C7 4031   0.838   4.267  15.468 -0.6502 -0.2303 -0.0095
  266TMC3    C8 4032   1.273   4.126  15.591 -0.3774  0.2345  0.2239
  266TMC3    O1 4033   0.839   4.331  15.359  0.3112 -0.1209 -0.3427
  266TMC3    O2 4034   1.366   4.053  15.561 -0.4800 -0.4881  0.4491
  267MPD2     C 4035   4.094   4.499  17.469  0.5550  0.0983 -0.1778
  267MPD2    C1 4036   4.125   4.626  17.427 -0.3391  0.1330  0.4428
  267MPD2    C2 4037   4.027   4.724  17.438 -0.0569 -0.1349 -0.2663
  267MPD2    C3 4038   3.901   4.686  17.473 -0.1488 -0.5145 -0.3339
  267MPD2    C4 4039   3.870   4.559  17.506  0.0596  0.1515  0.4988
  267MPD2    C5 4040   3.971   4.463  17.506 -0.4261 -0.3280 -0.5209
  267MPD2     H 4041   4.063   0.098  17.418 -0.1135  0.3747  2.2686
  267MPD2    H1 4042   3.766   4.530  17.517  0.0080  0.2071  0.1705
  267MPD2    H2 4043   4.162   4.415  17.469 -1.1728 -1.3161  1.4418
  267MPD2    H3 4044   3.955   4.358  17.529  0.6364 -0.5621 -0.8640
  267MPD2     N 4045   3.800   0.055  17.484 -0.4695 -0.3867 -0.1992
  267MPD2    H5 4046   3.708   0.014  17.494 -0.8349  0.5123  0.0528
  267MPD2    N1 4047   4.261   4.646  17.391  0.3180  0.6259 -0.1097
  267MPD2    H7 4048   4.315   4.561  17.380 -1.7800 -0.6059 -0.8259
  268TMC3    C1 4049   4.466   0.021  17.337 -0.2580  0.0677  0.1023
  268TMC3    C2 4050   4.525   0.133  17.281  0.2564  0.2492  0.5375
  268TMC3    C3 4051   4.634   0.190  17.339  0.6085  0.7504  0.0209
  268TMC3    C4 4052   4.524   4.692  17.446 -0.0654  0.4081 -0.4400
  268TMC3    C5 4053   4.639   0.010  17.500 -0.3709 -0.1345 -0.9223
  268TMC3    C6 4054   4.697   0.119  17.444 -0.5987 -0.8458 -0.5145
  268TMC3     C 4055   4.317   0.032  17.352  0.2232  0.1216  0.0147
  268TMC3     O 4056   4.271   0.143  17.344  0.3356 -0.1850 -0.1579
  268TMC3     H 4057   4.495   0.182  17.189 -1.0210 -0.1036  0.7563
  268TMC3    H1 4058   4.492   4.598  17.490  0.8957  0.8367  1.1709
  268TMC3    H2 4059   0.064   0.160  17.479 -0.9585  0.3807 -0.9741
  268TMC3    C7 4060   4.645   4.722  17.643  0.2486  0.7974  0.3736
  268TMC3    C8 4061   4.615   0.340  17.364  0.4461  0.6411  1.0622
  268TMC3    O1 4062   4.546   4.680  17.700  0.7624 -0.2963 -0.0957
  268TMC3    O2 4063   4.695   0.395  17.431  0.1577  0.3453  0.1729
  269MPD2     C 4064   3.709   4.054  15.576 -0.1022 -0.4008  0.8274
  269MPD2    C1 4065   3.628   4.035  15.465 -0.5853 -0.1379  0.4660
  269MPD2    C2 4066   3.590   4.145  15.392  0.2834 -0.6550  0.1640
  269MPD2    C3 4067   3.629   4.272  15.433  0.5529  0.0029  0.1499
  269MPD2    C4 4068   3.712   4.287  15.545  0.3496 -1.4989 -0.3770
  269MPD2    C5 4069   3.740   4.177  15.622 -0.1776  0.0220 -0.4830
  269MPD2     H 4070   3.506   4.141  15.324 -0.6327 -0.0758  1.2629
  269MPD2    H1 4071   3.752   4.378  15.587  0.1907 -1.2126 -0.8441
  269MPD2    H2 4072   3.743   3.972  15.639 -1.4240 -0.4365  1.4747
  269MPD2    H3 4073   3.802   4.187  15.710 -1.1473  1.2061  0.0603
  269MPD2     N 4074   3.578   4.389  15.360 -0.0468 -0.0318  0.3508
  269MPD2    H5 4075   3.502   4.371  15.295  1.6123  0.5863 -1.7381
  269MPD2    N1 4076   3.596   3.897  15.448 -0.0765 -0.1129  0.1236
  269MPD2    H7 4077   3.641   3.839  15.518 -1.7556  0.5484  1.7566
  270TMC3    C1 4078   3.475   3.702  15.391 -0.0401 -0.0575 -0.1548
  270TMC3    C2 4079   3.386   3.649  15.300 -0.4014 -0.3096 -0.6410
  270TMC3    C3 4080   3.379   3.510  15.290  0.2110  0.0704  0.1891
  270TMC3    C4 4081   3.559   3.622  15.465  0.2466  0.1917 -0.2966
  270TMC3    C5 4082   3.547   3.485  15.447 -0.8152 -0.2187  1.0666
  270TMC3    C6 4083   3.457   3.423  15.361  0.0562 -0.1524  0.0671
  270TMC3     C 4084   3.513   3.839  15.360  0.7467 -0.8435 -0.1712
  270TMC3     O 4085   3.453   3.899  15.273  0.3128 -0.2932 -0.2735
  270TMC3     H 4086   3.323   3.714  15.240  0.3498  0.4210 -0.6379
  270TMC3    H1 4087   3.643   3.657  15.523 -1.2572 -1.0299  2.6208
  270TMC3    H2 4088   3.457   3.321  15.325 -2.1168 -0.4129  0.8157
  270TMC3    C7 4089   3.647   3.396  15.502  0.1495 -0.3279 -0.5170
  270TMC3    C8 4090   3.339   3.469  15.158  0.9208  0.6079 -0.2757
  270TMC3    O1 4091   3.757   3.439  15.520 -0.1012  0.4108 -0.3031
  270TMC3    O2 4092   3.222   3.472  15.125  0.4125  0.3181 -0.1899
  271MPD2     C 4093   3.080   4.139  13.808 -0.1040  0.4683  0.3553
  271MPD2    C1 4094   3.013   4.038  13.877 -0.3658  0.3209  0.3306
  271MPD2    C2 4095   2.880   4.049  13.916  0.8667 -0.1729  0.2389
  271MPD2    C3 4096   2.811   4.143  13.850  0.1157 -0.6593 -0.7706
  271MPD2    C4 4097   2.872   4.243  13.783 -0.3226  0.1963 -0.4410
  271MPD2    C5 4098   3.006   4.241  13.759 -1.1579  0.4557 -0.0972
  271MPD2     H 4099   2.829   3.967  13.966  0.3814  1.8456  3.0480
  271MPD2    H1 4100   2.813   4.330  13.756 -0.2672  0.3502 -0.0670
  271MPD2    H2 4101   3.188   4.142  13.810 -0.1681  2.1260  1.4256
  271MPD2    H3 4102   3.045   4.332  13.715  0.2145 -0.0788  0.0017
  271MPD2     N 4103   2.674   4.157  13.867  0.4869  0.4007  0.8582
  271MPD2    H5 4104   2.627   4.240  13.831 -4.0930 -2.4145  0.2990
  271MPD2    N1 4105   3.083   3.920  13.919  0.3783 -0.3219  0.2079
  271MPD2    H7 4106   3.040   3.853  13.982 -0.1921  1.0179  1.2650
  272TMC3    C1 4107   3.259   3.755  13.939 -0.0679  0.2161  0.7900
  272TMC3    C2 4108   3.377   3.704  13.898  0.2706  0.3191  0.3048
  272TMC3    C3 4109   3.449   3.623  13.987  1.2879  0.5030 -0.2660
  272TMC3    C4 4110   3.210   3.726  14.059  0.2315 -0.3538  0.2389
  272TMC3    C5 4111   3.289   3.655  14.142 -0.3617  0.1113 -0.1660
  272TMC3    C6 4112   3.414   3.605  14.118  0.1097 -0.1138  0.9517
  272TMC3     C 4113   3.208   3.886  13.879  0.1480  0.2875  0.0649
  272TMC3     O 4114   3.296   3.944  13.817 -0.1920 -0.2207 -0.8297
  272TMC3     H 4115   3.424   3.742  13.808  0.8838 -0.3706  0.3308
  272TMC3    H1 4116   3.119   3.765  14.104  0.1853  0.3937 -0.5035
  272TMC3    H2 4117   3.476   3.560  14.194  2.0065 -0.3649 -0.7329
  272TMC3    C7 4118   3.246   3.663  14.277  0.2406  0.0646  0.7530
  272TMC3    C8 4119   3.590   3.613  13.960 -0.2682 -0.5629 -0.8786
  272TMC3    O1 4120   3.134   3.610  14.303  0.5963  0.5940 -0.0994
  272TMC3    O2 4121   3.639   3.670  13.864  0.0563  0.3454 -0.5470
  273MPD2     C 4122   4.682   2.101  12.056 -0.3347  0.7115  0.8871
  273MPD2    C1 4123   0.037   2.210  12.022  0.6452  0.1740 -0.5341
  273MPD2    C2 4124   0.017   2.274  11.903  0.0386  0.2767  0.5903
  273MPD2    C3 4125   4.653   2.236  11.817  0.2591  1.0816 -0.4594
  273MPD2    C4 4126   4.561   2.137  11.852 -0.5313  0.1047 -0.0757
  273MPD2    C5 4127   4.577   2.063  11.969  0.2406  0.0128  0.7543
  273MPD2     H 4128   0.092   2.344  11.867 -1.0372  0.0904 -2.0533
  273MPD2    H1 4129   4.491   2.109  11.775  0.8066 -0.7082 -0.9842
  273MPD2    H2 4130   4.702   2.038  12.142  0.7707 -0.1870 -0.0282
  273MPD2    H3 4131   4.510   1.979  11.979 -0.9357  0.8852  0.2502
  273MPD2     N 4132   4.622   2.302  11.695  0.5630 -0.8407  0.0151
  273MPD2    H5 4133   4.530   2.281  11.657 -0.2133 -0.7214  1.8440
  273MPD2    N1 4134   0.140   2.255  12.112 -0.7272  0.3132 -0.6405
  273MPD2    H7 4135   0.143   2.202  12.198 -2.6541 -0.1848 -0.8774
  274TMC3    C1 4136   4.621   2.487  11.541  0.3138  0.0290  0.3111
  274TMC3    C2 4137   4.521   2.435  11.471 -0.3697  0.9993 -0.0722
  274TMC3    C3 4138   4.463   2.509  11.370 -0.7165  0.2756  0.5078
  274TMC3    C4 4139   4.683   2.604  11.496 -0.0983  0.1669  0.0462
  274TMC3    C5 4140   4.626   2.676  11.394  0.3400 -0.4586  0.3834
  274TMC3    C6 4141   4.517   2.631  11.327 -0.2938 -0.2178 -0.4426
  274TMC3     C 4142   4.694   2.408  11.648 -0.2936 -0.1519  0.0181
  274TMC3     O 4143   0.074   2.453  11.680 -0.0928  0.0384  0.2052
  274TMC3     H 4144   4.487   2.333  11.476 -0.2049  0.9779  0.6345
  274TMC3    H1 4145   0.037   2.649  11.552 -0.6910 -1.4420  2.1398
  274TMC3    H2 4146   4.442   2.703  11.296 -0.0419  0.1198 -0.2754
  274TMC3    C7 4147   4.633   2.819  11.407 -0.6285 -0.6657 -0.0633
  274TMC3    C8 4148   4.340   2.457  11.307 -0.4442 -0.1059  0.3727
  274TMC3    O1 4149   4.668   2.863  11.514 -0.3146  0.3990  0.0196
  274TMC3    O2 4150   4.278   2.374  11.371  0.5275  0.7656  0.1768
  275MPD2     C 4151   4.445   0.169  13.928 -0.2539  0.2257  0.7932
  275MPD2    C1 4152   4.437   0.148  14.067 -0.2619  0.4902 -0.3529
  275MPD2    C2 4153   4.318   0.124  14.130  0.4814 -0.7145 -0.8266
  275MPD2    C3 4154   4.206   0.100  14.047 -0.1314  0.5881 -0.6340
  275MPD2    C4 4155   4.214   0.111  13.912 -0.6965 -0.0127  0.7623
  275MPD2    C5 4156   4.334   0.155  13.858 -0.0576  0.0173  0.6023
  275MPD2     H 4157   4.309   0.112  14.238  0.4890 -0.1185 -0.7576
  275MPD2    H1 4158   4.136   0.083  13.842  1.8502 -0.7632 -1.7446
  275MPD2    H2 4159   4.540   0.194  13.881 -1.2217  2.2793 -0.0626
  275MPD2    H3 4160   4.332   0.168  13.750  0.0789  1.4302  0.7603
  275MPD2     N 4161   4.088   0.037  14.093 -0.2466  0.1101 -0.7531
  275MPD2    H5 4162   4.013   0.014  14.029 -0.4574  2.0427 -1.2058
  275MPD2    N1 4163   4.545   0.165  14.152  0.0429  0.6151  0.0287
  275MPD2    H7 4164   4.530   0.153  14.251  0.0049  0.2422 -0.0211
  276TMC3    C1 4165   0.041   0.157  14.217  0.1006  0.4961  0.0100
  276TMC3    C2 4166   0.099   0.033  14.222  0.4170  0.3318 -0.6243
  276TMC3    C3 4167   0.120   4.703  14.343  0.2867 -0.1689  0.6290
  276TMC3    C4 4168   0.008   0.226  14.334 -0.5956  0.1543  0.3029
  276TMC3    C5 4169   0.040   0.167  14.451  0.1566  0.6755 -0.0584
  276TMC3    C6 4170   0.089   0.044  14.461 -0.1978  0.0281 -0.1721
  276TMC3     C 4171   4.673   0.158  14.111 -0.8212  0.0076  0.1657
  276TMC3     O 4172   4.710   0.108  14.009  0.3668 -0.2340 -0.1451
  276TMC3     H 4173   0.105   4.702  14.130  1.5357  2.5675 -1.9612
  276TMC3    H1 4174   4.701   0.328  14.319 -4.4150 -0.8503  1.9817
  276TMC3    H2 4175   0.129   0.008  14.555  0.3916  1.9960  0.3277
  276TMC3    C7 4176   0.062   0.248  14.571  0.2523  0.1357  0.2981
  276TMC3    C8 4177   0.182   4.571  14.350  0.6033  0.5063  0.2834
  276TMC3    O1 4178   0.047   0.190  14.679  0.3849  0.0830  0.3263
  276TMC3    O2 4179   0.249   4.535  14.251  0.5121 -0.0005  0.6013
  277MPD2     C 4180   1.765   3.768  12.771  0.5956 -0.0898 -0.5836
  277MPD2    C1 4181   1.651   3.827  12.815 -0.3071 -0.0613 -0.6084
  277MPD2    C2 4182   1.612   3.801  12.949  0.0011 -0.6747 -0.3973
  277MPD2    C3 4183   1.692   3.724  13.030 -0.2821 -0.3754  0.5276
  277MPD2    C4 4184   1.814   3.666  12.986 -0.7987 -0.1014 -0.2135
  277MPD2    C5 4185   1.844   3.691  12.852 -0.8933 -0.2818 -0.1022
  277MPD2     H 4186   1.531   3.863  12.985  0.2737  0.1778 -1.2436
  277MPD2    H1 4187   1.883   3.619  13.055  0.3507  0.3781 -1.0396
  277MPD2    H2 4188   1.790   3.780  12.666  2.0973 -1.0234 -0.3218
  277MPD2    H3 4189   1.937   3.660  12.805  0.6606  1.8551  1.5282
  277MPD2     N 4190   1.647   3.715  13.163 -0.6927  0.0602 -0.1482
  277MPD2    H5 4191   1.557   3.760  13.175 -0.4095  0.4553  0.5183
  277MPD2    N1 4192   1.582   3.915  12.731  0.0436 -0.4614 -0.1566
  277MPD2    H7 4193   1.642   3.938  12.653 -0.9322  0.0112 -0.7726
  278TMC3    C1 4194   1.627   3.621  13.371 -0.5160 -0.2120  0.5645
  278TMC3    C2 4195   1.638   3.496  13.413  0.3732  0.8332  0.6125
  278TMC3    C3 4196   1.543   3.439  13.495  0.2761  1.1500 -0.2829
  278TMC3    C4 4197   1.520   3.699  13.402  0.4080 -0.1950  0.0685
  278TMC3    C5 4198   1.437   3.645  13.498 -0.1480  0.4354  0.1764
  278TMC3    C6 4199   1.438   3.518  13.538  0.8198  0.4762  1.0521
  278TMC3     C 4200   1.710   3.653  13.266 -0.1473 -0.1664 -0.0910
  278TMC3     O 4201   1.815   3.592  13.268  0.4386  0.6717 -0.2562
  278TMC3     H 4202   1.713   3.429  13.372 -0.3742  1.8871 -2.4657
  278TMC3    H1 4203   1.528   3.801  13.365 -0.0071 -0.0454  0.3870
  278TMC3    H2 4204   1.380   3.474  13.618  0.8100 -2.6629 -0.6785
  278TMC3    C7 4205   1.352   3.748  13.562 -0.9775 -0.0529 -0.5025
  278TMC3    C8 4206   1.533   3.297  13.479  0.4369  0.9070 -0.2298
  278TMC3    O1 4207   1.366   3.863  13.530  0.0078 -0.0664  0.2025
  278TMC3    O2 4208   1.633   3.225  13.489  0.2091 -0.7055 -0.1443
  279MPD2     C 4209   0.748   4.441   0.344 -0.2254  0.1272 -0.0334
  279MPD2    C1 4210   0.747   4.314   0.287 -0.8799 -0.1872 -0.1511
  279MPD2    C2 4211   0.766   4.314   0.149  0.4615 -0.2740 -0.2901
  279MPD2    C3 4212   0.799   4.424   0.064 -0.1103  0.3703  0.1955
  279MPD2    C4 4213   0.811   4.544   0.130 -0.2860  0.1684  0.0764
  279MPD2    C5 4214   0.776   4.553   0.263 -0.1994 -0.9516  0.4008
  279MPD2     H 4215   0.745   4.219   0.101  0.9799 -0.3982 -0.2772
  279MPD2    H1 4216   0.827   4.631   0.067 -2.0540  0.2353 -0.2807
  279MPD2    H2 4217   0.733   4.445   0.451 -0.0770 -2.4105  0.0870
  279MPD2    H3 4218   0.798   4.651   0.305 -2.5214 -0.6104  0.8183
  279MPD2     N 4219   0.821   4.427  17.636 -0.5927  0.2135  0.5529
  279MPD2    H5 4220   0.835   4.518  17.594 -0.5082 -1.2758 -2.6837
  279MPD2    N1 4221   0.720   4.194   0.357 -0.2385 -0.1729  0.1625
  279MPD2    H7 4222   0.719   4.105   0.308 -0.3272 -1.2573  2.1211
  280TMC3    C1 4223   0.644   4.057   0.519  0.3042 -0.2278 -0.8686
  280TMC3    C2 4224   0.521   4.089   0.576 -0.3683 -0.1474  0.4162
  280TMC3    C3 4225   0.414   4.019   0.522  0.5308  0.7351  0.1978
  280TMC3    C4 4226   0.662   3.971   0.414 -0.1119 -0.4258  0.5011
  280TMC3    C5 4227   0.551   3.914   0.358  0.3186  0.3607 -0.5409
  280TMC3    C6 4228   0.428   3.937   0.414 -0.3625  0.0593  0.5380
  280TMC3     C 4229   0.704   4.186   0.491 -0.7718 -0.8941  0.5376
  280TMC3     O 4230   0.714   4.264   0.584  0.0337  0.1437  0.4075
  280TMC3     H 4231   0.512   4.174   0.643  4.1648  1.1943 -0.6766
  280TMC3    H1 4232   0.760   3.946   0.376 -0.5974  0.9394 -1.5985
  280TMC3    H2 4233   0.347   3.868   0.391  0.7897 -1.2204  0.3191
  280TMC3    C7 4234   0.568   3.927   0.212  0.2713 -0.0823 -0.3539
  280TMC3    C8 4235   0.287   4.030   0.590  0.5285 -0.0602 -0.0379
  280TMC3    O1 4236   0.679   3.951   0.176 -0.5332  0.1265  0.1010
  280TMC3    O2 4237   0.191   3.985   0.526  0.1351 -0.3880  0.4760
  281TMC3    C1 4238   4.246   4.199  13.030  0.3664  0.0052 -0.0208
  281TMC3    C2 4239   4.272   4.251  12.905 -0.3089 -0.3245  0.1103
  281TMC3    C3 4240   4.273   4.166  12.800 -0.3737  0.4915  0.4702
  281TMC3    C4 4241   4.214   4.070  13.053  0.4895 -0.2505  0.1254
  281TMC3    C5 4242   4.196   3.996  12.940  0.0568  0.5977 -0.1715
  281TMC3    C6 4243   4.237   4.033  12.817 -0.8426  0.4300 -0.7322
  281TMC3     C 4244   4.241   4.289  13.146  0.0217  0.2247  0.5272
  281TMC3     O 4245   4.265   4.247  13.256  0.4848 -0.2213 -0.1938
  281TMC3     H 4246   4.306   4.350  12.879 -1.0899 -0.6265 -2.0666
  281TMC3    H1 4247   4.176   4.046  13.152  1.6832 -0.0706  0.6267
  281TMC3    H2 4248   4.240   3.969  12.730 -0.4276  0.3653 -0.6700
  281TMC3    C7 4249   4.163   3.859  12.953 -0.3729  0.3535 -0.1646
  281TMC3    C8 4250   4.225   4.235  12.681  0.0994 -0.2343 -0.4520
  281TMC3    O1 4251   4.133   3.796  12.852  0.1118 -0.2168 -0.1774
  281TMC3    O2 4252   4.160   4.334  12.700  0.1747 -0.2613  0.0585
  282MPD2     C 4253   1.028   0.703  15.111 -0.2309 -0.3523  0.8545
  282MPD2    C1 4254   0.911   0.767  15.143  0.5537  0.8053 -0.4978
  282MPD2    C2 4255   0.830   0.812  15.046 -0.2671  0.0027 -0.0135
  282MPD2    C3 4256   0.871   0.800  14.912 -0.2684  0.0902  0.6062
  282MPD2    C4 4257   0.991   0.742  14.877 -0.8731  0.1059 -0.1732
  282MPD2    C5 4258   1.069   0.695  14.981 -0.2016  0.9907  0.2024
  282MPD2     H 4259   0.738   0.865  15.068 -2.0339 -2.3247 -1.7485
  282MPD2    H1 4260   1.029   0.734  14.776  0.6442 -1.1545  0.5057
  282MPD2    H2 4261   1.084   0.644  15.183  1.1778 -1.7004 -1.3257
  282MPD2    H3 4262   1.156   0.635  14.957 -1.7805 -1.4127  0.5159
  282MPD2     N 4263   0.777   0.856  14.820  0.3698  0.0362 -0.0803
  282MPD2    H5 4264   0.706   0.914  14.864 -0.1369 -0.2688 -0.5036
  282MPD2    N1 4265   0.879   0.785  15.281  0.1964 -0.3577  0.1836
  282MPD2    H7 4266   0.787   0.823  15.302  0.7616  0.6096  0.9154
  283TMC3    C1 4267   0.908   0.814  15.505 -0.3298  0.2107 -0.4100
  283TMC3    C2 4268   0.984   0.912  15.570 -0.0447 -0.6533  0.3915
  283TMC3    C3 4269   0.975   0.916  15.709  0.2394 -0.1285  0.1084
  283TMC3    C4 4270   0.866   0.700  15.571 -0.3138  0.2497  0.3949
  283TMC3    C5 4271   0.889   0.696  15.708  0.2507 -0.0139  0.8216
  283TMC3    C6 4272   0.922   0.809  15.784 -0.3416  0.5213 -0.0738
  283TMC3     C 4273   0.969   0.773  15.383 -0.2674 -0.3411 -0.4457
  283TMC3     O 4274   1.073   0.716  15.393 -0.0944  0.3942  0.2028
  283TMC3     H 4275   1.040   0.975  15.501  1.2527  0.6453  2.6407
  283TMC3    H1 4276   0.810   0.626  15.513  1.5192  0.8746 -2.1728
  283TMC3    H2 4277   0.925   0.814  15.892  1.5583 -0.1546 -0.1038
  283TMC3    C7 4278   0.818   0.590  15.775 -0.2217  0.0276 -0.0886
  283TMC3    C8 4279   1.005   1.042  15.774 -0.3509  0.0150  0.4158
  283TMC3    O1 4280   0.762   0.620  15.881  0.3018 -0.0119 -0.0912
  283TMC3    O2 4281   0.976   1.055  15.889  0.2686 -0.2298  0.8109
  284MPD2     C 4282   4.102   0.267  11.720 -0.3997 -0.1748  0.0969
  284MPD2    C1 4283   4.213   0.212  11.771 -0.2332  0.0648  0.6868
  284MPD2    C2 4284   4.199   0.126  11.879  0.1682 -0.8450  0.2565
  284MPD2    C3 4285   4.075   0.107  11.939 -0.1186 -0.3579 -0.2978
  284MPD2    C4 4286   3.969   0.166  11.884  0.3401  0.0531  0.0276
  284MPD2    C5 4287   3.977   0.237  11.771 -0.0585 -0.0328 -0.6890
  284MPD2     H 4288   4.287   0.093  11.933  1.9288  1.4125 -1.2654
  284MPD2    H1 4289   3.874   0.165  11.935  0.1999  2.1045 -0.1913
  284MPD2    H2 4290   4.099   0.348  11.649 -4.9863 -0.7600 -0.3674
  284MPD2    H3 4291   3.893   0.283  11.720  1.2037  3.0000 -0.0035
  284MPD2     N 4292   4.060   0.024  12.052 -0.2950  0.0895 -0.4400
  284MPD2    H5 4293   4.029   0.079  12.132  0.0260  1.0287 -0.9516
  284MPD2    N1 4294   4.337   0.261  11.719 -0.1192  0.1385 -0.2535
  284MPD2    H7 4295   4.334   0.328  11.644  0.1074 -0.5313 -0.8651
  285TMC3    C1 4296   4.566   0.260  11.678 -0.0827  0.5475 -0.5299
  285TMC3    C2 4297   4.654   0.171  11.618  0.1758 -0.0519 -0.1114
  285TMC3    C3 4298   0.028   0.215  11.534  0.0952  0.2249 -0.3010
  285TMC3    C4 4299   4.578   0.400  11.661 -0.1915 -0.1519  0.4426
  285TMC3    C5 4300   4.683   0.439  11.582  0.0697  0.3842  0.8643
  285TMC3    C6 4301   0.037   0.350  11.515 -0.0793 -0.1296  0.2437
  285TMC3     C 4302   4.457   0.208  11.761 -0.7912  0.1423  1.1822
  285TMC3     O 4303   4.479   0.115  11.830 -0.4654 -0.3985 -0.7999
  285TMC3     H 4304   4.644   0.064  11.630  0.0195 -0.0382 -0.1207
  285TMC3    H1 4305   4.534   0.463  11.737 -0.9039 -0.0760 -0.0340
  285TMC3    H2 4306   0.114   0.381  11.446  1.5184  0.4472  2.2985
  285TMC3    C7 4307   0.016   0.568  11.624 -0.0474 -0.1411 -0.0862
  285TMC3    C8 4308   0.064   0.125  11.431 -0.0936 -0.4275 -0.2262
  285TMC3    O1 4309   4.668   0.650  11.675 -0.4076  0.4379 -0.0991
  285TMC3    O2 4310   4.718   0.025  11.433  0.1139 -0.2424  0.2165
  286MPD2     C 4311   4.690   3.606   1.652  0.2305  0.2863 -0.8036
  286MPD2    C1 4312   4.635   3.625   1.528  0.3327 -0.4688 -0.2770
  286MPD2    C2 4313   4.719   3.585   1.424  0.1580  0.1892 -0.0235
  286MPD2    C3 4314   0.126   3.559   1.444  0.0271  0.3085 -0.5064
  286MPD2    C4 4315   0.177   3.549   1.572  0.4308  0.2097 -0.6737
  286MPD2    C5 4316   0.095   3.573   1.673 -0.0958 -0.6618 -0.2238
  286MPD2     H 4317   4.682   3.605   1.324  0.3182 -1.6120 -0.4589
  286MPD2    H1 4318   0.282   3.528   1.591  0.4610 -0.6290 -1.7805
  286MPD2    H2 4319   4.634   3.621   1.744  0.4784 -1.0669 -0.4197
  286MPD2    H3 4320   0.135   3.565   1.774 -1.0692 -0.9377  0.1415
  286MPD2     N 4321   0.222   3.538   1.340  0.0203  0.4447 -0.6707
  286MPD2    H5 4322   0.312   3.511   1.377  0.3243  1.9435 -0.3069
  286MPD2    N1 4323   4.499   3.667   1.504 -0.1877 -0.2592  0.0165
  286MPD2    H7 4324   4.470   3.658   1.407 -1.4142  1.6989  0.2149
  287TMC3    C1 4325   0.323   3.567   1.137 -0.1984 -0.4712 -0.1720
  287TMC3    C2 4326   0.338   3.493   1.022 -0.4176 -0.2138 -0.1196
  287TMC3    C3 4327   0.464   3.488   0.959 -0.3115  0.3641 -0.6326
  287TMC3    C4 4328   0.425   3.616   1.201  0.8270 -0.0666  0.1208
  287TMC3    C5 4329   0.555   3.597   1.146  0.2824 -0.3425  0.1972
  287TMC3    C6 4330   0.571   3.539   1.023  0.4865  0.2356  0.0531
  287TMC3     C 4331   0.200   3.557   1.208  0.0621 -0.0912  0.6278
  287TMC3     O 4332   0.095   3.552   1.145 -0.4188  0.9067 -0.2018
  287TMC3     H 4333   0.248   3.453   0.977 -1.6055  1.0207  1.1259
  287TMC3    H1 4334   0.416   3.663   1.299  0.3325 -0.3894  0.2317
  287TMC3    H2 4335   0.672   3.533   0.983  0.0619 -0.9242 -0.8624
  287TMC3    C7 4336   0.667   3.660   1.205  0.2719 -0.1063  0.5126
  287TMC3    C8 4337   0.486   3.394   0.852 -0.1882  0.7703 -0.6063
  287TMC3    O1 4338   0.769   3.593   1.200  0.2351  0.3818 -0.4589
  287TMC3    O2 4339   0.388   3.330   0.813  0.7989 -0.5482  0.2428
  288TMC3    C1 4340   1.384   2.461  14.385 -0.8402  0.4611  0.1737
  288TMC3    C2 4341   1.304   2.489  14.489  0.0725 -0.1726  0.2194
  288TMC3    C3 4342   1.296   2.618  14.541  0.8650  0.2076 -0.3406
  288TMC3    C4 4343   1.458   2.558  14.316  0.0039 -1.1109 -0.1997
  288TMC3    C5 4344   1.437   2.688  14.365  0.2541 -0.5427 -0.9242
  288TMC3    C6 4345   1.379   2.712  14.489 -0.9315 -0.9150 -0.2162
  288TMC3     C 4346   1.395   2.320  14.335 -0.5564 -0.4199 -0.3821
  288TMC3     O 4347   1.426   2.311  14.216 -0.2544 -0.4754 -0.1057
  288TMC3     H 4348   1.247   2.409  14.534 -2.0892  1.0309 -0.3848
  288TMC3    H1 4349   1.525   2.525  14.237  0.5281  2.3133 -1.2096
  288TMC3    H2 4350   1.364   2.813  14.524  2.4652 -1.2828  2.2473
  288TMC3    C7 4351   1.495   2.796  14.288 -0.9295  0.5573  0.2238
  288TMC3    C8 4352   1.242   2.650  14.674 -0.0254  0.6719 -0.1283
  288TMC3    O1 4353   1.489   2.909  14.331  0.1006 -0.4542  0.4554
  288TMC3    O2 4354   1.284   2.750  14.723 -0.6664 -0.2236 -0.3448
  289MPD2     C 4355   1.817   2.585  13.510  0.6720 -0.3456  0.5448
  289MPD2    C1 4356   1.753   2.545  13.625 -0.7370 -0.3633 -0.2591
  289MPD2    C2 4357   1.622   2.503  13.622  0.5085 -0.0676  0.2858
  289MPD2    C3 4358   1.542   2.524  13.504 -0.2532 -0.0220  0.0274
  289MPD2    C4 4359   1.612   2.558  13.393 -0.1592  0.3899  0.0996
  289MPD2    C5 4360   1.744   2.580  13.395 -0.0937  0.1388  0.3601
  289MPD2     H 4361   1.571   2.467  13.711 -1.7846  0.2976 -0.9044
  289MPD2    H1 4362   1.550   2.567  13.305 -1.3162 -0.6067  0.7960
  289MPD2    H2 4363   1.923   2.607  13.505  0.5621 -0.4575 -2.4518
  289MPD2    H3 4364   1.789   2.594  13.298 -0.9984 -0.3655 -0.1228
  289MPD2     N 4365   1.400   2.523  13.509  0.2724  0.5252 -0.5990
  289MPD2    H5 4366   1.344   2.529  13.425  0.4485 -0.1916 -0.7731
  289MPD2    N1 4367   1.830   2.535  13.746 -0.0302  0.2733  0.2630
  289MPD2    H7 4368   1.927   2.563  13.738 -0.1720  0.4304 -0.8072
  290TMC3    C1 4369   1.185   2.471  13.593 -0.0860  0.1786  0.5760
  290TMC3    C2 4370   1.124   2.574  13.532  0.2589  0.6579  0.4683
  290TMC3    C3 4371   0.990   2.566  13.527  0.3394  0.4016  0.0434
  290TMC3    C4 4372   1.122   2.366  13.652  0.5855  0.2752 -0.3686
  290TMC3    C5 4373   0.986   2.357  13.645 -0.4454  0.2324  0.2712
  290TMC3    C6 4374   0.920   2.459  13.581  0.2411  0.2899 -0.2142
  290TMC3     C 4375   1.325   2.486  13.621 -0.0923  0.1022 -0.0978
  290TMC3     O 4376   1.358   2.462  13.735 -0.2117  0.6053 -0.3933
  290TMC3     H 4377   1.182   2.660  13.502  0.2383  0.2097 -0.8634
  290TMC3    H1 4378   1.178   2.280  13.687  1.1365  0.3070 -1.1658
  290TMC3    H2 4379   0.813   2.462  13.598  0.0742  0.1839 -1.3051
  290TMC3    C7 4380   0.943   2.326  13.779 -0.0372 -0.3722 -0.2960
  290TMC3    C8 4381   0.920   2.692  13.543  0.7614  0.6050 -0.2858
  290TMC3    O1 4382   0.859   2.241  13.793  0.8194 -0.3909  1.1728
  290TMC3    O2 4383   0.800   2.679  13.514 -0.1262 -0.1800 -0.0271
  291MPD2     C 4384   0.775   2.186   0.299 -0.5971  0.3825  0.1023
  291MPD2    C1 4385   0.698   2.118   0.205 -0.0463 -1.1802 -0.2799
  291MPD2    C2 4386   0.740   2.124   0.077  0.3264 -0.2737  0.2525
  291MPD2    C3 4387   0.849   2.194   0.040 -0.6049 -0.9899  0.3007
  291MPD2    C4 4388   0.916   2.265   0.133 -0.7763 -0.7686  0.5638
  291MPD2    C5 4389   0.877   2.266   0.263  0.5270  0.1743  0.6556
  291MPD2     H 4390   0.688   2.070  17.708 -1.2904 -0.7768  1.6900
  291MPD2    H1 4391   1.004   2.323   0.106 -0.4937 -0.8751  1.2365
  291MPD2    H2 4392   0.758   2.183   0.406 -0.1374  0.7177  0.1838
  291MPD2    H3 4393   0.928   2.326   0.338  1.1453 -0.0224  0.3895
  291MPD2     N 4394   0.894   2.204  17.609  0.0836  0.1782  0.2936
  291MPD2    H5 4395   0.963   2.276  17.590 -1.2696  1.0595 -1.3202
  291MPD2    N1 4396   0.584   2.035   0.233  0.0355  0.7071 -0.5381
  291MPD2    H7 4397   0.547   1.974   0.161  0.3648 -1.4138  1.1079
  292TMC3    C1 4398   0.401   1.954   0.352 -0.4411 -0.2248  0.6087
  292TMC3    C2 4399   0.312   1.964   0.452  0.0937  0.1802  0.7002
  292TMC3    C3 4400   0.206   1.880   0.455 -0.1584  0.3398 -0.0828
  292TMC3    C4 4401   0.374   1.872   0.244 -0.1202  1.1030 -0.6289
  292TMC3    C5 4402   0.268   1.780   0.254 -0.3471  0.0747  0.6086
  292TMC3    C6 4403   0.181   1.784   0.362 -0.2138 -0.8261  0.2096
  292TMC3     C 4404   0.525   2.027   0.357 -0.2094  0.7258  0.4311
  292TMC3     O 4405   0.558   2.082   0.460 -0.0381  0.0955 -0.4661
  292TMC3     H 4406   0.328   2.029   0.537 -3.0771 -0.9049  2.1427
  292TMC3    H1 4407   0.443   1.854   0.162  0.2022  1.2050 -0.3814
  292TMC3    H2 4408   0.091   1.724   0.361  0.7248 -2.2222 -0.6249
  292TMC3    C7 4409   0.234   1.711   0.131  0.8660  0.2637 -0.6262
  292TMC3    C8 4410   0.092   1.905   0.549  0.0190 -0.3791  0.0704
  292TMC3    O1 4411   0.326   1.669   0.064  0.4587 -0.5380 -0.1111
  292TMC3    O2 4412   0.081   2.021   0.592 -0.3122  0.2172  0.0377
  293MPD2     C 4413   3.002   4.095  12.458  0.5796  0.0231  0.3302
  293MPD2    C1 4414   2.921   3.994  12.512  0.3653 -0.2242  0.1690
  293MPD2    C2 4415   2.909   3.979  12.648 -0.1455  0.1716  0.1225
  293MPD2    C3 4416   2.971   4.067  12.733  0.0060 -0.5486  0.1949
  293MPD2    C4 4417   3.056   4.162  12.673  0.3705  0.5485 -0.2168
  293MPD2    C5 4418   3.071   4.181  12.537  0.1128 -0.7083  0.7144
  293MPD2     H 4419   2.847   3.905  12.696  0.6418 -0.0169  0.8492
  293MPD2    H1 4420   3.120   4.227  12.732 -1.6796  1.7505  0.6668
  293MPD2    H2 4421   3.010   4.115  12.352 -0.4701 -0.4112  0.1709
  293MPD2    H3 4422   3.140   4.252  12.493 -0.9743  0.2781  0.6203
  293MPD2     N 4423   2.949   4.057  12.873  0.4706  0.6592 -0.0823
  293MPD2    H5 4424   2.884   3.988  12.909  1.7384 -0.7269 -0.4577
  293MPD2    N1 4425   2.834   3.925  12.411 -0.3321  0.2482 -0.5942
  293MPD2    H7 4426   2.827   3.967  12.319 -2.3789  0.4826 -0.3345
  294TMC3    C1 4427   2.679   3.766  12.335 -0.2343  0.3571 -0.2341
  294TMC3    C2 4428   2.561   3.701  12.354 -0.3353  0.5066 -0.2248
  294TMC3    C3 4429   2.484   3.664  12.252  0.6056 -0.4604  0.0627
  294TMC3    C4 4430   2.707   3.802  12.202 -0.2002  0.0327 -0.1121
  294TMC3    C5 4431   2.621   3.772  12.100 -0.2304 -0.5165  0.1329
  294TMC3    C6 4432   2.503   3.710  12.121 -0.3641  0.2196 -0.2123
  294TMC3     C 4433   2.760   3.818  12.441 -0.3603  0.4496  0.0274
  294TMC3     O 4434   2.744   3.770  12.552 -0.4338  0.1407  0.0045
  294TMC3     H 4435   2.538   3.677  12.457  2.1323  0.2966  0.2913
  294TMC3    H1 4436   2.804   3.846  12.178 -0.3119  0.1700 -0.3094
  294TMC3    H2 4437   2.424   3.697  12.049 -0.2029 -0.2654 -0.3048
  294TMC3    C7 4438   2.635   3.832  11.971 -0.9962  0.4493 -0.4230
  294TMC3    C8 4439   2.362   3.593  12.286  0.2799  0.7788 -0.4489
  294TMC3    O1 4440   2.684   3.946  11.970  0.3398 -0.5552 -0.2005
  294TMC3    O2 4441   2.318   3.617  12.396  0.0707  0.3645  0.1992
  295MPD2     C 4442   3.818   2.767   0.254  0.2666  0.3258  0.2433
  295MPD2    C1 4443   3.690   2.748   0.288  0.0015 -0.2715 -0.3910
  295MPD2    C2 4444   3.667   2.669   0.394 -0.8328 -0.4890  0.8076
  295MPD2    C3 4445   3.767   2.617   0.474 -0.2731  0.6124 -0.1638
  295MPD2    C4 4446   3.895   2.663   0.451  0.4043 -0.2611  0.0545
  295MPD2    C5 4447   3.923   2.727   0.332  0.2115  0.8293  0.2882
  295MPD2     H 4448   3.561   2.654   0.416 -1.1169  0.0380 -0.2330
  295MPD2    H1 4449   3.981   2.622   0.502 -0.4521 -1.1985  0.7338
  295MPD2    H2 4450   3.838   2.828   0.166  1.2910  1.3943  1.2231
  295MPD2    H3 4451   4.023   2.751   0.299  0.0674 -0.7823 -1.3179
  295MPD2     N 4452   3.734   2.542   0.591 -0.4592 -0.0296 -0.4001
  295MPD2    H5 4453   3.809   2.542   0.659 -0.7319  0.0889 -0.0977
  295MPD2    N1 4454   3.581   2.798   0.210  0.3086 -0.1289 -0.0490
  295MPD2    H7 4455   3.490   2.763   0.238 -0.3743  0.6105 -1.3246
  296TMC3    C1 4456   3.597   2.443   0.761 -0.6019  0.1806 -0.4075
  296TMC3    C2 4457   3.649   2.527   0.855 -0.4906  0.0859 -0.0847
  296TMC3    C3 4458   3.577   2.546   0.967 -0.4685  1.5171 -0.2195
  296TMC3    C4 4459   3.468   2.382   0.773  0.6170 -0.0268 -0.4064
  296TMC3    C5 4460   3.395   2.420   0.882  0.5625  0.7902  0.0669
  296TMC3    C6 4461   3.446   2.498   0.979  0.5733 -0.1626 -0.9969
  296TMC3     C 4462   3.614   2.485   0.624  0.7002 -0.4585 -0.7924
  296TMC3     O 4463   3.523   2.461   0.547  0.5987  0.4712  0.0979
  296TMC3     H 4464   3.745   2.574   0.838 -0.4719 -0.2508 -0.9637
  296TMC3    H1 4465   3.442   2.307   0.700  1.9069 -1.2471  0.3943
  296TMC3    H2 4466   3.383   2.527   1.062  0.6140 -0.4896 -0.8550
  296TMC3    C7 4467   3.281   2.338   0.920 -0.0266  0.4112  0.8682
  296TMC3    C8 4468   3.590   2.676   1.029  0.1362 -0.4544  0.0686
  296TMC3    O1 4469   3.252   2.307   1.038  0.0835 -0.1899  0.3252
  296TMC3    O2 4470   3.663   2.691   1.124  0.6539 -0.0873 -0.0083
  297MPD2     C 4471   0.154   3.952  16.094 -0.1770 -0.3404 -0.7094
  297MPD2    C1 4472   0.124   4.060  16.014  0.4189  0.5324 -0.1710
  297MPD2    C2 4473   0.218   4.155  15.988 -0.4236 -0.0062 -0.6123
  297MPD2    C3 4474   0.344   4.148  16.047  0.6652 -1.0834 -0.0480
  297MPD2    C4 4475   0.383   4.036  16.120  0.9920 -0.1143  0.0391
  297MPD2    C5 4476   0.287   3.937  16.142 -0.1174 -0.2408  0.1955
  297MPD2     H 4477   0.203   4.242  15.925 -1.6357 -0.6508 -1.2168
  297MPD2    H1 4478   0.482   4.018  16.161  0.2668 -1.4105  1.1992
  297MPD2    H2 4479   0.086   3.874  16.125 -2.1847  0.8868 -2.0699
  297MPD2    H3 4480   0.320   3.850  16.198  0.0669 -0.4935 -0.3023
  297MPD2     N 4481   0.435   4.252  16.018 -0.6538 -0.0413  1.0370
  297MPD2    H5 4482   0.394   4.333  15.973 -0.3132  0.2341  1.2194
  297MPD2    N1 4483   4.724   4.067  15.948 -0.0663 -0.5701 -0.0548
  297MPD2    H7 4484   4.717   4.139  15.877  0.6051 -1.2200 -0.7979
  298TMC3    C1 4485   4.519   4.020  15.872 -0.4596 -0.4947  0.7737
  298TMC3    C2 4486   4.567   4.075  15.757 -0.0204  0.7217  0.5542
  298TMC3    C3 4487   4.486   4.157  15.688  0.4377  0.7631 -0.3337
  298TMC3    C4 4488   4.385   4.041  15.913  0.2147 -0.9479  0.0419
  298TMC3    C5 4489   4.315   4.133  15.843 -0.3450  0.1581 -0.1351
  298TMC3    C6 4490   4.364   4.201  15.736  0.3866  0.2637  0.1042
  298TMC3     C 4491   4.617   3.983  15.967  0.4270 -0.3741  0.5534
  298TMC3     O 4492   4.591   3.903  16.057  0.1691 -0.1658 -0.4079
  298TMC3     H 4493   4.652   4.038  15.702 -1.0179 -0.0103 -0.4868
  298TMC3    H1 4494   4.348   3.993  16.003  1.6132  0.5949  1.4483
  298TMC3    H2 4495   4.320   4.295  15.704  0.8202  0.1021 -0.9644
  298TMC3    C7 4496   4.208   4.192  15.928  0.3159  0.0543  0.3217
  298TMC3    C8 4497   4.539   4.234  15.580 -0.3682 -0.1684  0.4741
  298TMC3    O1 4498   4.204   4.162  16.046 -0.4097  0.2268  0.5332
  298TMC3    O2 4499   4.659   4.243  15.568 -0.7333 -0.2709 -0.3505
  299MPD2     C 4500   0.688   4.292  10.701  0.3085 -0.1979  0.5270
  299MPD2    C1 4501   0.773   4.311  10.591 -0.4299 -0.5322  0.0583
  299MPD2    C2 4502   0.723   4.286  10.459  0.2268 -1.0148 -0.5270
  299MPD2    C3 4503   0.593   4.240  10.451  0.7160 -0.1926  0.1893
  299MPD2    C4 4504   0.510   4.210  10.559 -0.0967 -0.9680  1.0959
  299MPD2    C5 4505   0.557   4.244  10.687  0.4453  0.1477 -0.0076
  299MPD2     H 4506   0.787   4.313  10.376  0.8259 -0.2492  0.1832
  299MPD2    H1 4507   0.409   4.175  10.546  0.1967 -1.5367  0.3910
  299MPD2    H2 4508   0.716   4.331  10.798  0.1999 -1.6654  1.1629
  299MPD2    H3 4509   0.496   4.238  10.777 -1.1428  1.9479 -0.9767
  299MPD2     N 4510   0.529   4.218  10.324  0.4614  0.3064 -0.3470
  299MPD2    H5 4511   0.433   4.186  10.323  0.0878  1.4237  0.6662
  299MPD2    N1 4512   0.895   4.370  10.630 -0.6145 -0.0847 -0.1784
  299MPD2    H7 4513   0.916   4.370  10.729 -2.2153  0.2112  0.1711
  300TMC3    C1 4514   0.494   4.249  10.091  0.3041  0.3248  0.5053
  300TMC3    C2 4515   0.489   4.353  10.000 -0.5183  0.2563  0.0146
  300TMC3    C3 4516   0.375   4.369   9.922 -0.1525  0.4024 -0.5382
  300TMC3    C4 4517   0.385   4.163  10.112 -0.6224 -0.2643 -0.2446
  300TMC3    C5 4518   0.279   4.181  10.025 -0.9036 -0.4686 -0.2782
  300TMC3    C6 4519   0.271   4.280   9.929 -0.4570  0.3550  0.2167
  300TMC3     C 4520   0.584   4.268  10.206  0.4057 -0.1803 -0.7317
  300TMC3     O 4521   0.669   4.355  10.191  0.3176  0.2498 -0.6378
  300TMC3     H 4522   0.570   4.426   9.993 -0.7829  0.5634  0.1305
  300TMC3    H1 4523   0.394   4.076  10.175 -3.2743 -0.1437  0.3152
  300TMC3    H2 4524   0.180   4.289   9.871 -1.1891  1.7017  1.5747
  300TMC3    C7 4525   0.154   4.119  10.063 -0.2830  0.5798  0.6008
  300TMC3    C8 4526   0.336   4.509   9.908  0.0905 -0.3234 -0.5191
  300TMC3    O1 4527   0.071   4.087   9.981  0.5832 -0.4027 -0.1964
  300TMC3    O2 4528   0.261   4.527   9.816  0.0235  0.1025  0.6120
  301MPD2     C 4529   2.940   1.174   1.929 -0.2593 -0.0025  0.1214
  301MPD2    C1 4530   2.826   1.149   1.857 -0.4237  0.4774 -0.0598
  301MPD2    C2 4531   2.795   1.018   1.813 -0.4753  0.3009  0.3200
  301MPD2    C3 4532   2.888   0.918   1.846  0.2398 -0.5126  0.4356
  301MPD2    C4 4533   3.003   0.947   1.910 -0.2422  0.3862 -0.6201
  301MPD2    C5 4534   3.029   1.072   1.945 -0.4668  0.2588  0.0413
  301MPD2     H 4535   2.722   1.006   1.734 -0.5875 -0.1321  0.4875
  301MPD2    H1 4536   3.073   0.873   1.946  0.7067  0.9011 -1.3856
  301MPD2    H2 4537   2.964   1.271   1.970 -2.0403  0.7165 -0.5496
  301MPD2    H3 4538   3.113   1.094   2.010 -0.7431  0.8577  0.1983
  301MPD2     N 4539   2.845   0.788   1.798 -0.3281  0.2492 -0.4286
  301MPD2    H5 4540   2.755   0.787   1.752  0.3594  1.5000 -1.7903
  301MPD2    N1 4541   2.723   1.245   1.832 -0.4117 -0.0207 -0.3489
  301MPD2    H7 4542   2.639   1.211   1.786 -1.4376  1.6502  0.2833
  302TMC3    C1 4543   2.860   0.574   1.709  0.0703 -0.7795 -0.5214
  302TMC3    C2 4544   2.941   0.488   1.642  0.0909 -0.4692  0.0402
  302TMC3    C3 4545   2.887   0.370   1.608 -0.3854  0.4820 -0.1408
  302TMC3    C4 4546   2.729   0.548   1.740  1.0840 -0.1851  0.4251
  302TMC3    C5 4547   2.675   0.435   1.682 -0.1494 -0.0202  0.4996
  302TMC3    C6 4548   2.754   0.334   1.633 -0.5086 -0.2894  0.4906
  302TMC3     C 4549   2.931   0.688   1.771 -0.1328 -0.1159  0.8416
  302TMC3     O 4550   3.055   0.678   1.780  0.4460  0.7082 -0.5565
  302TMC3     H 4551   3.044   0.512   1.621  0.2587 -0.7496  0.5523
  302TMC3    H1 4552   2.673   0.607   1.811 -0.3880 -0.6697 -0.3499
  302TMC3    H2 4553   2.704   0.261   1.570  0.8723 -2.0834  1.4643
  302TMC3    C7 4554   2.536   0.413   1.689 -0.5566 -0.0903  0.7630
  302TMC3    C8 4555   2.971   0.268   1.564  0.9263 -0.0192 -0.0455
  302TMC3    O1 4556   2.502   0.297   1.711 -0.1382  0.0027 -0.6467
  302TMC3    O2 4557   3.091   0.292   1.576  0.2427 -0.0397  0.0867
  303MPD2     C 4558   2.086   3.462  11.229  0.6610 -0.1876 -0.8075
  303MPD2    C1 4559   2.075   3.387  11.110 -0.1613  0.0116  0.1983
  303MPD2    C2 4560   2.152   3.432  10.996 -0.1448  0.2416  0.3874
  303MPD2    C3 4561   2.217   3.552  11.007  0.0936 -0.2302  0.3586
  303MPD2    C4 4562   2.217   3.622  11.124  0.1429  0.5035  0.1336
  303MPD2    C5 4563   2.156   3.578  11.241 -0.6059 -0.2420 -0.6138
  303MPD2     H 4564   2.144   3.383  10.899 -1.7272 -0.8736  1.0909
  303MPD2    H1 4565   2.262   3.719  11.142 -0.3942  0.4457  1.7689
  303MPD2    H2 4566   2.034   3.424  11.316 -1.6254  0.9032 -1.6906
  303MPD2    H3 4567   2.156   3.643  11.328  0.4419  0.0749 -0.8444
  303MPD2     N 4568   2.294   3.610  10.901 -0.6374  0.1565  0.8212
  303MPD2    H5 4569   2.332   3.704  10.916  1.1735 -0.7164  1.6884
  303MPD2    N1 4570   1.983   3.276  11.104  0.4370 -0.0358 -0.2794
  303MPD2    H7 4571   1.924   3.255  11.183  0.1414  1.7108 -0.0533
  304TMC3    C1 4572   1.886   3.079  11.027  0.0604 -0.9115  0.1709
  304TMC3    C2 4573   1.764   3.131  11.030 -0.7195  0.3823 -0.3912
  304TMC3    C3 4574   1.667   3.083  10.948 -0.3994 -0.2626  0.2039
  304TMC3    C4 4575   1.914   2.964  10.954 -0.0133  0.2924 -0.4309
  304TMC3    C5 4576   1.809   2.905  10.890 -0.3760 -0.3076  0.5097
  304TMC3    C6 4577   1.685   2.960  10.887 -0.7775 -0.1122 -0.0718
  304TMC3     C 4578   1.993   3.180  11.008  0.2111  0.0166  0.7460
  304TMC3     O 4579   2.053   3.168  10.902  0.4744  0.4674  0.7301
  304TMC3     H 4580   1.739   3.217  11.092  2.7580  2.2562 -1.6016
  304TMC3    H1 4581   2.014   2.928  10.934  0.4992  0.8204  1.1621
  304TMC3    H2 4582   1.596   2.909  10.854 -1.3864  1.4146 -0.7863
  304TMC3    C7 4583   1.846   2.844  10.761  0.2504 -0.3248  0.9705
  304TMC3    C8 4584   1.610   3.176  10.855 -0.7687 -0.7017  0.4777
  304TMC3    O1 4585   1.954   2.785  10.757 -0.1101  0.3091  0.0295
  304TMC3    O2 4586   1.564   3.125  10.752 -0.3966  0.3605 -0.4994
  305MPD2     C 4587   0.899   1.285  13.880  0.3792 -0.9250 -0.0572
  305MPD2    C1 4588   0.895   1.143  13.892 -0.4573 -0.2973  0.1515
  305MPD2    C2 4589   0.880   1.067  13.774 -0.3168 -0.2989  0.0882
  305MPD2    C3 4590   0.868   1.133  13.651  0.2701  0.0836  0.1999
  305MPD2    C4 4591   0.886   1.269  13.647  0.0055 -0.1942 -0.2454
  305MPD2    C5 4592   0.887   1.350  13.756 -0.1438 -0.0959  0.2496
  305MPD2     H 4593   0.875   0.959  13.780  0.2725 -0.4035 -1.3140
  305MPD2    H1 4594   0.902   1.320  13.552  1.4207  2.5560  1.4559
  305MPD2    H2 4595   0.907   1.336  13.975  1.6969 -0.0926 -0.6198
  305MPD2    H3 4596   0.905   1.457  13.760 -1.3651  0.1041  0.5592
  305MPD2     N 4597   0.877   1.067  13.528  0.0829 -0.0323 -0.0360
  305MPD2    H5 4598   0.902   1.126  13.449  2.9827 -0.8275  0.2878
  305MPD2    N1 4599   0.918   1.087  14.014  0.9882  0.3305  0.2629
  305MPD2    H7 4600   0.955   1.149  14.085 -2.8063  0.5328  2.0434
  306TMC3    C1 4601   0.937   0.930  14.182  0.5520 -0.0967  0.2637
  306TMC3    C2 4602   0.981   0.798  14.199 -0.7488  0.3512  0.0858
  306TMC3    C3 4603   1.023   0.763  14.328 -0.2827  0.0084  0.2031
  306TMC3    C4 4604   0.946   1.025  14.277 -0.5419  0.0150  0.2285
  306TMC3    C5 4605   0.986   0.980  14.399  0.4364  0.0689 -0.4081
  306TMC3    C6 4606   1.030   0.851  14.427 -0.4119  0.4365 -0.4998
  306TMC3     C 4607   0.902   0.957  14.044  1.0713 -0.2527 -0.1569
  306TMC3     O 4608   0.867   0.860  13.974  0.6214  0.5648  0.1231
  306TMC3     H 4609   0.978   0.719  14.125  1.2294 -2.2059  2.7526
  306TMC3    H1 4610   0.916   1.127  14.253  0.1532  0.0222 -0.6256
  306TMC3    H2 4611   1.070   0.826  14.525  0.1805 -1.2240 -1.1487
  306TMC3    C7 4612   0.970   1.080  14.507 -0.0117 -0.7003  0.3229
  306TMC3    C8 4613   1.050   0.627  14.356 -0.3287  0.2173 -0.2353
  306TMC3    O1 4614   0.893   1.173  14.495 -0.3239 -0.4414 -0.7089
  306TMC3    O2 4615   1.080   0.556  14.262  0.2638  0.3508  0.5165
  307MPD2     C 4616   3.812   3.806   0.653  0.2315 -0.1722 -0.5709
  307MPD2    C1 4617   3.700   3.886   0.691 -0.0725  0.3602  0.2437
  307MPD2    C2 4618   3.587   3.838   0.751 -0.0794  0.7129 -0.6380
  307MPD2    C3 4619   3.581   3.704   0.781 -0.2824 -0.2195  0.2538
  307MPD2    C4 4620   3.693   3.623   0.757  0.0850 -0.3762  0.0468
  307MPD2    C5 4621   3.803   3.672   0.692 -0.1219  0.7868 -0.2514
  307MPD2     H 4622   3.509   3.897   0.797 -0.4187 -0.7243  0.6620
  307MPD2    H1 4623   3.690   3.518   0.781 -0.2812 -0.0878  1.2655
  307MPD2    H2 4624   3.903   3.840   0.604  0.7290  1.1088  1.2317
  307MPD2    H3 4625   3.890   3.610   0.671 -0.7680 -0.3521  0.4528
  307MPD2     N 4626   3.461   3.657   0.846  0.1895  0.0487 -0.0222
  307MPD2    H5 4627   3.393   3.730   0.863 -0.3606 -0.7298  1.1766
  307MPD2    N1 4628   3.695   4.025   0.659  0.0332 -0.0118  0.2883
  307MPD2    H7 4629   3.603   4.065   0.675 -0.8837 -2.0612  0.2680
  308TMC3    C1 4630   3.099   3.508   0.850 -0.5091  0.5990 -0.0667
  308TMC3    C2 4631   3.059   3.624   0.912  0.0967 -0.5255  0.3351
  308TMC3    C3 4632   3.151   3.689   0.994  1.2246  0.2759  0.2666
  308TMC3    C4 4633   3.219   3.447   0.870  0.1636  0.0681 -0.3023
  308TMC3    C5 4634   3.307   3.523   0.947  0.9032  0.3370  0.0687
  308TMC3    C6 4635   3.275   3.646   0.996  0.3889  0.5971 -0.0785
  308TMC3     C 4636   3.030   3.471   0.723  0.2687 -0.2301  0.2495
  308TMC3     O 4637   3.086   3.385   0.657 -0.6622  0.2653 -0.4889
  308TMC3     H 4638   2.955   3.656   0.910  0.5992  1.1483  1.2345
  308TMC3    H1 4639   3.257   3.366   0.808 -0.8951 -0.0994 -0.7352
  308TMC3    H2 4640   3.349   3.699   1.055 -0.7136  0.7328  1.2128
  308TMC3    C7 4641   3.434   3.526   0.877  0.3200  0.8130  0.2105
  308TMC3    C8 4642   3.125   3.787   1.093 -0.4302  0.2409 -0.0870
  308TMC3    O1 4643   3.484   3.419   0.844 -0.0685 -0.2408  0.4200
  308TMC3    O2 4644   3.201   3.803   1.189  0.5251  0.1390 -0.1937
  309MPD2     C 4645   2.967   4.283  17.096 -0.3409  0.0871  0.5804
  309MPD2    C1 4646   2.895   4.313  16.986 -0.4996 -0.6574  0.4118
  309MPD2    C2 4647   2.777   4.376  17.002  0.3813 -0.4451 -0.3693
  309MPD2    C3 4648   2.713   4.385  17.131  0.3166 -0.3406 -0.9322
  309MPD2    C4 4649   2.789   4.342  17.239 -0.3853  0.0186 -0.8755
  309MPD2    C5 4650   2.909   4.282  17.219  0.1604  0.6339  0.5667
  309MPD2     H 4651   2.721   4.393  16.911 -2.9076 -0.3381  1.6450
  309MPD2    H1 4652   2.748   4.324  17.338  1.6946  0.2799  0.0503
  309MPD2    H2 4653   3.066   4.237  17.096  0.4254  1.7179  0.0844
  309MPD2    H3 4654   2.964   4.234  17.298  1.3111  0.5748 -0.2758
  309MPD2     N 4655   2.586   4.435  17.156  0.6721  0.1920 -0.2490
  309MPD2    H5 4656   2.551   4.438  17.251  0.5103 -2.4547 -0.2111
  309MPD2    N1 4657   2.948   4.285  16.859  0.2844 -0.5227 -0.3310
  309MPD2    H7 4658   2.890   4.320  16.784 -0.7491 -1.4617  0.0211
  310TMC3    C1 4659   3.106   4.250  16.685  0.2798  0.1494 -0.6373
  310TMC3    C2 4660   3.033   4.325  16.595 -0.2696  0.5719  0.1641
  310TMC3    C3 4661   3.081   4.344  16.469  0.1443 -0.3888  0.2816
  310TMC3    C4 4662   3.221   4.188  16.643  0.5096  0.6579 -0.0069
  310TMC3    C5 4663   3.262   4.212  16.515 -0.3186  0.2379  0.4659
  310TMC3    C6 4664   3.194   4.288  16.425 -1.0430 -0.0164  0.7283
  310TMC3     C 4665   3.068   4.229  16.825  0.4074  0.5963 -0.1548
  310TMC3     O 4666   3.146   4.167  16.899 -0.6878  0.0787  0.0185
  310TMC3     H 4667   2.947   4.383  16.628 -0.3637  0.9524 -0.7429
  310TMC3    H1 4668   3.270   4.117  16.707  0.0127 -0.1092 -0.4655
  310TMC3    H2 4669   3.240   4.312  16.329  0.5185  1.1764  1.7761
  310TMC3    C7 4670   3.376   4.143  16.469  0.4357  0.1515  0.2485
  310TMC3    C8 4671   3.007   4.408  16.363 -0.7230 -0.7356  0.9062
  310TMC3    O1 4672   3.401   4.144  16.352  0.5620  0.8873  0.1442
  310TMC3    O2 4673   3.058   4.425  16.257  0.4879 -0.0774  0.3337
  311MPD2     C 4674   0.417   0.473  12.685  0.0606 -0.1378 -0.2362
  311MPD2    C1 4675   0.426   0.608  12.715 -0.4204 -0.3513  0.7211
  311MPD2    C2 4676   0.314   0.682  12.742 -0.7288 -0.3875 -0.6574
  311MPD2    C3 4677   0.197   0.613  12.750  0.2174  0.0145 -0.5531
  311MPD2    C4 4678   0.181   0.479  12.721  0.1179  0.7230  0.1422
  311MPD2    C5 4679   0.297   0.408  12.689  0.0488  0.8780  0.0601
  311MPD2     H 4680   0.319   0.789  12.756 -2.2902 -0.3832 -0.1459
  311MPD2    H1 4681   0.087   0.425  12.733  1.0784 -0.2526  3.1221
  311MPD2    H2 4682   0.498   0.411  12.650  1.1438  1.3042 -0.2724
  311MPD2    H3 4683   0.288   0.303  12.664 -0.3461  1.0371 -0.4695
  311MPD2     N 4684   0.076   0.696  12.774 -0.9710 -0.4048 -0.3920
  311MPD2    H5 4685   0.099   0.795  12.778  1.1700 -0.9648  0.9963
  311MPD2    N1 4686   0.546   0.675  12.717 -0.1689  0.0580  0.1402
  311MPD2    H7 4687   0.539   0.776  12.730 -0.1744  0.2212 -1.1710
  312TMC3    C1 4688   4.581   0.765  12.823  0.9498 -0.7558 -0.3146
  312TMC3    C2 4689   4.447   0.738  12.801 -0.0627  0.3754 -0.7433
  312TMC3    C3 4690   4.359   0.838  12.847  0.8449  0.0459 -0.1482
  312TMC3    C4 4691   4.629   0.875  12.890  0.1667  0.0859  0.2296
  312TMC3    C5 4692   4.543   0.968  12.922  0.1981  0.1328  0.0713
  312TMC3    C6 4693   4.413   0.953  12.905  0.2298 -0.2847  0.5123
  312TMC3     C 4694   4.667   0.658  12.778  0.4823 -0.4677  0.2652
  312TMC3     O 4695   4.609   0.552  12.767  0.0438  0.6471  0.0306
  312TMC3     H 4696   4.411   0.654  12.744 -2.7953  0.3373  1.0477
  312TMC3    H1 4697   4.719   0.870  12.951  0.0917 -2.0144  0.1876
  312TMC3    H2 4698   4.346   1.028  12.945  1.4305  0.6748  0.7420
  312TMC3    C7 4699   4.593   1.064  13.016 -0.2224 -0.1604  0.0800
  312TMC3    C8 4700   4.223   0.842  12.802 -0.0453 -0.3001 -0.4399
  312TMC3    O1 4701   4.701   1.119  12.998  0.3353 -0.1919 -0.3417
  312TMC3    O2 4702   4.178   0.727  12.782 -0.7754  0.1185 -0.3357
  313MPD2     C 4703   0.106   4.626  10.373 -0.0855 -0.0092  0.1985
  313MPD2    C1 4704   0.013   4.570  10.459 -1.0083 -0.1253 -0.6435
  313MPD2    C2 4705   4.652   4.478  10.401  0.0035 -0.4896  0.2535
  313MPD2    C3 4706   4.645   4.461  10.263  0.4771  0.2602 -0.5845
  313MPD2    C4 4707   0.018   4.511  10.178 -0.2109  0.2817 -0.2655
  313MPD2    C5 4708   0.109   4.597  10.239 -0.0267 -0.2606 -0.6752
  313MPD2     H 4709   4.572   4.430  10.456 -0.4622 -0.9557 -0.8444
  313MPD2    H1 4710   0.014   4.490  10.072 -1.0494  0.9182 -0.3673
  313MPD2    H2 4711   0.182   4.698  10.403 -0.9906  1.5151 -1.2162
  313MPD2    H3 4712   0.189   4.643  10.182 -0.8841  2.2453  0.1125
  313MPD2     N 4713   4.544   4.373  10.215 -0.8691  0.4715  0.1126
  313MPD2    H5 4714   4.494   4.311  10.278 -0.0954 -2.5594 -2.2789
  313MPD2    N1 4715   4.715   4.603  10.592  0.0011  0.0522 -0.6326
  313MPD2    H7 4716   4.626   4.573  10.630  0.4442 -1.0863 -0.4787
  314TMC3    C1 4717   0.025   4.726  10.799 -0.5183  0.2333  0.0912
  314TMC3    C2 4718   0.081   0.118  10.842  0.4771  0.2462  0.1943
  314TMC3    C3 4719   4.719   0.197  10.921 -0.3341 -0.6736  0.0091
  314TMC3    C4 4720   4.639   4.673  10.851  0.1840  1.0487 -0.1198
  314TMC3    C5 4721   4.561   0.026  10.936  0.5732  0.3573 -0.0694
  314TMC3    C6 4722   4.593   0.155  10.959  0.1437  0.6965 -0.2388
  314TMC3     C 4723   0.071   4.684  10.663 -0.3187 -0.4328  0.2300
  314TMC3     O 4724   0.182   4.722  10.634 -0.3013  0.6529 -0.1853
  314TMC3     H 4725   0.172   0.154  10.796  0.7535  2.0736  2.1396
  314TMC3    H1 4726   4.603   4.574  10.825 -1.2515  0.6983  3.2093
  314TMC3    H2 4727   4.519   0.218  11.007  1.2472  1.5438  0.3629
  314TMC3    C7 4728   4.423   4.726  10.909  0.1289 -0.3889  0.8329
  314TMC3    C8 4729   0.035   0.325  10.981  0.5754  0.4271  0.0867
  314TMC3    O1 4730   4.388   4.609  10.900 -0.0611  0.0192  0.5905
  314TMC3    O2 4731   4.676   0.392  11.030  0.3862  0.7123  0.3427
  315MPD2     C 4732   4.466   3.516   0.089 -0.5749  0.0818 -0.3277
  315MPD2    C1 4733   4.584   3.587   0.082 -0.8902  0.0463  0.0458
  315MPD2    C2 4734   4.598   3.688  17.697  0.1654 -0.1819 -0.7900
  315MPD2    C3 4735   4.494   3.723  17.610  0.0690 -0.1846 -0.1450
  315MPD2    C4 4736   4.381   3.644  17.615  0.6319  0.2777 -0.5668
  315MPD2    C5 4737   4.363   3.542   0.000  0.1032 -0.7170  0.4329
  315MPD2     H 4738   4.695   3.736  17.693 -1.1382  2.5451  0.1590
  315MPD2    H1 4739   4.309   3.643  17.534  0.3933 -1.2044 -0.3379
  315MPD2    H2 4740   4.456   3.437   0.162 -0.5178  0.2904 -0.0953
  315MPD2    H3 4741   4.281   3.471  17.703  2.1421 -2.7143 -3.1511
  315MPD2     N 4742   4.519   3.828  17.525  0.4334  0.6553  0.2665
  315MPD2    H5 4743   4.600   3.886  17.543  0.7886  0.3910 -0.4917
  315MPD2    N1 4744   4.697   3.568   0.169  0.4237  0.0277 -0.1668
  315MPD2    H7 4745   0.050   3.622   0.138  2.1891 -1.7593  1.2538
  316TMC3    C1 4746   4.514   3.962  17.334 -0.1426  0.3849  1.1851
  316TMC3    C2 4747   4.641   3.979  17.372 -0.0313  0.3467  0.1322
  316TMC3    C3 4748   0.016   3.979  17.274 -0.3003  0.2039  0.5451
  316TMC3    C4 4749   4.484   3.958  17.194  0.3942  0.5198 -0.5414
  316TMC3    C5 4750   4.584   3.979  17.106  0.4058 -0.2273 -0.2903
  316TMC3    C6 4751   4.718   3.979  17.139  0.1345 -0.7003 -0.1111
  316TMC3     C 4752   4.440   3.864  17.418 -0.3316  0.6691 -0.1923
  316TMC3     O 4753   4.335   3.814  17.373  0.0735  0.0649  0.3304
  316TMC3     H 4754   4.663   4.005  17.475  0.0840  1.1769 -0.0997
  316TMC3    H1 4755   4.386   3.933  17.157  0.7364 -2.1297  0.3857
  316TMC3    H2 4756   0.060   3.975  17.055 -0.0896 -0.1283 -0.3179
  316TMC3    C7 4757   4.546   3.973  16.968  0.0538 -0.5771  0.7161
  316TMC3    C8 4758   0.158   3.964  17.311 -0.0056 -0.5254  0.4508
  316TMC3    O1 4759   4.595   3.889  16.893  0.4450  0.1281  0.0146
  316TMC3    O2 4760   0.239   3.974  17.220  0.4879  0.0529 -0.5254
  317MPD2     C 4761   0.853   2.297  12.998  0.6959  0.0691  0.0119
  317MPD2    C1 4762   0.929   2.187  12.951 -0.0304  0.2057  0.0585
  317MPD2    C2 4763   1.052   2.161  13.016 -0.1737  0.5139 -0.7574
  317MPD2    C3 4764   1.097   2.249  13.110 -0.0067  0.3347  0.6189
  317MPD2    C4 4765   1.032   2.359  13.145  0.1801  0.1183 -0.1327
  317MPD2    C5 4766   0.908   2.383  13.089  0.4107 -0.4009  1.0164
  317MPD2     H 4767   1.109   2.072  12.992  0.4983  0.0408  2.5584
  317MPD2    H1 4768   1.068   2.448  13.196 -3.3984  0.6128  1.5099
  317MPD2    H2 4769   0.764   2.335  12.947  0.1191 -2.2888 -0.7145
  317MPD2    H3 4770   0.860   2.476  13.117 -1.1536 -0.6070 -0.9545
  317MPD2     N 4771   1.219   2.213  13.174  0.0123 -0.4246  0.2805
  317MPD2    H5 4772   1.253   2.120  13.151 -0.8569 -0.9749  1.2393
  317MPD2    N1 4773   0.901   2.109  12.840  0.2155 -1.2246 -0.2151
  317MPD2    H7 4774   0.972   2.038  12.825  1.2641 -0.5051  1.2774
  318TMC3    C1 4775   1.378   2.223  13.344  1.2031 -0.5885  0.4718
  318TMC3    C2 4776   1.323   2.117  13.399  0.0606 -0.2204  0.6269
  318TMC3    C3 4777   1.401   2.004  13.406  0.4311  0.7380  0.9678
  318TMC3    C4 4778   1.501   2.237  13.294  0.2801  0.3063 -0.0273
  318TMC3    C5 4779   1.580   2.130  13.322 -0.0131 -0.2327  0.4051
  318TMC3    C6 4780   1.536   2.013  13.375  0.5500 -0.2744 -0.3257
  318TMC3     C 4781   1.284   2.294  13.264  0.0200  0.3503  0.3793
  318TMC3     O 4782   1.287   2.414  13.278  0.7977  0.3452 -0.2124
  318TMC3     H 4783   1.217   2.115  13.421 -0.3398  2.5717 -1.0237
  318TMC3    H1 4784   1.544   2.328  13.255  1.3798 -0.0011  0.4817
  318TMC3    H2 4785   1.592   1.921  13.387  0.3235 -0.4407 -0.5274
  318TMC3    C7 4786   1.714   2.138  13.272  0.1847  0.0901 -0.6551
  318TMC3    C8 4787   1.344   1.868  13.381  0.3440 -0.5466 -0.4161
  318TMC3    O1 4788   1.747   2.235  13.209 -0.1591  0.2032  0.1693
  318TMC3    O2 4789   1.417   1.777  13.343  0.0651 -0.1554  0.0375
  319MPD2     C 4790   2.546   4.162  15.963 -0.3786 -0.1003 -0.3861
  319MPD2    C1 4791   2.438   4.095  16.013  0.4261  0.1977 -0.4555
  319MPD2    C2 4792   2.370   4.015  15.924  0.4944  0.3098  0.4118
  319MPD2    C3 4793   2.430   3.980  15.805 -0.2405  0.0046  0.6901
  319MPD2    C4 4794   2.542   4.041  15.758  0.3090  0.1185  0.5572
  319MPD2    C5 4795   2.602   4.134  15.847 -0.0680 -0.1653  0.5746
  319MPD2     H 4796   2.275   3.976  15.959  0.0898  1.5970  0.7738
  319MPD2    H1 4797   2.592   4.013  15.666 -2.2163 -1.3537 -0.3676
  319MPD2    H2 4798   2.595   4.240  16.019 -1.9783  1.1624 -0.7608
  319MPD2    H3 4799   2.696   4.178  15.815  0.2612  0.1411  1.9628
  319MPD2     N 4800   2.377   3.881  15.717  0.0736 -0.1620 -0.0103
  319MPD2    H5 4801   2.415   3.867  15.623  1.0238  0.4881  0.2706
  319MPD2    N1 4802   2.383   4.110  16.147 -0.7675  0.4919 -0.0241
  319MPD2    H7 4803   2.287   4.081  16.163 -0.7500 -1.7583 -4.0429
  320TMC3    C1 4804   2.251   3.697  15.658 -0.5952  0.0586  0.0235
  320TMC3    C2 4805   2.216   3.737  15.531  0.3232  0.8287 -0.1559
  320TMC3    C3 4806   2.129   3.653  15.461  0.1008  0.2387 -0.6137
  320TMC3    C4 4807   2.200   3.591  15.714 -0.6038 -0.2362  0.3173
  320TMC3    C5 4808   2.142   3.496  15.642  0.6417  0.4873  0.3065
  320TMC3    C6 4809   2.105   3.525  15.513  0.0519 -0.5058 -0.2856
  320TMC3     C 4810   2.277   3.794  15.758 -0.2064  0.6336  0.1329
  320TMC3     O 4811   2.227   3.774  15.866 -0.6776  0.2066 -0.3558
  320TMC3     H 4812   2.239   3.838  15.500  1.6806  0.5251 -0.1458
  320TMC3    H1 4813   2.234   3.555  15.810  1.6873 -2.2735 -1.2520
  320TMC3    H2 4814   2.039   3.457  15.460  0.6333 -1.9441  0.8487
  320TMC3    C7 4815   2.082   3.381  15.708  0.1832 -0.3790 -0.1423
  320TMC3    C8 4816   2.024   3.725  15.392  0.1268  0.3314  0.3056
  320TMC3    O1 4817   2.046   3.292  15.632 -0.1392 -0.7552 -0.3774
  320TMC3    O2 4818   2.037   3.845  15.397 -0.3365 -0.0895  0.5542
  321TMC3    C1 4819   2.365   4.125  16.378  0.6763  0.2586 -0.1377
  321TMC3    C2 4820   2.303   4.004  16.379 -0.7179  0.5713 -0.4065
  321TMC3    C3 4821   2.244   3.959  16.496  0.2062  0.3841 -0.3897
  321TMC3    C4 4822   2.375   4.207  16.490  0.1086  0.0805  0.3110
  321TMC3    C5 4823   2.314   4.156  16.601  0.3665 -0.4633  0.2130
  321TMC3    C6 4824   2.250   4.036  16.602 -0.0765 -0.2031 -0.5150
  321TMC3     C 4825   2.452   4.158  16.259  1.0761  0.3353  0.3133
  321TMC3     O 4826   2.568   4.194  16.264  0.6839 -0.4728  0.2021
  321TMC3     H 4827   2.317   3.942  16.290 -0.3215 -0.5948  0.4694
  321TMC3    H1 4828   2.428   4.300  16.479  0.6941 -0.2284  0.5252
  321TMC3    H2 4829   2.222   3.989  16.696  1.4547 -0.4056 -0.1628
  321TMC3    C7 4830   2.399   4.181  16.715 -0.2077  0.4814 -0.1909
  321TMC3    C8 4831   2.261   3.820  16.523  1.0524  0.7795  0.9447
  321TMC3    O1 4832   2.517   4.148  16.705  0.1309  0.4712  0.6080
  321TMC3    O2 4833   2.160   3.749  16.528  0.4760 -0.4102 -0.5821
  322MPD2     C 4834   1.271   0.135  13.132  0.1668 -0.1219  0.3505
  322MPD2    C1 4835   1.251   0.043  13.232  0.7509  0.4761 -0.3032
  322MPD2    C2 4836   1.262   4.633  13.214  0.4885 -0.3385 -0.1467
  322MPD2    C3 4837   1.303   4.576  13.091 -0.6668  0.4807 -0.4070
  322MPD2    C4 4838   1.327   4.667  12.991 -0.4584 -0.0824 -0.3578
  322MPD2    C5 4839   1.305   0.078  13.011  0.0944  0.7608 -0.6377
  322MPD2     H 4840   1.243   4.565  13.296  2.6521 -1.1063 -0.2850
  322MPD2    H1 4841   1.348   4.636  12.889 -0.2524  0.6895 -0.5444
  322MPD2    H2 4842   1.262   0.241  13.153 -1.0243 -0.1244 -0.1838
  322MPD2    H3 4843   1.335   0.143  12.929  2.5365 -1.3883 -1.4511
  322MPD2     N 4844   1.333   4.438  13.088 -0.5110  0.5381  0.0935
  322MPD2    H5 4845   1.299   4.378  13.163  0.9219 -0.5978 -0.1851
  322MPD2    N1 4846   1.213   0.105  13.355 -0.3131  0.4244  0.0889
  322MPD2    H7 4847   1.211   0.206  13.357  0.6507  0.4521  0.0244
  323TMC3    C1 4848   1.257   0.135  13.594 -0.6782  0.1055 -0.6652
  323TMC3    C2 4849   1.302   0.263  13.579  0.0316  0.5578  0.1873
  323TMC3    C3 4850   1.324   0.336  13.691  0.1246 -0.5849 -1.1541
  323TMC3    C4 4851   1.260   0.074  13.719  0.4002  0.0586 -0.3833
  323TMC3    C5 4852   1.302   0.136  13.828 -0.3103  0.6221 -0.3925
  323TMC3    C6 4853   1.322   0.273  13.817 -0.1400 -0.3447  0.1989
  323TMC3     C 4854   1.226   0.046  13.480  0.0745 -0.3801 -0.2663
  323TMC3     O 4855   1.212   4.652  13.508  0.6521  0.0564  0.3017
  323TMC3     H 4856   1.293   0.317  13.486 -1.2600 -1.6188 -0.9486
  323TMC3    H1 4857   1.227   4.698  13.730 -2.0069  0.5769 -2.7639
  323TMC3    H2 4858   1.313   0.330  13.908 -1.4293  2.1474 -1.5151
  323TMC3    C7 4859   1.408   0.067  13.893  0.1774  0.6279  0.0356
  323TMC3    C8 4860   1.448   0.412  13.686 -0.0113  0.6680 -0.3293
  323TMC3    O1 4861   1.408   4.670  13.886 -0.0110  0.0936 -0.0580
  323TMC3    O2 4862   1.529   0.384  13.596  0.6111 -0.3053  0.2121
  324MPD2     C 4863   2.695   0.897  14.233 -0.3916  0.1459 -0.6569
  324MPD2    C1 4864   2.659   1.018  14.278 -0.1441 -0.1241  0.4351
  324MPD2    C2 4865   2.542   1.071  14.231 -0.1744 -0.6547 -0.0097
  324MPD2    C3 4866   2.458   0.992  14.145 -0.7362  0.0179 -0.2618
  324MPD2    C4 4867   2.499   0.868  14.110 -0.0669 -0.3235  0.6070
  324MPD2    C5 4868   2.618   0.821  14.157  0.0877  0.8544  0.0800
  324MPD2     H 4869   2.505   1.167  14.265 -0.0251 -0.0995 -1.4076
  324MPD2    H1 4870   2.444   0.799  14.047  0.5182 -1.1366  0.9788
  324MPD2    H2 4871   2.786   0.843  14.255  1.1547  3.1452  0.4175
  324MPD2    H3 4872   2.656   0.722  14.137  0.1431  1.0416 -0.7598
  324MPD2     N 4873   2.329   1.030  14.106 -0.2635  0.0223 -0.9796
  324MPD2    H5 4874   2.257   0.964  14.078  0.5364 -0.9729 -0.7159
  324MPD2    N1 4875   2.737   1.103  14.357  0.1750 -0.1635  0.9453
  324MPD2    H7 4876   2.703   1.195  14.383  0.2207  1.3570 -4.3474
  325TMC3    C1 4877   2.160   1.188  14.045  0.9908  0.1350  0.3517
  325TMC3    C2 4878   2.090   1.087  13.981 -0.5699  0.9906 -0.1224
  325TMC3    C3 4879   1.967   1.107  13.925  0.1499 -0.7821  0.0660
  325TMC3    C4 4880   2.108   1.313  14.050 -0.0175 -0.2671 -0.3909
  325TMC3    C5 4881   1.986   1.327  13.992 -0.1482 -0.2573  0.0291
  325TMC3    C6 4882   1.915   1.231  13.926  0.0584 -0.2027 -0.5960
  325TMC3     C 4883   2.293   1.162  14.099 -0.7871 -0.0237  0.0528
  325TMC3     O 4884   2.360   1.261  14.127  0.0720 -0.2147 -0.2313
  325TMC3     H 4885   2.129   0.985  13.980 -2.6499  0.2074 -1.7486
  325TMC3    H1 4886   2.157   1.394  14.104 -1.2620 -0.9638  1.7497
  325TMC3    H2 4887   1.820   1.248  13.877  1.2156  1.9352 -2.0825
  325TMC3    C7 4888   1.901   1.438  14.039  0.6502 -0.0332 -0.1770
  325TMC3    C8 4889   1.932   1.008  13.830 -0.6658  0.0017  0.3404
  325TMC3    O1 4890   1.779   1.424  14.038  0.3446 -0.3199  0.0344
  325TMC3    O2 4891   2.014   0.921  13.798  0.1858 -0.3282  0.4958
  326MPD2     C 4892   3.810   2.675  11.624  0.2170 -0.0918 -0.6295
  326MPD2    C1 4893   3.789   2.657  11.489 -0.4818 -0.0603 -0.2759
  326MPD2    C2 4894   3.884   2.716  11.401 -0.7678  0.4059 -0.8910
  326MPD2    C3 4895   3.993   2.789  11.447 -0.2779  0.3765 -0.0246
  326MPD2    C4 4896   4.006   2.807  11.578 -0.3255 -1.2866 -0.0661
  326MPD2    C5 4897   3.919   2.750  11.669  0.2865  0.0839 -0.8895
  326MPD2     H 4898   3.863   2.702  11.296 -1.5414 -1.1128 -0.5282
  326MPD2    H1 4899   4.084   2.865  11.626 -0.6927 -2.1300  1.5581
  326MPD2    H2 4900   3.743   2.621  11.690 -2.6570  1.5581 -2.1823
  326MPD2    H3 4901   3.926   2.770  11.775 -1.6020  1.0659 -0.9577
  326MPD2     N 4902   4.096   2.849  11.365  0.7597  0.1438  0.0568
  326MPD2    H5 4903   4.164   2.909  11.412  1.4727  0.7917 -1.7923
  326MPD2    N1 4904   3.682   2.575  11.431 -0.7745 -0.0673  0.0698
  326MPD2    H7 4905   3.683   2.575  11.329 -0.2067  0.3855  0.0730
  327TMC3    C1 4906   3.526   2.417  11.410  0.8962 -0.1270  1.0835
  327TMC3    C2 4907   3.420   2.462  11.332 -0.4121  0.2498  0.4228
  327TMC3    C3 4908   3.400   2.418  11.204  0.5744  0.2015  0.6932
  327TMC3    C4 4909   3.623   2.351  11.337  0.2700  0.0183  0.7536
  327TMC3    C5 4910   3.602   2.308  11.209 -0.3143  0.3001 -0.3263
  327TMC3    C6 4911   3.492   2.333  11.147 -0.4558  0.2652 -0.5099
  327TMC3     C 4912   3.595   2.506  11.495 -0.4812  0.0587  0.1037
  327TMC3     O 4913   3.592   2.486  11.614 -0.0394 -0.5109  1.0094
  327TMC3     H 4914   3.362   2.544  11.372 -1.7446 -0.3765 -0.2290
  327TMC3    H1 4915   3.716   2.318  11.382 -0.8421 -0.4279  2.7476
  327TMC3    H2 4916   3.466   2.287  11.052 -0.7338 -0.3176 -0.1544
  327TMC3    C7 4917   3.707   2.357  11.119 -0.0633 -0.8397  0.2714
  327TMC3    C8 4918   3.313   2.492  11.115  0.3721  0.2578 -0.0136
  327TMC3    O1 4919   3.670   2.392  11.013 -0.3300  0.4866 -0.3210
  327TMC3    O2 4920   3.351   2.489  11.001 -0.3295 -0.5277  0.6566
  328MPD2     C 4921   1.655   1.875  17.379  0.4466  0.2304  0.1822
  328MPD2    C1 4922   1.661   1.821  17.254 -0.8715  0.0177 -0.8366
  328MPD2    C2 4923   1.691   1.905  17.151  0.3110  0.4549  0.0794
  328MPD2    C3 4924   1.726   2.037  17.174 -0.1477 -0.7758 -0.2676
  328MPD2    C4 4925   1.755   2.075  17.305  0.3777  0.4650 -0.5033
  328MPD2    C5 4926   1.697   2.001  17.409 -0.4444 -0.1641  0.2943
  328MPD2     H 4927   1.698   1.871  17.048  2.8042  2.2655 -0.3608
  328MPD2    H1 4928   1.785   2.178  17.315 -2.6138  1.2227  0.6941
  328MPD2    H2 4929   1.630   1.811  17.463  1.3479  2.3791  2.0615
  328MPD2    H3 4930   1.712   2.024  17.514 -1.6282  2.4125 -0.0939
  328MPD2     N 4931   1.729   2.143  17.080 -0.1197  0.0954 -0.1930
  328MPD2    H5 4932   1.764   2.227  17.125  0.4413 -0.1915 -0.0935
  328MPD2    N1 4933   1.646   1.681  17.241  0.5887 -0.5287  0.3239
  328MPD2    H7 4934   1.604   1.630  17.318  1.1054 -1.6206 -0.1237
  329TMC3    C1 4935   1.636   1.480  17.141 -0.1640  1.0938  0.4520
  329TMC3    C2 4936   1.501   1.480  17.116  0.1736  0.3244 -0.3284
  329TMC3    C3 4937   1.449   1.384  17.029 -0.3172 -0.4016  0.2508
  329TMC3    C4 4938   1.712   1.377  17.091  0.5521  0.0673 -0.3425
  329TMC3    C5 4939   1.661   1.286  17.004  0.3849 -0.2853  0.1542
  329TMC3    C6 4940   1.529   1.289  16.968  0.0633 -0.4122  0.4599
  329TMC3     C 4941   1.696   1.608  17.135 -0.2901 -0.2131  0.1114
  329TMC3     O 4942   1.750   1.646  17.034  0.1391 -0.3664 -0.7748
  329TMC3     H 4943   1.448   1.566  17.155  1.9793  0.0076  2.8885
  329TMC3    H1 4944   1.817   1.373  17.119  1.0829  0.7873 -2.2100
  329TMC3    H2 4945   1.502   1.228  16.882 -1.3954 -0.9431  1.2983
  329TMC3    C7 4946   1.733   1.163  16.990 -0.3259  0.2117 -0.6244
  329TMC3    C8 4947   1.330   1.421  16.949  0.1588  0.3584 -0.2227
  329TMC3    O1 4948   1.803   1.122  17.076 -0.4626  0.3633 -0.0886
  329TMC3    O2 4949   1.335   1.394  16.829  0.3923  0.1960 -0.8649
  330TMC3    C1 4950   4.691   2.024  10.056 -0.2444  0.0883 -0.7670
  330TMC3    C2 4951   4.724   1.921   9.971  0.1287  0.0618 -0.8632
  330TMC3    C3 4952   0.037   1.803  10.026  0.2281  0.6177 -0.5589
  330TMC3    C4 4953   4.680   1.997  10.191  0.6725  0.1121  0.5182
  330TMC3    C5 4954   4.718   1.875  10.237 -0.4333 -0.5383  0.3174
  330TMC3    C6 4955   0.037   1.772  10.158  0.3934  0.1265 -0.1814
  330TMC3     C 4956   4.604   2.141  10.015 -0.4582 -0.3340  0.0455
  330TMC3     O 4957   4.598   2.241  10.086  0.3630 -0.0054  0.0017
  330TMC3     H 4958   4.697   1.919   9.866  0.1401 -0.1372 -0.8633
  330TMC3    H1 4959   4.654   2.080  10.256 -4.5297  0.2111 -1.6690
  330TMC3    H2 4960   0.087   1.682  10.193 -0.2334  0.1930  0.8723
  330TMC3    C7 4961   0.028   1.871  10.375  0.0463  0.0063  0.1005
  330TMC3    C8 4962   0.055   1.699   9.925  0.1680  0.1581 -0.1521
  330TMC3    O1 4963   0.039   1.980  10.436  0.0680  0.2235  1.2426
  330TMC3    O2 4964   0.058   1.723   9.804 -0.5547 -0.0435 -0.3355
  331MPD2     C 4965   1.895   0.650  12.600  0.5593 -0.2726  0.0829
  331MPD2    C1 4966   2.030   0.698  12.596  0.0545  0.4077  0.0740
  331MPD2    C2 4967   2.136   0.610  12.591  1.2814 -0.5263  0.8478
  331MPD2    C3 4968   2.113   0.474  12.570  0.6213  0.3220  0.9046
  331MPD2    C4 4969   1.987   0.428  12.558  0.1534 -0.2390 -0.2930
  331MPD2    C5 4970   1.879   0.510  12.588 -0.4044 -0.2299  0.1711
  331MPD2     H 4971   2.241   0.636  12.584  0.3131  3.2350  0.7770
  331MPD2    H1 4972   1.966   0.322  12.545  0.2224 -0.5669  2.1856
  331MPD2    H2 4973   1.808   0.715  12.612  1.2561  1.1018 -2.1751
  331MPD2    H3 4974   1.776   0.478  12.590 -0.4096 -0.1418  1.4616
  331MPD2     N 4975   2.228   0.391  12.541 -0.3898  0.3644 -0.2127
  331MPD2    H5 4976   2.323   0.422  12.561 -0.4046 -1.0455  2.0596
  331MPD2    N1 4977   2.057   0.836  12.592 -0.4135  0.6946  0.3172
  331MPD2    H7 4978   1.983   0.884  12.542  0.0286  1.6024  0.5284
  332TMC3    C1 4979   2.361   0.255  12.419  0.5607  0.0350  0.1172
  332TMC3    C2 4980   2.378   0.312  12.306  0.1121 -0.9788 -0.0526
  332TMC3    C3 4981   2.508   0.352  12.270  0.2477 -0.3531 -0.2149
  332TMC3    C4 4982   2.458   0.240  12.510  0.1392 -0.6623  0.0244
  332TMC3    C5 4983   2.578   0.287  12.484 -0.6144  0.5358 -0.6614
  332TMC3    C6 4984   2.607   0.347  12.363  0.3731  0.4720 -0.0311
  332TMC3     C 4985   2.230   0.270  12.477 -0.5787  0.2020 -0.4760
  332TMC3     O 4986   2.142   0.202  12.427  0.1404  0.5361 -0.2035
  332TMC3     H 4987   2.295   0.342  12.243 -0.2299 -1.5636  0.1260
  332TMC3    H1 4988   2.436   0.185  12.601 -1.4028  0.1979  0.1873
  332TMC3    H2 4989   2.709   0.378  12.342  0.2927  1.7868  1.5519
  332TMC3    C7 4990   2.686   0.198  12.525  0.0114  0.8212 -0.7901
  332TMC3    C8 4991   2.529   0.458  12.173  0.8225 -0.4220  0.5897
  332TMC3    O1 4992   2.661   0.082  12.548 -0.2941  0.6551  0.4579
  332TMC3    O2 4993   2.649   0.474  12.151 -0.1465 -0.3438 -0.5079
  333MPD2     C 4994   2.271   0.875  10.797 -0.0209 -0.3258 -0.0222
  333MPD2    C1 4995   2.398   0.818  10.803 -0.5548 -0.4810 -0.2370
  333MPD2    C2 4996   2.412   0.712  10.892  0.4437  0.6748  0.6533
  333MPD2    C3 4997   2.314   0.684  10.990  0.5792 -0.5120  0.1346
  333MPD2    C4 4998   2.195   0.759  10.993  0.1449 -0.2544  0.3045
  333MPD2    C5 4999   2.172   0.852  10.891 -0.0310 -0.1387 -0.2400
  333MPD2     H 5000   2.499   0.648  10.894  0.4635  0.6048 -2.3115
  333MPD2    H1 5001   2.122   0.748  11.072  0.7181 -1.3748  0.6819
  333MPD2    H2 5002   2.244   0.948  10.721  1.6053  0.6433  0.3250
  333MPD2    H3 5003   2.079   0.907  10.892  0.3331  0.4951 -2.0875
  333MPD2     N 5004   2.336   0.565  11.072  0.4390  0.2014 -0.0530
  333MPD2    H5 5005   2.423   0.514  11.061  1.1845  1.3396  0.5522
  333MPD2    N1 5006   2.500   0.853  10.712 -0.4162  0.2428  0.5877
  333MPD2    H7 5007   2.470   0.919  10.642 -0.2886  0.3924  0.6738
  334TMC3    C1 5008   2.726   0.835  10.625 -0.4607 -0.4987  0.3276
  334TMC3    C2 5009   2.840   0.759  10.626  0.1218  0.5656  0.5047
  334TMC3    C3 5010   2.958   0.805  10.575 -0.0660  0.0922 -0.0920
  334TMC3    C4 5011   2.730   0.964  10.588  0.3280  0.5237  0.2559
  334TMC3    C5 5012   2.843   0.999  10.520 -0.7038 -0.0811  0.3639
  334TMC3    C6 5013   2.958   0.930  10.513  0.2171  0.1941 -0.6611
  334TMC3     C 5014   2.625   0.785  10.717 -0.1075  0.2407 -0.3614
  334TMC3     O 5015   2.675   0.712  10.800  0.2058  0.3572  0.0498
  334TMC3     H 5016   2.835   0.659  10.667 -0.9900  0.3243 -0.2319
  334TMC3    H1 5017   2.655   1.041  10.599 -0.2825  0.0785 -0.8111
  334TMC3    H2 5018   3.040   0.971  10.455 -0.1253  0.1055 -1.2177
  334TMC3    C7 5019   2.852   1.139  10.488 -0.5309 -0.4075 -0.1825
  334TMC3    C8 5020   3.082   0.724  10.598 -0.8105 -0.0306  0.4156
  334TMC3    O1 5021   2.965   1.188  10.481  0.7772 -0.3569  0.0069
  334TMC3    O2 5022   3.061   0.605  10.630  0.2388  0.4669 -0.0578
  335TMC3    C1 5023   2.674   2.491  17.366  0.1703 -1.9480 -0.4699
  335TMC3    C2 5024   2.567   2.474  17.285 -0.4094  0.1585 -0.6159
  335TMC3    C3 5025   2.574   2.490  17.151  0.0726  0.5352  0.0984
  335TMC3    C4 5026   2.798   2.540  17.321 -0.0169 -0.5166 -0.7634
  335TMC3    C5 5027   2.793   2.566  17.184 -0.4269  0.3081  0.2049
  335TMC3    C6 5028   2.685   2.545  17.097 -0.0612 -0.0186 -0.0051
  335TMC3     C 5029   2.670   2.406  17.483  0.5804 -0.1769  0.1870
  335TMC3     O 5030   2.587   2.318  17.471 -1.2331 -0.0224 -0.4020
  335TMC3     H 5031   2.473   2.439  17.326  0.7192 -2.8191 -0.5730
  335TMC3    H1 5032   2.879   2.569  17.387  0.4280  0.0494 -1.5678
  335TMC3    H2 5033   2.690   2.546  16.989 -0.0833  1.8374  0.0092
  335TMC3    C7 5034   2.923   2.577  17.113 -0.5699  0.5582 -1.1365
  335TMC3    C8 5035   2.457   2.461  17.070  0.1955 -0.5290 -0.4013
  335TMC3    O1 5036   2.926   2.623  16.999  0.1455  0.4596  0.0497
  335TMC3    O2 5037   2.447   2.518  16.963 -0.2072 -0.7054 -0.3000
  336MPD2     C 5038   2.123   0.085  16.291 -0.0020  0.5031  0.3470
  336MPD2    C1 5039   2.158   0.125  16.160 -0.1598 -0.3073 -0.3953
  336MPD2    C2 5040   2.227   0.026  16.083 -0.2890  0.5909 -0.1516
  336MPD2    C3 5041   2.237   4.622  16.131  0.1023  0.4491 -0.4249
  336MPD2    C4 5042   2.187   4.585  16.250  0.0800  0.6372 -0.4368
  336MPD2    C5 5043   2.132   4.680  16.329 -0.0914 -0.2354  0.6820
  336MPD2     H 5044   2.258   0.040  15.980  1.5418 -2.4987 -0.0164
  336MPD2    H1 5045   2.199   4.482  16.284  2.2164  1.4134  1.1508
  336MPD2    H2 5046   2.080   0.153  16.363  1.6412  0.6415  1.1780
  336MPD2    H3 5047   2.100   4.659  16.431 -0.0695  1.7000  1.0759
  336MPD2     N 5048   2.283   4.519  16.049 -0.5717  0.0387 -0.3945
  336MPD2    H5 5049   2.258   4.425  16.077  0.0551 -0.6005 -1.9924
  336MPD2    N1 5050   2.135   0.248  16.104  0.2925 -0.3969  0.2228
  336MPD2    H7 5051   2.169   0.266  16.010 -2.2151 -1.1882 -0.8356
  337TMC3    C1 5052   2.048   0.471  16.084 -0.7211  0.7754  0.2626
  337TMC3    C2 5053   1.965   0.456  15.969  0.5046  0.2106  0.5812
  337TMC3    C3 5054   1.871   0.554  15.949  0.0411  0.4545  0.0319
  337TMC3    C4 5055   2.046   0.583  16.165 -0.2281 -0.4913 -0.3686
  337TMC3    C5 5056   1.968   0.681  16.130 -0.3941  0.1002 -0.5356
  337TMC3    C6 5057   1.887   0.675  16.016  0.1003 -0.1274  0.3999
  337TMC3     C 5058   2.069   0.356  16.167  0.1935  0.1202  0.2433
  337TMC3     O 5059   2.035   0.362  16.285  0.1847 -0.2085 -0.0398
  337TMC3     H 5060   1.947   0.359  15.925 -0.8506  1.2769 -1.2079
  337TMC3    H1 5061   2.105   0.592  16.256 -1.1212 -2.1988  0.3993
  337TMC3    H2 5062   1.842   0.767  15.982  1.7091 -0.3071 -2.2135
  337TMC3    C7 5063   2.002   0.816  16.178  0.6885 -0.3206 -0.4184
  337TMC3    C8 5064   1.756   0.524  15.865 -0.8648 -0.5363  0.0715
  337TMC3    O1 5065   2.046   0.828  16.290  0.2451  0.7946  0.1679
  337TMC3    O2 5066   1.779   0.466  15.762 -0.5766 -0.2956  0.6666
  338MPD2     C 5067   2.388   4.190   0.938 -0.0720 -0.3213 -0.5318
  338MPD2    C1 5068   2.272   4.231   0.868 -0.5073 -0.7307  0.2789
  338MPD2    C2 5069   2.179   4.309   0.930  0.4771 -0.4234 -0.1002
  338MPD2    C3 5070   2.191   4.326   1.062 -0.3233 -0.0041 -1.0881
  338MPD2    C4 5071   2.294   4.276   1.138 -0.1382  0.4890 -0.5300
  338MPD2    C5 5072   2.401   4.219   1.069  0.1163 -0.2384  0.3622
  338MPD2     H 5073   2.091   4.327   0.869 -0.0181 -0.3458  0.6392
  338MPD2    H1 5074   2.317   4.304   1.240 -1.1943  0.1960 -0.2123
  338MPD2    H2 5075   2.470   4.130   0.901  1.1737 -0.2517  2.1539
  338MPD2    H3 5076   2.493   4.192   1.120 -0.5975 -0.5376  1.4946
  338MPD2     N 5077   2.094   4.419   1.117 -0.1485  0.3217  0.2706
  338MPD2    H5 5078   2.025   4.471   1.064 -1.2100 -2.2178 -0.8533
  338MPD2    N1 5079   2.254   4.200   0.734 -0.1637 -0.2393 -0.5756
  338MPD2    H7 5080   2.164   4.226   0.695  0.3996 -0.0974 -1.7839
  339TMC3    C1 5081   2.004   4.567   1.276  0.5957 -0.4854  0.2345
  339TMC3    C2 5082   1.984   4.576   1.414  0.5709 -0.6931 -0.2598
  339TMC3    C3 5083   2.029   4.690   1.479 -0.2649  0.2308 -0.0292
  339TMC3    C4 5084   2.067   4.677   1.218  0.9494 -0.4597  0.0569
  339TMC3    C5 5085   2.107   0.060   1.285  0.3827  0.1842 -0.2440
  339TMC3    C6 5086   2.082   0.073   1.420  0.0187  0.2961  0.7489
  339TMC3     C 5087   2.079   4.446   1.252 -0.2019  0.1592  0.1685
  339TMC3     O 5088   2.132   4.398   1.354  0.0460 -0.4408  0.1988
  339TMC3     H 5089   1.943   4.495   1.473 -0.7936  0.2289  0.0496
  339TMC3    H1 5090   2.098   4.668   1.114 -0.1341 -0.7228 -0.2461
  339TMC3    H2 5091   2.107   0.160   1.480 -2.5403  0.7310  1.2012
  339TMC3    C7 5092   2.197   0.157   1.223 -0.6278 -0.0110 -0.2064
  339TMC3    C8 5093   2.082   4.667   1.610  0.1356  0.0281 -0.9052
  339TMC3    O1 5094   2.185   0.174   1.102  0.0883  0.1114  0.2158
  339TMC3    O2 5095   2.130   0.029   1.678 -0.4916 -0.3711  0.3355
  340MPD2     C 5096   2.132   1.301   9.789 -0.0906  0.4057 -0.4734
  340MPD2    C1 5097   2.236   1.206   9.788 -0.0290  0.3857  0.1359
  340MPD2    C2 5098   2.362   1.254   9.836 -0.2351  0.2334 -0.3196
  340MPD2    C3 5099   2.383   1.376   9.890  0.1189 -0.1693 -0.1522
  340MPD2    C4 5100   2.271   1.460   9.879  0.1057 -0.2200 -0.4506
  340MPD2    C5 5101   2.149   1.426   9.833 -0.0107 -0.5027 -0.6374
  340MPD2     H 5102   2.453   1.196   9.827 -0.4298  0.0009 -0.7940
  340MPD2    H1 5103   2.267   1.560   9.921  0.0143 -0.9801  1.3607
  340MPD2    H2 5104   2.033   1.271   9.757  0.4200  1.3616 -2.9260
  340MPD2    H3 5105   2.067   1.497   9.834  2.1924  2.0058 -1.1032
  340MPD2     N 5106   2.504   1.418   9.959  0.5991 -0.6784 -0.3284
  340MPD2    H5 5107   2.523   1.516   9.979 -1.1378 -0.1591 -1.2063
  340MPD2    N1 5108   2.213   1.073   9.739 -1.7251 -0.6608 -0.2194
  340MPD2    H7 5109   2.115   1.054   9.719 -1.5001  0.9298 -2.8610
  341TMC3    C1 5110   2.253   0.843   9.703  0.2293 -0.0217 -0.4819
  341TMC3    C2 5111   2.121   0.828   9.682 -0.9550  0.7176  0.1436
  341TMC3    C3 5112   2.080   0.708   9.632  0.4173  0.1802 -0.3830
  341TMC3    C4 5113   2.344   0.747   9.659 -0.6209  0.2492  0.1027
  341TMC3    C5 5114   2.310   0.637   9.597  0.0665  0.4134 -0.2082
  341TMC3    C6 5115   2.172   0.613   9.588  0.4349 -0.0416  0.2721
  341TMC3     C 5116   2.305   0.971   9.736  0.4315  0.2888  0.2450
  341TMC3     O 5117   2.425   0.974   9.764  0.7300  0.2890  0.2962
  341TMC3     H 5118   2.060   0.896   9.740  0.1381  0.7362  1.2712
  341TMC3    H1 5119   2.449   0.774   9.655 -0.3583 -0.9583 -1.0268
  341TMC3    H2 5120   2.142   0.522   9.537  1.2312  0.8791 -1.8207
  341TMC3    C7 5121   2.403   0.590   9.499 -0.0733 -0.0454  1.0037
  341TMC3    C8 5122   1.954   0.699   9.571 -0.2434  0.4863 -0.1550
  341TMC3    O1 5123   2.520   0.612   9.516  0.4000  0.2832 -0.8825
  341TMC3    O2 5124   1.905   0.587   9.572  0.2596  0.9250  0.0767
  342MPD2     C 5125   0.200   0.399  16.982  0.9524  0.0604  0.1536
  342MPD2    C1 5126   0.321   0.466  16.960 -0.0053 -0.0327  0.0048
  342MPD2    C2 5127   0.342   0.601  17.003 -0.3866 -0.3302 -0.2115
  342MPD2    C3 5128   0.230   0.671  17.051  0.5289  0.0805  0.0817
  342MPD2    C4 5129   0.103   0.608  17.056 -0.5510 -0.3880 -0.6165
  342MPD2    C5 5130   0.092   0.475  17.021  1.1352 -0.0196 -0.0783
  342MPD2     H 5131   0.439   0.649  16.997 -0.3639 -0.5620 -1.6863
  342MPD2    H1 5132   0.013   0.657  17.092 -0.0197 -1.1482  1.7227
  342MPD2    H2 5133   0.193   0.291  16.981 -2.7562  0.2998  0.3453
  342MPD2    H3 5134   4.719   0.433  17.014  0.6985  1.2341 -1.5246
  342MPD2     N 5135   0.258   0.800  17.101 -0.2175  0.1909 -0.2056
  342MPD2    H5 5136   0.356   0.824  17.094  0.3472 -1.4791  1.8528
  342MPD2    N1 5137   0.431   0.383  16.909 -0.1887  0.3317  0.3893
  342MPD2    H7 5138   0.526   0.419  16.918  0.0327 -0.1792  0.1141
  343TMC3    C1 5139   0.534   0.171  16.881  0.1342 -0.1803 -0.5060
  343TMC3    C2 5140   0.648   0.221  16.817 -0.3405 -0.1001 -0.6892
  343TMC3    C3 5141   0.751   0.133  16.790  0.0476 -0.1512  0.0040
  343TMC3    C4 5142   0.535   0.044  16.935  0.0178  0.2524 -0.0248
  343TMC3    C5 5143   0.641   4.691  16.915 -0.1562  0.2941 -0.1685
  343TMC3    C6 5144   0.746   4.725  16.828  0.3501 -0.4375  0.5996
  343TMC3     C 5145   0.418   0.246  16.866 -0.3317  0.5273 -0.3031
  343TMC3     O 5146   0.323   0.177  16.837  0.1239 -0.2902 -0.7323
  343TMC3     H 5147   0.665   0.325  16.792 -2.1498  1.2389  3.6244
  343TMC3    H1 5148   0.445   4.714  16.955  0.3912 -0.0932  0.6740
  343TMC3    H2 5149   0.831   4.659  16.824  0.5354 -0.3131  2.3671
  343TMC3    C7 5150   0.630   4.554  16.964 -1.1122 -0.1580  0.5088
  343TMC3    C8 5151   0.858   0.170  16.694  0.4173 -0.4907  0.1638
  343TMC3    O1 5152   0.701   4.461  16.917  0.1418 -0.1256 -0.2493
  343TMC3    O2 5153   0.886   0.291  16.691  0.0132 -0.2671  0.1153
  344MPD2     C 5154   1.569   0.152  10.570 -0.5361 -0.6259 -0.3797
  344MPD2    C1 5155   1.473   0.110  10.491 -0.2585  0.1275  0.6112
  344MPD2    C2 5156   1.452   0.166  10.367 -0.0997  0.0416 -0.1087
  344MPD2    C3 5157   1.548   0.259  10.320 -0.6856 -0.3682  0.5340
  344MPD2    C4 5158   1.646   0.306  10.409 -0.5073 -0.1874 -0.0693
  344MPD2    C5 5159   1.652   0.255  10.535  0.2334  0.6106  0.1986
  344MPD2     H 5160   1.369   0.131  10.308  0.4330  0.9751 -1.4169
  344MPD2    H1 5161   1.713   0.384  10.375 -2.5578  0.7809 -1.9337
  344MPD2    H2 5162   1.573   0.126  10.675 -1.0553  0.0583 -0.1915
  344MPD2    H3 5163   1.710   0.299  10.616  0.4556 -2.3204  1.6474
  344MPD2     N 5164   1.555   0.316  10.195  0.4137 -0.0515  0.1813
  344MPD2    H5 5165   1.637   0.372  10.174  0.3148  0.2121  0.4995
  344MPD2    N1 5166   1.373   0.021  10.537 -0.0754  0.1356  0.3430
  344MPD2    H7 5167   1.286   0.019  10.486  0.8256  0.4479 -1.1881
  345TMC3    C1 5168   1.524   0.366   9.966 -0.0609  0.3850 -0.0679
  345TMC3    C2 5169   1.661   0.390   9.959  0.1561  0.4172  0.1350
  345TMC3    C3 5170   1.702   0.482   9.868 -0.2892 -0.2141 -1.1487
  345TMC3    C4 5171   1.435   0.426   9.880 -0.3873  0.9546 -0.7380
  345TMC3    C5 5172   1.488   0.522   9.797 -0.2007  0.4312  0.1270
  345TMC3    C6 5173   1.619   0.550   9.786  0.3819 -0.3853 -0.2509
  345TMC3     C 5174   1.475   0.302  10.085  0.2139 -0.2468 -0.9035
  345TMC3     O 5175   1.359   0.256  10.080  0.8413  0.2950  0.4738
  345TMC3     H 5176   1.734   0.337  10.019  0.2477  1.5651  1.0361
  345TMC3    H1 5177   1.329   0.407   9.896  0.7156 -2.7120  2.2950
  345TMC3    H2 5178   1.662   0.625   9.719  0.1652  1.1688  1.3550
  345TMC3    C7 5179   1.406   0.619   9.728  0.7969 -0.7661 -0.0459
  345TMC3    C8 5180   1.839   0.513   9.877 -0.2779  0.7141 -0.5116
  345TMC3    O1 5181   1.471   0.719   9.702  0.8262  0.2973 -0.1815
  345TMC3    O2 5182   1.912   0.414   9.869 -0.3916 -0.1311 -0.2511
  346MPD2     C 5183   1.269   0.998  13.897  0.1238 -0.3104 -0.0449
  346MPD2    C1 5184   1.294   1.135  13.917  0.5140  0.7994 -0.0732
  346MPD2    C2 5185   1.323   1.179  14.047  0.7035  0.5037  0.6801
  346MPD2    C3 5186   1.328   1.096  14.153 -0.3681  0.6961 -0.2702
  346MPD2    C4 5187   1.308   0.961  14.138 -0.4017 -0.4279  0.0846
  346MPD2    C5 5188   1.269   0.918  14.008 -0.1615 -0.7684  0.5405
  346MPD2     H 5189   1.325   1.286  14.066 -0.2393  0.4401  1.1476
  346MPD2    H1 5190   1.293   0.892  14.220 -2.3697  0.0180  0.0986
  346MPD2    H2 5191   1.259   0.944  13.804  2.5994  0.0489 -0.5163
  346MPD2    H3 5192   1.241   0.814  14.007  2.5803 -1.4915 -0.8484
  346MPD2     N 5193   1.359   1.155  14.277  0.1369  0.3679 -0.1357
  346MPD2    H5 5194   1.366   1.255  14.268  0.4063  0.3664  0.0580
  346MPD2    N1 5195   1.290   1.226  13.814  0.2365 -0.3977 -0.5738
  346MPD2    H7 5196   1.301   1.323  13.839  1.3306 -0.9489  1.0801
  347TMC3    C1 5197   1.446   1.185  14.491  0.9848 -0.2608  1.0089
  347TMC3    C2 5198   1.430   1.315  14.463 -0.0662 -0.0064  0.2935
  347TMC3    C3 5199   1.515   1.408  14.517 -0.4495  0.6364  0.0686
  347TMC3    C4 5200   1.552   1.142  14.570 -0.0610 -0.2199  0.3741
  347TMC3    C5 5201   1.647   1.226  14.604  0.2109 -0.4491  0.4210
  347TMC3    C6 5202   1.624   1.363  14.587 -0.0919 -0.3477  1.1314
  347TMC3     C 5203   1.375   1.092  14.398 -0.3175 -0.1822  0.6645
  347TMC3     O 5204   1.389   0.973  14.417  0.3746  0.9661  0.4739
  347TMC3     H 5205   1.345   1.347  14.403 -0.3142 -2.7375 -0.8056
  347TMC3    H1 5206   1.575   1.040  14.598 -0.8362 -0.8378 -1.3056
  347TMC3    H2 5207   1.699   1.435  14.617  0.6733 -0.3578 -0.7776
  347TMC3    C7 5208   1.782   1.187  14.557  0.1027  0.1680  0.3307
  347TMC3    C8 5209   1.545   1.494  14.411  0.8244  0.0473 -0.6582
  347TMC3    O1 5210   1.796   1.075  14.511  0.5566  0.0465 -0.4808
  347TMC3    O2 5211   1.519   1.462  14.297  0.1955 -0.6104  0.1399
  348MPD2     C 5212   0.130   1.428  12.313 -0.5473  0.4774  0.3782
  348MPD2    C1 5213   0.246   1.444  12.235 -0.4184 -0.4106  0.5134
  348MPD2    C2 5214   0.245   1.525  12.126  0.6949 -0.2287  0.2036
  348MPD2    C3 5215   0.128   1.586  12.081  0.5723 -0.2985 -1.5455
  348MPD2    C4 5216   0.012   1.580  12.162 -0.0153  0.2457  0.1353
  348MPD2    C5 5217   0.021   1.506  12.272 -0.2679  0.9529 -0.5324
  348MPD2     H 5218   0.336   1.521  12.067 -0.6323 -3.0989 -1.6695
  348MPD2    H1 5219   4.640   1.618  12.139  0.6391  1.2493 -1.0543
  348MPD2    H2 5220   0.138   1.390  12.414 -3.8402 -1.8241 -0.2197
  348MPD2    H3 5221   4.665   1.518  12.341  0.6784 -0.3163  0.8153
  348MPD2     N 5222   0.129   1.673  11.970 -0.1397 -0.1046 -0.0982
  348MPD2    H5 5223   0.213   1.696  11.917  1.8423 -3.4509  1.5748
  348MPD2    N1 5224   0.372   1.379  12.260  0.0302  0.2277 -0.1854
  348MPD2    H7 5225   0.447   1.397  12.194  0.4113  0.1738  0.2378
  349TMC3    C1 5226   0.538   1.237  12.352 -0.1727  0.3749  0.3294
  349TMC3    C2 5227   0.562   1.105  12.389 -0.0075  0.1117 -0.0287
  349TMC3    C3 5228   0.679   1.052  12.346 -0.8550  0.5632  0.0288
  349TMC3    C4 5229   0.622   1.314  12.265  0.0469 -0.1471  0.3741
  349TMC3    C5 5230   0.730   1.248  12.217  0.0623  0.7609  0.5464
  349TMC3    C6 5231   0.750   1.116  12.244  0.8681 -0.3075  0.0689
  349TMC3     C 5232   0.399   1.279  12.356 -0.8244  0.1218  0.0693
  349TMC3     O 5233   0.314   1.205  12.412 -0.1613  0.1480  0.4162
  349TMC3     H 5234   0.494   1.038  12.443 -0.9467 -0.6411 -2.1414
  349TMC3    H1 5235   0.612   1.422  12.269 -0.3032 -0.2507  1.9368
  349TMC3    H2 5236   0.843   1.068  12.214 -0.1573 -1.2858 -1.5354
  349TMC3    C7 5237   0.848   1.319  12.165 -0.7907  0.1950 -0.1667
  349TMC3    C8 5238   0.694   0.904  12.357 -0.1865  0.0505 -0.3533
  349TMC3    O1 5239   0.952   1.274  12.211  0.1548  0.1499  0.6741
  349TMC3    O2 5240   0.636   0.852  12.451 -0.0658  0.5160  0.5244
  350MPD2     C 5241   3.685   4.309  10.102 -0.3179  0.0733 -0.0524
  350MPD2    C1 5242   3.723   4.179  10.101  0.1873 -0.2825 -0.6809
  350MPD2    C2 5243   3.823   4.141  10.017  0.2680 -0.5693  0.4963
  350MPD2    C3 5244   3.892   4.239   9.949 -0.0816  0.4823 -0.1643
  350MPD2    C4 5245   3.855   4.368   9.953  1.0258 -0.2327 -0.0710
  350MPD2    C5 5246   3.744   4.405  10.017  0.2649 -0.4814  0.8488
  350MPD2     H 5247   3.864   4.041  10.024  2.5804  0.3033 -0.4325
  350MPD2    H1 5248   3.895   4.446   9.889 -0.0898  0.0234 -0.4539
  350MPD2    H2 5249   3.605   4.339  10.168 -0.1631 -0.2700  0.2882
  350MPD2    H3 5250   3.708   4.506  10.031  2.9281  0.2131  2.4726
  350MPD2     N 5251   4.009   4.192   9.898 -0.1327 -0.5679 -0.0606
  350MPD2    H5 5252   4.026   4.093   9.916 -0.3143 -0.9253 -1.8437
  350MPD2    N1 5253   3.658   4.081  10.178  0.1601 -0.4897 -1.2094
  350MPD2    H7 5254   3.682   3.986  10.150  0.7924 -0.2273 -1.5524
  351TMC3    C1 5255   3.502   3.985  10.332 -1.0854 -0.2182 -0.5829
  351TMC3    C2 5256   3.539   3.858  10.289 -0.0060 -0.2322 -0.1218
  351TMC3    C3 5257   3.481   3.751  10.346  0.7733  0.2531 -0.7392
  351TMC3    C4 5258   3.403   3.995  10.426  0.8127 -0.2335  0.1993
  351TMC3    C5 5259   3.345   3.880  10.479 -0.3403  0.1901 -0.2141
  351TMC3    C6 5260   3.393   3.753  10.454 -0.2206  0.0123  0.0394
  351TMC3     C 5261   3.560   4.107  10.274  0.4784  0.2541 -0.5351
  351TMC3     O 5262   3.536   4.213  10.337 -0.6686  0.4075  0.9657
  351TMC3     H 5263   3.606   3.841  10.205  1.0451  2.9057  0.0776
  351TMC3    H1 5264   3.365   4.092  10.457 -1.1421 -0.8781 -0.1842
  351TMC3    H2 5265   3.355   3.669  10.510 -1.3115  0.1336 -0.5076
  351TMC3    C7 5266   3.253   3.900  10.581 -0.5792  0.2677  0.1517
  351TMC3    C8 5267   3.530   3.623  10.305  0.2465 -0.1007  0.0998
  351TMC3    O1 5268   3.262   3.998  10.653 -0.1831  0.2419 -0.1524
  351TMC3    O2 5269   3.557   3.610  10.190 -0.2548  0.5384  0.4626
  352MPD2     C 5270   2.994   1.798   1.133  0.7958  0.9872 -0.3405
  352MPD2    C1 5271   2.855   1.779   1.106  0.9621 -0.0840  0.0156
  352MPD2    C2 5272   2.771   1.723   1.201  0.2658 -0.0178  0.1070
  352MPD2    C3 5273   2.830   1.685   1.325  0.1989  0.5875 -1.0209
  352MPD2    C4 5274   2.968   1.698   1.344 -0.3016  0.2263  0.3838
  352MPD2    C5 5275   3.043   1.760   1.254  0.4931  0.5578 -0.6918
  352MPD2     H 5276   2.663   1.720   1.187  0.0112  2.6873  1.4157
  352MPD2    H1 5277   3.024   1.676   1.434 -0.1580  3.3461  1.0736
  352MPD2    H2 5278   3.063   1.845   1.064  0.8657 -1.0569 -1.6708
  352MPD2    H3 5279   3.147   1.784   1.272  0.6586 -3.0422  3.2000
  352MPD2     N 5280   2.755   1.633   1.435 -1.1213 -0.2445 -0.0606
  352MPD2    H5 5281   2.803   1.638   1.525 -1.3512  1.0641 -0.0064
  352MPD2    N1 5282   2.817   1.814   0.970  0.3074 -0.2483  0.8410
  352MPD2    H7 5283   2.888   1.847   0.905 -1.1931 -0.1358 -0.7228
  353TMC3    C1 5284   2.587   1.543   1.567  0.1154 -0.1646  0.3565
  353TMC3    C2 5285   2.680   1.512   1.657  0.3782 -0.1212  0.0743
  353TMC3    C3 5286   2.629   1.442   1.769  0.4367 -0.1243  0.5122
  353TMC3    C4 5287   2.456   1.519   1.572 -0.5981 -0.5181 -0.0168
  353TMC3    C5 5288   2.414   1.436   1.675  0.6452 -1.1956 -0.4362
  353TMC3    C6 5289   2.500   1.403   1.775  0.1443  0.7235 -0.3840
  353TMC3     C 5290   2.629   1.583   1.434 -0.4339  0.4498 -0.6095
  353TMC3     O 5291   2.556   1.567   1.338 -0.5257  0.2440 -0.2210
  353TMC3     H 5292   2.787   1.529   1.646 -0.3484  3.8616 -1.0604
  353TMC3    H1 5293   2.383   1.566   1.506  1.3159  1.1730 -0.9427
  353TMC3    H2 5294   2.473   1.349   1.865  1.2278  2.8532  1.2194
  353TMC3    C7 5295   2.272   1.430   1.713  0.3764 -0.6832  0.1989
  353TMC3    C8 5296   2.740   1.377   1.838 -1.1855 -0.0756  0.3196
  353TMC3    O1 5297   2.242   1.397   1.826  0.1023  0.2820  0.2693
  353TMC3    O2 5298   2.845   1.443   1.847  0.3202  0.2093  0.1106
  354TMC3    C1 5299   4.059   2.553  13.654 -0.1580  0.7516 -1.1450
  354TMC3    C2 5300   4.149   2.662  13.673  0.5412 -0.1865  0.4621
  354TMC3    C3 5301   4.135   2.771  13.591  0.1744 -0.0462 -0.3767
  354TMC3    C4 5302   3.970   2.548  13.551  0.3655 -0.3111 -1.2427
  354TMC3    C5 5303   3.965   2.654  13.463  0.3934 -0.0021  0.1508
  354TMC3    C6 5304   4.037   2.768  13.496  0.4970 -0.1111  0.3552
  354TMC3     C 5305   4.067   2.446  13.752  0.6076 -0.5855 -0.0555
  354TMC3     O 5306   3.999   2.343  13.730  0.2019  0.2153  0.2084
  354TMC3     H 5307   4.246   2.656  13.720  0.1193  1.0364  1.4860
  354TMC3    H1 5308   3.945   2.453  13.507 -0.0477 -0.5456 -0.5093
  354TMC3    H2 5309   4.029   2.860  13.440 -1.3090  0.4006  1.4504
  354TMC3    C7 5310   3.968   2.634  13.327 -0.1528  0.1080  0.0435
  354TMC3    C8 5311   4.256   2.849  13.572  0.1350 -0.2801 -0.0540
  354TMC3    O1 5312   3.873   2.594  13.261  0.1913  0.7480 -0.1438
  354TMC3    O2 5313   4.355   2.818  13.641 -0.1013 -0.2575  0.3096
  355MPD2     C 5314   4.151   3.814  12.006  0.3678 -0.5857  0.5074
  355MPD2    C1 5315   4.171   3.809  11.872 -0.0008 -0.5360 -0.3004
  355MPD2    C2 5316   4.298   3.780  11.828  0.2456  0.3789  0.0757
  355MPD2    C3 5317   4.401   3.752  11.914 -0.1575  0.5936  0.0814
  355MPD2    C4 5318   4.381   3.746  12.052 -0.2677 -0.3506  0.4011
  355MPD2    C5 5319   4.260   3.787  12.096 -0.4005 -0.1217  0.1312
  355MPD2     H 5320   4.311   3.778  11.721 -0.5818  1.7487 -0.0568
  355MPD2    H1 5321   4.453   3.715  12.127  0.9371 -2.5049 -1.6880
  355MPD2    H2 5322   4.055   3.839  12.050 -0.0642  3.1560 -2.6097
  355MPD2    H3 5323   4.236   3.784  12.201 -0.7108 -0.3278  0.0554
  355MPD2     N 5324   4.532   3.732  11.864 -0.7079  0.1102  0.5605
  355MPD2    H5 5325   4.599   3.704  11.935 -0.2699  1.9754  0.8789
  355MPD2    N1 5326   4.061   3.842  11.792 -0.2721 -0.0875  0.4510
  355MPD2    H7 5327   3.981   3.812  11.847 -1.5718  0.5966 -1.0605
  356TMC3    C1 5328   4.702   3.812  11.718  0.1436 -0.1164 -0.2328
  356TMC3    C2 5329   0.025   3.819  11.586 -0.1566 -0.0569 -0.6428
  356TMC3    C3 5330   0.148   3.869  11.567 -0.5054 -0.0189  0.0844
  356TMC3    C4 5331   0.055   3.824  11.822 -0.0224  0.5085 -0.2094
  356TMC3    C5 5332   0.183   3.873  11.800 -0.7325  0.2093 -0.1945
  356TMC3    C6 5333   0.236   3.898  11.676 -0.0046 -0.4971  0.4175
  356TMC3     C 5334   4.568   3.764  11.733 -0.1735  0.2453  0.2850
  356TMC3     O 5335   4.507   3.744  11.631  0.5211  0.3648  0.1962
  356TMC3     H 5336   4.685   3.802  11.503 -1.0561  1.7726 -0.2949
  356TMC3    H1 5337   0.006   3.839  11.917  1.7442  2.9352  0.3034
  356TMC3    H2 5338   0.339   3.927  11.665  0.0696 -1.4297 -1.2631
  356TMC3    C7 5339   0.252   3.907  11.918  0.1384 -0.7111 -0.8364
  356TMC3    C8 5340   0.184   3.927  11.434 -0.2683 -0.3702 -0.1495
  356TMC3    O1 5341   0.203   3.866  12.021 -0.3344  0.1186  0.9271
  356TMC3    O2 5342   0.110   3.898  11.344 -0.3664  0.6111  0.3557
  357MPD2     C 5343   4.390   3.718   0.649 -0.1607  0.3065 -0.4197
  357MPD2    C1 5344   4.371   3.648   0.770 -0.2216  1.1188  0.2649
  357MPD2    C2 5345   4.260   3.678   0.843 -0.1470  0.4914 -1.0175
  357MPD2    C3 5346   4.164   3.774   0.810  0.1766 -0.6080  0.2976
  357MPD2    C4 5347   4.187   3.851   0.697 -0.0393  0.4346  0.4463
  357MPD2    C5 5348   4.295   3.821   0.623  0.2810 -0.0268 -0.3259
  357MPD2     H 5349   4.232   3.624   0.933  0.4217 -0.0707 -1.1761
  357MPD2    H1 5350   4.108   3.916   0.662  0.3437  1.2006  0.9726
  357MPD2    H2 5351   4.483   3.710   0.593  2.2193  0.9015  3.4377
  357MPD2    H3 5352   4.309   3.886   0.538 -0.6506 -3.0461 -2.7554
  357MPD2     N 5353   4.044   3.807   0.881  0.8984  0.1809 -0.5184
  357MPD2    H5 5354   3.973   3.872   0.848 -0.3334 -0.5972  0.5915
  357MPD2    N1 5355   4.474   3.560   0.802  1.0083 -0.0148 -0.2624
  357MPD2    H7 5356   4.555   3.566   0.742  2.4131 -2.0984  1.4141
  358TMC3    C1 5357   4.608   3.400   0.899  0.5260 -0.0929 -0.3365
  358TMC3    C2 5358   4.660   3.374   0.773  0.3168 -0.0138  0.1523
  358TMC3    C3 5359   0.037   3.286   0.762  0.5591 -0.4539 -0.3383
  358TMC3    C4 5360   4.654   3.332   1.003  0.3869 -0.3709 -0.5785
  358TMC3    C5 5361   0.029   3.240   0.984 -0.4404 -0.0303 -1.1972
  358TMC3    C6 5362   0.092   3.229   0.869 -0.2464  0.0651  0.5147
  358TMC3     C 5363   4.477   3.464   0.902 -0.2758  0.1306  0.2043
  358TMC3     O 5364   4.399   3.441   0.998  0.5343 -0.3546 -0.1452
  358TMC3     H 5365   4.611   3.405   0.681 -2.1505 -0.0774  1.4600
  358TMC3    H1 5366   4.609   3.355   1.099 -0.2354 -0.8922 -0.7450
  358TMC3    H2 5367   0.163   3.148   0.855 -0.7913 -0.0049 -1.9559
  358TMC3    C7 5368   0.102   3.214   1.101 -0.5302 -0.4539  0.8841
  358TMC3    C8 5369   0.063   3.219   0.637  0.1018 -0.0932 -0.2481
  358TMC3    O1 5370   0.044   3.204   1.211 -0.1537  0.0922  0.2138
  358TMC3    O2 5371   4.701   3.197   0.555 -0.5666  0.2798 -0.5403
  359MPD2     C 5372   4.720   2.621  12.713  0.6109 -0.4207  0.4648
  359MPD2    C1 5373   0.012   2.509  12.642  0.3631 -0.2642 -0.1020
  359MPD2    C2 5374   4.644   2.417  12.666  0.3569 -0.4992 -0.8710
  359MPD2    C3 5375   4.537   2.429  12.751 -0.3771  0.0732 -0.1062
  359MPD2    C4 5376   4.529   2.537  12.829 -0.2394 -0.5934  0.6515
  359MPD2    C5 5377   4.622   2.638  12.803 -0.4297  0.3754 -0.6654
  359MPD2     H 5378   4.644   2.324  12.611  0.0818 -0.1029 -1.5397
  359MPD2    H1 5379   4.445   2.552  12.896 -0.2237 -1.3940  0.8487
  359MPD2    H2 5380   0.056   2.709  12.706  1.6940 -1.2972 -0.6761
  359MPD2    H3 5381   4.615   2.732  12.857  3.6698  0.0237  0.4482
  359MPD2     N 5382   4.433   2.336  12.757 -0.4482  0.2530 -0.2502
  359MPD2    H5 5383   4.365   2.342  12.832  0.5392 -1.9579  0.8281
  359MPD2    N1 5384   0.106   2.485  12.533 -0.0505 -0.0008  0.3251
  359MPD2    H7 5385   0.105   2.389  12.501 -1.0117  0.6734 -1.6629
  360TMC3    C1 5386   0.298   2.502  12.402 -0.4420 -0.2707 -0.5857
  360TMC3    C2 5387   0.407   2.582  12.371  0.4956  0.2403 -0.4872
  360TMC3    C3 5388   0.491   2.526  12.274  0.1291 -0.6159  0.3475
  360TMC3    C4 5389   0.250   2.404  12.323  0.2778  0.5633 -0.2235
  360TMC3    C5 5390   0.313   2.381  12.209 -0.6340 -0.7512  0.3979
  360TMC3    C6 5391   0.447   2.426  12.186 -0.3088  0.0272  0.8284
  360TMC3     C 5392   0.206   2.568  12.486 -0.4231  0.3763  0.4037
  360TMC3     O 5393   0.227   2.683  12.527 -0.0938  0.0597  0.1781
  360TMC3     H 5394   0.449   2.648  12.445  2.0761 -1.6765  0.3133
  360TMC3    H1 5395   0.153   2.357  12.338  0.8978 -0.5434  0.3212
  360TMC3    H2 5396   0.485   2.406  12.087  1.2527  1.7729  1.0810
  360TMC3    C7 5397   0.233   2.352  12.092 -0.0931 -0.2959 -0.1525
  360TMC3    C8 5398   0.577   2.624  12.207 -0.2757  0.1550 -0.0875
  360TMC3    O1 5399   0.255   2.419  11.992 -0.1210  0.1624  0.3975
  360TMC3    O2 5400   0.539   2.743  12.210 -0.2385 -0.9512 -0.3332
  361MPD2     C 5401   1.186   1.289  17.224 -0.5665 -0.0753 -0.4622
  361MPD2    C1 5402   1.141   1.212  17.117  0.4208 -0.1069 -1.0002
  361MPD2    C2 5403   1.226   1.109  17.072 -0.4258 -0.7096 -0.4896
  361MPD2    C3 5404   1.334   1.060  17.150  0.1055  0.1332 -0.3794
  361MPD2    C4 5405   1.358   1.133  17.271 -0.3506 -0.2986 -0.2357
  361MPD2    C5 5406   1.288   1.247  17.302 -0.1098  0.3254  0.5719
  361MPD2     H 5407   1.208   1.057  16.979 -1.8472 -3.2964  1.2399
  361MPD2    H1 5408   1.437   1.112  17.342 -0.7407  0.3427  0.3938
  361MPD2    H2 5409   1.134   1.379  17.255 -0.2847  0.3180 -1.1332
  361MPD2    H3 5410   1.326   1.291  17.393  0.6986  0.2429  0.2763
  361MPD2     N 5411   1.420   0.949  17.126  0.2975  0.1192 -0.5047
  361MPD2    H5 5412   1.479   0.927  17.206 -2.3725 -2.8163  0.6418
  361MPD2    N1 5413   1.036   1.256  17.035 -0.2983  0.3699 -0.6197
  361MPD2    H7 5414   1.020   1.211  16.945 -0.2297  0.1816 -0.5367
  362TMC3    C1 5415   0.861   1.405  16.967 -0.1434  0.7283 -0.4837
  362TMC3    C2 5416   0.731   1.422  16.999  0.0197  0.4251  0.7511
  362TMC3    C3 5417   0.645   1.429  16.885 -0.0860  0.4010  0.1601
  362TMC3    C4 5418   0.902   1.393  16.833  0.0556 -0.0674  0.3147
  362TMC3    C5 5419   0.811   1.401  16.732 -0.1971 -0.4777  0.1256
  362TMC3    C6 5420   0.681   1.413  16.754  0.0911  0.2850 -0.7073
  362TMC3     C 5421   0.940   1.349  17.075  0.6362  0.1118 -0.7678
  362TMC3     O 5422   0.906   1.390  17.186 -0.1752  0.0881 -0.0529
  362TMC3     H 5423   0.703   1.430  17.104 -1.4518 -0.5716  0.4473
  362TMC3    H1 5424   1.004   1.365  16.813 -0.1660 -1.4430  1.1508
  362TMC3    H2 5425   0.608   1.422  16.675 -0.5615 -0.5189 -0.1962
  362TMC3    C7 5426   0.866   1.415  16.595  0.1430  0.3043  0.6318
  362TMC3    C8 5427   0.509   1.430  16.915 -0.5940 -0.2146  0.9390
  362TMC3    O1 5428   0.981   1.456  16.574  0.5042  0.4073  0.5411
  362TMC3    O2 5429   0.437   1.379  16.835 -0.0499 -0.2074 -0.4051
  363TMC3    C1 5430   4.461   3.274   9.552 -0.4431 -0.5546  0.8663
  363TMC3    C2 5431   4.474   3.201   9.671 -0.1790 -0.2627 -0.5721
  363TMC3    C3 5432   4.491   3.273   9.792  0.5209  0.4125 -0.3413
  363TMC3    C4 5433   4.453   3.412   9.556  0.0028 -0.3324  0.0770
  363TMC3    C5 5434   4.457   3.474   9.677  0.3814  0.6890 -0.1108
  363TMC3    C6 5435   4.481   3.412   9.796 -0.2953 -0.6186 -0.7844
  363TMC3     C 5436   4.455   3.199   9.429  0.2111  0.7701  0.3048
  363TMC3     O 5437   4.489   3.081   9.438 -0.0234  0.2935  0.2408
  363TMC3     H 5438   4.471   3.093   9.668  0.8432 -0.3333  1.0566
  363TMC3    H1 5439   4.457   3.480   9.473  1.9635  0.6199  0.9655
  363TMC3    H2 5440   4.485   3.470   9.887 -0.3586  0.2528 -1.3345
  363TMC3    C7 5441   4.480   3.615   9.676 -0.0400 -0.3685  0.3314
  363TMC3    C8 5442   4.488   3.202   9.923  0.0103 -0.0260 -0.1535
  363TMC3    O1 5443   4.579   3.659   9.732 -0.4570 -0.1689 -0.1745
  363TMC3    O2 5444   4.422   3.243  10.015 -0.0083 -0.6475 -0.0354
  364MPD2     C 5445   2.960   2.841  10.996  0.3321  0.1892  0.2947
  364MPD2    C1 5446   3.076   2.803  10.932 -0.2883  0.3495  0.5477
  364MPD2    C2 5447   3.156   2.709  10.992  0.0424  0.8806  0.4268
  364MPD2    C3 5448   3.123   2.648  11.104 -0.7203 -0.1963 -0.0874
  364MPD2    C4 5449   3.007   2.682  11.172  0.5078  0.2576  0.3903
  364MPD2    C5 5450   2.926   2.776  11.114 -0.0953 -0.2879  0.1729
  364MPD2     H 5451   3.247   2.686  10.938 -0.5861 -2.4251  0.7932
  364MPD2    H1 5452   2.978   2.641  11.268  0.2514 -1.7615 -0.5456
  364MPD2    H2 5453   2.900   2.921  10.953 -0.2632  0.9748  2.6213
  364MPD2    H3 5454   2.829   2.792  11.160  1.0845  0.9510  2.2518
  364MPD2     N 5455   3.202   2.549  11.173  0.0426  0.5105  0.2777
  364MPD2    H5 5456   3.174   2.508  11.261  0.5066  0.4055  0.3747
  364MPD2    N1 5457   3.110   2.886  10.822  0.5529 -0.6997 -0.2999
  364MPD2    H7 5458   3.041   2.957  10.801  1.5317  0.7359  1.4091
  365TMC3    C1 5459   3.234   2.959  10.635  0.1932 -0.9037 -0.3715
  365TMC3    C2 5460   3.318   2.927  10.535  0.6833  0.2477 -0.5703
  365TMC3    C3 5461   3.351   3.030  10.448  0.5004  0.6557  0.0554
  365TMC3    C4 5462   3.202   3.092  10.665 -0.2287  0.4203 -0.2246
  365TMC3    C5 5463   3.243   3.189  10.580 -0.3132 -0.3046  0.5095
  365TMC3    C6 5464   3.315   3.161  10.468 -0.1492 -0.3204  1.2142
  365TMC3     C 5465   3.217   2.855  10.737 -0.2565  0.1318  0.0692
  365TMC3     O 5466   3.284   2.753  10.733  0.2866  0.2305 -0.3619
  365TMC3     H 5467   3.362   2.828  10.530 -1.9247 -0.9159 -0.5115
  365TMC3    H1 5468   3.146   3.125  10.752 -1.6114 -0.2866 -0.8519
  365TMC3    H2 5469   3.347   3.235  10.396 -2.1562 -0.4584  0.1916
  365TMC3    C7 5470   3.240   3.325  10.635 -0.5282  0.1425  0.3137
  365TMC3    C8 5471   3.411   2.992  10.324 -0.1257  0.0971 -0.5603
  365TMC3    O1 5472   3.228   3.416  10.555  0.1506  0.1842 -0.0673
  365TMC3    O2 5473   3.415   3.083  10.238 -0.2776 -0.3940 -0.3362
  366MPD2     C 5474   1.881   3.831  14.999  0.2184  0.2321  0.3292
  366MPD2    C1 5475   1.987   3.914  15.015 -0.2864 -0.6943  0.2538
  366MPD2    C2 5476   2.113   3.863  15.005  0.8004 -0.1605  0.4466
  366MPD2    C3 5477   2.139   3.732  14.973 -0.4926  0.1564 -0.3215
  366MPD2    C4 5478   2.032   3.642  14.950  0.2777  0.4278  0.3484
  366MPD2    C5 5479   1.907   3.695  14.980 -0.1617  0.4535 -0.2385
  366MPD2     H 5480   2.193   3.935  15.018 -0.3587  1.1659  0.2261
  366MPD2    H1 5481   2.040   3.536  14.932  1.2365  0.6310 -0.4075
  366MPD2    H2 5482   1.778   3.861  15.014  0.0167 -0.7241  0.8469
  366MPD2    H3 5483   1.820   3.630  14.973  0.8527 -0.6057 -3.1924
  366MPD2     N 5484   2.279   3.689  14.963  0.1413 -0.1689 -0.7396
  366MPD2    H5 5485   2.346   3.753  15.006 -1.6337  0.3271  1.2492
  366MPD2    N1 5486   1.969   4.054  15.033  0.2887 -0.0941  0.0484
  366MPD2    H7 5487   2.056   4.105  15.020  0.8714 -1.6878 -2.4794
  367TMC3    C1 5488   1.885   4.272  15.038  0.3063 -0.3288  0.3878
  367TMC3    C2 5489   2.004   4.317  15.099  0.1025 -0.5180  0.9221
  367TMC3    C3 5490   2.020   4.456  15.105  0.7769 -0.4738  0.4441
  367TMC3    C4 5491   1.786   4.352  14.994  0.7125 -0.0876 -0.4327
  367TMC3    C5 5492   1.809   4.488  14.993  0.1235 -0.7360 -0.2970
  367TMC3    C6 5493   1.916   4.540  15.069  0.2593 -0.1447 -0.3579
  367TMC3     C 5494   1.856   4.127  15.036 -0.9055 -0.8294 -0.3422
  367TMC3     O 5495   1.739   4.088  15.018  0.4607  0.3327  0.1210
  367TMC3     H 5496   2.087   4.258  15.136 -0.1578 -1.7064 -0.3663
  367TMC3    H1 5497   1.703   4.297  14.951  0.1097  0.1051  0.4945
  367TMC3    H2 5498   1.932   4.647  15.071 -0.2150 -0.0861  0.4012
  367TMC3    C7 5499   1.701   4.582  14.974 -0.3738 -0.2279 -0.0220
  367TMC3    C8 5500   2.112   4.502  15.209  0.2771  0.0784  0.9227
  367TMC3    O1 5501   1.702   4.670  15.061 -0.1186  0.2625  0.1642
  367TMC3    O2 5502   2.212   4.436  15.234 -0.3906  0.2043 -0.0842
  368MPD2     C 5503   3.010   1.204  13.109  0.0685 -0.0525 -0.1139
  368MPD2    C1 5504   3.042   1.298  13.014  0.1143  0.4247 -0.5304
  368MPD2    C2 5505   3.177   1.333  12.999 -0.6142  0.0968 -0.1872
  368MPD2    C3 5506   3.281   1.278  13.077  0.3280  0.3563 -0.7021
  368MPD2    C4 5507   3.242   1.188  13.173  0.4507 -0.1699  0.1149
  368MPD2    C5 5508   3.108   1.153  13.186  0.4610 -0.0692 -0.1548
  368MPD2     H 5509   3.201   1.414  12.931 -0.8982 -0.3863 -0.8638
  368MPD2    H1 5510   3.314   1.147  13.243 -1.3647  0.0284  2.0779
  368MPD2    H2 5511   2.906   1.175  13.121  0.3243 -0.4114  1.2298
  368MPD2    H3 5512   3.068   1.073  13.248  0.7658  0.3466  0.5744
  368MPD2     N 5513   3.419   1.305  13.054  0.0348 -0.1704  0.4308
  368MPD2    H5 5514   3.474   1.262  13.127  2.3802  0.0777 -1.1769
  368MPD2    N1 5515   2.941   1.355  12.936  0.2639 -0.0363 -0.1242
  368MPD2    H7 5516   2.851   1.321  12.969 -0.0626  2.5623  1.7145
  369TMC3    C1 5517   2.810   1.483  12.783  0.1951  0.2634 -0.5756
  369TMC3    C2 5518   2.795   1.615  12.737 -0.0153  0.3020 -0.7215
  369TMC3    C3 5519   2.664   1.650  12.694  0.4283 -0.4661 -0.1754
  369TMC3    C4 5520   2.700   1.394  12.780 -0.1040  0.0478 -0.2890
  369TMC3    C5 5521   2.575   1.438  12.756 -0.2276 -0.0827 -0.5227
  369TMC3    C6 5522   2.557   1.566  12.711 -0.1337  0.6747  0.3662
  369TMC3     C 5523   2.946   1.448  12.835  0.5046 -0.1630  0.5071
  369TMC3     O 5524   3.034   1.516  12.786  0.0390  0.6637 -0.2296
  369TMC3     H 5525   2.878   1.684  12.732  0.2570 -0.0444 -0.9496
  369TMC3    H1 5526   2.722   1.292  12.809 -2.4269  0.5698  3.2875
  369TMC3    H2 5527   2.467   1.611  12.670 -1.2603 -1.4980  0.4201
  369TMC3    C7 5528   2.458   1.359  12.809  0.3102 -0.7368  0.0236
  369TMC3    C8 5529   2.639   1.763  12.602  0.0091 -0.2312  0.2467
  369TMC3    O1 5530   2.489   1.276  12.897  0.1823  0.5748  0.0727
  369TMC3    O2 5531   2.528   1.816  12.607 -0.3413 -0.6383 -0.2691
  370TMC3    C1 5532   2.401   1.869  16.158  0.2315 -0.3154 -0.9836
  370TMC3    C2 5533   2.302   1.810  16.239 -0.9991 -0.1624  0.3693
  370TMC3    C3 5534   2.263   1.676  16.228 -0.5191 -0.3652 -0.0527
  370TMC3    C4 5535   2.461   1.781  16.065  0.8242  0.4270 -0.6988
  370TMC3    C5 5536   2.427   1.650  16.049 -0.5935 -0.5854 -0.1389
  370TMC3    C6 5537   2.321   1.599  16.126 -0.0307  0.1981 -0.0938
  370TMC3     C 5538   2.492   1.956  16.229  0.4851  0.2979  0.2561
  370TMC3     O 5539   2.470   1.959  16.351  0.6488 -0.5106  0.0141
  370TMC3     H 5540   2.270   1.882  16.313  1.8027 -0.6653  2.0890
  370TMC3    H1 5541   2.547   1.819  16.011  1.2856  0.1164 -0.1804
  370TMC3    H2 5542   2.292   1.495  16.122  3.2467 -0.7458  0.5700
  370TMC3    C7 5543   2.428   1.607  15.908 -0.4115 -0.1430 -0.2477
  370TMC3    C8 5544   2.222   1.608  16.347  0.5345  0.1097  0.2215
  370TMC3    O1 5545   2.393   1.698  15.835  0.1801  0.4781  0.2461
  370TMC3    O2 5546   2.233   1.488  16.356  0.0812 -0.3716  0.0473
  371TMC3    C1 5547   3.552   4.615  15.306 -0.1322  0.7865 -0.4016
  371TMC3    C2 5548   3.413   4.613  15.294  0.4705 -0.1369 -0.6361
  371TMC3    C3 5549   3.364   0.009  15.253  0.2161 -0.0037  0.2985
  371TMC3    C4 5550   3.637   4.720  15.271 -0.1965  0.3042 -0.3233
  371TMC3    C5 5551   3.578   0.110  15.241  0.4411  0.2938 -0.4140
  371TMC3    C6 5552   3.445   0.121  15.227  0.2042 -0.3373  0.8981
  371TMC3     C 5553   3.625   4.512  15.374 -0.6683  0.2350  0.5685
  371TMC3     O 5554   3.736   4.545  15.417  0.3930 -0.3064  0.1220
  371TMC3     H 5555   3.346   4.547  15.348  1.1897 -0.4613 -0.1409
  371TMC3    H1 5556   3.745   4.713  15.264 -0.2813 -0.4199 -0.8539
  371TMC3    H2 5557   3.396   0.214  15.202  0.4874 -0.1303  1.1120
  371TMC3    C7 5558   3.637   0.235  15.263  1.1771  0.3794  0.7328
  371TMC3    C8 5559   3.222   0.036  15.250  0.2463 -0.3863 -0.5676
  371TMC3    O1 5560   3.588   0.325  15.193 -0.2292 -0.3807  0.0545
  371TMC3    O2 5561   3.145   4.702  15.176  0.4621  0.2269  0.6441
  372MPD2     C 5562   3.195   1.589  13.267 -0.1812  0.2231 -0.7503
  372MPD2    C1 5563   3.308   1.537  13.323 -0.3706 -0.3101 -0.0178
  372MPD2    C2 5564   3.290   1.442  13.422 -0.5031  0.1465 -0.3644
  372MPD2    C3 5565   3.169   1.374  13.437  0.5772  0.3626 -0.1398
  372MPD2    C4 5566   3.051   1.442  13.391 -0.2599 -0.7792 -0.3625
  372MPD2    C5 5567   3.066   1.555  13.313  0.8196 -0.2166  0.1722
  372MPD2     H 5568   3.377   1.401  13.471 -0.6513 -0.1515 -0.3513
  372MPD2    H1 5569   2.951   1.410  13.420 -1.0529  2.1866  0.2736
  372MPD2    H2 5570   3.208   1.658  13.184 -0.0444  2.1508  0.8487
  372MPD2    H3 5571   2.974   1.602  13.281 -0.0334 -0.2589  2.5864
  372MPD2     N 5572   3.160   1.248  13.507  0.2511 -0.3741  0.6141
  372MPD2    H5 5573   3.245   1.213  13.550  0.1510  1.0161  1.9651
  372MPD2    N1 5574   3.438   1.581  13.297 -0.7712  0.3239 -0.0614
  372MPD2    H7 5575   3.512   1.556  13.362 -1.5214  0.2380  0.7525
  373TMC3    C1 5576   3.072   1.049  13.591 -0.3065  0.3445  0.7477
  373TMC3    C2 5577   2.982   1.009  13.688  0.2976  0.1917 -0.2601
  373TMC3    C3 5578   3.010   0.895  13.763  0.2396 -0.6335 -0.2715
  373TMC3    C4 5579   3.183   0.973  13.563  0.5368 -0.8252  0.0941
  373TMC3    C5 5580   3.211   0.864  13.632  0.1587  0.7774  0.5770
  373TMC3    C6 5581   3.125   0.819  13.736 -1.0087  0.0706  0.2389
  373TMC3     C 5582   3.046   1.173  13.519 -0.0121  0.1717  0.4365
  373TMC3     O 5583   2.932   1.202  13.496 -0.1507  0.4274  0.1764
  373TMC3     H 5584   2.892   1.066  13.708  1.6052  2.5154 -1.0539
  373TMC3    H1 5585   3.251   1.004  13.484  2.0996 -0.6372  1.4956
  373TMC3    H2 5586   3.139   0.732  13.799 -2.0602  0.3443  0.8400
  373TMC3    C7 5587   3.320   0.782  13.586  0.6300 -0.1939 -0.1116
  373TMC3    C8 5588   2.963   0.892  13.901 -0.0339 -0.0328  0.4470
  373TMC3    O1 5589   3.366   0.800  13.478 -0.3045  0.5135  0.3598
  373TMC3    O2 5590   3.048   0.868  13.985 -0.2675  0.0505  0.0500
  374TMC3    C1 5591   4.063   1.710   9.764  0.3105  0.1724  0.0106
  374TMC3    C2 5592   4.066   1.813   9.851  0.0671  1.0760 -0.0688
  374TMC3    C3 5593   4.021   1.934   9.795  0.0634 -0.2011 -0.4825
  374TMC3    C4 5594   3.997   1.710   9.645  0.8532 -0.2174 -0.5536
  374TMC3    C5 5595   3.958   1.829   9.589 -0.2472 -0.0203  0.9807
  374TMC3    C6 5596   3.965   1.940   9.668  0.0902 -0.2937  0.6255
  374TMC3     C 5597   4.105   1.584   9.810  0.0088 -0.1068  0.4191
  374TMC3     O 5598   4.111   1.569   9.933 -0.3399 -0.1247 -0.2051
  374TMC3     H 5599   4.113   1.799   9.947  1.3692  0.6832 -0.7653
  374TMC3    H1 5600   3.970   1.619   9.593  3.3236 -0.9721 -0.4942
  374TMC3    H2 5601   3.928   2.031   9.621  0.2570 -0.3076  0.4650
  374TMC3    C7 5602   3.938   1.824   9.441  1.0687  0.8635  0.6556
  374TMC3    C8 5603   4.045   2.060   9.865  0.2361  0.2129 -0.0167
  374TMC3    O1 5604   3.980   1.727   9.381 -0.3076 -0.4048 -0.0034
  374TMC3    O2 5605   3.977   2.160   9.844 -0.9374 -0.0958  0.1093
  375MPD2     C 5606   3.984   2.743  16.277  0.2123  0.6418 -0.2412
  375MPD2    C1 5607   3.892   2.664  16.339 -0.5458  0.0537  0.7777
  375MPD2    C2 5608   3.865   2.536  16.292  0.5738 -0.2325 -0.6410
  375MPD2    C3 5609   3.923   2.493  16.176  0.8084  0.3960 -0.0984
  375MPD2    C4 5610   4.023   2.573  16.119 -0.4174 -0.0082  0.1615
  375MPD2    C5 5611   4.056   2.686  16.176 -0.2553 -0.7888 -0.3157
  375MPD2     H 5612   3.796   2.472  16.346  0.0792  0.4294 -0.4901
  375MPD2    H1 5613   4.074   2.535  16.031 -0.8397 -1.8716  0.7132
  375MPD2    H2 5614   4.003   2.845  16.308  2.3863 -0.2240  1.3107
  375MPD2    H3 5615   4.133   2.754  16.140  2.6184 -2.2190  3.1077
  375MPD2     N 5616   3.905   2.360  16.125  0.0015 -0.2382 -0.5462
  375MPD2    H5 5617   3.954   2.333  16.041  3.2465 -0.6859  1.4887
  375MPD2    N1 5618   3.823   2.704  16.458  0.3770 -0.0128  0.2508
  375MPD2    H7 5619   3.757   2.633  16.487 -0.8579  1.7993  1.8550
  376TMC3    C1 5620   3.859   2.132  16.134  0.3643 -0.5802 -0.4977
  376TMC3    C2 5621   3.882   2.027  16.218  0.1178 -0.6880  0.4083
  376TMC3    C3 5622   3.910   1.905  16.173 -0.2651  0.2549 -0.0144
  376TMC3    C4 5623   3.860   2.121  15.998  0.4464 -0.1717  0.6413
  376TMC3    C5 5624   3.892   1.988  15.950 -0.0270  0.0151 -0.2529
  376TMC3    C6 5625   3.915   1.882  16.040  0.0755 -0.2321  0.1011
  376TMC3     C 5626   3.838   2.264  16.197 -0.4393 -0.4411 -0.1539
  376TMC3     O 5627   3.770   2.268  16.302  0.5190 -0.5374 -0.7824
  376TMC3     H 5628   3.879   2.052  16.323  2.2565  1.3437 -0.0205
  376TMC3    H1 5629   3.838   2.203  15.931 -0.8293  0.4348  1.7978
  376TMC3    H2 5630   3.935   1.782  16.006 -0.5618 -1.1333  2.3708
  376TMC3    C7 5631   3.924   1.975  15.811 -0.5380  0.7440  0.3250
  376TMC3    C8 5632   4.012   1.832  16.245 -0.6346 -0.1769  0.3288
  376TMC3    O1 5633   3.958   2.076  15.755  0.4229  0.5743  0.0767
  376TMC3    O2 5634   3.993   1.710  16.250 -0.5425 -0.1532  0.0656
  377MPD2     C 5635   1.710   1.828  12.141 -0.5118  0.0189  0.1908
  377MPD2    C1 5636   1.781   1.772  12.245 -0.3991  0.6838  0.2015
  377MPD2    C2 5637   1.721   1.727  12.365  0.5357  0.2305  0.0294
  377MPD2    C3 5638   1.582   1.753  12.379 -0.3064 -0.2134  0.1667
  377MPD2    C4 5639   1.515   1.814  12.274 -0.5561  0.4980  0.5062
  377MPD2    C5 5640   1.580   1.848  12.159 -0.5577  0.4102  0.0963
  377MPD2     H 5641   1.782   1.686  12.445  0.7033  0.7671  0.1787
  377MPD2    H1 5642   1.409   1.826  12.291 -0.6872  1.7351 -1.2518
  377MPD2    H2 5643   1.765   1.851  12.050  0.9668 -0.1480  1.0419
  377MPD2    H3 5644   1.528   1.898  12.079 -2.3809 -0.7917  0.5271
  377MPD2     N 5645   1.513   1.735  12.498 -0.1078  0.3375  0.0723
  377MPD2    H5 5646   1.415   1.762  12.496  0.1032  1.0814 -0.0723
  377MPD2    N1 5647   1.914   1.758  12.221 -0.0399 -0.0390  0.2104
  377MPD2    H7 5648   1.950   1.776  12.129  2.2566 -0.7177  0.9829
  378TMC3    C1 5649   2.253   1.673  12.024  0.4306  0.2761 -0.0246
  378TMC3    C2 5650   2.135   1.699  12.092 -0.1365  0.6562 -0.9184
  378TMC3    C3 5651   2.125   1.667  12.224  0.3855 -0.5452  0.1640
  378TMC3    C4 5652   2.367   1.638  12.091  0.3337 -0.5597  0.3095
  378TMC3    C5 5653   2.349   1.602  12.223 -0.3698 -0.5347  0.6142
  378TMC3    C6 5654   2.230   1.611  12.291  0.7164 -0.1509  0.0825
  378TMC3     C 5655   2.276   1.727  11.891  0.2437  0.5125  0.0173
  378TMC3     O 5656   2.182   1.781  11.835  0.1654 -0.3654  0.1940
  378TMC3     H 5657   2.059   1.743  12.029 -1.6410 -1.5278 -0.6332
  378TMC3    H1 5658   2.453   1.601  12.036 -0.3541  1.5951 -2.2142
  378TMC3    H2 5659   2.231   1.600  12.398  1.1349 -0.4969  0.0457
  378TMC3    C7 5660   2.463   1.559  12.293  0.2990 -0.5272 -1.3552
  378TMC3    C8 5661   2.011   1.707  12.305 -0.5377 -0.0811  0.0848
  378TMC3    O1 5662   2.444   1.507  12.400 -0.3550 -0.2308 -0.3031
  378TMC3    O2 5663   2.013   1.693  12.426 -0.2402 -0.4457 -0.1713
  379MPD2     C 5664   2.589   4.630  16.191  0.6550  0.4369  0.2213
  379MPD2    C1 5665   2.710   4.619  16.122  0.2145 -0.0517  0.0338
  379MPD2    C2 5666   2.811   4.561  16.195  0.4674  1.0296 -0.4430
  379MPD2    C3 5667   2.782   4.495  16.318 -0.5932  0.0050  0.5804
  379MPD2    C4 5668   2.663   4.511  16.379  0.1039  0.2547  0.3708
  379MPD2    C5 5669   2.566   4.578  16.313 -0.0794  0.3045 -0.2820
  379MPD2     H 5670   2.912   4.556  16.154  1.5088  1.2081  2.0567
  379MPD2    H1 5671   2.639   4.458  16.470 -1.4603  1.5275  0.6868
  379MPD2    H2 5672   2.511   4.691  16.145  0.6034 -1.6561 -2.4890
  379MPD2    H3 5673   2.471   4.598  16.361  1.2422  0.4347  2.3012
  379MPD2     N 5674   2.874   4.432  16.404 -0.0164  0.7258 -0.3658
  379MPD2    H5 5675   2.835   4.393  16.489 -1.0049 -0.7070 -1.4858
  379MPD2    N1 5676   2.716   4.682  15.995 -0.1204  0.3381  0.4519
  379MPD2    H7 5677   2.630   4.710  15.951  0.7964 -0.3897 -1.7969
  380TMC3    C1 5678   2.797   0.018  15.780  0.0731  0.2482  0.3835
  380TMC3    C2 5679   2.867   4.687  15.678  0.5411  0.5731 -0.5339
  380TMC3    C3 5680   2.812   4.695  15.548  0.5987  0.2948 -0.6345
  380TMC3    C4 5681   2.666   0.062  15.759  0.3458 -0.1190 -0.4822
  380TMC3    C5 5682   2.628   0.080  15.630 -0.0483 -0.0723 -0.4492
  380TMC3    C6 5683   2.693   0.029  15.518 -0.1287  0.2238 -0.4909
  380TMC3     C 5684   2.825   4.688  15.911 -0.1132  0.5316 -0.1983
  380TMC3     O 5685   2.943   4.655  15.939 -0.2367  0.3390 -0.5676
  380TMC3     H 5686   2.962   4.645  15.709 -0.4817 -1.0121  0.4807
  380TMC3    H1 5687   2.612   0.104  15.844 -0.7516 -1.0188 -0.7422
  380TMC3    H2 5688   2.660   0.047  15.416  1.1647  0.9787 -0.7755
  380TMC3    C7 5689   2.489   0.110  15.615 -0.6051 -0.7149 -0.0917
  380TMC3    C8 5690   2.867   4.597  15.450  0.7388 -0.6418  0.8937
  380TMC3    O1 5691   2.436   0.153  15.719 -0.0764  0.5166 -0.1977
  380TMC3    O2 5692   2.829   4.602  15.332 -0.2892 -0.2500 -0.5156
  381TMC3    C1 5693   2.357   0.907  16.254 -0.1497  0.2805  0.0619
  381TMC3    C2 5694   2.388   1.025  16.193  0.4693 -0.2706  0.9598
  381TMC3    C3 5695   2.395   1.132  16.273 -1.0758 -0.4121 -0.4970
  381TMC3    C4 5696   2.340   0.897  16.387  0.4677  0.2353  0.3469
  381TMC3    C5 5697   2.324   1.014  16.461 -0.3476  0.0669 -0.7933
  381TMC3    C6 5698   2.357   1.137  16.413  0.4831  0.2300  0.0332
  381TMC3     C 5699   2.345   0.786  16.170 -0.6490 -0.1510  0.8329
  381TMC3     O 5700   2.329   0.813  16.052 -0.0615 -0.1801 -0.5652
  381TMC3     H 5701   2.417   1.029  16.089 -2.7810 -2.0604  0.0044
  381TMC3    H1 5702   2.294   0.804  16.420 -0.1177  0.6945  0.8171
  381TMC3    H2 5703   2.344   1.228  16.470 -2.4680 -1.1872  1.5907
  381TMC3    C7 5704   2.292   0.988  16.604  0.5214  0.2733  0.0210
  381TMC3    C8 5705   2.479   1.242  16.213  0.7917 -0.6492  0.0268
  381TMC3    O1 5706   2.304   0.872  16.646 -0.6553  0.2163  0.1321
  381TMC3    O2 5707   2.513   1.222  16.100 -0.6706 -0.1215 -0.0339
  382MPD2     C 5708   1.646   3.543  17.353 -0.3109 -0.0930  0.2118
  382MPD2    C1 5709   1.729   3.468  17.270 -0.4904  0.4407 -0.4390
  382MPD2    C2 5710   1.729   3.327  17.274 -0.3919 -0.7775 -0.5418
  382MPD2    C3 5711   1.640   3.266  17.363  0.2844 -0.1532 -0.4644
  382MPD2    C4 5712   1.560   3.339  17.448 -0.0999 -0.8476 -0.3506
  382MPD2    C5 5713   1.557   3.478  17.437  0.3919 -0.2098  0.8162
  382MPD2     H 5714   1.793   3.268  17.209 -0.8058 -0.0382 -1.6368
  382MPD2    H1 5715   1.491   3.298  17.521  1.1450 -0.0102  1.2779
  382MPD2    H2 5716   1.644   3.652  17.348 -0.0196 -0.0645  0.6146
  382MPD2    H3 5717   1.489   3.541  17.493  2.4131  1.1249  1.7768
  382MPD2     N 5718   1.625   3.123  17.372 -0.3703  0.1485 -0.2036
  382MPD2    H5 5719   1.581   3.087  17.456 -3.1690  1.3400 -1.1850
  382MPD2    N1 5720   1.811   3.541  17.176 -0.1022 -0.4152 -0.5144
  382MPD2    H7 5721   1.792   3.641  17.174  1.3386 -0.1348 -0.5745
  383TMC3    C1 5722   1.671   2.901  17.317 -0.2562  0.1671 -1.3057
  383TMC3    C2 5723   1.643   2.811  17.216  0.8243  0.2581  0.3022
  383TMC3    C3 5724   1.611   2.685  17.255  0.1778 -0.1014  0.1751
  383TMC3    C4 5725   1.680   2.865  17.450  0.1534  0.0123  0.4505
  383TMC3    C5 5726   1.627   2.741  17.483 -0.4588 -0.1027 -1.2114
  383TMC3    C6 5727   1.599   2.650  17.384 -0.0737 -0.2565 -0.1142
  383TMC3     C 5728   1.665   3.042  17.274 -0.2032  0.0508  0.3871
  383TMC3     O 5729   1.687   3.072  17.156  0.1004  0.3862  0.5336
  383TMC3     H 5730   1.633   2.850  17.115 -0.3373 -0.2202  0.2372
  383TMC3    H1 5731   1.692   2.944  17.523 -3.1628 -1.0055  2.1101
  383TMC3    H2 5732   1.540   2.568  17.424 -0.0044 -1.3212 -2.1563
  383TMC3    C7 5733   1.638   2.685  17.616 -0.2672  0.1844 -0.0586
  383TMC3    C8 5734   1.525   2.611  17.162 -0.0463 -0.0750  0.1210
  383TMC3    O1 5735   1.559   2.593  17.644  0.0081  0.4655 -0.3371
  383TMC3    O2 5736   1.498   2.666  17.054  0.1444  0.1809  0.4095
  384MPD2     C 5737   3.050   4.485  11.899 -0.4122  0.1073  0.7413
  384MPD2    C1 5738   3.104   4.592  11.832 -0.6142 -0.0295 -0.8843
  384MPD2    C2 5739   3.230   4.579  11.776  0.0680  0.4004  0.4275
  384MPD2    C3 5740   3.302   4.460  11.788  0.0230 -0.3135  0.2301
  384MPD2    C4 5741   3.240   4.352  11.849  0.2286  0.4277 -0.3116
  384MPD2    C5 5742   3.114   4.363  11.902 -0.4418 -0.2311  0.0126
  384MPD2     H 5743   3.276   4.663  11.727 -1.0204 -0.5970 -2.3465
  384MPD2    H1 5744   3.295   4.262  11.873  0.4652  1.1482  1.8681
  384MPD2    H2 5745   2.954   4.488  11.949  0.1710 -1.4985  1.9677
  384MPD2    H3 5746   3.063   4.287  11.960  1.2571 -2.2113 -1.0831
  384MPD2     N 5747   3.440   4.444  11.750  0.6693  0.0515 -0.0374
  384MPD2    H5 5748   3.492   4.358  11.763  0.2419 -0.0188  1.1343
  384MPD2    N1 5749   3.039   4.718  11.838 -0.2669 -0.3925  0.0688
  384MPD2    H7 5750   2.948   4.717  11.883 -1.5073 -1.2771 -2.4333
  385TMC3    C1 5751   3.657   4.520  11.743  0.4311 -0.0609  0.0050
  385TMC3    C2 5752   3.688   4.392  11.769 -0.0162 -0.2010  0.0124
  385TMC3    C3 5753   3.781   4.366  11.868 -0.4714  0.0739 -0.6634
  385TMC3    C4 5754   3.708   4.623  11.815  0.0301  0.2117  0.0616
  385TMC3    C5 5755   3.778   4.598  11.926  0.1091 -0.2345 -0.3160
  385TMC3    C6 5756   3.822   4.470  11.946  0.8345 -0.8097  0.1959
  385TMC3     C 5757   3.518   4.544  11.711 -0.2941 -0.3548 -0.0783
  385TMC3     O 5758   3.501   4.661  11.674  0.4891  0.2596  0.1842
  385TMC3     H 5759   3.661   4.313  11.700 -1.7018 -1.0223  1.6193
  385TMC3    H1 5760   3.667   4.723  11.806 -0.6151  0.1811  2.7054
  385TMC3    H2 5761   3.873   4.458  12.040  1.5896  1.4437  0.0810
  385TMC3    C7 5762   3.698   4.639  12.038 -0.2118 -0.2507 -0.3481
  385TMC3    C8 5763   3.765   4.240  11.937  0.3162  0.8729  0.3281
  385TMC3    O1 5764   3.671   0.035  12.048 -0.4068  0.3885 -0.3912
  385TMC3    O2 5765   3.773   4.244  12.059  0.0724 -0.5027 -0.1588
  386TMC3    C1 5766   3.069   1.805  11.324 -0.0038  0.2895 -0.4150
  386TMC3    C2 5767   3.113   1.811  11.197  0.7142 -0.3429 -0.6043
  386TMC3    C3 5768   3.020   1.854  11.104 -0.4994 -0.5714  0.0109
  386TMC3    C4 5769   2.951   1.856  11.371  0.0529  0.0904 -0.3193
  386TMC3    C5 5770   2.868   1.916  11.280 -0.0587  0.0072 -0.0446
  386TMC3    C6 5771   2.904   1.914  11.148  0.1147  0.3776 -0.2881
  386TMC3     C 5772   3.169   1.759  11.425  0.4796 -0.5710  0.4969
  386TMC3     O 5773   3.150   1.797  11.541  0.3740 -0.0672 -0.0832
  386TMC3     H 5774   3.209   1.785  11.156  0.5175 -0.7879 -0.7897
  386TMC3    H1 5775   2.925   1.854  11.476  1.1419 -1.9516 -0.0766
  386TMC3    H2 5776   2.849   1.968  11.072 -1.3747 -1.1778 -0.3226
  386TMC3    C7 5777   2.765   2.003  11.336  0.6547  0.2370 -0.4473
  386TMC3    C8 5778   3.068   1.889  10.973 -0.3004 -0.7526 -0.6216
  386TMC3    O1 5779   2.770   2.011  11.457  0.0355  0.5404  0.4478
  386TMC3    O2 5780   2.998   1.867  10.874  0.3678 -0.2050 -0.1931
  387MPD2     C 5781   0.791   2.053   9.520  0.4431  0.9207 -0.7945
  387MPD2    C1 5782   0.921   2.049   9.559  0.4910  0.3423  0.5055
  387MPD2    C2 5783   1.000   1.939   9.530 -0.1666 -0.5150 -0.7418
  387MPD2    C3 5784   0.952   1.835   9.461 -0.0719  0.3752  0.6743
  387MPD2    C4 5785   0.821   1.836   9.411  0.5360 -0.1863  0.3251
  387MPD2    C5 5786   0.743   1.949   9.445  0.9235 -0.0796 -0.6293
  387MPD2     H 5787   1.099   1.926   9.574 -0.4259 -2.2708 -0.6893
  387MPD2    H1 5788   0.774   1.757   9.354  2.2529 -0.5747 -0.5554
  387MPD2    H2 5789   0.724   2.137   9.536 -1.4615 -1.1515  2.1014
  387MPD2    H3 5790   0.642   1.950   9.408  0.2189 -0.1461  1.2893
  387MPD2     N 5791   1.034   1.723   9.441 -0.4723 -0.3000  0.1008
  387MPD2    H5 5792   1.120   1.731   9.495 -1.5001  0.3801  1.6051
  387MPD2    N1 5793   0.978   2.135   9.656 -0.0237 -0.4062 -0.0772
  387MPD2    H7 5794   1.063   2.096   9.695 -0.6574 -0.3959  1.3030
  388TMC3    C1 5795   0.975   2.277   9.842 -0.2175  0.1799 -0.2474
  388TMC3    C2 5796   0.967   2.408   9.883 -0.1279  0.3992 -0.2393
  388TMC3    C3 5797   1.045   2.439   9.991 -0.1003  0.2879 -0.5255
  388TMC3    C4 5798   1.033   2.176   9.912 -0.0749 -0.7844  0.9440
  388TMC3    C5 5799   1.101   2.209  10.027  0.7312  0.1236 -0.1665
  388TMC3    C6 5800   1.115   2.342  10.065 -0.0161 -0.3266 -0.0687
  388TMC3     C 5801   0.912   2.237   9.716 -0.0650 -0.2608 -0.2547
  388TMC3     O 5802   0.820   2.311   9.680  0.1554  0.3238 -0.4811
  388TMC3     H 5803   0.922   2.483   9.818  1.2009  1.3291 -0.0759
  388TMC3    H1 5804   1.021   2.080   9.864 -1.8541 -1.2967  2.4248
  388TMC3    H2 5805   1.195   2.383  10.126 -0.3912 -2.3739  1.7905
  388TMC3    C7 5806   1.198   2.108  10.067 -0.6332  0.3424 -0.2814
  388TMC3    C8 5807   0.979   2.537  10.081  0.2183 -0.6411  0.3129
  388TMC3    O1 5808   1.293   2.129  10.144  0.2374  0.7522 -0.5090
  388TMC3    O2 5809   0.907   2.625  10.028  0.5766  0.0307 -0.3596
  389MPD2     C 5810   0.853   0.389  11.133  0.0703  0.1236 -0.6574
  389MPD2    C1 5811   0.761   0.308  11.079 -0.6325 -0.3307  0.6718
  389MPD2    C2 5812   0.695   0.211  11.159  0.7740 -0.0871 -0.1479
  389MPD2    C3 5813   0.713   0.214  11.299 -0.0186 -0.2340 -0.2523
  389MPD2    C4 5814   0.810   0.297  11.354 -0.4756 -0.2298 -0.7817
  389MPD2    C5 5815   0.877   0.384  11.272  0.6085 -0.5981  0.3858
  389MPD2     H 5816   0.624   0.142  11.115 -0.3845  0.7921  0.3217
  389MPD2    H1 5817   0.826   0.306  11.461 -0.3859 -2.8038 -0.5851
  389MPD2    H2 5818   0.918   0.451  11.073  0.6791  0.1775  0.0447
  389MPD2    H3 5819   0.962   0.435  11.317 -1.5048  1.1690  2.3948
  389MPD2     N 5820   0.636   0.146  11.392  0.0619 -0.0617 -0.4128
  389MPD2    H5 5821   0.638   0.158  11.493 -0.6310 -0.5493 -0.3466
  389MPD2    N1 5822   0.748   0.311  10.937  0.0992  0.3931 -0.0437
  389MPD2    H7 5823   0.795   0.389  10.892  0.0704  0.3829 -0.0919
  390TMC3    C1 5824   0.461   0.015  11.476 -0.4031 -0.6493 -0.0992
  390TMC3    C2 5825   0.418   4.615  11.497 -0.3528 -0.3447  0.0639
  390TMC3    C3 5826   0.349   4.586  11.612 -0.5848 -0.3184  0.5831
  390TMC3    C4 5827   0.441   0.115  11.575  0.0399  0.3832 -0.4180
  390TMC3    C5 5828   0.366   0.085  11.688  0.1636  0.2217  0.5654
  390TMC3    C6 5829   0.329   4.682  11.707  0.5046  0.1295  0.2793
  390TMC3     C 5830   0.554   0.040  11.369  0.2393  0.1337 -1.0104
  390TMC3     O 5831   0.556   4.686  11.278  0.0697  0.3033  0.1547
  390TMC3     H 5832   0.429   4.536  11.423  4.2221 -0.3378  0.7283
  390TMC3    H1 5833   0.457   0.220  11.552  2.1272  0.5855  2.0073
  390TMC3    H2 5834   0.250   4.651  11.774  0.2436 -0.3516 -0.2519
  390TMC3    C7 5835   0.293   0.187  11.749 -0.7845 -0.9662  0.6484
  390TMC3    C8 5836   0.278   4.456  11.617 -0.1058  0.3372  0.0515
  390TMC3    O1 5837   0.302   0.295  11.696  0.1190  0.1027 -0.5629
  390TMC3    O2 5838   0.237   4.411  11.512 -0.0822  0.5519  0.1215
  391MPD2     C 5839   4.355   1.707  11.393 -0.2566 -0.3202 -0.0171
  391MPD2    C1 5840   4.443   1.815  11.385  0.5272  0.7907 -0.2292
  391MPD2    C2 5841   4.458   1.887  11.269  0.7434  0.0107  0.1771
  391MPD2    C3 5842   4.393   1.842  11.150  0.3368  0.4477 -0.4412
  391MPD2    C4 5843   4.299   1.740  11.164 -0.9446  0.3077 -0.5924
  391MPD2    C5 5844   4.276   1.679  11.286 -0.2564 -0.0135  1.4410
  391MPD2     H 5845   4.528   1.967  11.250  1.1054 -1.0909 -3.1601
  391MPD2    H1 5846   4.235   1.706  11.083  1.2431 -0.4967 -2.0072
  391MPD2    H2 5847   4.346   1.648  11.483 -2.5903  1.2052  0.7681
  391MPD2    H3 5848   4.214   1.590  11.293  0.8187 -0.9565 -1.1438
  391MPD2     N 5849   4.445   1.892  11.027  0.4119  0.0320  0.2442
  391MPD2    H5 5850   4.518   1.963  11.029 -2.1136  2.7006 -2.9302
  391MPD2    N1 5851   4.531   1.838  11.490 -0.3260  0.7110 -0.3176
  391MPD2    H7 5852   4.530   1.768  11.564  0.1456  1.4247  0.3505
  392TMC3    C1 5853   4.459   1.932  10.795  0.3093 -0.0943 -1.1405
  392TMC3    C2 5854   4.415   1.914  10.667  0.1501  0.1879 -0.9713
  392TMC3    C3 5855   4.464   2.003  10.569 -0.5066  0.0095 -0.0586
  392TMC3    C4 5856   4.563   2.014  10.825 -0.0269  0.4682 -0.0665
  392TMC3    C5 5857   4.605   2.102  10.725  0.5281 -0.1046 -0.0375
  392TMC3    C6 5858   4.561   2.100  10.598 -0.5331 -0.1986  0.0487
  392TMC3     C 5859   4.406   1.849  10.902 -0.8490 -0.3387 -0.1368
  392TMC3     O 5860   4.314   1.770  10.872 -0.8176 -0.3968  0.5029
  392TMC3     H 5861   4.332   1.848  10.646  0.5015 -0.5100 -0.1279
  392TMC3    H1 5862   4.629   2.013  10.911 -2.1508  0.0313  1.5409
  392TMC3    H2 5863   4.588   2.179  10.530  0.7704 -0.1493  0.6214
  392TMC3    C7 5864   4.725   2.180  10.745 -0.4330  0.0099  0.2300
  392TMC3    C8 5865   4.389   2.000  10.440  0.2852 -0.6200  0.1778
  392TMC3    O1 5866   0.024   2.210  10.857  0.2791 -0.2282 -0.3249
  392TMC3    O2 5867   4.321   1.903  10.415  0.0480 -0.4574 -0.3075
  393TMC3    C1 5868   3.636   4.228  10.702 -1.2835  0.0244 -0.6896
  393TMC3    C2 5869   3.615   4.200  10.835  0.5504 -0.3491  0.1376
  393TMC3    C3 5870   3.618   4.071  10.879  0.1408  1.0155  0.4488
  393TMC3    C4 5871   3.682   4.130  10.616 -0.0614  0.1015 -0.1749
  393TMC3    C5 5872   3.666   4.001  10.666 -0.0277 -0.1937 -0.3410
  393TMC3    C6 5873   3.628   3.972  10.790  0.3356  0.5430  0.3044
  393TMC3     C 5874   3.642   4.369  10.661  0.6372  0.1623 -0.2576
  393TMC3     O 5875   3.688   4.448  10.741 -0.5240  0.2242  0.3581
  393TMC3     H 5876   3.580   4.283  10.895  3.5900  2.0688 -1.4027
  393TMC3    H1 5877   3.695   4.144  10.509 -0.8536  1.5099 -0.0967
  393TMC3    H2 5878   3.616   3.869  10.819 -1.0932  0.5461 -0.2572
  393TMC3    C7 5879   3.725   3.898  10.582  0.5364  0.3002  0.3083
  393TMC3    C8 5880   3.586   4.051  11.018  0.3231 -0.1417 -0.1805
  393TMC3    O1 5881   3.663   3.793  10.588 -0.6025  0.0638 -0.2561
  393TMC3    O2 5882   3.558   3.939  11.057 -0.1406 -0.3301 -0.8671
  394TMC3    C1 5883   0.689   0.279  10.712 -0.8150  0.2561  0.3449
  394TMC3    C2 5884   0.602   0.221  10.625  0.2197  0.3583 -0.2931
  394TMC3    C3 5885   0.597   0.275  10.495  0.0953 -0.4331  1.0238
  394TMC3    C4 5886   0.803   0.348  10.666  0.6828  0.1665  0.2836
  394TMC3    C5 5887   0.812   0.365  10.529 -0.1064 -0.0090 -0.2140
  394TMC3    C6 5888   0.707   0.338  10.447  0.3699  0.0578  0.1078
  394TMC3     C 5889   0.681   0.226  10.850 -0.1748  0.4431  0.0111
  394TMC3     O 5890   0.609   0.130  10.877  0.3214 -0.4362  0.5008
  394TMC3     H 5891   0.508   0.187  10.669  2.7846 -3.8797  1.8838
  394TMC3    H1 5892   0.888   0.372  10.728  0.9860  1.3130 -0.6003
  394TMC3    H2 5893   0.710   0.356  10.340 -0.1931  1.2998  0.3002
  394TMC3    C7 5894   0.937   0.378  10.473  0.3774  0.2040  0.4842
  394TMC3    C8 5895   0.518   0.187  10.409 -0.2312 -0.1060  0.1469
  394TMC3    O1 5896   1.030   0.324  10.532 -0.5633 -0.2096  0.6973
  394TMC3    O2 5897   0.503   0.072  10.450 -0.0330 -0.4229 -0.3141
  395TMC3    C1 5898   0.012   1.393  15.087 -0.4219  0.5057  0.6962
  395TMC3    C2 5899   4.702   1.363  14.965  0.1829  0.1798 -0.1493
  395TMC3    C3 5900   0.068   1.326  14.872 -0.3559 -0.6945 -0.3695
  395TMC3    C4 5901   0.144   1.370  15.127 -0.0635 -0.6753 -0.1677
  395TMC3    C5 5902   0.230   1.327  15.035  0.1583 -0.3419  0.3787
  395TMC3    C6 5903   0.197   1.299  14.905  0.0840 -0.0296  0.1674
  395TMC3     C 5904   4.667   1.489  15.170  0.3252  0.0020 -0.7997
  395TMC3     O 5905   0.011   1.558  15.240 -0.5152 -0.2707  0.3483
  395TMC3     H 5906   4.612   1.404  14.920  0.3804  1.0211  0.2267
  395TMC3    H1 5907   0.173   1.401  15.227 -1.7879 -0.4040  0.2531
  395TMC3    H2 5908   0.267   1.281  14.825 -0.6550  0.1684 -0.5281
  395TMC3    C7 5909   0.367   1.357  15.057 -1.0399  0.1179 -0.9077
  395TMC3    C8 5910   0.074   1.408  14.758  0.4542  0.4716 -0.3287
  395TMC3    O1 5911   0.442   1.320  14.973  0.5307  0.1695  0.3464
  395TMC3    O2 5912   0.177   1.472  14.743  0.5736  0.4932 -0.0667
  396MPD2     C 5913   0.547   3.083  17.285 -0.2111  0.8753 -0.2029
  396MPD2    C1 5914   0.559   3.013  17.167  0.2204  0.0788  0.7808
  396MPD2    C2 5915   0.636   3.077  17.076 -0.7606  0.3592  0.6648
  396MPD2    C3 5916   0.720   3.184  17.094 -0.1968 -0.7697  0.0211
  396MPD2    C4 5917   0.719   3.242  17.218 -0.7141  0.0693  0.3675
  396MPD2    C5 5918   0.631   3.196  17.307 -0.5537 -0.3028 -0.1798
  396MPD2     H 5919   0.647   3.033  16.977 -0.8110 -0.3712  0.9859
  396MPD2    H1 5920   0.784   3.327  17.230 -1.3702  0.6847 -0.4189
  396MPD2    H2 5921   0.465   3.058  17.352  0.7517  0.3495  0.7912
  396MPD2    H3 5922   0.613   3.257  17.395 -2.6153 -2.9301  1.1943
  396MPD2     N 5923   0.809   3.222  16.985 -0.2223 -0.3053 -0.2610
  396MPD2    H5 5924   0.807   3.159  16.905  1.4619 -0.9650  0.2042
  396MPD2    N1 5925   0.479   2.895  17.148  0.2805  0.5157  0.1545
  396MPD2    H7 5926   0.419   2.856  17.220 -0.3718  0.5263 -0.3932
  397TMC3    C1 5927   0.392   2.711  17.030 -0.3164 -0.1231  0.3049
  397TMC3    C2 5928   0.316   2.717  16.916 -0.2375 -0.3268 -0.2636
  397TMC3    C3 5929   0.184   2.691  16.913 -0.2295 -0.0539 -0.1080
  397TMC3    C4 5930   0.322   2.688  17.150  0.0235  0.3182 -1.1282
  397TMC3    C5 5931   0.190   2.654  17.142  0.3490  0.7798  0.1806
  397TMC3    C6 5932   0.123   2.648  17.024 -0.2225  0.2134  0.8063
  397TMC3     C 5933   0.495   2.814  17.038 -0.3188  0.6469 -0.3533
  397TMC3     O 5934   0.568   2.837  16.942 -0.2385  0.4830  0.0315
  397TMC3     H 5935   0.364   2.758  16.828  1.1978  0.6888  0.9841
  397TMC3    H1 5936   0.383   2.667  17.237 -1.4232 -3.1791 -0.9454
  397TMC3    H2 5937   0.021   2.612  17.025 -0.4273  0.8228  2.1423
  397TMC3    C7 5938   0.116   2.594  17.254  0.7106 -0.5787  0.3000
  397TMC3    C8 5939   0.123   2.706  16.783 -0.5322 -0.9437 -0.3062
  397TMC3    O1 5940   0.009   2.539  17.231  0.1242 -0.3650  0.8604
  397TMC3    O2 5941   0.194   2.756  16.694  0.0192 -0.1081  0.1741
  398MPD2     C 5942   2.593   4.267   0.191  0.1689 -0.2180 -0.0299
  398MPD2    C1 5943   2.644   4.192   0.298 -0.0103 -0.5910  0.0191
  398MPD2    C2 5944   2.634   4.239   0.426 -0.0887 -0.2722  0.3029
  398MPD2    C3 5945   2.577   4.365   0.449  0.1031 -0.3691 -0.1346
  398MPD2    C4 5946   2.534   4.437   0.339 -0.0216 -1.3069 -0.6573
  398MPD2    C5 5947   2.542   4.392   0.214 -0.1735 -0.1855  0.6267
  398MPD2     H 5948   2.675   4.189   0.513  0.3123  4.6370  2.9433
  398MPD2    H1 5949   2.494   4.538   0.337 -1.0422 -1.7038 -0.0651
  398MPD2    H2 5950   2.599   4.241   0.086 -0.7064 -1.6603  0.2721
  398MPD2    H3 5951   2.489   4.439   0.132 -0.9655 -1.9653  0.1212
  398MPD2     N 5952   2.573   4.416   0.581  0.0824 -0.1005  0.2194
  398MPD2    H5 5953   2.604   4.353   0.654  0.0235  3.0684  2.9895
  398MPD2    N1 5954   2.702   4.066   0.273  0.4038 -0.1386 -0.1108
  398MPD2    H7 5955   2.731   4.011   0.354  1.7260 -0.3723 -0.7441
  399TMC3    C1 5956   2.765   3.869   0.175 -0.0692 -0.5229 -0.5486
  399TMC3    C2 5957   2.871   3.864   0.257  0.3744 -0.0921  0.0134
  399TMC3    C3 5958   2.939   3.748   0.257 -0.4164  0.5469  0.1974
  399TMC3    C4 5959   2.727   3.774   0.088 -0.2393 -0.8557 -0.2598
  399TMC3    C5 5960   2.810   3.663   0.085 -0.5390 -0.2365  0.0916
  399TMC3    C6 5961   2.912   3.641   0.169 -0.6654 -0.1921 -0.1923
  399TMC3     C 5962   2.709   4.002   0.157  0.3320  0.5878  1.2248
  399TMC3     O 5963   2.659   4.025   0.048  0.1021  0.6301  0.2866
  399TMC3     H 5964   2.910   3.952   0.307 -0.1626  1.2034 -1.9054
  399TMC3    H1 5965   2.645   3.792   0.020 -0.6627  0.0436  0.4734
  399TMC3    H2 5966   2.971   3.550   0.158 -0.9224 -0.6444  2.0389
  399TMC3    C7 5967   2.779   3.548  17.706  0.3717 -0.1707  0.4076
  399TMC3    C8 5968   3.071   3.759   0.316 -0.1500 -0.2048 -0.3595
  399TMC3    O1 5969   2.814   3.436   0.024 -0.4768 -0.0919 -0.5149
  399TMC3    O2 5970   3.115   3.871   0.351  0.4312 -0.1230  0.2132
  400TMC3    C1 5971   1.673   2.257  16.875  0.2449  0.4504  0.3069
  400TMC3    C2 5972   1.575   2.269  16.773 -0.3927 -0.4890  0.0656
  400TMC3    C3 5973   1.543   2.394  16.728  0.9150  0.3119  0.3302
  400TMC3    C4 5974   1.733   2.373  16.924  0.2902  0.4166  0.0343
  400TMC3    C5 5975   1.693   2.492  16.877  0.4963  1.0435 -1.0257
  400TMC3    C6 5976   1.601   2.512  16.777 -0.0079 -0.5398 -0.6875
  400TMC3     C 5977   1.685   2.131  16.944 -0.2920 -0.8042 -0.5018
  400TMC3     O 5978   1.635   2.036  16.892 -0.0010  0.4235  0.5061
  400TMC3     H 5979   1.512   2.182  16.759 -0.2503 -0.6201  0.2477
  400TMC3    H1 5980   1.812   2.369  16.998  0.5979  1.9511 -0.1976
  400TMC3    H2 5981   1.565   2.611  16.749 -1.1480 -1.2029 -1.5802
  400TMC3    C7 5982   1.782   2.601  16.904 -0.2962  0.9904  0.6974
  400TMC3    C8 5983   1.436   2.415  16.633  0.2951  0.1659  0.3523
  400TMC3    O1 5984   1.887   2.565  16.955  0.0038  0.0103  0.6133
  400TMC3    O2 5985   1.415   2.537  16.606  0.3422 -0.3791 -0.1555
  401MPD2     C 5986   4.022   0.963   0.944  0.5413 -0.2491  0.6222
  401MPD2    C1 5987   4.143   0.889   0.944 -0.1484  0.0956 -0.2407
  401MPD2    C2 5988   4.137   0.750   0.948 -0.1888  0.0417 -0.0385
  401MPD2    C3 5989   4.025   0.679   0.928 -0.0463 -0.4704 -0.8710
  401MPD2    C4 5990   3.908   0.751   0.919  0.4751  0.6561  0.3308
  401MPD2    C5 5991   3.904   0.887   0.930  0.2167 -0.2630 -0.5887
  401MPD2     H 5992   4.236   0.705   0.949  0.9752  2.5874 -1.6427
  401MPD2    H1 5993   3.810   0.705   0.913  0.4784  0.7514 -0.4614
  401MPD2    H2 5994   4.016   1.071   0.949  1.2696 -0.3561  3.6777
  401MPD2    H3 5995   3.804   0.928   0.920  0.1808 -0.3935 -0.7671
  401MPD2     N 5996   4.030   0.544   0.885 -0.1367 -0.0510  0.0498
  401MPD2    H5 5997   4.123   0.504   0.876 -0.4298 -0.6602 -0.3469
  401MPD2    N1 5998   4.267   0.954   0.964  0.4362  0.3111  0.3166
  401MPD2    H7 5999   4.348   0.894   0.976  0.5027  0.3219 -0.0956
  402TMC3    C1 6000   3.986   0.349   0.771  0.4225  0.6843  0.2079
  402TMC3    C2 6001   4.087   0.299   0.854 -0.2937 -0.1100  0.9532
  402TMC3    C3 6002   4.185   0.223   0.792  0.2115  0.7032  0.1816
  402TMC3    C4 6003   3.995   0.348   0.641 -0.5157 -0.4557  0.3231
  402TMC3    C5 6004   4.102   0.281   0.588 -0.5160 -0.0900 -0.0854
  402TMC3    C6 6005   4.195   0.211   0.656  0.6621 -0.1849 -0.4947
  402TMC3     C 6006   3.932   0.470   0.825  0.0408  0.6223 -0.4899
  402TMC3     O 6007   3.816   0.504   0.797  0.3763  0.4267  0.2155
  402TMC3     H 6008   4.075   0.324   0.959 -1.5224  3.1553  0.0518
  402TMC3    H1 6009   3.931   0.410   0.578 -1.0405  0.5710  1.8779
  402TMC3    H2 6010   4.277   0.163   0.605  0.9287  1.7486 -1.8765
  402TMC3    C7 6011   4.127   0.320   0.453  0.2961 -0.2427 -0.5781
  402TMC3    C8 6012   4.299   0.185   0.871 -0.3162 -0.6313 -0.3128
  402TMC3    O1 6013   4.032   0.365   0.383  0.5809 -0.1106  0.1246
  402TMC3    O2 6014   4.402   0.169   0.808  0.0982 -0.0751  0.0896
  403MPD2     C 6015   3.348   4.494  13.069 -0.7653 -1.4872 -0.3204
  403MPD2    C1 6016   3.304   4.463  13.192 -0.8236 -0.3892  0.8923
  403MPD2    C2 6017   3.397   4.460  13.303 -1.0674 -0.4913  0.3473
  403MPD2    C3 6018   3.533   4.475  13.282  0.3131 -0.0735  0.1697
  403MPD2    C4 6019   3.574   4.501  13.152  0.5869  0.0581  0.1278
  403MPD2    C5 6020   3.485   4.515  13.049  0.3881  0.0554  0.2413
  403MPD2     H 6021   3.364   4.440  13.404  0.5625  1.0845  1.1849
  403MPD2    H1 6022   3.680   4.504  13.131  0.9420 -0.1503  1.8462
  403MPD2    H2 6023   3.298   4.476  12.974 -0.0696 -0.7676 -0.8289
  403MPD2    H3 6024   3.523   4.534  12.950 -2.9341  0.0588 -1.0222
  403MPD2     N 6025   3.621   4.476  13.397  0.4217 -0.1836 -0.3215
  403MPD2    H5 6026   3.581   4.454  13.488 -1.4702 -2.0164 -1.5968
  403MPD2    N1 6027   3.168   4.421  13.204  0.2293  0.5145  0.2449
  403MPD2    H7 6028   3.126   4.415  13.111  0.2338  1.9474  0.1559
  404TMC3    C1 6029   2.989   4.285  13.280  0.2225  0.0544 -0.2173
  404TMC3    C2 6030   2.980   4.170  13.355 -0.3251 -0.3391 -0.6552
  404TMC3    C3 6031   2.953   4.048  13.294  0.6642  0.4200 -1.0665
  404TMC3    C4 6032   2.953   4.285  13.143 -0.1355 -0.8044 -0.8225
  404TMC3    C5 6033   2.940   4.163  13.086 -0.5814 -0.8510  0.4553
  404TMC3    C6 6034   2.944   4.042  13.156  0.2851 -0.1894  0.6844
  404TMC3     C 6035   3.106   4.370  13.312  0.0632 -0.1544  0.1001
  404TMC3     O 6036   3.158   4.358  13.421 -0.6440  0.1990 -0.4862
  404TMC3     H 6037   3.003   4.170  13.461 -0.6521  0.0008 -0.5849
  404TMC3    H1 6038   2.930   4.379  13.094 -0.2547  0.1237  1.0337
  404TMC3    H2 6039   2.938   3.945  13.108 -0.8155  0.0328  0.3522
  404TMC3    C7 6040   3.000   4.153  12.954  0.5251  0.8353 -0.0049
  404TMC3    C8 6041   2.984   3.932  13.369 -0.3655 -0.1679 -0.1622
  404TMC3    O1 6042   3.077   4.249  12.938  0.1697  0.1617  0.2267
  404TMC3    O2 6043   3.041   3.842  13.308 -0.1867  0.3712  0.2131
  405MPD2     C 6044   3.264   0.029  14.497  0.1966  0.5322 -1.1009
  405MPD2    C1 6045   3.194   4.661  14.427 -0.3317 -0.3220 -0.9547
  405MPD2    C2 6046   3.060   4.675  14.426 -1.4140 -0.3417  0.3914
  405MPD2    C3 6047   2.994   0.055  14.487 -0.4222  0.1087  0.3345
  405MPD2    C4 6048   3.060   0.148  14.550  0.7014 -0.8699  0.3967
  405MPD2    C5 6049   3.194   0.131  14.554 -0.1850 -0.4198  0.0335
  405MPD2     H 6050   2.988   4.601  14.392 -0.3097 -1.2901  0.1379
  405MPD2    H1 6051   3.012   0.227  14.607  0.6740 -0.7333  0.1817
  405MPD2    H2 6052   3.372   0.018  14.492  0.0662 -0.0451 -3.0271
  405MPD2    H3 6053   3.253   0.210  14.598  0.3482 -0.4786 -0.5703
  405MPD2     N 6054   2.856   0.051  14.453 -0.2628 -0.2177  0.2267
  405MPD2    H5 6055   2.828   4.716  14.378  0.2340 -0.2526  0.0705
  405MPD2    N1 6056   3.263   4.548  14.378 -0.4618 -0.1297 -0.7355
  405MPD2    H7 6057   3.363   4.542  14.391 -0.1393  0.2619 -3.0963
  406TMC3    C1 6058   2.378   0.090  14.397 -0.6976 -0.5966  0.1571
  406TMC3    C2 6059   2.381   4.697  14.337  0.3793 -0.6603 -0.0224
  406TMC3    C3 6060   2.501   4.628  14.320  0.7200  0.1061 -0.1545
  406TMC3    C4 6061   2.498   0.147  14.446  0.3633 -1.1034  0.4130
  406TMC3    C5 6062   2.615   0.076  14.435 -0.1990 -0.4442  0.1953
  406TMC3    C6 6063   2.615   4.674  14.373  0.6503 -0.1335  0.1119
  406TMC3     C 6064   2.270   0.176  14.391 -0.0641 -0.6260 -0.0724
  406TMC3     O 6065   2.295   0.296  14.370 -0.1191  0.2039  0.0978
  406TMC3     H 6066   2.289   4.649  14.303  0.2415 -0.0671 -0.4852
  406TMC3    H1 6067   2.500   0.242  14.498 -2.3970  0.6758 -2.7027
  406TMC3    H2 6068   2.704   4.613  14.376 -0.4445 -1.8406 -1.7692
  406TMC3    C7 6069   2.745   0.128  14.500  0.7802  0.2788 -0.2116
  406TMC3    C8 6070   2.499   4.491  14.270 -0.9285 -0.3422 -0.0594
  406TMC3    O1 6071   2.750   0.224  14.577 -0.0190 -0.5856  0.1236
  406TMC3    O2 6072   2.388   4.452  14.250 -0.1466  0.2342 -0.4456
  407MPD2     C 6073   0.437   1.438   9.409 -0.8430  0.0252  0.8190
  407MPD2    C1 6074   0.568   1.478   9.402 -0.4754  1.1287 -0.6413
  407MPD2    C2 6075   0.648   1.474   9.518 -0.3004 -0.4874  0.2924
  407MPD2    C3 6076   0.592   1.441   9.643 -0.0642 -0.0687  0.0001
  407MPD2    C4 6077   0.456   1.402   9.642 -0.2981  0.4715 -0.9669
  407MPD2    C5 6078   0.385   1.393   9.527  0.0078 -0.3531 -0.5193
  407MPD2     H 6079   0.737   1.534   9.507  0.2850 -0.9459  2.4120
  407MPD2    H1 6080   0.405   1.364   9.730 -0.4700 -1.1114 -1.7496
  407MPD2    H2 6081   0.381   1.431   9.317  1.2411 -1.5059 -0.3368
  407MPD2    H3 6082   0.289   1.343   9.522  0.0987 -0.5023 -0.7907
  407MPD2     N 6083   0.646   1.453   9.767 -0.1293  0.1606 -0.4612
  407MPD2    H5 6084   0.586   1.436   9.848  0.5460 -2.5189 -0.5184
  407MPD2    N1 6085   0.629   1.511   9.285  0.1039  0.2927 -0.5989
  407MPD2    H7 6086   0.723   1.547   9.294  0.6058 -0.7899 -1.4145
  408TMC3    C1 6087   0.670   1.534   9.052  0.3348  0.5299 -0.1052
  408TMC3    C2 6088   0.720   1.437   8.967 -0.6735  0.4237  0.3514
  408TMC3    C3 6089   0.842   1.458   8.921 -0.1316 -0.5722  0.0892
  408TMC3    C4 6090   0.737   1.651   9.081  0.3545  0.0938  0.3261
  408TMC3    C5 6091   0.847   1.679   9.007  0.3607 -0.3220 -0.3094
  408TMC3    C6 6092   0.906   1.583   8.923  0.3291 -0.8018  0.4688
  408TMC3     C 6093   0.582   1.484   9.154  0.6752  0.5495 -0.3329
  408TMC3     O 6094   0.498   1.400   9.121  0.0309 -0.8731  0.1401
  408TMC3     H 6095   0.684   1.335   8.975  2.9388 -0.6353  2.7227
  408TMC3    H1 6096   0.684   1.721   9.145 -0.5235 -0.1571 -0.1170
  408TMC3    H2 6097   0.998   1.594   8.866 -2.5189 -1.1317 -4.2068
  408TMC3    C7 6098   0.938   1.764   9.077  0.6370  0.2739 -0.0912
  408TMC3    C8 6099   0.925   1.347   8.951 -0.1238 -0.0203  0.1900
  408TMC3    O1 6100   1.053   1.733   9.064  0.6845  0.1772 -0.0211
  408TMC3    O2 6101   0.897   1.234   8.922  0.1709 -0.5448 -0.5317
  409MPD2     C 6102   0.167   2.347  16.832  0.0425  0.4116 -0.0900
  409MPD2    C1 6103   0.272   2.325  16.922  0.6446 -0.2350  0.3833
  409MPD2    C2 6104   0.402   2.372  16.894  0.0736  0.3286  0.6084
  409MPD2    C3 6105   0.434   2.425  16.769  0.0380  0.0183  0.5152
  409MPD2    C4 6106   0.329   2.434  16.682  0.0679 -0.6804  0.3274
  409MPD2    C5 6107   0.201   2.398  16.708 -0.5004  0.2607  0.3972
  409MPD2     H 6108   0.475   2.358  16.973 -0.6522 -0.2328  1.1692
  409MPD2    H1 6109   0.335   2.482  16.585 -0.0508  1.1286  1.2227
  409MPD2    H2 6110   0.067   2.329  16.868  0.4959  0.3033  1.1166
  409MPD2    H3 6111   0.119   2.417  16.640 -0.3247 -2.3706 -0.5285
  409MPD2     N 6112   0.569   2.448  16.719  0.4314  0.4933 -0.0733
  409MPD2    H5 6113   0.579   2.486  16.625 -4.8058 -0.4539 -1.0453
  409MPD2    N1 6114   0.249   2.278  17.052 -0.4001  1.0815  0.1613
  409MPD2    H7 6115   0.325   2.271  17.119 -0.0954  1.3785 -0.1538
  410TMC3    C1 6116   0.796   2.487  16.730  0.1696  0.4850  0.0135
  410TMC3    C2 6117   0.915   2.453  16.774  0.7569  0.0160  0.3436
  410TMC3    C3 6118   1.031   2.515  16.736 -0.5790  0.8649 -0.3856
  410TMC3    C4 6119   0.785   2.580  16.632  0.0982 -0.5118 -0.7339
  410TMC3    C5 6120   0.897   2.652  16.597  0.3434 -0.0028  0.9794
  410TMC3    C6 6121   1.022   2.621  16.647 -0.9306  0.1274  0.0912
  410TMC3     C 6122   0.684   2.414  16.782  0.1937  0.7270 -0.3275
  410TMC3     O 6123   0.703   2.321  16.859 -0.1107  0.4050 -0.2392
  410TMC3     H 6124   0.925   2.376  16.851  0.7339  1.7087  2.0371
  410TMC3    H1 6125   0.688   2.615  16.597 -0.3574 -1.0901 -0.0523
  410TMC3    H2 6126   1.111   2.668  16.608 -1.2986 -0.6812 -1.7247
  410TMC3    C7 6127   0.891   2.738  16.480 -0.2050 -0.0918  0.1566
  410TMC3    C8 6128   1.147   2.507  16.820  0.1189 -0.3674  0.6300
  410TMC3    O1 6129   0.959   2.836  16.479  0.2174  0.1382 -0.5271
  410TMC3    O2 6130   1.213   2.608  16.829  0.7352  0.0390  0.2435
  411MPD2     C 6131   1.116   3.025  14.448  0.3363  0.2405  0.3478
  411MPD2    C1 6132   1.041   3.074  14.555 -0.4188 -0.5256  1.0446
  411MPD2    C2 6133   0.938   2.995  14.597 -0.5822 -0.3130  0.3992
  411MPD2    C3 6134   0.908   2.874  14.541  0.5868 -0.4758 -0.2172
  411MPD2    C4 6135   1.006   2.818  14.454 -0.0390 -0.1980 -0.0900
  411MPD2    C5 6136   1.106   2.897  14.400  0.1712 -0.0348  0.5528
  411MPD2     H 6137   0.867   3.036  14.669 -2.6974 -1.1741 -1.2272
  411MPD2    H1 6138   1.000   2.718  14.413  0.2559 -0.3545  0.2478
  411MPD2    H2 6139   1.191   3.096  14.415 -1.2616  1.7118 -0.0938
  411MPD2    H3 6140   1.163   2.862  14.315  0.5022  1.0882  0.3059
  411MPD2     N 6141   0.794   2.798  14.572 -0.7455 -0.1101  0.4890
  411MPD2    H5 6142   0.796   2.702  14.541 -0.4867 -0.5002  1.6820
  411MPD2    N1 6143   1.065   3.205  14.593 -0.6456  0.6846 -0.3632
  411MPD2    H7 6144   1.133   3.262  14.543  0.1671 -0.5588 -0.6802
  412TMC3    C1 6145   0.597   2.714  14.663 -0.0232 -0.2845 -0.6746
  412TMC3    C2 6146   0.462   2.722  14.639 -0.0982 -0.2750 -0.2363
  412TMC3    C3 6147   0.391   2.605  14.650 -0.7083  0.2078  0.7467
  412TMC3    C4 6148   0.668   2.599  14.701  0.6532  0.5139 -0.6899
  412TMC3    C5 6149   0.583   2.493  14.731  0.0966  0.1201  0.2925
  412TMC3    C6 6150   0.446   2.495  14.716 -0.4079 -0.0482  0.2234
  412TMC3     C 6151   0.676   2.838  14.628 -0.6795 -0.8565 -1.0014
  412TMC3     O 6152   0.642   2.947  14.669 -0.1154 -0.2777 -0.3074
  412TMC3     H 6153   0.414   2.811  14.601 -0.2322 -0.9525 -1.6767
  412TMC3    H1 6154   0.774   2.600  14.725  0.8544  0.0867 -1.5486
  412TMC3    H2 6155   0.397   2.399  14.703 -2.2073  0.8125  0.5752
  412TMC3    C7 6156   0.630   2.360  14.712 -0.3017 -0.2300 -0.2927
  412TMC3    C8 6157   0.349   2.560  14.520  0.0587  0.5684 -0.2846
  412TMC3    O1 6158   0.592   2.271  14.791 -0.3758  0.3612  0.1505
  412TMC3    O2 6159   0.421   2.588  14.426  0.1780 -0.0846  0.1191
  413MPD2     C 6160   1.996   0.896  15.393  0.9616  0.1662 -0.2815
  413MPD2    C1 6161   1.933   0.802  15.314 -0.1058 -0.2477 -0.3523
  413MPD2    C2 6162   2.008   0.719  15.228 -0.8858 -0.0393  0.7311
  413MPD2    C3 6163   2.144   0.727  15.237  0.7938  0.0330  0.8439
  413MPD2    C4 6164   2.204   0.816  15.330 -0.6677 -0.7642 -0.3051
  413MPD2    C5 6165   2.132   0.903  15.400 -0.6202  0.0851 -0.1153
  413MPD2     H 6166   1.968   0.649  15.155 -1.2794  2.4555 -1.4316
  413MPD2    H1 6167   2.312   0.819  15.344 -0.6647 -0.2701 -0.4602
  413MPD2    H2 6168   1.934   0.965  15.449 -0.4344 -1.4308  0.1515
  413MPD2    H3 6169   2.167   0.966  15.481  1.2173  1.0207 -1.6438
  413MPD2     N 6170   2.219   0.638  15.157  0.5709 -0.2503 -0.4274
  413MPD2    H5 6171   2.172   0.572  15.097 -0.2494 -0.5515  0.5375
  413MPD2    N1 6172   1.792   0.812  15.300 -0.7840 -0.5084  0.0823
  413MPD2    H7 6173   1.752   0.886  15.357 -1.1417 -0.4873 -0.1950
  414TMC3    C1 6174   2.408   0.571  15.031 -0.9065 -0.4367 -0.2493
  414TMC3    C2 6175   2.516   0.489  15.044  0.5487 -0.6449  0.7623
  414TMC3    C3 6176   2.553   0.423  14.937 -0.0534 -0.4104 -0.2179
  414TMC3    C4 6177   2.343   0.584  14.907  0.2129 -0.1045 -0.5234
  414TMC3    C5 6178   2.387   0.508  14.799 -0.1611  1.3888  0.1619
  414TMC3    C6 6179   2.490   0.417  14.819  0.5167 -0.0215 -0.4312
  414TMC3     C 6180   2.357   0.643  15.149  0.1976 -0.1702 -0.3983
  414TMC3     O 6181   2.442   0.694  15.223  0.1491 -0.0041 -0.0644
  414TMC3     H 6182   2.555   0.474  15.144  0.4524  3.2382  1.3643
  414TMC3    H1 6183   2.257   0.646  14.886 -1.0994 -1.1027  1.8645
  414TMC3    H2 6184   2.530   0.361  14.735 -2.9560 -0.4417 -1.7842
  414TMC3    C7 6185   2.300   0.498  14.686 -0.5242 -0.3584 -0.4001
  414TMC3    C8 6186   2.680   0.351  14.945 -0.4263  1.2349 -0.6945
  414TMC3    O1 6187   2.182   0.476  14.709  0.1406 -0.3194 -0.4921
  414TMC3    O2 6188   2.685   0.244  14.886 -0.5395  0.1503 -0.0517
  415TMC3    C1 6189   2.406   3.658  10.704 -0.0037 -0.1916 -0.0353
  415TMC3    C2 6190   2.468   3.759  10.776 -0.0093  0.8036  0.0186
  415TMC3    C3 6191   2.515   3.862  10.707  0.7374  0.1992  0.1663
  415TMC3    C4 6192   2.379   3.679  10.572  0.7049 -0.5797 -0.4255
  415TMC3    C5 6193   2.414   3.798  10.509 -0.1678 -0.5780  0.5646
  415TMC3    C6 6194   2.486   3.890  10.575 -0.7230 -0.3445 -0.0497
  415TMC3     C 6195   2.322   3.560  10.775 -0.2866  0.2122  0.6276
  415TMC3     O 6196   2.286   3.455  10.726  0.2877 -0.0423 -0.0365
  415TMC3     H 6197   2.509   3.746  10.876 -0.1360 -0.5360 -0.1086
  415TMC3    H1 6198   2.322   3.602  10.522  1.0541 -2.3790  1.9921
  415TMC3    H2 6199   2.518   3.979  10.523  3.0069 -2.5772 -1.6213
  415TMC3    C7 6200   2.375   3.823  10.370 -0.4275 -0.6039 -0.0477
  415TMC3    C8 6201   2.573   3.959  10.781  0.0783  0.3368  0.2832
  415TMC3    O1 6202   2.433   3.919  10.315  0.2014 -0.0869  0.4851
  415TMC3    O2 6203   2.561   3.963  10.902  0.7993 -0.1429  0.5317
  416MPD2     C 6204   4.579   3.292  11.223 -0.7563  0.0301 -0.1899
  416MPD2    C1 6205   4.555   3.247  11.355 -0.4662 -0.0216  0.4528
  416MPD2    C2 6206   4.570   3.114  11.374  0.2044  0.8924  0.3668
  416MPD2    C3 6207   4.579   3.021  11.272 -0.2899  0.0757 -0.1205
  416MPD2    C4 6208   4.582   3.065  11.145 -0.1995  0.9064 -0.0460
  416MPD2    C5 6209   4.588   3.201  11.120 -0.0539 -0.3451 -0.4368
  416MPD2     H 6210   4.566   3.076  11.476 -1.0789 -0.2811 -0.1281
  416MPD2    H1 6211   4.603   2.998  11.062 -1.0786  0.4639  0.0781
  416MPD2    H2 6212   4.586   3.399  11.213  1.1252  0.0367  1.4027
  416MPD2    H3 6213   4.606   3.235  11.019  2.5959 -1.5711 -0.4012
  416MPD2     N 6214   4.598   2.881  11.290  0.0061  0.1938 -0.1547
  416MPD2    H5 6215   4.590   2.822  11.207  0.5161 -0.9339  0.6042
  416MPD2    N1 6216   4.533   3.346  11.452  0.1004 -0.4240 -0.0423
  416MPD2    H7 6217   4.506   3.439  11.421  0.6427 -0.5165 -0.8005
  417TMC3    C1 6218   4.460   3.423  11.662  0.3502 -0.2617  0.2676
  417TMC3    C2 6219   4.460   3.385  11.793  0.4500  0.2605  0.2888
  417TMC3    C3 6220   4.343   3.387  11.863  1.0807  0.2983 -0.3446
  417TMC3    C4 6221   4.353   3.472  11.602  0.0809 -0.3775 -0.2100
  417TMC3    C5 6222   4.243   3.475  11.674 -0.2772  0.0194 -0.3772
  417TMC3    C6 6223   4.228   3.431  11.804  0.3997 -0.0425  0.0329
  417TMC3     C 6224   4.542   3.330  11.586  0.3287  0.6063  0.0950
  417TMC3     O 6225   4.568   3.229  11.649 -0.0000  0.5554 -0.0378
  417TMC3     H 6226   4.547   3.338  11.836  1.4590  2.5722  0.7839
  417TMC3    H1 6227   4.339   3.485  11.496  3.5613  1.9524 -0.4082
  417TMC3    H2 6228   4.130   3.436  11.850  0.8418 -0.4111  1.0167
  417TMC3    C7 6229   4.123   3.505  11.592  1.0745  0.5548  0.5809
  417TMC3    C8 6230   4.324   3.335  12.001  0.3677  0.9583  0.2918
  417TMC3    O1 6231   4.133   3.597  11.513 -0.0388  0.0506  0.3407
  417TMC3    O2 6232   4.224   3.366  12.064  0.1350 -0.4273  0.5349
  418TMC3    C1 6233   2.784   4.648   0.826 -0.2238 -0.0424  0.4605
  418TMC3    C2 6234   2.665   4.670   0.761 -0.1685  0.2898  0.3141
  418TMC3    C3 6235   2.583   4.559   0.754  0.0763  0.2562  0.0090
  418TMC3    C4 6236   2.813   4.531   0.894 -0.4439  0.0008  0.2924
  418TMC3    C5 6237   2.715   4.437   0.896  0.0112  0.3730  0.0351
  418TMC3    C6 6238   2.606   4.443   0.816  0.0844 -0.1609  0.5829
  418TMC3     C 6239   2.898   4.725   0.781  0.0107 -0.3861  0.3877
  418TMC3     O 6240   2.875   0.086   0.697 -0.1738 -0.9140 -0.7134
  418TMC3     H 6241   2.646   0.026   0.693 -0.5384  0.8201  1.0612
  418TMC3    H1 6242   2.907   4.525   0.949 -1.1061 -1.0619  1.3095
  418TMC3    H2 6243   2.537   4.359   0.811  0.3139 -0.2003 -1.9189
  418TMC3    C7 6244   2.770   4.309   0.924 -1.0501  0.5609 -0.1707
  418TMC3    C8 6245   2.538   4.543   0.618 -0.4430  0.3415 -0.6999
  418TMC3    O1 6246   2.737   4.212   0.854  0.2456 -0.4205  0.8232
  418TMC3    O2 6247   2.487   4.632   0.547 -0.5345 -0.3267  0.2606
  419MPD2     C 6248   1.845   2.508  12.003 -0.0325 -0.2894 -0.2851
  419MPD2    C1 6249   1.899   2.630  12.042  0.0052 -0.4377  0.8717
  419MPD2    C2 6250   1.913   2.647  12.179  0.6176  0.2854  0.7245
  419MPD2    C3 6251   1.880   2.548  12.266 -0.1127 -0.1864 -0.5673
  419MPD2    C4 6252   1.831   2.429  12.227 -0.1004 -0.5356 -0.0792
  419MPD2    C5 6253   1.814   2.408  12.091 -0.2238 -0.7878 -0.3877
  419MPD2     H 6254   1.947   2.745  12.211  1.1724  0.4090 -0.2362
  419MPD2    H1 6255   1.818   2.347  12.296 -0.0181  0.5199  1.1990
  419MPD2    H2 6256   1.833   2.487  11.897  1.0860 -2.5852  0.0591
  419MPD2    H3 6257   1.773   2.310  12.067  0.5056 -0.7750 -1.6693
  419MPD2     N 6258   1.900   2.581  12.407 -0.3175 -0.6913 -0.1907
  419MPD2    H5 6259   1.930   2.676  12.428 -0.0992 -0.4825 -1.4436
  419MPD2    N1 6260   1.935   2.739  11.952  0.0170  0.4589  0.3015
  419MPD2    H7 6261   1.973   2.824  11.993 -0.6858 -0.3719  2.6543
  420TMC3    C1 6262   1.883   2.585  12.632 -0.7986  0.3736  0.3686
  420TMC3    C2 6263   1.820   2.711  12.640  0.3407  0.1181  0.2464
  420TMC3    C3 6264   1.791   2.764  12.758  0.2683 -0.1743  0.1823
  420TMC3    C4 6265   1.906   2.515  12.745 -0.0320 -0.1717  0.6291
  420TMC3    C5 6266   1.872   2.570  12.864  0.5104 -0.1367 -0.1327
  420TMC3    C6 6267   1.815   2.693  12.875  0.6004  0.1488 -0.0905
  420TMC3     C 6268   1.866   2.505  12.514 -0.0529  0.0670  0.4868
  420TMC3     O 6269   1.861   2.379  12.516  0.6136  0.3978  0.4149
  420TMC3     H 6270   1.780   2.759  12.551  0.5641  1.2301  0.7480
  420TMC3    H1 6271   1.939   2.412  12.741  0.5142  0.0625 -0.8782
  420TMC3    H2 6272   1.783   2.742  12.967 -1.0498 -1.8697  0.4101
  420TMC3    C7 6273   1.917   2.514  12.984  0.2639 -0.2426  0.4204
  420TMC3    C8 6274   1.699   2.871  12.762  0.4509 -0.3334  0.8227
  420TMC3    O1 6275   1.887   2.564  13.090  0.2101 -0.1872  0.2089
  420TMC3    O2 6276   1.719   2.978  12.710 -0.2498  0.1283 -0.0808
  421TMC3    C1 6277   3.811   4.457  13.523  0.0697 -0.0584  0.1417
  421TMC3    C2 6278   3.774   4.557  13.613 -0.1452 -0.1410  0.6391
  421TMC3    C3 6279   3.867   4.595  13.703  0.3729 -0.1473  0.4938
  421TMC3    C4 6280   3.928   4.385  13.529 -0.4936  0.2922 -0.0414
  421TMC3    C5 6281   4.011   4.421  13.621 -0.7781  0.0551 -0.2698
  421TMC3    C6 6282   3.990   4.521  13.709  0.5750 -0.3088 -0.4223
  421TMC3     C 6283   3.751   4.462  13.390  0.1223  0.6738 -0.2312
  421TMC3     O 6284   3.817   4.436  13.294 -0.3270  0.1960  0.0432
  421TMC3     H 6285   3.683   4.611  13.592  0.0345 -0.4161 -0.8713
  421TMC3    H1 6286   3.957   4.323  13.445 -0.9489  0.0854 -0.0462
  421TMC3    H2 6287   4.074   4.549  13.772 -1.9022  2.3787  1.6308
  421TMC3    C7 6288   4.117   4.332  13.647  0.1070  0.1208 -0.0206
  421TMC3    C8 6289   3.824   4.690  13.805  0.5175 -0.0030  0.2981
  421TMC3    O1 6290   4.213   4.372  13.712  0.0186 -0.4785  0.1024
  421TMC3    O2 6291   3.907   0.009  13.883 -0.2746 -0.3154  0.0674
  422TMC3    C1 6292   0.979   0.802  12.616  0.4263  0.5192  0.1007
  422TMC3    C2 6293   0.960   0.919  12.677  0.9568  0.1163 -0.5095
  422TMC3    C3 6294   0.851   0.937  12.742  0.3613 -0.1497 -0.0228
  422TMC3    C4 6295   0.893   0.700  12.628 -0.0937  0.8334 -0.1673
  422TMC3    C5 6296   0.774   0.720  12.696  0.2030 -0.0496 -0.1436
  422TMC3    C6 6297   0.756   0.842  12.756 -0.0081 -0.5137  0.5776
  422TMC3     C 6298   1.051   0.827  12.494  0.0349  0.1682 -0.1393
  422TMC3     O 6299   1.065   0.944  12.457  0.2264 -0.3495 -0.0535
  422TMC3     H 6300   1.031   1.000  12.674  1.5578 -0.3933 -0.0490
  422TMC3    H1 6301   0.914   0.612  12.569 -0.2409  2.1102 -2.1158
  422TMC3    H2 6302   0.665   0.864  12.811 -1.9931  0.8502 -3.3174
  422TMC3    C7 6303   0.673   0.626  12.691 -0.1800 -0.2471  0.5987
  422TMC3    C8 6304   0.800   1.071  12.764  0.4684  0.3517 -0.3944
  422TMC3    O1 6305   0.706   0.516  12.645  0.4564 -0.8026  0.2080
  422TMC3    O2 6306   0.735   1.087  12.868 -0.2708  0.2054  0.2749
  423MPD2     C 6307   3.005   1.827   0.228  0.0576 -0.6330  0.2432
  423MPD2    C1 6308   2.888   1.775   0.279 -0.0996 -0.1819 -0.2137
  423MPD2    C2 6309   2.816   1.686   0.198  0.8658  1.0866  0.1672
  423MPD2    C3 6310   2.864   1.648   0.069 -0.2214 -0.2097  0.3773
  423MPD2    C4 6311   2.981   1.700   0.023  0.0942  0.4539 -1.3448
  423MPD2    C5 6312   3.053   1.779   0.106  0.1414 -0.2631 -0.1570
  423MPD2     H 6313   2.726   1.637   0.233  1.3109  0.9193  1.0717
  423MPD2    H1 6314   3.018   1.673  17.634  2.4051  2.7722 -1.1064
  423MPD2    H2 6315   3.066   1.896   0.284 -1.9069  1.5221 -0.2397
  423MPD2    H3 6316   3.133   1.830   0.053  1.0134  1.7227  3.0874
  423MPD2     N 6317   2.786   1.559  17.693  0.8501  0.2609  0.4544
  423MPD2    H5 6318   2.819   1.542  17.599 -1.7509  0.1106 -0.4367
  423MPD2    N1 6319   2.829   1.812   0.403 -0.2528  0.1145  0.1698
  423MPD2    H7 6320   2.735   1.774   0.415  0.5823 -1.1793  2.5576
  424TMC3    C1 6321   2.794   1.928   0.599 -0.0157  0.0104  0.9095
  424TMC3    C2 6322   2.800   1.864   0.715 -0.1623  0.0811  0.3315
  424TMC3    C3 6323   2.682   1.863   0.788  0.4645 -0.2569 -0.0478
  424TMC3    C4 6324   2.682   1.978   0.542 -0.0078 -0.3233  0.5210
  424TMC3    C5 6325   2.570   1.986   0.626 -0.0875  0.0197 -0.4116
  424TMC3    C6 6326   2.565   1.924   0.755  0.2795 -0.1126 -0.1929
  424TMC3     C 6327   2.886   1.882   0.505  0.0812 -0.1217  0.4906
  424TMC3     O 6328   3.005   1.901   0.528 -0.6459  0.2125  0.3400
  424TMC3     H 6329   2.888   1.807   0.745 -1.0690 -1.7356 -0.4310
  424TMC3    H1 6330   2.690   2.022   0.443  0.8074  0.1975  0.8204
  424TMC3    H2 6331   2.473   1.904   0.807  0.0164  2.1284  0.1889
  424TMC3    C7 6332   2.452   2.012   0.558 -0.6128  0.0998 -0.3317
  424TMC3    C8 6333   2.688   1.808   0.923  0.0120 -0.4649 -0.5437
  424TMC3    O1 6334   2.456   2.004   0.434 -0.1241  0.1715  0.3716
  424TMC3    O2 6335   2.585   1.794   0.984  0.3033  0.3026  0.6755
  425MPD2     C 6336   0.990   1.002  17.315  0.4303 -0.1428  0.0106
  425MPD2    C1 6337   0.934   0.940  17.203  0.1990  1.2929 -0.1017
  425MPD2    C2 6338   0.813   0.984  17.162  0.4689 -0.2140 -0.1394
  425MPD2    C3 6339   0.741   1.082  17.234 -0.6349 -0.8512  0.4256
  425MPD2    C4 6340   0.792   1.129  17.351  0.0134 -0.1985 -0.6813
  425MPD2    C5 6341   0.917   1.083  17.389 -0.5717  0.4519 -0.3892
  425MPD2     H 6342   0.758   0.928  17.087 -1.5407 -0.0167  1.2155
  425MPD2    H1 6343   0.738   1.198  17.414 -0.3470 -2.2741  1.2643
  425MPD2    H2 6344   1.081   0.969  17.363  2.0938  0.8287 -2.5156
  425MPD2    H3 6345   0.959   1.124  17.480 -0.9086  0.9257 -0.4497
  425MPD2     N 6346   0.609   1.109  17.203  0.5811 -0.5340  0.3646
  425MPD2    H5 6347   0.568   1.057  17.126  1.2554  0.2014 -0.4858
  425MPD2    N1 6348   1.010   0.837  17.140 -0.2453  0.3408 -0.4803
  425MPD2    H7 6349   1.092   0.798  17.185 -0.3672 -1.1990 -1.5937
  426TMC3    C1 6350   1.062   0.659  16.988  0.3663 -0.7461 -0.0409
  426TMC3    C2 6351   1.064   0.637  16.856  0.3533 -0.1468 -0.2447
  426TMC3    C3 6352   1.176   0.572  16.811  0.2498 -0.5245  0.1427
  426TMC3    C4 6353   1.146   0.605  17.080  0.6810 -0.1986  0.9179
  426TMC3    C5 6354   1.251   0.528  17.033 -0.0023 -0.1757  0.2990
  426TMC3    C6 6355   1.270   0.514  16.897 -0.0095 -0.2304 -0.6540
  426TMC3     C 6356   0.976   0.775  17.022 -0.3313 -0.5319 -0.1101
  426TMC3     O 6357   0.887   0.812  16.947 -0.0240 -0.0584  0.0467
  426TMC3     H 6358   1.005   0.697  16.788  0.0961 -1.5491 -1.2699
  426TMC3    H1 6359   1.130   0.627  17.185 -2.1480 -2.7869  0.9975
  426TMC3    H2 6360   1.356   0.456  16.864  0.9406  1.2689 -0.8368
  426TMC3    C7 6361   1.362   0.501  17.125 -0.4253  0.0594  0.2658
  426TMC3    C8 6362   1.190   0.534  16.669 -0.0538  0.0020 -0.5213
  426TMC3    O1 6363   1.470   0.487  17.071 -0.2775  0.1324 -0.1466
  426TMC3    O2 6364   1.282   0.463  16.633  0.3635 -0.1435  0.4124
  427MPD2     C 6365   0.101   3.287  14.662 -0.4529 -0.1734 -0.0245
  427MPD2    C1 6366   0.051   3.173  14.718 -0.1842 -0.1695  0.1052
  427MPD2    C2 6367   4.641   3.149  14.710  0.5321  0.1723  1.1151
  427MPD2    C3 6368   4.556   3.240  14.651  0.4091 -0.7269  0.4982
  427MPD2    C4 6369   4.608   3.351  14.598 -0.7394  0.1055  0.2090
  427MPD2    C5 6370   0.020   3.378  14.602  0.2529 -0.1137  0.4912
  427MPD2     H 6371   4.609   3.065  14.770  1.8688 -2.0552 -1.3084
  427MPD2    H1 6372   4.539   3.410  14.539  1.1039 -0.7123 -2.7351
  427MPD2    H2 6373   0.208   3.300  14.656 -0.5727  0.5953 -0.3799
  427MPD2    H3 6374   0.057   3.466  14.550 -1.0946 -0.5740 -1.2250
  427MPD2     N 6375   4.416   3.224  14.620 -0.4620  0.6504 -0.8333
  427MPD2    H5 6376   4.370   3.288  14.555 -0.5236  1.3024 -0.1447
  427MPD2    N1 6377   0.132   3.071  14.778 -0.0629  1.2342  0.1710
  427MPD2    H7 6378   0.081   2.997  14.825  0.3160  1.0799  0.3382
  428TMC3    C1 6379   0.328   2.964  14.866  0.1797  0.2966 -0.1322
  428TMC3    C2 6380   0.256   2.844  14.882  0.0283 -0.3764 -0.0707
  428TMC3    C3 6381   0.289   2.763  14.985 -0.0728 -0.5369 -0.2150
  428TMC3    C4 6382   0.436   2.996  14.948 -0.1541  0.6389 -0.4654
  428TMC3    C5 6383   0.463   2.908  15.055 -0.6068  0.3148  0.1209
  428TMC3    C6 6384   0.390   2.794  15.074 -0.4506  0.1853  0.2420
  428TMC3     C 6385   0.272   3.077  14.793 -0.4761  0.2570 -0.5375
  428TMC3     O 6386   0.346   3.165  14.751 -0.0603 -0.7547  1.0186
  428TMC3     H 6387   0.172   2.813  14.821 -0.2852  0.2525  0.0380
  428TMC3    H1 6388   0.474   3.097  14.935 -1.1670  0.6340 -3.5482
  428TMC3    H2 6389   0.429   2.723  15.146 -0.5869 -1.1341 -1.0065
  428TMC3    C7 6390   0.546   2.951  15.163 -0.3141 -0.4043 -0.5846
  428TMC3    C8 6391   0.231   2.633  14.998 -0.1739 -0.0485  0.2487
  428TMC3    O1 6392   0.526   2.904  15.276  0.4812 -0.1033  0.6888
  428TMC3    O2 6393   0.116   2.614  14.963 -0.1021 -0.0542 -0.2791
  429MPD2     C 6394   1.102   3.359  17.384 -0.0338 -0.1597  0.2207
  429MPD2    C1 6395   1.162   3.257  17.309 -0.0810 -0.5524  0.4417
  429MPD2    C2 6396   1.268   3.283  17.225 -0.2610  0.5423  0.4618
  429MPD2    C3 6397   1.300   3.412  17.204  0.1821 -0.4090  0.0196
  429MPD2    C4 6398   1.253   3.515  17.278  0.3421  0.3252  1.1250
  429MPD2    C5 6399   1.147   3.491  17.366  0.1307  0.3923 -0.0852
  429MPD2     H 6400   1.318   3.203  17.171 -0.4085  2.5172 -2.5434
  429MPD2    H1 6401   1.283   3.620  17.274 -0.8244  0.5296 -2.1632
  429MPD2    H2 6402   1.015   3.345  17.448 -2.2121  1.4620 -2.3559
  429MPD2    H3 6403   1.103   3.575  17.419  1.5940  2.4147 -2.0322
  429MPD2     N 6404   1.395   3.432  17.103  0.4402 -0.1837 -1.0729
  429MPD2    H5 6405   1.426   3.347  17.057  0.2827 -1.9830  2.1167
  429MPD2    N1 6406   1.116   3.122  17.314 -0.5995  0.4904 -0.8359
  429MPD2    H7 6407   1.150   3.067  17.235  0.1620 -0.5674  0.2223
  430TMC3    C1 6408   1.531   3.541  16.926  0.1816  0.5955 -0.3902
  430TMC3    C2 6409   1.481   3.611  16.818  0.1956  0.1688 -0.0123
  430TMC3    C3 6410   1.501   3.558  16.689  0.3919 -0.6350  0.0193
  430TMC3    C4 6411   1.591   3.417  16.914  0.2030  0.2939  0.4735
  430TMC3    C5 6412   1.600   3.365  16.788 -0.1455 -0.1078  0.8980
  430TMC3    C6 6413   1.563   3.440  16.679  0.2770 -0.1047 -0.1660
  430TMC3     C 6414   1.432   3.552  17.037  0.2649  0.3217 -0.1331
  430TMC3     O 6415   1.388   3.664  17.055 -0.0889  0.3476  0.0133
  430TMC3     H 6416   1.423   3.702  16.831  0.3157  0.2225  0.1521
  430TMC3    H1 6417   1.611   3.360  17.004  1.1481  0.1917  0.1888
  430TMC3    H2 6418   1.579   3.393  16.583 -0.6369  1.6860 -1.1873
  430TMC3    C7 6419   1.668   3.239  16.770 -0.2412  0.1039 -0.6820
  430TMC3    C8 6420   1.405   3.587  16.579  0.8711  0.5700 -0.4186
  430TMC3    O1 6421   1.652   3.174  16.665  0.3242 -0.2669 -0.5223
  430TMC3    O2 6422   1.411   3.508  16.483  0.5139 -0.5456 -0.1046
  431MPD2     C 6423   2.096   3.461  12.284  0.0327 -0.1277 -0.2881
  431MPD2    C1 6424   2.189   3.452  12.176 -0.3403 -0.5074 -0.6133
  431MPD2    C2 6425   2.159   3.375  12.066 -0.5332 -0.0880 -0.2774
  431MPD2    C3 6426   2.046   3.298  12.057  0.1778 -0.4570  0.4819
  431MPD2    C4 6427   1.959   3.307  12.167 -0.2281  0.1394 -0.2943
  431MPD2    C5 6428   1.988   3.381  12.279 -0.2676  0.1538  0.0818
  431MPD2     H 6429   2.239   3.361  11.995  1.7386 -2.0696  2.6545
  431MPD2    H1 6430   1.873   3.242  12.168 -2.6303  3.3398 -0.3404
  431MPD2    H2 6431   2.116   3.517  12.374  3.0898  0.9836 -1.6708
  431MPD2    H3 6432   1.919   3.384  12.362  0.0446 -0.9486  0.3883
  431MPD2     N 6433   2.023   3.209  11.949 -0.1632 -0.2036 -1.0363
  431MPD2    H5 6434   1.932   3.164  11.953  0.5019 -1.4254  0.2603
  431MPD2    N1 6435   2.314   3.518  12.179  0.0097 -0.5143  0.3442
  431MPD2    H7 6436   2.376   3.507  12.098 -0.2441 -0.8092  0.1881
  432TMC3    C1 6437   2.031   3.088  11.747  0.3741 -0.0037  0.1100
  432TMC3    C2 6438   2.110   3.081  11.633 -0.1872 -0.7404 -0.1247
  432TMC3    C3 6439   2.136   2.956  11.586 -0.1428 -0.2628 -0.8331
  432TMC3    C4 6440   1.978   2.972  11.811  0.2096  0.0339 -0.1593
  432TMC3    C5 6441   2.005   2.850  11.763 -0.3662 -0.0188 -0.4870
  432TMC3    C6 6442   2.088   2.841  11.647 -0.2110  0.7090 -0.4319
  432TMC3     C 6443   2.081   3.197  11.828 -0.0768  1.1694 -1.0745
  432TMC3     O 6444   2.197   3.237  11.796 -1.0358  0.5587  0.2205
  432TMC3     H 6445   2.156   3.172  11.594 -0.3448 -0.3966  0.4903
  432TMC3    H1 6446   1.909   2.985  11.893 -2.3657  1.3441 -2.5296
  432TMC3    H2 6447   2.104   2.750  11.590 -0.6618  0.7110 -0.5641
  432TMC3    C7 6448   1.941   2.735  11.820  0.2262 -0.4358  0.2221
  432TMC3    C8 6449   2.274   2.941  11.539 -0.3885  0.4226  0.5512
  432TMC3    O1 6450   1.935   2.632  11.750 -0.0943  0.4158 -0.2201
  432TMC3    O2 6451   2.302   2.843  11.468 -0.1074 -0.0826 -0.0755
  433MPD2     C 6452   0.609   2.170  10.820  0.1215  0.2874  0.1630
  433MPD2    C1 6453   0.597   2.070  10.919 -0.4884  0.6024 -0.7758
  433MPD2    C2 6454   0.666   2.084  11.040  0.0823  0.0234  0.3402
  433MPD2    C3 6455   0.743   2.199  11.060 -0.1925 -0.5973 -0.4504
  433MPD2    C4 6456   0.747   2.301  10.967 -0.7541  0.5208 -0.1207
  433MPD2    C5 6457   0.682   2.282  10.847  0.5977  0.3365  0.5168
  433MPD2     H 6458   0.669   2.003  11.112  0.7525 -1.8151 -1.7369
  433MPD2    H1 6459   0.803   2.391  10.991 -2.4338  1.2724  0.9702
  433MPD2    H2 6460   0.575   2.164  10.717 -1.3745 -0.0923  0.6790
  433MPD2    H3 6461   0.697   2.349  10.763  1.3849 -0.9604 -0.3631
  433MPD2     N 6462   0.807   2.205  11.188  0.5173  0.3584 -0.8568
  433MPD2    H5 6463   0.798   2.120  11.242  0.9923  0.0384 -1.2841
  433MPD2    N1 6464   0.511   1.957  10.892 -0.7226  0.4730 -0.2942
  433MPD2    H7 6465   0.454   1.961  10.809  0.4262  0.1991 -1.0980
  434TMC3    C1 6466   0.382   1.763  10.924  0.1813 -0.1137 -0.0196
  434TMC3    C2 6467   0.342   1.662  11.003 -0.0311 -0.6751 -0.0672
  434TMC3    C3 6468   0.340   1.536  10.958 -0.1115  0.1535 -0.6194
  434TMC3    C4 6469   0.393   1.749  10.785  0.5354 -0.0312  0.1770
  434TMC3    C5 6470   0.370   1.623  10.742 -0.2665  0.5731  0.6429
  434TMC3    C6 6471   0.343   1.512  10.825 -0.2904  0.5091 -0.9642
  434TMC3     C 6472   0.469   1.868  10.981 -0.3347 -0.7260  0.2208
  434TMC3     O 6473   0.501   1.853  11.101  0.3245 -0.7305 -0.5442
  434TMC3     H 6474   0.343   1.690  11.108  0.1734 -3.6345  0.7320
  434TMC3    H1 6475   0.424   1.833  10.723 -1.0260 -0.5750 -1.3379
  434TMC3    H2 6476   0.348   1.409  10.792 -1.3848 -0.2899  1.3891
  434TMC3    C7 6477   0.383   1.615  10.600  0.1310 -0.1605  0.1267
  434TMC3    C8 6478   0.433   1.458  11.039 -0.2521  0.5288 -0.8089
  434TMC3    O1 6479   0.416   1.716  10.535  0.0114 -0.3310 -0.4236
  434TMC3    O2 6480   0.528   1.514  11.095  0.5562  0.2805  0.3898
  435MPD2     C 6481   2.491   1.954  15.427 -0.1049  0.4906 -0.6162
  435MPD2    C1 6482   2.473   1.883  15.539  0.7829  0.1662  0.1950
  435MPD2    C2 6483   2.563   1.784  15.568  0.0472  0.2005 -0.4746
  435MPD2    C3 6484   2.664   1.750  15.491 -0.5207 -0.4603 -0.1197
  435MPD2    C4 6485   2.676   1.810  15.372  0.7850  0.8123  0.0867
  435MPD2    C5 6486   2.599   1.919  15.348 -0.3709  0.0977 -0.8933
  435MPD2     H 6487   2.564   1.740  15.667 -1.1655  1.0159 -0.0993
  435MPD2    H1 6488   2.758   1.788  15.304  0.0981  0.0517 -0.4860
  435MPD2    H2 6489   2.425   2.035  15.399 -1.7260  0.2178  2.3542
  435MPD2    H3 6490   2.613   1.978  15.258  1.7824  1.3488  0.2747
  435MPD2     N 6491   2.753   1.654  15.541  0.1716  0.2257 -0.2528
  435MPD2    H5 6492   2.729   1.612  15.630  2.8060 -0.6794  0.0240
  435MPD2    N1 6493   2.365   1.893  15.632 -0.2760 -0.5182  0.1575
  435MPD2    H7 6494   2.357   1.826  15.707  0.7592 -0.9647 -0.1354
  436TMC3    C1 6495   2.143   2.074  15.964  0.8906 -0.3859 -0.4476
  436TMC3    C2 6496   2.190   2.090  15.833 -0.3954  0.0056 -0.3277
  436TMC3    C3 6497   2.186   1.981  15.747 -0.4240 -0.3919 -0.9294
  436TMC3    C4 6498   2.093   1.947  15.999  0.8737 -0.1154  0.0829
  436TMC3    C5 6499   2.094   1.842  15.907 -0.3815  0.1630  0.1191
  436TMC3    C6 6500   2.131   1.859  15.776 -0.0858  0.3869  0.1041
  436TMC3     C 6501   2.205   2.153  16.060 -0.4458  0.1747 -0.2270
  436TMC3     O 6502   2.324   2.179  16.052 -0.0009 -0.2993 -0.8943
  436TMC3     H 6503   2.246   2.181  15.816  1.0654 -0.5614  1.4265
  436TMC3    H1 6504   2.048   1.945  16.098 -2.4299 -0.7801 -1.4220
  436TMC3    H2 6505   2.128   1.780  15.701  1.0814  0.2219  0.2276
  436TMC3    C7 6506   2.013   1.725  15.957  0.2791  0.7244 -0.3069
  436TMC3    C8 6507   2.261   1.986  15.627  0.2011  0.2096 -0.6804
  436TMC3    O1 6508   1.990   1.736  16.074 -0.0407 -0.4409 -0.0101
  436TMC3    O2 6509   2.245   2.081  15.550 -1.1487 -0.8289  0.7974
  437TMC3    C1 6510   1.603   4.303  11.984  0.2500 -0.0980  0.2450
  437TMC3    C2 6511   1.571   4.388  11.886  0.2236  0.2954  0.4474
  437TMC3    C3 6512   1.665   4.399  11.786  0.2698 -0.4577  0.3690
  437TMC3    C4 6513   1.732   4.253  12.001 -0.4019  0.4194 -0.2823
  437TMC3    C5 6514   1.819   4.271  11.901  0.2582 -0.3419  0.0594
  437TMC3    C6 6515   1.794   4.356  11.795  0.3903 -0.2030 -0.1732
  437TMC3     C 6516   1.498   4.258  12.063 -0.3277  0.0429  1.0420
  437TMC3     O 6517   1.399   4.333  12.070 -0.2137  0.3263  0.5520
  437TMC3     H 6518   1.469   4.417  11.866  0.6448  0.3388 -1.6506
  437TMC3    H1 6519   1.767   4.207  12.092 -1.6437 -0.4026 -0.2175
  437TMC3    H2 6520   1.864   4.384  11.718  0.0254 -1.2837 -0.8954
  437TMC3    C7 6521   1.938   4.211  11.926  0.1455 -0.4156  0.2553
  437TMC3    C8 6522   1.633   4.517  11.711  0.1073 -0.0332 -0.3096
  437TMC3    O1 6523   1.945   4.114  11.997  0.4733  0.6716  0.3409
  437TMC3    O2 6524   1.570   4.601  11.776 -0.1397  0.4596 -0.0548
  438MPD2     C 6525   3.953   4.151  16.874  0.4726  0.2741 -0.2782
  438MPD2    C1 6526   3.994   4.036  16.929 -0.8449  0.7009 -0.7671
  438MPD2    C2 6527   3.962   4.018  17.060 -0.0474  0.3439 -0.2990
  438MPD2    C3 6528   3.891   4.113  17.131 -0.5604  0.3725 -0.7298
  438MPD2    C4 6529   3.850   4.224  17.065  0.5343 -0.1123  0.4270
  438MPD2    C5 6530   3.879   4.245  16.941 -0.8489 -0.0473  0.0332
  438MPD2     H 6531   3.999   3.937  17.121 -0.9240  0.1698 -0.0119
  438MPD2    H1 6532   3.799   4.306  17.116  0.0465 -0.1941  0.0708
  438MPD2    H2 6533   3.965   4.173  16.768  2.1629 -1.1863 -0.3898
  438MPD2    H3 6534   3.832   4.327  16.888 -0.5371  0.7759  1.0244
  438MPD2     N 6535   3.870   4.096  17.268 -0.6730 -0.8111 -0.5431
  438MPD2    H5 6536   3.905   4.009  17.307 -0.3864 -0.7134 -0.5844
  438MPD2    N1 6537   4.081   3.941  16.868 -0.4025  0.4182  0.5652
  438MPD2    H7 6538   4.127   3.876  16.930  0.8200  1.2349  0.5206
  439TMC3    C1 6539   4.223   3.837  16.715 -0.6245  0.5157  0.6022
  439TMC3    C2 6540   4.213   3.780  16.590  0.4658  0.0598  0.2127
  439TMC3    C3 6541   4.273   3.657  16.569  0.0555  0.0468 -0.1503
  439TMC3    C4 6542   4.285   3.782  16.817 -0.1986 -0.3141 -0.2159
  439TMC3    C5 6543   4.342   3.655  16.793  0.2499 -0.5848 -0.3545
  439TMC3    C6 6544   4.338   3.594  16.670  0.7998  0.1242  0.1481
  439TMC3     C 6545   4.124   3.943  16.734  0.8091 -0.0376  0.4407
  439TMC3     O 6546   4.084   4.010  16.640 -0.3626  0.4716  0.7000
  439TMC3     H 6547   4.172   3.843  16.511  2.5155  1.2964  0.1251
  439TMC3    H1 6548   4.316   3.839  16.904 -1.3000  1.4336 -0.9898
  439TMC3    H2 6549   4.389   3.500  16.652 -0.3730 -0.5790  0.5120
  439TMC3    C7 6550   4.450   3.602  16.876  0.1351  0.4480 -0.7156
  439TMC3    C8 6551   4.327   3.626  16.436 -0.0696  0.4156 -0.2534
  439TMC3    O1 6552   4.534   3.535  16.821  0.5288 -0.1066  0.3483
  439TMC3    O2 6553   4.422   3.548  16.424 -0.0278  0.5913 -0.2870
  440MPD2     C 6554   2.496   4.511  14.630 -0.5545  0.0454 -0.6073
  440MPD2    C1 6555   2.545   4.600  14.719  0.3527 -0.0890 -0.8574
  440MPD2    C2 6556   2.680   4.609  14.748 -0.0797  0.8974 -0.4712
  440MPD2    C3 6557   2.760   4.505  14.697 -0.5691 -0.4577 -0.8857
  440MPD2    C4 6558   2.702   4.407  14.618 -0.0401 -0.2789 -0.1305
  440MPD2    C5 6559   2.571   4.414  14.574  0.0728  0.0790  0.2068
  440MPD2     H 6560   2.722   4.685  14.813 -1.7395  0.2951  1.3058
  440MPD2    H1 6561   2.767   4.326  14.587 -1.5251 -1.1312 -1.0554
  440MPD2    H2 6562   2.392   4.513  14.597 -0.7589  1.1319  0.1053
  440MPD2    H3 6563   2.523   4.335  14.517  2.0407  0.4131 -1.9013
  440MPD2     N 6564   2.900   4.509  14.727 -0.2202 -0.4476 -0.1663
  440MPD2    H5 6565   2.931   4.569  14.804 -0.7424  0.0032 -0.3040
  440MPD2    N1 6566   2.467   4.691  14.788 -0.4002  0.0377 -0.3659
  440MPD2    H7 6567   2.515   0.014  14.862 -0.6695  2.0527 -1.5478
  441TMC3    C1 6568   3.122   4.465  14.761  0.0766  0.1242  0.0376
  441TMC3    C2 6569   3.140   4.598  14.763  0.2059  0.2747  0.0464
  441TMC3    C3 6570   3.256   4.639  14.825 -0.5144 -0.1601 -0.2313
  441TMC3    C4 6571   3.199   4.376  14.824 -0.5086  0.5520  0.0957
  441TMC3    C5 6572   3.298   4.429  14.902  0.8985  0.4549  0.0133
  441TMC3    C6 6573   3.336   4.562  14.908  0.3947 -0.3158 -0.3391
  441TMC3     C 6574   2.997   4.420  14.703 -0.2228  0.1632 -0.2097
  441TMC3     O 6575   2.999   4.316  14.638 -0.0589  0.2479  0.4253
  441TMC3     H 6576   3.077   4.670  14.712  1.1051 -1.2282 -3.2184
  441TMC3    H1 6577   3.166   4.273  14.834 -1.6663  0.7897 -1.1899
  441TMC3    H2 6578   3.412   4.601  14.975 -1.1769  0.8883  0.7401
  441TMC3    C7 6579   3.311   4.370  15.035 -0.5885  0.5671 -0.4059
  441TMC3    C8 6580   3.265   0.053  14.848 -0.1490  1.0500 -0.0631
  441TMC3    O1 6581   3.412   4.328  15.086 -0.6109 -0.2363  0.6375
  441TMC3    O2 6582   3.371   0.115  14.847  0.2136 -0.7462  0.0380
  442MPD2     C 6583   0.735   0.339  16.426  0.5541 -0.3084  0.1009
  442MPD2    C1 6584   0.601   0.312  16.394 -0.2198 -0.4967  0.0457
  442MPD2    C2 6585   0.580   0.198  16.309 -0.4268  0.0957  0.1074
  442MPD2    C3 6586   0.689   0.152  16.230  0.1650  0.3041 -0.0227
  442MPD2    C4 6587   0.818   0.201  16.242 -0.2234 -0.3882  0.6994
  442MPD2    C5 6588   0.836   0.293  16.350  0.1389 -0.2091  0.7785
  442MPD2     H 6589   0.481   0.157  16.295 -1.4937  2.2020  1.3991
  442MPD2    H1 6590   0.907   0.169  16.189  0.1936 -1.1998  1.8678
  442MPD2    H2 6591   0.756   0.403  16.511 -2.9560 -0.9274  1.4146
  442MPD2    H3 6592   0.937   0.324  16.374  0.5184 -0.6783 -0.2208
  442MPD2     N 6593   0.676   0.048  16.137 -0.0760  0.5432 -0.2182
  442MPD2    H5 6594   0.764   0.031  16.089  0.1725 -1.2024  0.8799
  442MPD2    N1 6595   0.489   0.367  16.457 -0.0245  0.5648 -0.4320
  442MPD2    H7 6596   0.397   0.328  16.443 -0.5180  1.2742  0.8315
  443TMC3    C1 6597   0.364   0.549  16.549 -0.2614  0.0822  0.3354
  443TMC3    C2 6598   0.351   0.680  16.513  0.1787  0.3251 -0.8791
  443TMC3    C3 6599   0.221   0.731  16.531  0.6605  0.1534  0.2401
  443TMC3    C4 6600   0.261   0.469  16.592 -0.3561 -0.2375 -0.4593
  443TMC3    C5 6601   0.148   0.532  16.622 -0.1495 -0.0749 -0.0668
  443TMC3    C6 6602   0.125   0.669  16.602 -0.0438  0.5555 -0.0701
  443TMC3     C 6603   0.489   0.477  16.533 -0.0945 -0.3042  0.2774
  443TMC3     O 6604   0.580   0.530  16.589 -0.2284 -0.1527  0.6286
  443TMC3     H 6605   0.422   0.739  16.456  0.7069 -0.6864 -1.2720
  443TMC3    H1 6606   0.284   0.368  16.622  2.2712  0.2153 -0.9471
  443TMC3    H2 6607   0.029   0.715  16.622 -0.0827 -0.5904  2.4622
  443TMC3    C7 6608   0.030   0.452  16.637 -0.7607  0.5904 -0.2226
  443TMC3    C8 6609   0.197   0.851  16.459  0.6058 -0.2779  0.3203
  443TMC3    O1 6610   0.022   0.337  16.592 -0.3601  0.1082  0.1476
  443TMC3    O2 6611   0.290   0.928  16.465  0.1006 -0.0552  0.7195
  444MPD2     C 6612   1.102   0.177  16.524  0.4019  0.6731  0.4033
  444MPD2    C1 6613   1.021   0.066  16.539 -0.1408  0.0165  0.5728
  444MPD2    C2 6614   1.065   4.670  16.480 -0.1658  0.1799  0.5763
  444MPD2    C3 6615   1.187   4.656  16.411  0.3271 -0.1721 -0.3223
  444MPD2    C4 6616   1.266   0.041  16.394  0.3687 -0.0770 -0.1205
  444MPD2    C5 6617   1.217   0.162  16.452  0.2964 -0.2586  0.3480
  444MPD2     H 6618   1.007   4.581  16.502  1.2396 -0.8367  0.2277
  444MPD2    H1 6619   1.363   0.029  16.348 -0.4969 -0.7693 -1.7678
  444MPD2    H2 6620   1.078   0.275  16.564 -0.0289 -0.0731  1.9650
  444MPD2    H3 6621   1.285   0.247  16.447 -1.4048  1.0183 -1.3240
  444MPD2     N 6622   1.230   4.526  16.370 -0.2642  0.0094 -0.9317
  444MPD2    H5 6623   1.163   4.449  16.377  1.3724 -1.7070 -4.0201
  444MPD2    N1 6624   0.914   0.057  16.632 -0.0298 -0.7582 -0.3466
  444MPD2    H7 6625   0.874   4.692  16.646 -1.9719  0.1983  0.3962
  445TMC3    C1 6626   1.365   4.360  16.275 -0.1326  0.4555  0.1920
  445TMC3    C2 6627   1.255   4.308  16.224  0.4991  0.5573 -0.6418
  445TMC3    C3 6628   1.274   4.221  16.126  0.2302 -0.6812 -0.3814
  445TMC3    C4 6629   1.489   4.323  16.236 -0.4292 -0.4127  0.0524
  445TMC3    C5 6630   1.499   4.221  16.149  0.1626  0.0158  0.2225
  445TMC3    C6 6631   1.393   4.171  16.091 -0.0785 -0.0964 -0.2148
  445TMC3     C 6632   1.357   4.489  16.330  0.2749 -0.0400  0.2881
  445TMC3     O 6633   1.461   4.550  16.312 -0.5293  0.4847 -0.2475
  445TMC3     H 6634   1.154   4.342  16.244  1.4322  1.8522  1.7995
  445TMC3    H1 6635   1.579   4.366  16.278 -2.4697  1.7790  2.1561
  445TMC3    H2 6636   1.401   4.110  16.002 -1.7829 -0.5422 -0.0621
  445TMC3    C7 6637   1.633   4.181  16.102 -0.5283  0.0408  0.3612
  445TMC3    C8 6638   1.157   4.169  16.059 -0.4191 -0.3196 -0.1069
  445TMC3    O1 6639   1.726   4.259  16.129 -0.2500 -0.1905  0.1767
  445TMC3    O2 6640   1.059   4.239  16.070 -0.3458  0.2858  0.7128
  446MPD2     C 6641   0.631   1.311  11.564 -0.3069  0.2284  0.2734
  446MPD2    C1 6642   0.534   1.343  11.468  0.3991  1.2345  0.0172
  446MPD2    C2 6643   0.549   1.457  11.391  0.0934 -0.2056 -0.3112
  446MPD2    C3 6644   0.665   1.539  11.399 -0.1514  0.1837  0.1282
  446MPD2    C4 6645   0.755   1.509  11.489  0.6766 -0.3733  0.2785
  446MPD2    C5 6646   0.739   1.396  11.573 -0.0632 -0.0152  0.3199
  446MPD2     H 6647   0.473   1.468  11.314  1.3725  1.3854 -1.3568
  446MPD2    H1 6648   0.858   1.542  11.488  0.1917  1.1181 -0.2246
  446MPD2    H2 6649   0.630   1.218  11.621 -1.4588 -1.1617 -2.0149
  446MPD2    H3 6650   0.818   1.365  11.640 -0.1518 -0.8566  0.0289
  446MPD2     N 6651   0.689   1.635  11.298  0.5650 -0.3191 -0.2174
  446MPD2    H5 6652   0.633   1.612  11.217  0.3801 -1.2759  0.1902
  446MPD2    N1 6653   0.417   1.267  11.433  0.5554  0.9578  0.1328
  446MPD2    H7 6654   0.349   1.312  11.373 -0.2905 -0.2575  0.1824
  447TMC3    C1 6655   0.840   1.773  11.169  0.3905 -0.3934  0.2556
  447TMC3    C2 6656   0.780   1.722  11.051 -0.3254 -0.8626 -0.2124
  447TMC3    C3 6657   0.852   1.729  10.933  0.7505  0.2779 -0.4925
  447TMC3    C4 6658   0.964   1.827  11.168 -1.1719  0.2106  0.2265
  447TMC3    C5 6659   1.032   1.830  11.044 -0.3645  0.2185 -0.5564
  447TMC3    C6 6660   0.973   1.786  10.933 -0.2247  0.1959 -0.0641
  447TMC3     C 6661   0.788   1.724  11.299 -0.6609  1.2098 -0.1908
  447TMC3     O 6662   0.849   1.762  11.398  1.1066  0.2586  0.3769
  447TMC3     H 6663   0.680   1.681  11.048 -1.8359  2.8519 -0.0119
  447TMC3    H1 6664   0.998   1.862  11.265  1.1521 -2.5013  0.4105
  447TMC3    H2 6665   1.027   1.802  10.840  0.7702  0.2003  0.5140
  447TMC3    C7 6666   1.174   1.830  11.038  0.8718 -0.2029  0.1087
  447TMC3    C8 6667   0.793   1.672  10.816  0.0195  0.5853  0.6309
  447TMC3    O1 6668   1.225   1.805  10.929  0.5353  0.1677 -0.4845
  447TMC3    O2 6669   0.814   1.737  10.714  0.0562 -0.2044  0.3781
  448TMC3    C1 6670   3.699   0.833  17.111  0.0721 -0.4530 -0.4594
  448TMC3    C2 6671   3.637   0.708  17.115  0.1454 -0.1272  0.1194
  448TMC3    C3 6672   3.719   0.602  17.125 -0.6144  0.4766  0.5701
  448TMC3    C4 6673   3.831   0.849  17.127 -0.4660 -1.1470  0.2656
  448TMC3    C5 6674   3.911   0.738  17.146  0.2205 -0.2926  0.4067
  448TMC3    C6 6675   3.857   0.612  17.146  0.1870  0.0349  0.4268
  448TMC3     C 6676   3.606   0.942  17.119  0.1807  0.1633 -0.4381
  448TMC3     O 6677   3.489   0.915  17.121  0.2007  0.1973 -0.2462
  448TMC3     H 6678   3.531   0.697  17.096 -0.2856  4.2587 -0.0975
  448TMC3    H1 6679   3.876   0.947  17.120 -2.0981 -0.3429  1.0601
  448TMC3    H2 6680   3.913   0.521  17.163  2.3388  1.2145 -0.4542
  448TMC3    C7 6681   4.056   0.760  17.159  0.4288 -0.4684 -0.1474
  448TMC3    C8 6682   3.684   0.474  17.066 -0.4596 -0.7578  0.8094
  448TMC3    O1 6683   4.100   0.871  17.132 -0.2788 -0.1791  0.0142
  448TMC3    O2 6684   3.762   0.381  17.088 -0.3185 -0.0866 -0.3648
  449MPD2     C 6685   0.924   0.132  13.680 -0.5447 -0.1139  0.0942
  449MPD2    C1 6686   0.871   0.050  13.584 -0.4171  0.0402 -0.0063
  449MPD2    C2 6687   0.857   4.648  13.610 -0.0465 -1.0330 -0.6193
  449MPD2    C3 6688   0.874   4.596  13.732 -0.4003 -0.6464  0.0580
  449MPD2    C4 6689   0.925   4.675  13.834 -0.1256 -0.2243 -0.6373
  449MPD2    C5 6690   0.941   0.083  13.806  0.4604 -0.3276  0.2777
  449MPD2     H 6691   0.796   4.587  13.544 -0.7869 -0.9313 -0.0276
  449MPD2    H1 6692   0.940   4.642  13.937  0.9306 -0.5765 -0.9082
  449MPD2    H2 6693   0.936   0.238  13.663 -1.2682  0.6271  4.2568
  449MPD2    H3 6694   0.979   0.154  13.878  1.3047 -0.9000  0.3892
  449MPD2     N 6695   0.832   4.464  13.743 -0.0054  0.0028 -0.4096
  449MPD2    H5 6696   0.793   4.426  13.658  0.4076 -1.5151  0.0850
  449MPD2    N1 6697   0.832   0.087  13.452 -0.3444 -0.5709 -0.4974
  449MPD2    H7 6698   0.792   0.015  13.393  1.3814 -0.4376 -1.8028
  450TMC3    C1 6699   0.813   0.193  13.258 -0.3609 -0.5152  0.0250
  450TMC3    C2 6700   0.914   0.159  13.174  0.0480 -0.5998  0.1587
  450TMC3    C3 6701   0.900   0.056  13.086 -0.1389  0.1143  0.1692
  450TMC3    C4 6702   0.695   0.120  13.253  0.1025 -0.7993 -0.5025
  450TMC3    C5 6703   0.686   0.014  13.166  0.2102  0.4828  0.2942
  450TMC3    C6 6704   0.788   4.705  13.085 -0.5530  0.4685  0.0884
  450TMC3     C 6705   0.856   0.211  13.392 -0.1124 -0.0353 -0.0784
  450TMC3     O 6706   0.943   0.294  13.413  0.4742  0.0028  0.8117
  450TMC3     H 6707   0.984   0.239  13.152 -0.7719 -0.1476 -0.7987
  450TMC3    H1 6708   0.614   0.146  13.320 -1.2680 -0.6656 -2.2395
  450TMC3    H2 6709   0.774   4.627  13.011 -1.2990  0.6392  0.0578
  450TMC3    C7 6710   0.611   4.631  13.230 -0.3793 -0.5338 -0.2025
  450TMC3    C8 6711   0.956   0.087  12.956  0.3946  0.0639  0.2482
  450TMC3    O1 6712   0.604   4.651  13.351  0.2786  0.1911 -0.2954
  450TMC3    O2 6713   0.963   0.208  12.925  0.6653  0.0213 -0.1088
  451MPD2     C 6714   2.591   3.370   1.450  0.1169 -0.3573  0.0884
  451MPD2    C1 6715   2.525   3.338   1.329  0.1490  0.5157 -0.6852
  451MPD2    C2 6716   2.547   3.226   1.254 -0.2719 -0.3503  0.1315
  451MPD2    C3 6717   2.638   3.131   1.299  0.4211 -0.8998  0.6763
  451MPD2    C4 6718   2.697   3.156   1.420  0.7951 -0.0687 -0.0915
  451MPD2    C5 6719   2.680   3.273   1.492  0.8802 -0.3996 -0.7311
  451MPD2     H 6720   2.480   3.205   1.172  0.9295  2.8098 -1.6875
  451MPD2    H1 6721   2.767   3.088   1.467  0.5723 -0.1200  0.1649
  451MPD2    H2 6722   2.591   3.466   1.500  1.9477  0.1795 -0.9162
  451MPD2    H3 6723   2.735   3.295   1.582  1.0526 -0.0198 -0.9263
  451MPD2     N 6724   2.671   3.009   1.238 -0.4743 -0.4442 -0.2484
  451MPD2    H5 6725   2.750   2.957   1.275  0.5553  0.1218 -1.6203
  451MPD2    N1 6726   2.456   3.450   1.281  0.1321  0.5185 -0.1539
  451MPD2    H7 6727   2.462   3.533   1.340 -0.5637  1.1288 -0.9576
  452TMC3    C1 6728   2.682   2.850   1.069  0.5741 -0.7364 -0.1543
  452TMC3    C2 6729   2.697   2.747   1.161 -0.2652  0.4439  0.3521
  452TMC3    C3 6730   2.687   2.625   1.098  0.0556  0.0764  0.4995
  452TMC3    C4 6731   2.661   2.834   0.933 -0.8940  0.1605  0.3378
  452TMC3    C5 6732   2.647   2.708   0.886 -0.2284  0.1662  1.4396
  452TMC3    C6 6733   2.667   2.603   0.965 -1.0849  0.8863 -0.4940
  452TMC3     C 6734   2.626   2.971   1.113 -0.7038 -0.5151 -0.7419
  452TMC3     O 6735   2.553   3.032   1.041  0.0554  0.6864  0.0983
  452TMC3     H 6736   2.673   2.765   1.265  0.5992 -1.7370  0.9372
  452TMC3    H1 6737   2.638   2.920   0.870 -0.5328 -0.3820 -0.5266
  452TMC3    H2 6738   2.664   2.502   0.927  0.9356  1.2818 -1.6548
  452TMC3    C7 6739   2.627   2.692   0.739  0.1319 -0.0055 -0.4115
  452TMC3    C8 6740   2.667   2.504   1.183 -0.5433 -0.0636  0.2401
  452TMC3    O1 6741   2.636   2.790   0.664  0.4361  0.4284  0.1928
  452TMC3    O2 6742   2.595   2.416   1.136  0.2556  0.3002  0.3768
  453TMC3    C1 6743   2.809   0.502  11.791 -0.3984 -0.5594  0.3148
  453TMC3    C2 6744   2.727   0.407  11.849  1.0821  0.6076 -0.7509
  453TMC3    C3 6745   2.648   0.328  11.767  0.4265  0.0548  0.3192
  453TMC3    C4 6746   2.809   0.518  11.652  0.0822 -0.2864 -0.0306
  453TMC3    C5 6747   2.715   0.448  11.583  0.6916 -0.1696  0.5505
  453TMC3    C6 6748   2.642   0.341  11.633 -0.3588 -0.0885  0.3509
  453TMC3     C 6749   2.913   0.562  11.867 -0.3325  0.0921 -0.3038
  453TMC3     O 6750   2.990   0.634  11.803  0.1476  0.3067  0.1743
  453TMC3     H 6751   2.731   0.374  11.952 -1.2424  1.7900 -0.2763
  453TMC3    H1 6752   2.877   0.585  11.601 -0.3060  0.7600  0.8464
  453TMC3    H2 6753   2.601   0.265  11.568 -2.2862  0.3922  1.0133
  453TMC3    C7 6754   2.692   0.494  11.450  0.2032 -0.7564 -0.2762
  453TMC3    C8 6755   2.621   0.194  11.822  0.1543  0.0653  0.0010
  453TMC3    O1 6756   2.794   0.522  11.387 -0.3827 -0.0948  0.0292
  453TMC3    O2 6757   2.590   0.195  11.939 -0.8467 -0.2467 -0.1711
  454MPD2     C 6758   1.922   4.520  15.654  0.4066 -0.6219  0.1709
  454MPD2    C1 6759   1.795   4.568  15.623  0.8262 -0.0111  0.3458
  454MPD2    C2 6760   1.743   4.660  15.708 -0.2422  0.6079 -1.0738
  454MPD2    C3 6761   1.814   4.703  15.820 -0.4178 -0.0916  0.5386
  454MPD2    C4 6762   1.929   4.643  15.851 -0.0034  0.0897 -0.0440
  454MPD2    C5 6763   1.981   4.553  15.764 -0.4924  0.7406  0.2433
  454MPD2     H 6764   1.645   4.699  15.683 -0.4451  0.0010 -1.2089
  454MPD2    H1 6765   1.979   4.661  15.945 -0.2945  0.1948  0.0900
  454MPD2    H2 6766   1.970   4.455  15.581  0.5640 -1.3143  0.8896
  454MPD2    H3 6767   2.079   4.518  15.793 -0.5671  0.5411  0.2580
  454MPD2     N 6768   1.757   0.052  15.926  0.0252  0.2138  0.0067
  454MPD2    H5 6769   1.796   0.033  16.018 -1.2656 -2.7858 -0.0467
  454MPD2    N1 6770   1.721   4.533  15.506  0.1130 -0.4080 -0.2039
  454MPD2    H7 6771   1.632   4.582  15.497 -0.7194 -1.1975  3.6381
  455TMC3    C1 6772   1.598   0.176  16.042 -0.3733 -0.0271 -0.0618
  455TMC3    C2 6773   1.511   0.290  16.037  0.7209 -0.7756 -0.4295
  455TMC3    C3 6774   1.377   0.267  16.065  0.0667  0.0460  0.5812
  455TMC3    C4 6775   1.548   0.056  16.089 -0.2889 -0.6735 -0.2989
  455TMC3    C5 6776   1.414   0.034  16.096 -0.4451  0.3552  0.2290
  455TMC3    C6 6777   1.328   0.141  16.089 -1.1639 -0.2483  0.5838
  455TMC3     C 6778   1.669   0.152  15.916  0.0570 -0.2876  0.8345
  455TMC3     O 6779   1.624   0.211  15.816  0.6940 -0.2769  0.6312
  455TMC3     H 6780   1.547   0.390  16.016  1.5745 -1.6662 -3.2765
  455TMC3    H1 6781   1.622   4.710  16.120 -0.0464 -1.3230 -2.4083
  455TMC3    H2 6782   1.221   0.122  16.096 -0.7817 -2.3402  0.6294
  455TMC3    C7 6783   1.365   4.648  16.016 -0.2489  0.1644  0.0052
  455TMC3    C8 6784   1.338   0.353  16.172 -0.4205 -0.4871  0.5364
  455TMC3    O1 6785   1.243   4.622  16.011 -0.2087  0.2225 -0.3084
  455TMC3    O2 6786   1.394   0.319  16.274  0.1661  0.1225 -0.2847
  456MPD2     C 6787   3.967   4.461  15.843  0.1373 -0.1738 -0.5388
  456MPD2    C1 6788   4.039   4.375  15.929  0.3316 -0.0544 -0.2572
  456MPD2    C2 6789   4.028   4.385  16.069  0.1019  0.4274  0.4032
  456MPD2    C3 6790   3.939   4.478  16.122  0.2841  0.0055 -0.0257
  456MPD2    C4 6791   3.867   4.561  16.038  1.0679  0.7572 -0.8305
  456MPD2    C5 6792   3.881   4.547  15.902  0.8273  0.2783 -0.0027
  456MPD2     H 6793   4.084   4.328  16.142 -2.0753 -0.7151  1.1903
  456MPD2    H1 6794   3.815   4.648  16.075  1.2012 -0.6005  2.5658
  456MPD2    H2 6795   3.971   4.452  15.735  0.6780 -1.3779 -0.4220
  456MPD2    H3 6796   3.822   4.604  15.831 -0.0638  0.9079  1.2367
  456MPD2     N 6797   3.948   4.501  16.265  0.1733  0.1852  0.0028
  456MPD2    H5 6798   4.024   4.455  16.315  1.5682  2.1310 -0.3436
  456MPD2    N1 6799   4.124   4.278  15.860  0.8221 -0.1257  0.2842
  456MPD2    H7 6800   4.131   4.286  15.759  0.3797  0.4367  0.3013
  457TMC3    C1 6801   3.885   4.568  16.491 -0.4073  0.5153 -0.3932
  457TMC3    C2 6802   3.807   4.644  16.571 -0.1608 -0.4722  0.4651
  457TMC3    C3 6803   3.828   4.642  16.704 -0.0540 -0.1307 -0.8832
  457TMC3    C4 6804   3.989   4.493  16.544  0.0471  0.4227  0.8538
  457TMC3    C5 6805   4.012   4.496  16.680  0.7611  0.5746  0.4369
  457TMC3    C6 6806   3.933   4.569  16.760 -1.0747 -0.0943 -0.4821
  457TMC3     C 6807   3.857   4.574  16.342 -0.5605 -0.0830  0.3715
  457TMC3     O 6808   3.754   4.625  16.313 -0.1188 -0.1682  0.4022
  457TMC3     H 6809   3.725   4.698  16.527 -0.0849  0.4658  1.4868
  457TMC3    H1 6810   4.061   4.441  16.482  1.1014  1.2842  1.3576
  457TMC3    H2 6811   3.973   4.588  16.859 -0.8277 -1.1256 -0.3899
  457TMC3    C7 6812   4.140   4.446  16.730  0.2933 -0.0225  0.1722
  457TMC3    C8 6813   3.765   0.021  16.782  0.8667  0.7643 -0.1940
  457TMC3    O1 6814   4.175   4.479  16.843  0.0521 -0.3267 -0.0776
  457TMC3    O2 6815   3.834   0.070  16.869  0.4893 -0.9923 -0.4907
  458MPD2     C 6816   2.452   4.197  11.877 -0.8839  0.4820  0.7471
  458MPD2    C1 6817   2.368   4.148  11.974 -0.1737 -0.4520  0.4046
  458MPD2    C2 6818   2.231   4.173  11.970  0.3543  0.6187 -0.4316
  458MPD2    C3 6819   2.177   4.237  11.860 -0.1217 -0.0199 -0.2607
  458MPD2    C4 6820   2.264   4.287  11.763  0.1777  0.8457 -0.3369
  458MPD2    C5 6821   2.398   4.267  11.768 -0.1506  0.6314  0.1438
  458MPD2     H 6822   2.176   4.135  12.055 -1.1238 -0.8196 -2.0490
  458MPD2    H1 6823   2.222   4.343  11.680  0.4229  1.2591 -0.1779
  458MPD2    H2 6824   2.559   4.184  11.885 -0.7923  1.7402  1.5848
  458MPD2    H3 6825   2.453   4.313  11.686  0.4611 -1.0531 -0.3987
  458MPD2     N 6826   2.042   4.268  11.848  0.6953  0.2577  0.2896
  458MPD2    H5 6827   2.013   4.340  11.783  1.5413 -0.2704 -0.6659
  458MPD2    N1 6828   2.441   4.107  12.089 -0.4663  0.0094 -0.2000
  458MPD2    H7 6829   2.543   4.111  12.084 -0.6224  2.7919 -1.0444
  459TMC3    C1 6830   2.479   4.058  12.312 -0.2433 -0.7278  0.3736
  459TMC3    C2 6831   2.575   4.148  12.308 -0.4731  0.4198 -0.4310
  459TMC3    C3 6832   2.629   4.178  12.428  0.2429  0.3578  0.7081
  459TMC3    C4 6833   2.443   3.982  12.428 -0.3743  0.2661  0.1250
  459TMC3    C5 6834   2.499   4.027  12.544 -0.1021  0.1107  0.1127
  459TMC3    C6 6835   2.591   4.132  12.546  0.0207  0.3080  0.8626
  459TMC3     C 6836   2.386   4.049  12.201 -0.0617 -0.8378  0.9888
  459TMC3     O 6837   2.277   3.995  12.211 -0.4626 -0.6503 -0.2128
  459TMC3     H 6838   2.588   4.223  12.231 -0.6567  0.8732 -0.0132
  459TMC3    H1 6839   2.361   3.911  12.427  0.9926 -1.2988 -0.6476
  459TMC3    H2 6840   2.634   4.166  12.640  2.4283 -0.2565 -0.0395
  459TMC3    C7 6841   2.459   3.954  12.661  0.1069  0.2380  0.3347
  459TMC3    C8 6842   2.663   4.315  12.423 -0.2596  0.5064  0.1409
  459TMC3    O1 6843   2.400   3.849  12.647  0.3571  0.4845 -0.2029
  459TMC3    O2 6844   2.780   4.346  12.412 -0.2841  0.3955  0.4228
  460MPD2     C 6845   0.688   1.331  10.747  0.6410  0.1551  0.6080
  460MPD2    C1 6846   0.707   1.465  10.724  0.4390  0.4366  0.1894
  460MPD2    C2 6847   0.712   1.503  10.598  0.6891 -0.3861 -0.1342
  460MPD2    C3 6848   0.690   1.421  10.493 -0.5286 -0.2181  0.1192
  460MPD2    C4 6849   0.681   1.285  10.517 -0.5387  0.0180  0.1080
  460MPD2    C5 6850   0.673   1.241  10.644  0.0769 -0.4857  0.7818
  460MPD2     H 6851   0.729   1.607  10.574  0.8301  0.2690  2.8456
  460MPD2    H1 6852   0.654   1.217  10.437 -0.3110  0.2747 -0.1856
  460MPD2    H2 6853   0.673   1.294  10.848 -1.1250 -0.2900  0.1729
  460MPD2    H3 6854   0.659   1.138  10.677 -1.5759 -0.9828 -1.4495
  460MPD2     N 6855   0.692   1.484  10.365 -0.3045  0.2960 -0.2206
  460MPD2    H5 6856   0.675   1.584  10.369  1.8391  0.7467 -2.2724
  460MPD2    N1 6857   0.740   1.544  10.833 -0.4308  0.4926  0.4578
  460MPD2    H7 6858   0.755   1.503  10.924  1.6578 -2.2411 -1.1144
  461TMC3    C1 6859   0.739   1.518  10.145 -0.6143 -0.1940  0.2590
  461TMC3    C2 6860   0.725   1.474  10.017  0.4291 -0.3095 -0.2885
  461TMC3    C3 6861   0.779   1.560   9.923 -0.5490  0.6195  0.4511
  461TMC3    C4 6862   0.799   1.642  10.172 -0.4899 -0.3301  0.2210
  461TMC3    C5 6863   0.861   1.712  10.076  0.4170 -0.0891  0.7317
  461TMC3    C6 6864   0.848   1.677   9.942 -0.6243 -0.4443  0.1914
  461TMC3     C 6865   0.710   1.421  10.250 -0.5365 -0.2843  0.2233
  461TMC3     O 6866   0.714   1.303  10.227 -0.3803  0.0696  0.5922
  461TMC3     H 6867   0.678   1.378   9.996 -1.4136  0.4102  0.5835
  461TMC3    H1 6868   0.815   1.673  10.275 -2.4956  0.3412  0.3237
  461TMC3    H2 6869   0.878   1.741   9.859 -1.7049  2.1567  1.7863
  461TMC3    C7 6870   0.874   1.860  10.090 -0.7842  0.1693 -0.6956
  461TMC3    C8 6871   0.761   1.521   9.788 -0.0955  0.3312 -0.2843
  461TMC3    O1 6872   0.878   1.921   9.984  0.2967  0.6230  0.1521
  461TMC3    O2 6873   0.848   1.559   9.716 -0.1080 -0.2064  0.7382
  462TMC3    C1 6874   0.964   2.347  17.234 -0.0529 -0.5021  0.3069
  462TMC3    C2 6875   0.981   2.259  17.129 -0.1829  0.2211  0.0076
  462TMC3    C3 6876   0.971   2.125  17.160  0.1604  0.3428 -0.5852
  462TMC3    C4 6877   0.939   2.309  17.360 -0.8375  0.6871  0.1078
  462TMC3    C5 6878   0.918   2.176  17.377 -0.0584 -0.1858  0.0287
  462TMC3    C6 6879   0.947   2.079  17.287 -0.6560 -0.6347 -0.6552
  462TMC3     C 6880   1.017   2.475  17.204  0.2197  0.1212  0.3725
  462TMC3     O 6881   0.987   2.518  17.093  0.3920 -0.3418  0.0478
  462TMC3     H 6882   0.998   2.281  17.024  0.3036 -2.5349 -0.4896
  462TMC3    H1 6883   0.918   2.378  17.441 -1.2709  0.1256  0.4720
  462TMC3    H2 6884   0.905   1.979  17.281  0.7785 -1.5236  3.8636
  462TMC3    C7 6885   0.852   2.133  17.497 -0.0730 -0.6591 -0.8313
  462TMC3    C8 6886   0.971   2.030  17.051 -0.7289  0.4732 -0.7540
  462TMC3    O1 6887   0.779   2.031  17.490  0.4603  0.2475  0.0686
  462TMC3    O2 6888   0.941   2.075  16.938  0.1924 -0.6210 -0.3916
  463MPD2     C 6889   2.081   1.766   1.780 -0.0565 -0.7739 -0.4106
  463MPD2    C1 6890   2.074   1.765   1.636  0.3144 -0.1792 -0.2196
  463MPD2    C2 6891   2.185   1.795   1.559  0.5767 -0.3954  0.4533
  463MPD2    C3 6892   2.304   1.820   1.627 -0.0017 -0.0284 -0.5804
  463MPD2    C4 6893   2.305   1.817   1.765 -0.1878 -0.2794  0.2360
  463MPD2    C5 6894   2.199   1.783   1.842 -0.1635  0.1591 -0.2149
  463MPD2     H 6895   2.188   1.793   1.450 -1.5404  1.0473  0.3722
  463MPD2    H1 6896   2.401   1.822   1.817 -0.5244 -3.2274  1.1372
  463MPD2    H2 6897   1.997   1.739   1.843 -0.2133 -0.6447 -0.5637
  463MPD2    H3 6898   2.204   1.765   1.948 -1.2514 -1.3591 -0.4111
  463MPD2     N 6899   2.431   1.855   1.564 -0.3811  0.4462 -0.5562
  463MPD2    H5 6900   2.512   1.876   1.621 -0.8256  1.6293 -0.3745
  463MPD2    N1 6901   1.949   1.742   1.567 -0.1392  0.0402 -0.0707
  463MPD2    H7 6902   1.952   1.758   1.467  1.0387  0.0667 -0.0290
  464TMC3    C1 6903   1.720   1.668   1.536  0.7036  0.0257  0.0717
  464TMC3    C2 6904   1.594   1.679   1.591  0.4968 -0.0483  0.6026
  464TMC3    C3 6905   1.498   1.612   1.521  0.2103 -0.5410 -0.7828
  464TMC3    C4 6906   1.759   1.603   1.424  0.7881 -0.4258  0.8021
  464TMC3    C5 6907   1.658   1.525   1.369 -0.3198  0.3445 -0.3233
  464TMC3    C6 6908   1.530   1.531   1.415  0.1822  0.3728 -0.6684
  464TMC3     C 6909   1.820   1.721   1.623  0.2661  0.4850  0.3588
  464TMC3     O 6910   1.779   1.744   1.737  0.4326  0.1583  0.1239
  464TMC3     H 6911   1.575   1.766   1.653 -0.1223 -1.2668  2.1007
  464TMC3    H1 6912   1.861   1.598   1.388  0.2212 -0.0341 -0.8389
  464TMC3    H2 6913   1.444   1.488   1.365 -1.5996  1.1083  1.7617
  464TMC3    C7 6914   1.681   1.460   1.241 -0.3808  0.2134  0.6364
  464TMC3    C8 6915   1.374   1.681   1.512 -0.1214  0.3706  0.2095
  464TMC3    O1 6916   1.777   1.502   1.173 -0.4778  0.4130 -1.0625
  464TMC3    O2 6917   1.324   1.694   1.401 -0.0850 -0.0439  0.0138
  465MPD2     C 6918   3.487   4.500  16.591  0.6926 -0.3202  0.1293
  465MPD2    C1 6919   3.391   4.508  16.686 -0.2003 -0.2281  0.2242
  465MPD2    C2 6920   3.274   4.574  16.655  0.3895  0.2119 -0.2703
  465MPD2    C3 6921   3.253   4.635  16.530  0.6759 -0.1692 -0.2286
  465MPD2    C4 6922   3.351   4.620  16.435 -0.2605 -0.6445  0.6974
  465MPD2    C5 6923   3.468   4.553  16.468  0.1404  0.0026 -0.1675
  465MPD2     H 6924   3.195   4.577  16.729 -0.4248  2.2590 -1.2217
  465MPD2    H1 6925   3.343   4.666  16.337 -1.4952  1.3899  1.7611
  465MPD2    H2 6926   3.580   4.445  16.604 -0.9149 -3.0823 -0.0962
  465MPD2    H3 6927   3.536   4.536  16.386 -0.8380  0.6948 -1.1256
  465MPD2     N 6928   3.130   4.702  16.501 -0.2368 -0.6331  0.5566
  465MPD2    H5 6929   3.069   4.703  16.582  1.6010  1.9464  1.9043
  465MPD2    N1 6930   3.393   4.445  16.811  0.7846 -0.2430  0.3458
  465MPD2    H7 6931   3.323   4.466  16.882  1.2518  0.6015  0.5534
  466TMC3    C1 6932   2.775   0.132  16.510 -0.6495 -0.0274 -0.5053
  466TMC3    C2 6933   2.748   0.236  16.438  0.5121 -0.5218  0.2115
  466TMC3    C3 6934   2.840   0.271  16.345  0.4225  0.1548 -0.2522
  466TMC3    C4 6935   2.885   0.056  16.490  0.5645  0.3740 -0.0869
  466TMC3    C5 6936   2.971   0.089  16.386  0.4074 -0.3762 -0.2843
  466TMC3    C6 6937   2.947   0.199  16.310  0.3939 -0.1913 -0.1282
  466TMC3     C 6938   2.672   0.087  16.601  0.6175  0.4574 -0.5624
  466TMC3     O 6939   2.703   0.015  16.693 -0.2156  0.2617 -0.1443
  466TMC3     H 6940   2.672   0.307  16.471  0.6713  0.6112 -1.8234
  466TMC3    H1 6941   2.880   4.685  16.536  2.1219  0.0021 -0.6958
  466TMC3    H2 6942   3.030   0.224  16.245 -0.0507  0.5036 -0.4237
  466TMC3    C7 6943   3.110   0.046  16.390  0.2736 -0.3207 -0.4441
  466TMC3    C8 6944   2.836   0.407  16.291  0.2938  0.3297  0.4232
  466TMC3    O1 6945   3.191   0.087  16.308 -0.0467 -0.5362  0.0398
  466TMC3    O2 6946   2.904   0.416  16.190  0.4203  0.3031  0.3095
  467TMC3    C1 6947   4.460   3.355  13.792  1.0367 -0.0929  0.7765
  467TMC3    C2 6948   4.439   3.444  13.688  0.0916 -0.3168 -0.0597
  467TMC3    C3 6949   4.328   3.429  13.611  0.2989  0.2085 -0.2909
  467TMC3    C4 6950   4.358   3.269  13.837 -0.3584 -0.4351  0.7386
  467TMC3    C5 6951   4.238   3.279  13.768  0.4906 -0.7453 -0.5825
  467TMC3    C6 6952   4.228   3.343  13.646 -0.2743  0.0195 -0.3287
  467TMC3     C 6953   4.596   3.331  13.842 -0.2685 -1.1585 -0.1423
  467TMC3     O 6954   4.669   3.426  13.818  0.3502  0.5460 -0.1856
  467TMC3     H 6955   4.520   3.504  13.648  0.6094 -0.7283  0.3705
  467TMC3    H1 6956   4.367   3.208  13.926 -0.2442 -0.0617  0.9853
  467TMC3    H2 6957   4.142   3.327  13.581  0.7216 -1.9814 -1.1622
  467TMC3    C7 6958   4.139   3.178  13.790 -0.1522 -0.1485  0.7522
  467TMC3    C8 6959   4.332   3.492  13.482 -0.5213  0.1426 -0.1623
  467TMC3    O1 6960   4.161   3.089  13.874  0.6160 -0.4032  0.2016
  467TMC3    O2 6961   4.433   3.555  13.453 -0.0952 -0.6650 -0.5139
  468MPD2     C 6962   2.614   1.564  10.292 -0.5937 -0.2923  0.2707
  468MPD2    C1 6963   2.729   1.555  10.366  0.6570  1.0510 -0.6263
  468MPD2    C2 6964   2.780   1.432  10.410 -0.2394  0.3705  0.4413
  468MPD2    C3 6965   2.705   1.319  10.385 -0.4164  0.0107 -0.8846
  468MPD2    C4 6966   2.591   1.333  10.318  0.4356  0.4191  0.1194
  468MPD2    C5 6967   2.538   1.454  10.275 -0.0173  0.5757 -0.5020
  468MPD2     H 6968   2.872   1.436  10.466 -1.2174 -0.7269  2.1313
  468MPD2    H1 6969   2.531   1.243  10.316 -0.6767  1.1898 -1.2264
  468MPD2    H2 6970   2.570   1.656  10.257  1.6618  1.2012  1.3569
  468MPD2    H3 6971   2.442   1.461  10.226 -0.0336  0.6253 -0.4622
  468MPD2     N 6972   2.734   1.186  10.435 -0.2159 -0.3902  0.6256
  468MPD2    H5 6973   2.666   1.112  10.423  0.5235 -0.8424 -0.7438
  468MPD2    N1 6974   2.795   1.667  10.413 -0.3302  0.0684  0.7178
  468MPD2    H7 6975   2.882   1.658  10.466  0.3865  1.8897 -0.1226
  469TMC3    C1 6976   2.849   1.877  10.479 -0.2475 -0.2338  0.2058
  469TMC3    C2 6977   2.983   1.863  10.451 -1.0999 -0.0457  1.0336
  469TMC3    C3 6978   3.073   1.954  10.503  0.5687  0.3109 -0.4983
  469TMC3    C4 6979   2.799   1.987  10.549 -0.0337  0.4130  0.0975
  469TMC3    C5 6980   2.888   2.071  10.604  0.3297 -0.2799  0.4331
  469TMC3    C6 6981   3.024   2.059  10.588  0.2322  0.3467 -0.0051
  469TMC3     C 6982   2.749   1.794  10.411 -0.0004 -0.1363 -0.5658
  469TMC3     O 6983   2.643   1.844  10.377  0.3544 -0.4179  0.8135
  469TMC3     H 6984   3.011   1.783  10.383 -1.1318  1.2366 -0.5037
  469TMC3    H1 6985   2.691   1.996  10.561  0.0251  2.9242 -1.3903
  469TMC3    H2 6986   3.092   2.139  10.615  0.1030  1.3310 -2.5942
  469TMC3    C7 6987   2.831   2.163  10.703 -0.3453 -0.0213 -0.0786
  469TMC3    C8 6988   3.205   1.969  10.439  0.1927 -0.5227  0.4132
  469TMC3    O1 6989   2.710   2.166  10.719 -0.0485  0.2145 -0.1149
  469TMC3    O2 6990   3.209   1.941  10.318  0.2125  0.0253  0.1352
  470TMC3    C1 6991   0.783   2.846   0.960  0.0781  0.1165  0.2614
  470TMC3    C2 6992   0.889   2.930   0.929  0.6377 -0.0258 -0.2139
  470TMC3    C3 6993   0.955   2.996   1.029  0.2420  0.4355 -0.5438
  470TMC3    C4 6994   0.764   2.801   1.088  0.0102  0.1358 -0.4664
  470TMC3    C5 6995   0.837   2.865   1.187 -0.9710  0.3974  0.0452
  470TMC3    C6 6996   0.935   2.962   1.162 -0.0189 -0.5225  0.6156
  470TMC3     C 6997   0.738   2.761   0.849 -0.6171  0.2812  0.5687
  470TMC3     O 6998   0.813   2.757   0.751  0.2884  0.2255  0.0446
  470TMC3     H 6999   0.896   2.957   0.824  2.2145  0.4231 -0.0043
  470TMC3    H1 7000   0.686   2.731   1.114  0.1902  0.0345 -0.1946
  470TMC3    H2 7001   0.965   3.026   1.244 -1.4076  0.5461  0.2854
  470TMC3    C7 7002   0.815   2.824   1.326  0.3991  0.3399 -0.3326
  470TMC3    C8 7003   1.015   3.132   1.009  0.4067  0.0899  0.0641
  470TMC3    O1 7004   0.700   2.791   1.356 -0.2044 -0.7192 -0.2504
  470TMC3    O2 7005   0.990   3.213   1.096 -0.2582  0.3440  0.1528
  471MPD2     C 7006   1.060   3.848  16.299  0.1203  0.0229 -0.7482
  471MPD2    C1 7007   1.102   3.716  16.301 -1.0119  0.5557  0.1060
  471MPD2    C2 7008   1.193   3.672  16.392  0.3863 -0.3953  0.2433
  471MPD2    C3 7009   1.246   3.749  16.488 -1.1380 -0.3145  0.6042
  471MPD2    C4 7010   1.211   3.880  16.485  0.0590  0.7089 -0.1438
  471MPD2    C5 7011   1.123   3.935  16.390 -0.3499 -0.2020  0.0535
  471MPD2     H 7012   1.223   3.569  16.382  0.9997 -0.2695  0.8242
  471MPD2    H1 7013   1.255   3.948  16.557  0.0230 -1.8256  2.2869
  471MPD2    H2 7014   0.996   3.884  16.220  0.6143  1.9386 -0.2557
  471MPD2    H3 7015   1.088   4.037  16.383  0.0294 -0.1585 -1.2010
  471MPD2     N 7016   1.341   3.707  16.584 -1.0248 -0.2441 -0.1138
  471MPD2    H5 7017   1.373   3.781  16.645  0.2152 -1.2074  0.3958
  471MPD2    N1 7018   1.054   3.614  16.221 -0.2600 -0.4006 -0.5774
  471MPD2    H7 7019   1.111   3.531  16.211 -1.6887 -1.5716  1.0123
  472TMC3    C1 7020   0.910   3.509  16.059  0.0108 -0.1922  0.3716
  472TMC3    C2 7021   0.819   3.531  15.960 -0.0027  0.4250 -0.1270
  472TMC3    C3 7022   0.753   3.420  15.911  0.6122 -0.9910  0.4961
  472TMC3    C4 7023   0.950   3.390  16.110  0.6898  0.3690  0.3803
  472TMC3    C5 7024   0.876   3.283  16.064  0.2009 -1.3452 -0.5250
  472TMC3    C6 7025   0.786   3.296  15.960 -0.1484  0.3023  0.3070
  472TMC3     C 7026   0.937   3.625  16.149  0.1758  0.7742 -0.6637
  472TMC3     O 7027   0.850   3.707  16.150  0.4536  0.0728  0.4760
  472TMC3     H 7028   0.796   3.634  15.934  1.4753  0.7384 -0.2331
  472TMC3    H1 7029   1.025   3.363  16.184  0.3126 -0.1991  0.5571
  472TMC3    H2 7030   0.726   3.212  15.927 -0.6267 -0.1683  2.3804
  472TMC3    C7 7031   0.908   3.153  16.118  0.0626  0.0744 -0.1167
  472TMC3    C8 7032   0.633   3.442  15.831  0.0391 -0.6142 -0.4300
  472TMC3    O1 7033   0.976   3.148  16.220 -0.3585  0.0592 -0.3800
  472TMC3    O2 7034   0.619   3.555  15.790  0.5009 -0.0045 -0.6062
  473MPD2     C 7035   0.544   1.219  14.062 -0.5212  0.1449 -0.0407
  473MPD2    C1 7036   0.572   1.341  14.003  0.2596 -0.0472  0.0595
  473MPD2    C2 7037   0.627   1.441  14.081 -0.2329  0.3011  0.3205
  473MPD2    C3 7038   0.651   1.421  14.217 -0.2216 -0.6476 -0.3454
  473MPD2    C4 7039   0.612   1.302  14.273  0.0092  0.2871  0.2008
  473MPD2    C5 7040   0.567   1.200  14.194  0.2861  0.5370  1.1365
  473MPD2     H 7041   0.683   1.520  14.032  1.6521 -1.5155 -0.4764
  473MPD2    H1 7042   0.640   1.275  14.374 -0.5339  2.2151  0.8577
  473MPD2    H2 7043   0.529   1.128  14.006 -3.5101  0.4364  0.2908
  473MPD2    H3 7044   0.545   1.101  14.233 -0.8240  0.9546  1.5673
  473MPD2     N 7045   0.716   1.521  14.295  0.1071 -0.9677 -0.1944
  473MPD2    H5 7046   0.731   1.488  14.390  0.6889  4.4100  1.5488
  473MPD2    N1 7047   0.573   1.355  13.860  0.4426  0.3770  0.1964
  473MPD2    H7 7048   0.628   1.435  13.831  2.8000 -1.1390  0.4464
  474TMC3    C1 7049   0.869   1.706  14.321 -0.4356 -0.6778  0.0400
  474TMC3    C2 7050   0.896   1.841  14.299  1.1088  0.0045 -0.4033
  474TMC3    C3 7051   1.000   1.900  14.367 -0.0048 -0.4352  0.0270
  474TMC3    C4 7052   0.943   1.638  14.410  0.6633  0.3901 -0.5522
  474TMC3    C5 7053   1.049   1.701  14.471 -0.4161 -0.3578 -0.1690
  474TMC3    C6 7054   1.073   1.832  14.458 -0.5472 -0.7236  0.5004
  474TMC3     C 7055   0.756   1.647  14.247 -0.1671  0.2944 -0.2654
  474TMC3     O 7056   0.728   1.701  14.137  0.6185 -0.2918 -0.2677
  474TMC3     H 7057   0.832   1.900  14.235 -0.5894  0.5322  1.7958
  474TMC3    H1 7058   0.930   1.530  14.412  0.6248  0.3904 -0.7267
  474TMC3    H2 7059   1.158   1.881  14.506 -0.0316 -1.0472 -0.0858
  474TMC3    C7 7060   1.147   1.608  14.536  0.4653 -0.2270 -0.0541
  474TMC3    C8 7061   1.016   2.041  14.368  0.2851 -0.4669 -0.3939
  474TMC3    O1 7062   1.151   1.501  14.476 -0.5496 -0.1179  0.6253
  474TMC3    O2 7063   1.078   2.094  14.462 -0.5528  0.0169 -0.4016
  475MPD2     C 7064   4.024   3.713  10.200 -0.2003 -0.1378  0.1065
  475MPD2    C1 7065   4.053   3.845  10.219 -0.5021 -0.0112  0.1911
  475MPD2    C2 7066   3.987   3.912  10.323 -0.4238 -0.1068  0.3988
  475MPD2    C3 7067   3.891   3.854  10.399 -0.0331 -0.2092 -0.5063
  475MPD2    C4 7068   3.861   3.720  10.383 -0.1737 -0.1926 -0.4423
  475MPD2    C5 7069   3.929   3.653  10.283  0.5881 -0.1364  0.0003
  475MPD2     H 7070   4.014   4.014  10.346  1.8010 -0.4726 -0.6496
  475MPD2    H1 7071   3.775   3.674  10.428  0.9152 -1.1388  0.6736
  475MPD2    H2 7072   4.080   3.653  10.129 -1.1007  0.3385 -1.0072
  475MPD2    H3 7073   3.892   3.552  10.268 -0.6377  0.7294 -2.8349
  475MPD2     N 7074   3.822   3.934  10.493 -0.4445 -0.0909  0.0572
  475MPD2    H5 7075   3.854   4.030  10.502 -1.3073  0.0346  1.6909
  475MPD2    N1 7076   4.161   3.904  10.152  0.1353 -0.3369 -0.0328
  475MPD2    H7 7077   4.201   3.847  10.079  2.2854  1.5115 -0.2900
  476TMC3    C1 7078   4.304   4.062  10.068 -0.6757  0.1378 -0.1665
  476TMC3    C2 7079   4.230   4.082   9.957  0.1315 -0.8987 -0.5507
  476TMC3    C3 7080   4.245   4.205   9.892  0.2326 -0.0516  0.3557
  476TMC3    C4 7081   4.393   4.155  10.116 -0.3355  0.2959  0.0795
  476TMC3    C5 7082   4.410   4.271  10.049 -0.2834 -1.0678 -0.1397
  476TMC3    C6 7083   4.341   4.296   9.936 -0.2961  0.9807  0.5761
  476TMC3     C 7084   4.222   4.019  10.179 -0.0821 -0.0994 -0.2654
  476TMC3     O 7085   4.212   4.093  10.274 -0.2886 -0.2131 -0.0696
  476TMC3     H 7086   4.174   3.997   9.920  2.0762 -2.7408  0.7546
  476TMC3    H1 7087   4.440   4.148  10.213  1.3907 -1.3544 -0.8685
  476TMC3    H2 7088   4.362   4.394   9.894 -0.5482  0.6220 -0.3737
  476TMC3    C7 7089   4.517   4.359  10.078  0.4005 -0.1580  0.0924
  476TMC3    C8 7090   4.118   4.267   9.869 -1.0310 -0.1530  0.2658
  476TMC3    O1 7091   4.544   4.443   9.990  0.9349 -1.0309  0.3408
  476TMC3    O2 7092   4.123   4.383   9.834  0.0422 -0.3143 -0.0409
  477MPD2     C 7093   1.335   0.659  11.444  0.1803  0.0667 -0.1688
  477MPD2    C1 7094   1.352   0.775  11.518  0.9798 -0.1617  0.0739
  477MPD2    C2 7095   1.406   0.770  11.648  0.1159 -0.8161  0.2698
  477MPD2    C3 7096   1.431   0.647  11.704 -0.1010 -0.8753  0.1787
  477MPD2    C4 7097   1.420   0.535  11.625 -0.1934 -0.5581  0.1384
  477MPD2    C5 7098   1.371   0.543  11.501 -0.6200 -0.4906 -0.0997
  477MPD2     H 7099   1.408   0.858  11.711  1.0668 -1.5918  1.3089
  477MPD2    H1 7100   1.454   0.440  11.663 -0.9206 -1.2577 -0.9440
  477MPD2    H2 7101   1.285   0.664  11.348  2.1771 -1.5578 -1.2650
  477MPD2    H3 7102   1.363   0.451  11.444 -1.8070  0.8048 -2.0166
  477MPD2     N 7103   1.491   0.624  11.824 -0.0207  0.1204  0.8611
  477MPD2    H5 7104   1.523   0.531  11.846  2.0663  0.6324  0.0081
  477MPD2    N1 7105   1.312   0.894  11.449 -0.1357 -0.5187 -0.3395
  477MPD2    H7 7106   1.272   0.878  11.357  0.4523 -1.2663 -0.4626
  478TMC3    C1 7107   1.241   1.121  11.474  0.7758 -0.1673  0.2283
  478TMC3    C2 7108   1.271   1.255  11.494 -0.9509 -0.6192 -0.0049
  478TMC3    C3 7109   1.178   1.347  11.443  0.4867 -0.3014 -0.3258
  478TMC3    C4 7110   1.118   1.088  11.420 -0.6987  0.2635  0.3106
  478TMC3    C5 7111   1.030   1.184  11.387  0.0757  0.2058 -0.0589
  478TMC3    C6 7112   1.053   1.317  11.401  0.7423 -0.7004 -0.0812
  478TMC3     C 7113   1.340   1.022  11.498  0.5825  0.0405 -0.2472
  478TMC3     O 7114   1.424   1.051  11.580 -0.0091 -0.0944 -0.1705
  478TMC3     H 7115   1.367   1.289  11.532 -0.3239 -0.3364 -1.8165
  478TMC3    H1 7116   1.086   0.985  11.411  1.1085 -0.4740  2.2914
  478TMC3    H2 7117   0.981   1.389  11.365 -0.5054 -0.6024  2.5932
  478TMC3    C7 7118   0.899   1.129  11.343 -0.5547 -0.2386 -0.2405
  478TMC3    C8 7119   1.198   1.490  11.467  0.2451  0.6996  0.1425
  478TMC3    O1 7120   0.861   1.032  11.411  0.1968 -0.0753 -0.5357
  478TMC3    O2 7121   1.121   1.566  11.411 -0.3682  0.1899 -0.3445
  479MPD2     C 7122   0.838   3.173  15.132  0.4570  0.0533 -0.2269
  479MPD2    C1 7123   0.751   3.092  15.194 -0.5567  0.5301  0.4045
  479MPD2    C2 7124   0.763   3.071  15.328  0.2432 -0.0423 -0.5318
  479MPD2    C3 7125   0.851   3.146  15.404  0.4072 -0.5816  0.0030
  479MPD2    C4 7126   0.930   3.239  15.342 -0.4980  0.2550  0.3078
  479MPD2    C5 7127   0.936   3.240  15.201 -0.7181  0.9828  0.4927
  479MPD2     H 7128   0.712   2.994  15.383  1.6450 -1.1433 -0.7632
  479MPD2    H1 7129   1.014   3.289  15.388 -0.9381  0.5501  0.7867
  479MPD2    H2 7130   0.831   3.197  15.027  0.1733 -0.1113 -0.2469
  479MPD2    H3 7131   0.996   3.320  15.159  1.6057 -0.2783  1.4529
  479MPD2     N 7132   0.856   3.141  15.544  0.1707  0.3344  0.1445
  479MPD2    H5 7133   0.924   3.198  15.595 -0.5080  0.2487  1.1428
  479MPD2    N1 7134   0.645   3.033  15.115 -0.2483  0.0904 -0.0718
  479MPD2    H7 7135   0.647   3.059  15.017  0.5312  2.3273  0.5360
  480TMC3    C1 7136   0.405   2.958  15.630 -0.1351  1.1336  0.1881
  480TMC3    C2 7137   0.337   3.052  15.558  0.1557 -0.3236  0.2352
  480TMC3    C3 7138   0.414   3.135  15.477 -0.2978  0.8836  0.3094
  480TMC3    C4 7139   0.538   2.974  15.645  0.4998 -0.2201 -0.3503
  480TMC3    C5 7140   0.610   3.077  15.587  0.3530  0.5066 -0.1680
  480TMC3    C6 7141   0.545   3.165  15.501 -0.0481 -0.5184  0.6790
  480TMC3     C 7142   0.332   2.868  15.718 -0.2302  0.5344 -0.0100
  480TMC3     O 7143   0.392   2.830  15.820  0.6209 -0.8961  0.1693
  480TMC3     H 7144   0.230   3.052  15.539 -0.1213  0.4740  1.8514
  480TMC3    H1 7145   0.589   2.909  15.716  1.3886  1.6890  0.7768
  480TMC3    H2 7146   0.603   3.242  15.452  0.0957 -1.9533 -1.3983
  480TMC3    C7 7147   0.753   3.089  15.632  0.0622 -0.9339  0.1334
  480TMC3    C8 7148   0.346   3.195  15.363 -0.5675 -0.2626  0.4383
  480TMC3    O1 7149   0.772   3.066  15.752  0.0027  0.0319 -0.1429
  480TMC3    O2 7150   0.221   3.192  15.359 -0.4783  0.4659  0.3333
  481MPD2     C 7151   2.346   2.536  14.102  0.4588  0.5142  0.4132
  481MPD2    C1 7152   2.251   2.444  14.129  0.2875  0.1905  0.0313
  481MPD2    C2 7153   2.196   2.442  14.259 -0.1228 -0.0993 -0.9740
  481MPD2    C3 7154   2.248   2.515  14.363 -0.2237 -0.6665 -0.5443
  481MPD2    C4 7155   2.332   2.614  14.330 -0.1450  0.2518  0.6834
  481MPD2    C5 7156   2.390   2.617  14.205  0.0195  0.3543 -0.1124
  481MPD2     H 7157   2.114   2.374  14.282 -1.8400  1.7528 -1.5672
  481MPD2    H1 7158   2.379   2.680  14.402 -0.8383  1.1385  0.3190
  481MPD2    H2 7159   2.387   2.542  14.002 -0.6120 -0.9009 -0.1003
  481MPD2    H3 7160   2.462   2.693  14.180  1.2580 -0.0381  2.2892
  481MPD2     N 7161   2.213   2.511  14.494 -0.3628  0.5530  0.5730
  481MPD2    H5 7162   2.243   2.588  14.554  0.0899  1.8029 -1.2498
  481MPD2    N1 7163   2.199   2.365  14.023 -0.1304  0.1291  0.2077
  481MPD2    H7 7164   2.248   2.386  13.936  0.9440  0.2603  0.8535
  482TMC3    C1 7165   2.038   2.255  13.885  0.2450 -0.6153  0.7975
  482TMC3    C2 7166   1.916   2.192  13.871  0.3116  0.0274  1.1393
  482TMC3    C3 7167   1.867   2.177  13.742  0.1731  0.2284  0.0708
  482TMC3    C4 7168   2.116   2.295  13.775 -1.1813 -0.3116  1.1351
  482TMC3    C5 7169   2.065   2.268  13.647 -0.3812 -0.5803  0.3484
  482TMC3    C6 7170   1.942   2.209  13.629 -0.5903  0.5897  0.2233
  482TMC3     C 7171   2.082   2.289  14.023  0.1968  0.1338 -0.3944
  482TMC3     O 7172   2.002   2.261  14.109  0.2437 -0.0084  0.1357
  482TMC3     H 7173   1.846   2.178  13.952  0.9430 -0.6672  1.5705
  482TMC3    H1 7174   2.211   2.345  13.786 -1.4289  0.2622  0.6322
  482TMC3    H2 7175   1.905   2.191  13.528  0.3549 -2.1294  0.3626
  482TMC3    C7 7176   2.156   2.291  13.537 -0.0959  0.6922  0.2768
  482TMC3    C8 7177   1.753   2.096  13.715  0.5459 -0.4660 -0.4068
  482TMC3    O1 7178   2.279   2.281  13.551  0.1248 -0.9316  0.4031
  482TMC3    O2 7179   1.766   2.018  13.619  0.6096 -0.3675 -0.0413
  483TMC3    C1 7180   4.417   1.132   0.999 -0.1031 -0.1294 -0.8495
  483TMC3    C2 7181   4.444   1.266   0.991 -0.0030 -0.1547 -0.6569
  483TMC3    C3 7182   4.573   1.306   1.004  0.6718  0.7095  0.6590
  483TMC3    C4 7183   4.514   1.044   1.045 -0.4099 -0.0834 -0.8423
  483TMC3    C5 7184   4.644   1.090   1.061  0.0742 -0.3292  0.2686
  483TMC3    C6 7185   4.669   1.224   1.048 -0.0735  0.0145 -0.2985
  483TMC3     C 7186   4.286   1.091   0.953  0.0766  0.0872 -1.1046
  483TMC3     O 7187   4.215   1.180   0.919 -0.3354 -0.0993 -0.3120
  483TMC3     H 7188   4.378   1.346   0.959  0.1289  1.0366  2.0989
  483TMC3    H1 7189   4.492   0.940   1.063  1.4535 -0.7194 -2.2224
  483TMC3    H2 7190   0.040   1.267   1.067  0.5672 -0.7749 -1.8111
  483TMC3    C7 7191   0.034   0.995   1.091  0.0440 -0.0482 -0.5442
  483TMC3    C8 7192   4.616   1.437   0.947 -0.2209  0.0539 -0.3199
  483TMC3    O1 7193   0.138   1.054   1.110  0.0698  0.4452  0.1272
  483TMC3    O2 7194   0.010   1.446   0.933  0.2475 -0.6351  0.2484
  484MPD2     C 7195   2.401   4.552  12.324  0.5511  0.2635 -0.1873
  484MPD2    C1 7196   2.530   4.514  12.346 -0.0492  0.5791 -0.0682
  484MPD2    C2 7197   2.635   4.599  12.302  0.2688  0.3480  0.3089
  484MPD2    C3 7198   2.609   4.706  12.216 -0.1543 -0.1346  0.2745
  484MPD2    C4 7199   2.482   0.019  12.186  0.0706 -0.1001  0.0209
  484MPD2    C5 7200   2.378   4.668  12.240 -0.3736 -0.0066 -0.3314
  484MPD2     H 7201   2.736   4.573  12.332  0.4388 -0.5149 -1.0154
  484MPD2    H1 7202   2.476   0.109  12.125 -3.2226 -0.6685 -0.4761
  484MPD2    H2 7203   2.322   4.490  12.362  2.5301 -3.0596 -1.4798
  484MPD2    H3 7204   2.276   4.696  12.217 -0.1007  0.7619 -0.5935
  484MPD2     N 7205   2.709   0.057  12.163  0.0295 -0.2938 -0.1317
  484MPD2    H5 7206   2.686   0.133  12.101  0.9880 -0.0723 -0.2050
  484MPD2    N1 7207   2.546   4.388  12.403 -0.4250  0.2492 -0.2455
  484MPD2    H7 7208   2.460   4.341  12.430  0.5551 -0.1914  2.0761
  485TMC3    C1 7209   2.911   0.148  12.121 -0.7870 -0.2460 -0.0835
  485TMC3    C2 7210   3.019   0.176  12.193  0.2633 -0.2633 -0.2866
  485TMC3    C3 7211   3.128   0.231  12.136 -0.3876  0.1845 -0.3119
  485TMC3    C4 7212   2.916   0.150  11.986  0.9491 -0.6687  0.0645
  485TMC3    C5 7213   3.032   0.200  11.926  0.1197  0.3601 -0.6984
  485TMC3    C6 7214   3.125   0.264  12.005 -0.0596  0.1433  0.4006
  485TMC3     C 7215   2.844   0.038  12.181 -0.0018  0.1034  0.3201
  485TMC3     O 7216   2.919   4.673  12.213  0.2592  1.0475  0.4351
  485TMC3     H 7217   3.016   0.138  12.294  0.5997  2.0250  0.5868
  485TMC3    H1 7218   2.829   0.108  11.935  0.9198  0.3884 -0.7415
  485TMC3    H2 7219   3.214   0.301  11.956 -0.5732 -0.4083 -0.9471
  485TMC3    C7 7220   3.097   0.118  11.821 -0.7043  0.3047  0.6947
  485TMC3    C8 7221   3.249   0.164  12.172  0.3929 -0.2112 -0.0798
  485TMC3    O1 7222   3.212   0.146  11.790  0.7825 -0.5815 -0.2277
  485TMC3    O2 7223   3.351   0.201  12.117  0.6219  0.2776  0.0904
  486MPD2     C 7224   0.262   3.470  13.290  0.2306 -0.3156  0.0969
  486MPD2    C1 7225   0.168   3.444  13.185 -0.4634  0.0906 -0.0387
  486MPD2    C2 7226   0.128   3.539  13.100  0.8760  0.2942  0.1296
  486MPD2    C3 7227   0.179   3.671  13.117  0.0738 -0.5275 -0.3287
  486MPD2    C4 7228   0.277   3.689  13.212 -0.0031 -0.4246  0.0229
  486MPD2    C5 7229   0.315   3.595  13.301  1.0590 -1.2363  0.2049
  486MPD2     H 7230   0.059   3.525  13.018  0.6943  1.9607 -0.0102
  486MPD2    H1 7231   0.331   3.783  13.221 -4.0570  1.7323  2.0134
  486MPD2    H2 7232   0.285   3.394  13.364  0.7320 -0.6001 -0.3515
  486MPD2    H3 7233   0.387   3.619  13.378  2.0874  0.3949 -1.2557
  486MPD2     N 7234   0.134   3.777  13.037 -0.0709 -0.0799  0.2092
  486MPD2    H5 7235   0.075   3.745  12.961 -1.6782  0.1809  1.3663
  486MPD2    N1 7236   0.126   3.309  13.189  0.3230  0.4974 -0.2356
  486MPD2    H7 7237   0.144   3.256  13.274 -0.0072  1.6301  0.5301
  487TMC3    C1 7238   0.055   3.101  13.093 -0.1824  0.8310  1.0987
  487TMC3    C2 7239   4.674   3.041  13.043  0.2548 -0.2420 -0.3690
  487TMC3    C3 7240   4.668   2.900  13.045 -0.2309 -0.1532  0.2359
  487TMC3    C4 7241   0.161   3.032  13.145 -0.1475  0.1270  1.7055
  487TMC3    C5 7242   0.161   2.896  13.135 -0.9090 -0.2524  0.2717
  487TMC3    C6 7243   0.058   2.826  13.076 -0.1057 -0.0947 -0.5235
  487TMC3     C 7244   0.048   3.249  13.086 -1.3128  0.0812 -0.4344
  487TMC3     O 7245   4.710   3.303  12.993  0.2322  0.4994 -0.0111
  487TMC3     H 7246   4.582   3.097  13.024 -0.2345 -0.8389  0.2402
  487TMC3    H1 7247   0.249   3.084  13.179 -0.3716  1.1367  0.7343
  487TMC3    H2 7248   0.057   2.718  13.084  0.6009 -0.0706 -0.0513
  487TMC3    C7 7249   0.208   2.828  13.254 -0.1139  0.0125  0.1667
  487TMC3    C8 7250   4.553   2.841  13.097 -0.7099 -0.3067  0.0555
  487TMC3    O1 7251   0.167   2.719  13.284 -0.7987  0.1829  0.0599
  487TMC3    O2 7252   4.561   2.758  13.185  0.1387 -0.1005  0.1667
  488MPD2     C 7253   0.083   4.439  16.248  0.0258 -0.7354  0.4724
  488MPD2    C1 7254   0.023   4.557  16.279 -0.1530  0.5261 -0.4342
  488MPD2    C2 7255   4.704   4.574  16.409  0.3018 -0.0384  0.1631
  488MPD2    C3 7256   4.717   4.473  16.505 -0.0344 -0.1078 -0.1641
  488MPD2    C4 7257   0.044   4.352  16.472  0.2031  0.5183  0.6376
  488MPD2    C5 7258   0.102   4.342  16.344  0.1466  0.8595  0.2903
  488MPD2     H 7259   4.667   4.672  16.436  0.0518  0.1477 -0.8326
  488MPD2    H1 7260   0.049   4.268  16.540 -0.9149  0.6274  0.8581
  488MPD2    H2 7261   0.130   4.413  16.154 -2.3290  0.7845 -1.1139
  488MPD2    H3 7262   0.154   4.248  16.332  0.5723  1.3913 -2.1682
  488MPD2     N 7263   4.661   4.496  16.635 -0.1431  0.7617  0.8725
  488MPD2    H5 7264   4.621   4.589  16.638 -1.4086  0.2622 -0.3290
  488MPD2    N1 7265   0.016   4.664  16.191 -0.2893 -0.3040  0.2619
  488MPD2    H7 7266   4.714   0.023  16.236 -0.8955 -1.4145  2.0375
  489TMC3    C1 7267   4.595   4.472  16.856 -0.1564 -0.0122 -0.8855
  489TMC3    C2 7268   4.524   4.591  16.841  0.2986 -0.4612 -0.8894
  489TMC3    C3 7269   4.440   4.628  16.941  0.1318  0.3022  0.1380
  489TMC3    C4 7270   4.591   4.406  16.974  0.6593 -0.5023 -0.0990
  489TMC3    C5 7271   4.506   4.457  17.071 -0.5296 -0.3618 -0.6136
  489TMC3    C6 7272   4.416   4.554  17.048 -0.1028 -0.3015  0.4001
  489TMC3     C 7273   4.665   4.408  16.743  0.4878  0.8312  0.3293
  489TMC3     O 7274   4.711   4.294  16.755 -0.1230  0.0800 -0.0917
  489TMC3     H 7275   4.517   4.647  16.749  1.5896 -1.8111 -1.8161
  489TMC3    H1 7276   4.635   4.307  16.969  1.5344 -0.1570  0.6774
  489TMC3    H2 7277   4.335   4.586  17.114 -0.1832 -0.5572  0.4278
  489TMC3    C7 7278   4.502   4.409  17.205  1.1941 -0.0008  0.0350
  489TMC3    C8 7279   4.376   0.036  16.947 -0.1979 -0.6455  0.2594
  489TMC3    O1 7280   4.400   4.429  17.269  0.6730 -0.3072 -0.6029
  489TMC3    O2 7281   4.290   0.067  17.028 -0.7737 -0.0083 -0.4698
  490MPD2     C 7282   1.004   0.126  17.029  0.4813  0.2241 -0.1511
  490MPD2    C1 7283   1.039   4.725  17.011  0.1197 -0.5570 -1.1027
  490MPD2    C2 7284   1.145   4.694  16.934  0.0522  0.2447  0.3481
  490MPD2    C3 7285   1.205   0.071  16.859 -0.0282 -0.5252  0.2960
  490MPD2    C4 7286   1.168   0.201  16.882  0.5849 -0.7235  0.5082
  490MPD2    C5 7287   1.056   0.226  16.956 -0.5038  0.0909 -0.7146
  490MPD2     H 7288   1.179   4.592  16.940  1.4022  0.5906 -1.3243
  490MPD2    H1 7289   1.216   0.277  16.821 -2.1289 -0.4605 -1.2896
  490MPD2    H2 7290   0.922   0.145  17.097  0.4121  1.3937 -0.5668
  490MPD2    H3 7291   1.026   0.330  16.962 -0.0144  0.2612 -1.1797
  490MPD2     N 7292   1.321   0.049  16.778 -0.4229  0.8292  0.0733
  490MPD2    H5 7293   1.381   0.126  16.751 -0.6876  1.2142  0.6015
  490MPD2    N1 7294   0.980   4.614  17.078 -0.1054 -0.0696 -0.6222
  490MPD2    H7 7295   1.013   4.523  17.047 -1.3848 -0.3481 -1.1687
  491TMC3    C1 7296   0.881   4.484  17.230 -0.3660 -0.6632  0.2984
  491TMC3    C2 7297   0.845   4.466  17.367  0.0685 -0.6986 -0.2155
  491TMC3    C3 7298   0.837   4.334  17.411 -0.0633  0.0356 -0.3958
  491TMC3    C4 7299   0.887   4.379  17.146  0.2224 -0.1441  0.2056
  491TMC3    C5 7300   0.879   4.254  17.193 -0.0615 -0.0728 -0.1136
  491TMC3    C6 7301   0.849   4.232  17.326 -0.2717 -0.4992  0.2238
  491TMC3     C 7302   0.911   4.616  17.190  0.0363 -0.0187  0.5826
  491TMC3     O 7303   0.875   4.710  17.258  0.0628  0.1610 -0.1284
  491TMC3     H 7304   0.828   4.551  17.431 -2.6536 -1.2231 -0.2690
  491TMC3    H1 7305   0.917   4.390  17.042  1.9942 -0.3281  0.6894
  491TMC3    H2 7306   0.854   4.132  17.366 -2.0978 -0.8436 -0.4003
  491TMC3    C7 7307   0.899   4.147  17.101  0.9708  0.2743  0.1230
  491TMC3    C8 7308   0.820   4.312  17.557 -0.6005  0.0645  0.1032
  491TMC3    O1 7309   0.935   4.039  17.143 -0.0912  0.8547  0.4374
  491TMC3    O2 7310   0.801   4.198  17.593  0.1137 -0.0836 -0.3695
  492MPD2     C 7311   1.364   4.462  11.291  0.1385 -0.0061 -0.5585
  492MPD2    C1 7312   1.260   4.406  11.218 -0.1243 -0.1898  0.3639
  492MPD2    C2 7313   1.164   4.332  11.279  0.8521  0.4711 -0.4031
  492MPD2    C3 7314   1.176   4.313  11.420  0.4467  0.0032  0.2230
  492MPD2    C4 7315   1.280   4.373  11.492  0.7277 -0.3328 -0.6425
  492MPD2    C5 7316   1.374   4.450  11.425  0.3653  0.2428 -0.2182
  492MPD2     H 7317   1.094   4.276  11.217  0.6684  3.2614 -2.7574
  492MPD2    H1 7318   1.285   4.356  11.599  2.3181  0.2813 -0.6231
  492MPD2    H2 7319   1.442   4.526  11.252 -0.8245  1.1540 -0.6040
  492MPD2    H3 7320   1.451   4.507  11.475 -0.2211  0.0388  0.9287
  492MPD2     N 7321   1.089   4.232  11.493 -0.1640  0.6232 -0.1781
  492MPD2    H5 7322   1.105   4.223  11.593  1.3557 -0.1634 -0.4974
  492MPD2    N1 7323   1.261   4.433  11.080 -0.6125 -0.2192 -0.1074
  492MPD2    H7 7324   1.339   4.491  11.051  0.0970 -1.2619 -0.2974
  493TMC3    C1 7325   1.193   4.437  10.846 -0.1826  0.4275  0.2060
  493TMC3    C2 7326   1.265   4.549  10.818 -0.2510 -0.5692  0.5597
  493TMC3    C3 7327   1.263   4.603  10.689 -0.4390  0.3007 -0.5979
  493TMC3    C4 7328   1.110   4.376  10.753  0.7531  0.3116  0.2306
  493TMC3    C5 7329   1.106   4.438  10.629 -0.0016  0.1387  0.1862
  493TMC3    C6 7330   1.187   4.540  10.595 -0.4467 -0.6789  0.2358
  493TMC3     C 7331   1.169   4.397  10.986 -0.3217  0.1209 -0.1780
  493TMC3     O 7332   1.057   4.344  10.993 -0.4894  0.0957 -0.1845
  493TMC3     H 7333   1.338   4.589  10.887  1.0475 -0.6805 -0.7493
  493TMC3    H1 7334   1.064   4.281  10.780  1.9533 -0.0107  1.1101
  493TMC3    H2 7335   1.169   4.582  10.496 -0.2646 -0.1190  0.4406
  493TMC3    C7 7336   0.991   4.413  10.548  0.5808 -0.3137  0.0352
  493TMC3    C8 7337   1.386   4.672  10.648 -0.6685 -0.6334 -0.6179
  493TMC3    O1 7338   0.988   4.436  10.429 -0.4955  0.0694  0.2027
  493TMC3    O2 7339   1.490   4.651  10.717  0.2812  0.0245  0.3853
  494TMC3    C1 7340   1.600   1.796   0.573  0.1711 -0.5532  0.5930
  494TMC3    C2 7341   1.680   1.720   0.650  0.2141 -0.0737 -0.6218
  494TMC3    C3 7342   1.793   1.669   0.608  0.5933  0.7950  0.8517
  494TMC3    C4 7343   1.641   1.829   0.440 -0.4915  0.1670 -1.5156
  494TMC3    C5 7344   1.758   1.774   0.406 -0.0505 -0.4131  0.0521
  494TMC3    C6 7345   1.833   1.692   0.482 -0.6940 -0.1742  0.2988
  494TMC3     C 7346   1.478   1.859   0.629 -0.5351  0.9749  0.0605
  494TMC3     O 7347   1.442   1.829   0.740  0.9977  0.3915  0.0507
  494TMC3     H 7348   1.648   1.703   0.752  1.9353 -0.1545 -0.0993
  494TMC3    H1 7349   1.581   1.883   0.367  0.7022  2.5143 -0.7333
  494TMC3    H2 7350   1.930   1.665   0.442 -1.2895 -2.5932  0.4868
  494TMC3    C7 7351   1.802   1.794   0.269  0.0137  0.8554  0.0098
  494TMC3    C8 7352   1.840   1.548   0.669  0.4234 -0.1093  0.0231
  494TMC3    O1 7353   1.884   1.718   0.223 -0.6055 -0.1157  0.2527
  494TMC3    O2 7354   1.823   1.546   0.791  0.3614  0.0928 -0.2335
  495TMC3    C1 7355   1.013   3.393  14.712  0.3171 -0.0357 -0.2983
  495TMC3    C2 7356   0.994   3.452  14.589 -0.8609 -0.2833 -0.7426
  495TMC3    C3 7357   0.872   3.514  14.569  0.5577  0.3157  0.0211
  495TMC3    C4 7358   0.936   3.429  14.816 -0.0166 -0.9154  0.2754
  495TMC3    C5 7359   0.823   3.508  14.798  0.4751 -0.2606  0.3431
  495TMC3    C6 7360   0.789   3.540  14.673 -0.3956 -0.4012 -0.4633
  495TMC3     C 7361   1.018   3.251  14.711 -1.0029 -0.0752 -0.6856
  495TMC3     O 7362   0.953   3.194  14.796  0.1944 -0.1533 -0.3191
  495TMC3     H 7363   1.063   3.452  14.505 -1.7122  0.1718 -1.4520
  495TMC3    H1 7364   0.961   3.377  14.908 -1.0601  0.4140  1.3278
  495TMC3    H2 7365   0.704   3.605  14.655  0.6374  1.5432  1.6080
  495TMC3    C7 7366   0.731   3.488  14.913  0.0014 -0.4969  0.0137
  495TMC3    C8 7367   0.791   3.459  14.460 -0.8369 -0.3145 -0.6238
  495TMC3    O1 7368   0.790   3.473  15.017  0.2696  0.0958 -0.1429
  495TMC3    O2 7369   0.671   3.475  14.469 -0.3056 -0.5238 -0.2795
  496MPD2     C 7370   3.056   3.243  15.372  0.0725 -0.4101 -0.0888
  496MPD2    C1 7371   2.975   3.185  15.275  0.2676  0.0363 -0.6655
  496MPD2    C2 7372   2.837   3.181  15.289 -0.8822 -0.4101 -0.0070
  496MPD2    C3 7373   2.778   3.248  15.389  0.5745  0.3348  0.2371
  496MPD2    C4 7374   2.854   3.317  15.488 -0.1943  0.2818 -0.5304
  496MPD2    C5 7375   2.991   3.308  15.477  0.3844 -0.4063  0.0419
  496MPD2     H 7376   2.785   3.126  15.211  0.7841 -2.4377  0.3170
  496MPD2    H1 7377   2.813   3.365  15.575  0.2922 -0.7626  0.2777
  496MPD2    H2 7378   3.164   3.248  15.375  0.0936 -1.6338  1.4250
  496MPD2    H3 7379   3.042   3.368  15.552  0.3237  0.3956 -0.5516
  496MPD2     N 7380   2.639   3.235  15.422 -0.2890  0.5986 -0.1356
  496MPD2    H5 7381   2.603   3.281  15.505 -0.4845 -0.4843  0.3821
  496MPD2    N1 7382   3.030   3.104  15.176  0.5829 -0.5307 -0.1087
  496MPD2    H7 7383   3.130   3.092  15.182  0.5811 -0.4487  0.0770
  497TMC3    C1 7384   2.432   3.131  15.441  0.4973 -0.1669  0.8522
  497TMC3    C2 7385   2.337   3.060  15.382  0.0082 -0.2075 -0.1982
  497TMC3    C3 7386   2.231   3.020  15.460  0.0665 -0.1633  0.0430
  497TMC3    C4 7387   2.436   3.143  15.581 -0.3969 -0.1819 -0.8111
  497TMC3    C5 7388   2.333   3.088  15.656  0.0658 -0.6062 -0.1269
  497TMC3    C6 7389   2.232   3.027  15.594  0.3944 -0.3916 -0.2771
  497TMC3     C 7390   2.554   3.145  15.365  0.8431 -0.3248  0.0267
  497TMC3     O 7391   2.568   3.085  15.259  0.3009  0.2906 -0.1969
  497TMC3     H 7392   2.329   3.046  15.275  0.4869  3.4770 -0.7301
  497TMC3    H1 7393   2.520   3.195  15.625  0.3648  0.1498 -2.6796
  497TMC3    H2 7394   2.150   2.984  15.649 -0.8589  1.0415 -1.0107
  497TMC3    C7 7395   2.317   3.128  15.796  0.3791 -0.1791 -0.4848
  497TMC3    C8 7396   2.152   2.915  15.404 -0.2207  0.2242  0.2222
  497TMC3    O1 7397   2.246   3.064  15.869 -0.0989  0.2796  0.0117
  497TMC3    O2 7398   2.122   2.938  15.285 -0.3912  0.2399 -0.3185
  498MPD2     C 7399   2.954   4.303  10.815 -0.1941  0.0156 -0.7772
  498MPD2    C1 7400   2.927   4.284  10.684 -0.5404  0.8468  0.5020
  498MPD2    C2 7401   2.842   4.179  10.654  0.2760 -0.0848 -0.0269
  498MPD2    C3 7402   2.770   4.112  10.749  1.2479 -0.5348 -0.6870
  498MPD2    C4 7403   2.784   4.144  10.884 -0.3485  0.1200 -0.4474
  498MPD2    C5 7404   2.877   4.240  10.912  0.6419  0.2473 -0.2524
  498MPD2     H 7405   2.820   4.157  10.550 -2.0297  1.0305  0.2274
  498MPD2    H1 7406   2.730   4.095  10.964  0.2365 -0.0815 -0.1758
  498MPD2    H2 7407   3.018   4.381  10.856 -0.3672 -2.0465  3.4620
  498MPD2    H3 7408   2.904   4.257  11.016 -0.4409 -0.3061  0.1272
  498MPD2     N 7409   2.663   4.029  10.706  0.2042  0.4864 -0.2412
  498MPD2    H5 7410   2.671   4.005  10.608  1.1088 -0.6997  0.1263
  498MPD2    N1 7411   2.993   4.344  10.572 -0.4714 -0.3407 -0.1663
  498MPD2    H7 7412   2.981   4.294  10.484 -0.1920 -0.5661 -0.0800
  499TMC3    C1 7413   3.117   4.497  10.452  0.4314  0.0198  0.3962
  499TMC3    C2 7414   3.170   4.396  10.376  0.0381 -1.0146 -0.1634
  499TMC3    C3 7415   3.218   4.437  10.255  0.6437 -0.6262 -0.2289
  499TMC3    C4 7416   3.100   4.627  10.402  0.1828  0.3316 -0.1599
  499TMC3    C5 7417   3.143   4.660  10.273 -0.4167  0.1237  0.6399
  499TMC3    C6 7418   3.207   4.564  10.201  0.1736 -0.2290  0.3654
  499TMC3     C 7419   3.053   4.465  10.576  0.3684  1.0559  0.3222
  499TMC3     O 7420   3.050   4.552  10.660 -0.0659  0.3397 -0.2160
  499TMC3     H 7421   3.187   4.298  10.420 -1.1175 -1.3682 -0.5256
  499TMC3    H1 7422   3.058   4.699  10.471  0.4808 -0.8526  1.2678
  499TMC3    H2 7423   3.258   4.585  10.108 -3.8483  0.5945 -1.6876
  499TMC3    C7 7424   3.134   0.065  10.212  0.0389 -0.2845  0.6410
  499TMC3    C8 7425   3.262   4.332  10.160  0.7255 -0.2730  0.3945
  499TMC3    O1 7426   3.201   0.097  10.113  0.2425 -0.0125 -0.5078
  499TMC3    O2 7427   3.345   4.363  10.077  0.2609  0.5658 -0.6236
  500MPD2     C 7428   0.208   0.385  10.368 -0.4290 -0.3294  0.3727
  500MPD2    C1 7429   0.180   0.462  10.256  0.4898  0.0506 -0.4190
  500MPD2    C2 7430   0.068   0.431  10.179 -0.2193  0.6171  0.3156
  500MPD2    C3 7431   4.717   0.325  10.217  0.2362 -0.5144  0.4758
  500MPD2    C4 7432   0.033   0.245  10.320 -0.1269 -0.7082 -0.2841
  500MPD2    C5 7433   0.127   0.284  10.408 -0.1421 -0.2247  0.2832
  500MPD2     H 7434   0.038   0.492  10.094 -0.8136  1.1067  0.8739
  500MPD2    H1 7435   4.701   0.159  10.350  1.2206 -2.0196 -1.3452
  500MPD2    H2 7436   0.295   0.403  10.431 -1.2778  0.9956  1.1601
  500MPD2    H3 7437   0.156   0.222  10.492 -2.4271  0.5740  1.6865
  500MPD2     N 7438   4.597   0.285  10.152 -0.2244 -0.1188 -0.5590
  500MPD2    H5 7439   4.547   0.202  10.185  1.7853 -1.0870  0.0442
  500MPD2    N1 7440   0.258   0.570  10.212  0.0591  0.0643 -0.0135
  500MPD2    H7 7441   0.220   0.620  10.133 -1.2680 -2.0443 -0.7010
  501TMC3    C1 7442   0.439   0.712  10.188 -0.0203 -0.6430  0.0793
  501TMC3    C2 7443   0.361   0.822  10.197 -0.2279 -0.5155 -0.0381
  501TMC3    C3 7444   0.427   0.946  10.193 -0.8345  0.2172  0.3203
  501TMC3    C4 7445   0.577   0.718  10.180  0.8428  0.2025 -0.0188
  501TMC3    C5 7446   0.633   0.839  10.187  0.3073  0.5947 -0.4666
  501TMC3    C6 7447   0.564   0.958  10.182 -0.3051 -0.1376  0.2182
  501TMC3     C 7448   0.390   0.593  10.250  0.5908  0.4932 -0.4660
  501TMC3     O 7449   0.466   0.537  10.326  0.0776  0.0844 -0.1654
  501TMC3     H 7450   0.255   0.811  10.220 -0.8016  1.8077 -1.5053
  501TMC3    H1 7451   0.624   0.621  10.168  1.1573  0.1503  1.6043
  501TMC3    H2 7452   0.600   1.057  10.207  1.2644 -0.4547 -0.8109
  501TMC3    C7 7453   0.741   0.829  10.277 -0.1015  1.0555  0.2781
  501TMC3    C8 7454   0.355   1.052  10.249 -0.0964  0.2753  0.1465
  501TMC3    O1 7455   0.760   0.717  10.321 -0.6725 -0.0299 -0.3962
  501TMC3    O2 7456   0.306   1.030  10.362 -0.0206 -0.0750  0.1562
  502TMC3    C1 7457   0.183   4.111  15.201 -0.0031  0.1541 -0.4203
  502TMC3    C2 7458   0.175   4.126  15.064 -0.0933  0.4571 -0.0927
  502TMC3    C3 7459   0.042   4.150  15.024  0.2130 -0.5637  0.5936
  502TMC3    C4 7460   0.073   4.100  15.288 -0.4086 -0.6395  0.3433
  502TMC3    C5 7461   4.677   4.117  15.241 -0.3698 -0.1312 -0.6063
  502TMC3    C6 7462   4.659   4.144  15.105 -0.2777 -0.2254 -0.3084
  502TMC3     C 7463   0.323   4.087  15.246  0.4263 -0.3918  0.3643
  502TMC3     O 7464   0.422   4.114  15.179  0.4637  0.9609  0.5475
  502TMC3     H 7465   0.253   4.160  14.996  1.1457 -1.1049  0.5607
  502TMC3    H1 7466   0.084   4.101  15.396  1.5627 -0.2386  0.1502
  502TMC3    H2 7467   4.564   4.174  15.062 -0.4363 -1.3256 -0.7259
  502TMC3    C7 7468   4.575   4.046  15.315  0.0629 -0.4526 -0.9600
  502TMC3    C8 7469   0.028   4.214  14.895 -0.2716 -0.1591 -0.1204
  502TMC3    O1 7470   4.615   3.971  15.405 -0.1729 -0.2131 -0.4656
  502TMC3    O2 7471   4.660   4.286  14.876 -0.3166  0.5556  0.2066
  503MPD2     C 7472   1.792   0.256  16.680 -0.1261 -0.4208 -0.2801
  503MPD2    C1 7473   1.800   0.291  16.812 -0.4723  0.6559 -0.6289
  503MPD2    C2 7474   1.863   0.203  16.899  0.0314 -0.7079 -0.4000
  503MPD2    C3 7475   1.936   0.091  16.850 -0.0258  0.4494 -0.2022
  503MPD2    C4 7476   1.905   0.044  16.724  0.6920 -0.3014  1.0183
  503MPD2    C5 7477   1.831   0.130  16.641  0.0143 -0.4867  0.1136
  503MPD2     H 7478   1.864   0.220  17.006  0.4370  1.4875 -0.7602
  503MPD2    H1 7479   1.947   4.682  16.678  1.2662 -0.6770  2.2716
  503MPD2    H2 7480   1.748   0.325  16.610  2.4541  2.8236  1.3266
  503MPD2    H3 7481   1.829   0.107  16.535 -2.3835  2.1787 -0.4359
  503MPD2     N 7482   2.015   0.015  16.945 -0.0884  1.0435  0.3533
  503MPD2    H5 7483   2.022   0.049  17.041  0.1433 -0.7125  0.9486
  503MPD2    N1 7484   1.755   0.416  16.868 -0.7309  0.3281  0.0987
  503MPD2    H7 7485   1.761   0.421  16.969  0.5440  0.7723  0.0005
  504TMC3    C1 7486   2.158   4.570  17.024  0.3279  0.4423 -0.3565
  504TMC3    C2 7487   2.106   4.582  17.145 -0.0278 -0.2132  0.0426
  504TMC3    C3 7488   2.194   4.548  17.245  0.3017 -0.4162 -0.0270
  504TMC3    C4 7489   2.287   4.534  16.995  0.6089 -0.0431 -0.1610
  504TMC3    C5 7490   2.372   4.506  17.095 -0.2350  0.3939  0.2755
  504TMC3    C6 7491   2.326   4.520  17.229 -0.7176  0.0929  1.0191
  504TMC3     C 7492   2.087   4.625  16.911 -0.2301  0.2474  0.5293
  504TMC3     O 7493   2.112   4.580  16.800  0.4697  0.0710  0.3071
  504TMC3     H 7494   2.000   4.605  17.156 -0.6067 -2.7948 -0.2041
  504TMC3    H1 7495   2.322   4.545  16.893  1.7280  0.2321  0.2571
  504TMC3    H2 7496   2.391   4.525  17.315 -2.2966 -1.2924  2.2888
  504TMC3    C7 7497   2.506   4.483  17.056 -0.2311  0.7357  0.6715
  504TMC3    C8 7498   2.126   4.561  17.377 -0.2850 -0.9516 -0.4559
  504TMC3    O1 7499   2.526   4.504  16.938  0.2901  0.0469  0.3778
  504TMC3    O2 7500   2.043   4.647  17.376 -0.1425  0.4063  0.4152
  505MPD2     C 7501   1.686   3.630  10.608  0.6313 -0.6365 -0.4335
  505MPD2    C1 7502   1.645   3.508  10.556 -0.1504 -0.5939 -0.1887
  505MPD2    C2 7503   1.636   3.397  10.644  0.7139  0.0947 -0.4437
  505MPD2    C3 7504   1.671   3.405  10.771 -0.2690 -0.2396  0.2644
  505MPD2    C4 7505   1.724   3.528  10.813 -0.7023  0.5723 -0.1219
  505MPD2    C5 7506   1.717   3.639  10.733  0.6019  0.2318  0.0693
  505MPD2     H 7507   1.585   3.306  10.612 -0.8118  0.6540  0.3908
  505MPD2    H1 7508   1.780   3.532  10.905 -0.6165  1.2551 -0.2085
  505MPD2    H2 7509   1.685   3.717  10.543  0.1110 -1.0436 -0.9768
  505MPD2    H3 7510   1.750   3.734  10.774  1.1589 -0.6214  1.6113
  505MPD2     N 7511   1.665   3.302  10.874  0.0137  0.4252 -0.1795
  505MPD2    H5 7512   1.692   3.330  10.967  1.4907 -3.7538  0.6777
  505MPD2    N1 7513   1.614   3.502  10.415  0.5102 -0.2336  0.6558
  505MPD2    H7 7514   1.592   3.590  10.370  0.6797 -0.9915 -0.8899
  506TMC3    C1 7515   1.592   3.380  10.204  0.3671  0.3258  0.2076
  506TMC3    C2 7516   1.660   3.481  10.135 -0.4141  0.4467  0.2053
  506TMC3    C3 7517   1.728   3.439  10.023  0.4369  0.4492  0.3059
  506TMC3    C4 7518   1.590   3.255  10.159  0.4500  0.1236 -0.4468
  506TMC3    C5 7519   1.652   3.208  10.046  0.0868  0.4194  0.8096
  506TMC3    C6 7520   1.724   3.308   9.980 -0.2531  0.0628 -0.0529
  506TMC3     C 7521   1.606   3.383  10.354 -0.1997 -0.3616  0.6653
  506TMC3     O 7522   1.609   3.267  10.389  0.1931 -0.0816  0.9113
  506TMC3     H 7523   1.661   3.585  10.164  2.5859  0.8031 -1.1912
  506TMC3    H1 7524   1.521   3.187  10.207  0.5227 -0.0606 -0.6031
  506TMC3    H2 7525   1.779   3.283   9.890 -1.0654 -1.0208 -0.2425
  506TMC3    C7 7526   1.724   3.084  10.081  0.4631  0.0653 -0.4369
  506TMC3    C8 7527   1.840   3.518   9.984  0.5519 -0.5138  0.2288
  506TMC3    O1 7528   1.818   3.036  10.012  0.0209 -0.3241  0.1859
  506TMC3    O2 7529   1.890   3.501   9.871  0.1093  0.0050  0.6911
  507TMC3    C1 7530   3.333   4.163  14.463  1.3805  0.3368  0.3084
  507TMC3    C2 7531   3.265   4.065  14.388  0.1724 -0.1811  0.3569
  507TMC3    C3 7532   3.215   4.106  14.264 -0.4520 -0.6251 -0.2181
  507TMC3    C4 7533   3.348   4.290  14.417  0.5298 -0.4942 -0.6499
  507TMC3    C5 7534   3.280   4.321  14.302 -0.2871  0.2221  0.2248
  507TMC3    C6 7535   3.218   4.231  14.224  0.1917  0.4156 -0.2013
  507TMC3     C 7536   3.348   4.141  14.603 -0.7279  0.8997  0.6822
  507TMC3     O 7537   3.435   4.216  14.655 -0.0773  0.6250 -0.3281
  507TMC3     H 7538   3.250   3.963  14.421 -1.1461 -0.3562 -0.7409
  507TMC3    H1 7539   3.403   4.360  14.479 -0.9476 -0.6094  0.8007
  507TMC3    H2 7540   3.196   4.272  14.126 -3.3720 -1.5629 -0.2245
  507TMC3    C7 7541   3.194   4.443  14.318 -0.6719 -0.1104 -0.2218
  507TMC3    C8 7542   3.076   4.062  14.247  1.0347 -0.1199  0.2303
  507TMC3    O1 7543   3.087   4.442  14.264 -0.3112 -0.1131 -0.2169
  507TMC3    O2 7544   3.050   3.941  14.264  0.1450  0.4687  0.3339
  508MPD2     C 7545   3.769   1.702  15.627 -0.9670  0.1465  0.2974
  508MPD2    C1 7546   3.843   1.819  15.633  0.1529 -0.8059  0.8573
  508MPD2    C2 7547   3.889   1.881  15.518 -0.0419  0.5153 -0.4516
  508MPD2    C3 7548   3.857   1.832  15.395  0.7148 -0.4178 -1.0765
  508MPD2    C4 7549   3.772   1.722  15.382 -1.3177 -0.0261 -0.2713
  508MPD2    C5 7550   3.733   1.657  15.499  0.0839  0.2560 -0.0428
  508MPD2     H 7551   3.948   1.972  15.516 -2.2551  1.9505 -0.3830
  508MPD2    H1 7552   3.754   1.677  15.285 -0.0664  2.8571 -1.8343
  508MPD2    H2 7553   3.725   1.654  15.714 -0.1063 -0.2155  0.5321
  508MPD2    H3 7554   3.677   1.564  15.497  0.6084 -0.0740  0.6995
  508MPD2     N 7555   3.907   1.904  15.287  0.0762  0.8635  0.4376
  508MPD2    H5 7556   3.992   1.959  15.295  0.1169  1.1521 -2.1110
  508MPD2    N1 7557   3.868   1.859  15.764  1.1782 -0.1513 -0.0557
  508MPD2    H7 7558   3.816   1.803  15.831  1.2713  0.8949  0.8723
  509TMC3    C1 7559   3.887   2.182  14.927  0.0322  0.0127  0.3833
  509TMC3    C2 7560   4.016   2.213  14.938 -0.5005  0.0977 -0.7118
  509TMC3    C3 7561   4.100   2.131  15.009 -0.3434  0.0266  0.0316
  509TMC3    C4 7562   3.835   2.063  14.982  0.5207 -0.5696 -0.1741
  509TMC3    C5 7563   3.917   1.992  15.067  0.4105 -0.0234 -0.3206
  509TMC3    C6 7564   4.049   2.032  15.085  0.9422  0.2679 -0.1229
  509TMC3     C 7565   3.816   2.246  14.815 -0.5232  0.2231  0.1423
  509TMC3     O 7566   3.723   2.182  14.763 -0.1497  0.1495  0.6423
  509TMC3     H 7567   4.063   2.294  14.882  1.4000 -0.0940  0.6152
  509TMC3    H1 7568   3.734   2.030  14.961  0.0092 -0.0775  1.4596
  509TMC3    H2 7569   4.111   1.969  15.147 -1.2669 -0.9646  0.8294
  509TMC3    C7 7570   3.854   1.902  15.157  0.3911 -0.3993 -0.2828
  509TMC3    C8 7571   4.235   2.177  15.046 -0.0086  0.0068 -1.1802
  509TMC3    O1 7572   3.748   1.851  15.121 -0.3597 -0.9009  0.8134
  509TMC3    O2 7573   4.330   2.101  15.036  0.6874 -0.3125  0.3882
  510MPD2     C 7574   1.823   3.496  14.124  0.0296  0.9585  0.2995
  510MPD2    C1 7575   1.870   3.574  14.230 -0.7718 -0.0725 -0.7384
  510MPD2    C2 7576   2.006   3.629  14.230  0.2661 -1.0075 -0.6175
  510MPD2    C3 7577   2.090   3.593  14.133 -0.5253 -0.3980 -0.8636
  510MPD2    C4 7578   2.044   3.503  14.035 -0.1628  0.5121 -0.6447
  510MPD2    C5 7579   1.912   3.459  14.029 -0.3964  0.1987  0.3028
  510MPD2     H 7580   2.035   3.685  14.318 -0.0903  1.4455 -2.0535
  510MPD2    H1 7581   2.115   3.454  13.969 -0.2999  1.4769 -1.5076
  510MPD2    H2 7582   1.732   3.438  14.133  0.6476 -0.0184  0.2659
  510MPD2    H3 7583   1.884   3.384  13.956  0.5697  1.1474 -1.0550
  510MPD2     N 7584   2.226   3.619  14.148  0.4668  0.6786  0.5395
  510MPD2    H5 7585   2.253   3.662  14.236  2.0672  2.6023 -0.8862
  510MPD2    N1 7586   1.783   3.594  14.343 -0.1813 -0.0435 -0.5836
  510MPD2    H7 7587   1.703   3.533  14.354 -1.8829  2.2012 -0.5888
  511TMC3    C1 7588   1.767   3.598  14.572 -0.3741  0.3512 -0.3604
  511TMC3    C2 7589   1.707   3.671  14.669  0.1029  0.0159 -0.2251
  511TMC3    C3 7590   1.631   3.602  14.761 -0.6161  0.8093 -0.6131
  511TMC3    C4 7591   1.769   3.462  14.569 -0.6145  0.2655 -0.3912
  511TMC3    C5 7592   1.697   3.396  14.669  1.0572  0.0558  0.5826
  511TMC3    C6 7593   1.620   3.464  14.760 -0.6918 -0.4108  0.8230
  511TMC3     C 7594   1.830   3.654  14.457 -0.0736  0.1918 -0.0291
  511TMC3     O 7595   1.877   3.768  14.463  0.0933  0.2980  0.1301
  511TMC3     H 7596   1.706   3.779  14.668 -1.0429  0.0080  1.2348
  511TMC3    H1 7597   1.839   3.406  14.508 -1.5669  1.9850 -3.0287
  511TMC3    H2 7598   1.568   3.412  14.840 -0.7578  0.2868  1.2376
  511TMC3    C7 7599   1.682   3.254  14.651  0.6754  0.0892 -0.0429
  511TMC3    C8 7600   1.538   3.686  14.840 -0.1553 -0.4889  0.0469
  511TMC3    O1 7601   1.694   3.216  14.536 -0.0283  0.4773 -0.1323
  511TMC3    O2 7602   1.556   3.806  14.849 -0.4494 -0.0658  0.3573
  512TMC3    C1 7603   0.661   3.083  13.219 -0.2926  0.3436 -0.2009
  512TMC3    C2 7604   0.779   3.036  13.264  0.0042 -0.4770 -0.4157
  512TMC3    C3 7605   0.821   2.910  13.220 -0.6375 -0.1552  0.0278
  512TMC3    C4 7606   0.583   2.998  13.143 -0.3560 -0.4127 -0.3037
  512TMC3    C5 7607   0.629   2.876  13.106 -0.2668 -0.2151 -0.8170
  512TMC3    C6 7608   0.744   2.826  13.146 -0.5998 -0.0508  0.2016
  512TMC3     C 7609   0.604   3.202  13.269 -0.0653 -0.6032 -0.5240
  512TMC3     O 7610   0.482   3.203  13.278 -0.0130 -0.1711 -0.1987
  512TMC3     H 7611   0.819   3.078  13.356 -1.4527 -1.7822  0.8143
  512TMC3    H1 7612   0.484   3.029  13.112  0.1783  0.2579 -1.3393
  512TMC3    H2 7613   0.786   2.731  13.114  0.4250  0.7164 -0.7607
  512TMC3    C7 7614   0.538   2.803  13.029 -0.4640  0.0299  0.3789
  512TMC3    C8 7615   0.965   2.874  13.225  0.1163  0.0269  0.3606
  512TMC3    O1 7616   0.455   2.869  12.969  0.2906  0.1069 -0.9511
  512TMC3    O2 7617   1.008   2.760  13.203  0.1348  0.5063  0.0142
  513MPD2     C 7618   2.449   3.356  12.964  0.5088  0.1895  0.3395
  513MPD2    C1 7619   2.396   3.241  13.012  1.1122  0.4557  0.0943
  513MPD2    C2 7620   2.454   3.164  13.112  0.0477  0.5351 -0.1687
  513MPD2    C3 7621   2.566   3.216  13.171 -0.6332 -0.4313 -0.5753
  513MPD2    C4 7622   2.607   3.342  13.140  0.2999 -0.4599  0.0182
  513MPD2    C5 7623   2.547   3.412  13.041 -0.1674 -0.0514  0.5968
  513MPD2     H 7624   2.422   3.062  13.133  1.1928  0.3078  0.4729
  513MPD2    H1 7625   2.688   3.392  13.192 -0.0352 -0.3926  0.4745
  513MPD2    H2 7626   2.402   3.406  12.879 -2.6177  0.3601  2.1770
  513MPD2    H3 7627   2.591   3.506  13.012 -1.2761  0.4664  0.5870
  513MPD2     N 7628   2.624   3.144  13.271 -0.6315  0.0018 -0.5067
  513MPD2    H5 7629   2.592   3.049  13.288 -0.0491 -0.0679  0.2163
  513MPD2    N1 7630   2.291   3.186  12.940 -0.3067  0.0457 -0.5271
  513MPD2    H7 7631   2.273   3.243  12.858  3.6615  1.0502 -0.7228
  514TMC3    C1 7632   2.147   3.025  12.864 -0.3216 -0.2498 -0.5348
  514TMC3    C2 7633   2.206   3.039  12.739  0.5535  1.1354 -0.1296
  514TMC3    C3 7634   2.242   2.929  12.672 -0.3891  0.0563  0.2258
  514TMC3    C4 7635   2.110   2.902  12.911  0.4035 -0.9029 -0.1612
  514TMC3    C5 7636   2.153   2.793  12.842 -0.2437  0.0545 -0.2848
  514TMC3    C6 7637   2.206   2.802  12.718 -0.2979 -0.7201  0.5227
  514TMC3     C 7638   2.205   3.089  12.976  0.0554 -0.4397 -0.5439
  514TMC3     O 7639   2.201   3.030  13.084  0.3525 -0.1741  0.6868
  514TMC3     H 7640   2.258   3.130  12.712 -2.2689  2.4709 -1.1319
  514TMC3    H1 7641   2.055   2.884  13.003 -0.0781 -2.3834 -0.7284
  514TMC3    H2 7642   2.220   2.717  12.654 -0.6709  0.1289 -0.6863
  514TMC3    C7 7643   2.234   2.711  12.928  0.3184  0.4702 -0.3768
  514TMC3    C8 7644   2.362   2.934  12.599 -0.9580 -0.4538 -0.0452
  514TMC3    O1 7645   2.229   2.724  13.047 -0.4022 -0.0977 -0.3686
  514TMC3    O2 7646   2.369   3.009  12.504  0.4059  0.0970 -0.5885
  515MPD2     C 7647   0.390   0.251  15.282  0.1658  0.6711  0.3656
  515MPD2    C1 7648   0.467   0.245  15.163  0.4681  0.0059  0.1700
  515MPD2    C2 7649   0.602   0.281  15.156 -0.2163  0.0610  0.6832
  515MPD2    C3 7650   0.665   0.328  15.271 -0.3947  0.0244  0.2755
  515MPD2    C4 7651   0.592   0.328  15.391 -0.2267 -0.0730  0.2206
  515MPD2    C5 7652   0.452   0.297  15.393  0.1698  0.0382  0.9928
  515MPD2     H 7653   0.662   0.266  15.066 -2.4445 -0.5434 -0.7107
  515MPD2    H1 7654   0.635   0.365  15.483  1.1953 -0.3646 -0.3292
  515MPD2    H2 7655   0.285   0.225  15.288  0.9736 -2.4402  0.8742
  515MPD2    H3 7656   0.398   0.302  15.487 -0.7955 -1.4859  0.5237
  515MPD2     N 7657   0.801   0.362  15.279  0.1621  0.2288  0.1166
  515MPD2    H5 7658   0.838   0.384  15.371  1.1587 -1.7967  0.2043
  515MPD2    N1 7659   0.414   0.197  15.045  0.6043 -0.3352 -0.0765
  515MPD2    H7 7660   0.472   0.201  14.962  0.6571 -2.2867 -0.1215
  516TMC3    C1 7661   0.279   0.061  14.901  0.1248  0.8879 -0.0607
  516TMC3    C2 7662   0.339   0.123  14.797  0.1795  0.6266 -0.5608
  516TMC3    C3 7663   0.379   0.047  14.687 -0.3206  0.7118  0.3146
  516TMC3    C4 7664   0.291   4.649  14.914 -0.4029 -0.3503 -0.0387
  516TMC3    C5 7665   0.332   4.574  14.806  0.1545  0.2142 -0.7648
  516TMC3    C6 7666   0.365   4.637  14.689  0.1051 -0.3859 -0.3705
  516TMC3     C 7667   0.293   0.131  15.029  0.0997 -0.5596  0.6190
  516TMC3     O 7668   0.208   0.101  15.112 -0.6169 -0.0469  0.1305
  516TMC3     H 7669   0.342   0.230  14.782 -0.1233  0.7090 -0.0210
  516TMC3    H1 7670   0.257   4.599  15.004  2.2593 -1.0715  0.5692
  516TMC3    H2 7671   0.383   4.576  14.601 -1.8540  0.2590 -1.2311
  516TMC3    C7 7672   0.387   4.445  14.847  0.6328  0.0735 -0.0154
  516TMC3    C8 7673   0.447   0.096  14.571  0.0115 -0.1283 -0.7472
  516TMC3    O1 7674   0.374   4.412  14.963 -0.1654 -0.5729 -0.2048
  516TMC3    O2 7675   0.461   0.016  14.483  0.1199  0.3774 -0.0400
  517MPD2     C 7676   4.621   1.431  17.572  0.3991  0.5770  0.5153
  517MPD2    C1 7677   0.027   1.440  17.566 -0.3631  0.5139  0.1399
  517MPD2    C2 7678   0.097   1.518  17.655 -0.3797  0.5151  0.5716
  517MPD2    C3 7679   0.033   1.589   0.041  0.0332  0.6779 -0.4051
  517MPD2    C4 7680   4.629   1.571   0.048  0.0466  0.3051  0.1198
  517MPD2    C5 7681   4.551   1.498  17.667 -0.0718  0.1532  0.0076
  517MPD2     H 7682   0.205   1.517  17.647 -0.4695  0.8538 -0.6694
  517MPD2    H1 7683   4.592   1.640   0.124  0.5569  1.3117 -0.5437
  517MPD2    H2 7684   4.559   1.372  17.506 -1.7121  0.2318  2.8124
  517MPD2    H3 7685   4.445   1.477  17.668 -0.1767  0.6740 -0.4479
  517MPD2     N 7686   0.092   1.686   0.125 -0.0532 -0.1700  0.0401
  517MPD2    H5 7687   0.037   1.739   0.191 -2.0288 -0.5350 -1.3275
  517MPD2    N1 7688   0.106   1.372  17.465 -0.6432  0.1589 -0.3556
  517MPD2    H7 7689   0.207   1.363  17.474 -1.0042  1.1592  4.5839
  518TMC3    C1 7690   0.165   1.214  17.310  0.3485 -0.0174 -0.2327
  518TMC3    C2 7691   0.123   1.096  17.253 -0.2027 -1.0169 -0.1049
  518TMC3    C3 7692   0.215   1.017  17.185  0.4302 -0.3157 -0.6940
  518TMC3    C4 7693   0.299   1.259  17.299  0.6102  0.0158 -0.0891
  518TMC3    C5 7694   0.385   1.176  17.230 -0.4251  0.0654 -0.2730
  518TMC3    C6 7695   0.344   1.053  17.179 -0.0939  0.4176  0.3329
  518TMC3     C 7696   0.057   1.298  17.366 -0.8885  0.2133 -0.6007
  518TMC3     O 7697   4.666   1.270  17.347 -0.1011  0.2861 -0.0410
  518TMC3     H 7698   0.023   1.056  17.263 -1.0653  1.2390  0.2143
  518TMC3    H1 7699   0.332   1.357  17.333  1.2093 -0.4178  0.5903
  518TMC3    H2 7700   0.418   0.981  17.147  0.0430  0.5110  0.4416
  518TMC3    C7 7701   0.530   1.200  17.268  0.2308 -0.8334  0.7362
  518TMC3    C8 7702   0.165   0.890  17.139 -0.7805 -0.0544 -0.2641
  518TMC3    O1 7703   0.553   1.303  17.335 -0.4947 -0.1210 -0.4995
  518TMC3    O2 7704   0.042   0.877  17.136  0.8760  0.8420 -0.3957
  519MPD2     C 7705   2.166   0.177  13.917  0.0386  0.0426 -0.0208
  519MPD2    C1 7706   2.113   0.079  13.834  0.4824  0.3716 -0.1128
  519MPD2    C2 7707   2.158   4.674  13.840 -0.0429 -0.0324  0.0800
  519MPD2    C3 7708   2.262   4.635  13.924  0.3990 -0.3723 -0.2453
  519MPD2    C4 7709   2.319   0.008  14.001 -0.1761 -0.3326  0.7146
  519MPD2    C5 7710   2.268   0.135  13.999 -0.1175  0.3398 -0.6127
  519MPD2     H 7711   2.117   4.608  13.764  0.0035  1.6349 -1.4117
  519MPD2    H1 7712   2.402   4.727  14.070 -0.3173 -0.8035  0.8254
  519MPD2    H2 7713   2.132   0.280  13.924 -1.3618 -0.4701  0.6586
  519MPD2    H3 7714   2.302   0.202  14.076  2.8823  1.4016 -2.8450
  519MPD2     N 7715   2.302   4.498  13.938 -0.3300  0.8474 -0.2390
  519MPD2    H5 7716   2.361   4.472  14.016 -0.3046  0.7608 -0.2872
  519MPD2    N1 7717   1.998   0.119  13.765  0.0580  0.4321 -0.5452
  519MPD2    H7 7718   1.992   0.220  13.763  1.0217  0.4989  0.0956
  520TMC3    C1 7719   2.296   4.257  13.902 -0.0130 -0.6872 -1.1830
  520TMC3    C2 7720   2.216   4.159  13.847 -0.4303 -0.2595  0.0094
  520TMC3    C3 7721   2.252   4.024  13.844 -0.0787  0.0389 -0.3549
  520TMC3    C4 7722   2.432   4.228  13.925 -0.1651  0.2494  0.3505
  520TMC3    C5 7723   2.456   4.094  13.937  0.6019  0.6209  0.0825
  520TMC3    C6 7724   2.374   3.994  13.897 -0.5944  0.1821 -1.0831
  520TMC3     C 7725   2.253   4.396  13.859 -0.2202  0.2420 -0.1726
  520TMC3     O 7726   2.159   4.399  13.779  0.1111 -0.5598 -0.5207
  520TMC3     H 7727   2.115   4.189  13.819 -0.5117 -0.5305  0.0151
  520TMC3    H1 7728   2.490   4.311  13.963 -0.6512  0.5214  0.5073
  520TMC3    H2 7729   2.411   3.892  13.892 -1.7306 -0.2443 -0.8060
  520TMC3    C7 7730   2.597   4.060  13.940  0.3555 -0.4051 -0.4513
  520TMC3    C8 7731   2.222   3.951  13.719  0.0484  0.3914  0.7389
  520TMC3    O1 7732   2.622   3.943  13.960 -0.5663 -0.4735 -0.0607
  520TMC3    O2 7733   2.287   3.846  13.693 -0.1110 -0.8204 -0.2030
  521MPD2     C 7734   3.251   2.449  17.236 -0.3015 -0.1953  0.6394
  521MPD2    C1 7735   3.162   2.512  17.147  0.2185 -0.3767  0.2538
  521MPD2    C2 7736   3.220   2.573  17.031  0.1300  0.2327  0.0475
  521MPD2    C3 7737   3.357   2.572  17.007 -0.4402 -0.1106  0.3938
  521MPD2    C4 7738   3.441   2.512  17.095 -0.0586 -0.8081 -0.4262
  521MPD2    C5 7739   3.384   2.456  17.208  0.6678  0.5895  0.3989
  521MPD2     H 7740   3.150   2.617  16.961  2.4421 -1.0813 -3.0723
  521MPD2    H1 7741   3.549   2.506  17.081 -0.1751  0.0789 -1.7861
  521MPD2    H2 7742   3.221   2.386  17.319  1.9872 -0.4639  1.2657
  521MPD2    H3 7743   3.447   2.397  17.273 -0.8471 -2.1188 -0.5754
  521MPD2     N 7744   3.410   2.643  16.903 -0.2961 -0.4445 -0.6894
  521MPD2    H5 7745   3.340   2.697  16.854 -0.8010 -0.3633  0.1087
  521MPD2    N1 7746   3.025   2.511  17.178 -0.3815 -0.0577  0.3296
  521MPD2    H7 7747   3.007   2.464  17.266  2.1735 -0.9796  0.3431
  522TMC3    C1 7748   3.566   2.753  16.761 -0.0099  0.0317  0.4545
  522TMC3    C2 7749   3.678   2.734  16.689  0.5260 -0.5415 -0.1654
  522TMC3    C3 7750   3.729   2.842  16.629 -0.7971  0.1252 -0.7875
  522TMC3    C4 7751   3.506   2.880  16.771 -0.4010  0.6886 -0.2956
  522TMC3    C5 7752   3.566   2.988  16.720  0.6449 -0.0348 -0.6820
  522TMC3    C6 7753   3.674   2.971  16.640  0.1450  0.0409 -0.4871
  522TMC3     C 7754   3.545   2.657  16.865 -0.3553  0.0438  0.1511
  522TMC3     O 7755   3.637   2.578  16.884 -0.0915  0.2369 -0.1764
  522TMC3     H 7756   3.721   2.635  16.681 -1.2816 -1.4147  0.8564
  522TMC3    H1 7757   3.434   2.899  16.849  1.2983 -0.3330  1.5380
  522TMC3    H2 7758   3.712   3.057  16.587  0.8059  0.1900  0.2265
  522TMC3    C7 7759   3.477   3.107  16.703 -0.7599 -0.1427  0.4147
  522TMC3    C8 7760   3.817   2.832  16.516  0.1447 -0.2530 -0.4795
  522TMC3    O1 7761   3.532   3.214  16.718 -0.2845  0.6871 -0.2411
  522TMC3    O2 7762   3.873   2.933  16.475 -0.0889  0.1329 -0.1333
  523MPD2     C 7763   0.945   2.074  10.383 -0.0366  0.3875  0.1597
  523MPD2    C1 7764   0.895   2.038  10.255  0.1732  0.0315 -0.2299
  523MPD2    C2 7765   0.822   2.137  10.185  0.1999 -0.4515 -0.8480
  523MPD2    C3 7766   0.803   2.262  10.246  0.3928  0.4654 -0.5807
  523MPD2    C4 7767   0.869   2.295  10.362 -0.5378 -0.9413 -0.6855
  523MPD2    C5 7768   0.938   2.201  10.428  0.3128  0.1206  0.0080
  523MPD2     H 7769   0.755   2.114  10.103 -1.8295  0.3314  0.5708
  523MPD2    H1 7770   0.863   2.388  10.416  2.0592 -1.3298  0.2599
  523MPD2    H2 7771   1.002   1.999  10.437  0.0272 -0.2748 -0.8261
  523MPD2    H3 7772   0.997   2.230  10.515  0.9179 -0.1427 -0.3162
  523MPD2     N 7773   0.708   2.360  10.193  0.4628 -0.4320  0.1393
  523MPD2    H5 7774   0.650   2.336  10.113  0.2546 -0.3588  0.2695
  523MPD2    N1 7775   0.911   1.902  10.215  0.8428  0.7918 -0.3442
  523MPD2    H7 7776   0.957   1.834  10.275  1.3575  0.5479 -1.0135
  524TMC3    C1 7777   0.568   2.535  10.164 -0.1125 -0.3302  0.0360
  524TMC3    C2 7778   0.550   2.501  10.030 -0.6706 -0.3514  0.1545
  524TMC3    C3 7779   0.461   2.567   9.954  0.8143  0.7332 -0.5750
  524TMC3    C4 7780   0.499   2.632  10.213 -0.0383 -0.0918 -0.0127
  524TMC3    C5 7781   0.400   2.699  10.141  0.8169 -0.4425 -0.2266
  524TMC3    C6 7782   0.382   2.665  10.009  0.3908  0.6110 -0.4378
  524TMC3     C 7783   0.668   2.477  10.249 -0.0572  0.8769 -0.2235
  524TMC3     O 7784   0.698   2.534  10.352  0.2590 -0.0572  0.1464
  524TMC3     H 7785   0.635   2.462   9.975 -0.8788  0.0451 -0.4522
  524TMC3    H1 7786   0.516   2.663  10.315  1.3632 -1.1945  0.0941
  524TMC3    H2 7787   0.301   2.713   9.955  1.4963  0.9469 -1.8044
  524TMC3    C7 7788   0.301   2.786  10.203 -0.5959  0.6096 -0.4423
  524TMC3    C8 7789   0.433   2.549   9.816  0.1635 -0.0087  0.0161
  524TMC3    O1 7790   0.291   2.783  10.326  0.2200 -0.1153  0.2466
  524TMC3    O2 7791   0.393   2.645   9.752  0.6738 -0.2187 -0.8019
  525MPD2     C 7792   3.550   3.926  14.148 -0.1250  0.5416  0.4145
  525MPD2    C1 7793   3.681   3.958  14.175  0.2184 -0.1683 -0.3160
  525MPD2    C2 7794   3.723   4.086  14.152 -0.1878  0.0325 -0.1271
  525MPD2    C3 7795   3.629   4.182  14.110 -0.3651 -0.1774 -0.1824
  525MPD2    C4 7796   3.496   4.144  14.076 -0.1915 -0.1302 -0.7438
  525MPD2    C5 7797   3.468   4.010  14.083  0.3258  0.7768  0.1614
  525MPD2     H 7798   3.817   4.115  14.198  0.2338  0.4457 -1.2695
  525MPD2    H1 7799   3.416   4.208  14.041 -1.1942  0.5086  2.7579
  525MPD2    H2 7800   3.515   3.824  14.154 -0.4972  0.4384 -3.8073
  525MPD2    H3 7801   3.365   3.986  14.060  0.7935  0.4630 -1.6046
  525MPD2     N 7802   3.659   4.322  14.105  0.4026 -0.8015  0.7945
  525MPD2    H5 7803   3.584   4.388  14.093  0.2307 -1.2103 -0.3268
  525MPD2    N1 7804   3.770   3.868  14.241 -0.2831 -0.1428 -0.2673
  525MPD2    H7 7805   3.860   3.899  14.275  1.3169 -2.1904 -2.6201
  526TMC3    C1 7806   3.827   3.699  14.384  0.1155  0.9833  0.9416
  526TMC3    C2 7807   3.773   3.628  14.489 -0.0833 -0.0630  0.6360
  526TMC3    C3 7808   3.857   3.545  14.566  0.0120  0.0737  0.3913
  526TMC3    C4 7809   3.955   3.679  14.332 -0.2629  0.5819 -0.2420
  526TMC3    C5 7810   4.033   3.589  14.406  0.2079 -0.5100 -0.8638
  526TMC3    C6 7811   3.987   3.530  14.526 -0.0294  0.1966  0.4550
  526TMC3     C 7812   3.730   3.753  14.293 -0.1288  0.1947 -0.5861
  526TMC3     O 7813   3.617   3.708  14.301  0.0536 -0.4344 -0.0198
  526TMC3     H 7814   3.671   3.643  14.523 -0.5566 -1.4583 -0.1676
  526TMC3    H1 7815   3.975   3.731  14.239  0.6421 -0.2538 -0.5170
  526TMC3    H2 7816   4.047   3.456  14.579 -0.0044 -0.7462 -0.8763
  526TMC3    C7 7817   4.169   3.552  14.366 -0.0397 -0.8669  0.1018
  526TMC3    C8 7818   3.797   3.480  14.679  0.2797  0.1207 -0.2263
  526TMC3    O1 7819   4.214   3.460  14.432 -0.2086  0.1615 -0.0326
  526TMC3    O2 7820   3.862   3.483  14.783  0.0555 -0.2129  0.2567
  527MPD2     C 7821   1.937   2.043   0.517 -0.0579 -0.4821 -0.4661
  527MPD2    C1 7822   1.960   2.036   0.650 -0.6146 -0.1675 -0.5665
  527MPD2    C2 7823   2.094   2.026   0.683 -0.4047 -0.6480 -0.4352
  527MPD2    C3 7824   2.201   2.013   0.589 -0.0366 -0.4428 -0.5661
  527MPD2    C4 7825   2.169   2.014   0.452  0.1809 -0.0919 -0.2837
  527MPD2    C5 7826   2.039   2.034   0.420  0.6207  0.1789 -0.3613
  527MPD2     H 7827   2.111   2.049   0.788  1.8225  2.4767 -1.5036
  527MPD2    H1 7828   2.246   2.018   0.376 -1.1745  3.3856 -1.4425
  527MPD2    H2 7829   1.839   2.046   0.472  0.1893  1.1891 -0.8853
  527MPD2    H3 7830   2.016   2.046   0.315 -0.1332 -1.0157 -0.3295
  527MPD2     N 7831   2.344   2.016   0.639  0.7905  0.4179 -0.8283
  527MPD2    H5 7832   2.363   2.024   0.738 -2.8955 -0.7406 -0.0029
  527MPD2    N1 7833   1.870   2.080   0.743 -0.1932  0.4102  0.3466
  527MPD2    H7 7834   1.907   2.097   0.836 -1.9259 -0.2011  1.1447
  528TMC3    C1 7835   1.672   2.135   0.839 -0.2144 -0.6198 -0.0473
  528TMC3    C2 7836   1.712   2.078   0.955  0.0224 -0.3868  0.7387
  528TMC3    C3 7837   1.622   2.076   1.057  0.7214 -0.1537  0.4608
  528TMC3    C4 7838   1.556   2.199   0.823 -0.1081 -0.1772  0.4509
  528TMC3    C5 7839   1.474   2.205   0.933  0.2456  0.0953 -0.3539
  528TMC3    C6 7840   1.505   2.142   1.051 -0.1596  0.3348  0.3965
  528TMC3     C 7841   1.741   2.115   0.714 -0.1482 -0.4047 -0.1263
  528TMC3     O 7842   1.676   2.111   0.612  0.0249 -0.6033  0.1319
  528TMC3     H 7843   1.792   2.006   0.957  0.4299  0.0978  1.6192
  528TMC3    H1 7844   1.518   2.237   0.729  2.7412  1.4593 -0.0603
  528TMC3    H2 7845   1.436   2.146   1.135  0.4238 -2.2483  1.0229
  528TMC3    C7 7846   1.350   2.284   0.921 -0.2801  0.0641  0.2154
  528TMC3    C8 7847   1.681   2.054   1.189  0.2040  0.0165  0.6338
  528TMC3    O1 7848   1.312   2.323   0.811  0.0129  0.4888  0.2463
  528TMC3    O2 7849   1.804   2.030   1.189  0.2413 -0.0101 -0.4998
  529MPD2     C 7850   0.136   0.025   0.393  0.2461 -0.2485 -0.5296
  529MPD2    C1 7851   0.006   0.007   0.362  0.0238 -0.9671  0.0031
  529MPD2    C2 7852   4.703   0.008   0.229  0.5882 -0.1567 -0.0632
  529MPD2    C3 7853   0.070   0.028   0.124  0.2180 -0.4659  0.0936
  529MPD2    C4 7854   0.198   0.036   0.162  0.0601 -1.0057 -0.1624
  529MPD2    C5 7855   0.234   0.033   0.296  0.2854  0.0465  0.3939
  529MPD2     H 7856   4.597   4.716   0.212  1.5644 -2.6183 -3.4540
  529MPD2    H1 7857   0.277   0.048   0.088  0.0085  1.4647  0.1913
  529MPD2    H2 7858   0.159   0.027   0.499 -0.6723 -1.1236 -0.3150
  529MPD2    H3 7859   0.334   0.048   0.336 -0.1363 -0.8183  1.7654
  529MPD2     N 7860   0.033   0.034  17.699 -0.5515  0.9975 -0.1209
  529MPD2    H5 7861   0.113   0.040  17.636 -1.7952  0.3690 -1.7762
  529MPD2    N1 7862   4.628   4.711   0.456  0.4232 -0.1327 -0.1466
  529MPD2    H7 7863   4.539   4.687   0.415 -0.5728 -3.5480  4.1302
  530TMC3    C1 7864   4.552   4.662   0.662 -0.0423 -0.4397  0.2427
  530TMC3    C2 7865   4.592   4.631   0.785  0.6210  0.1256  0.8162
  530TMC3    C3 7866   4.508   4.558   0.863 -0.0634 -0.2226 -0.3042
  530TMC3    C4 7867   4.429   4.632   0.611 -0.2968  0.5818  0.1514
  530TMC3    C5 7868   4.348   4.556   0.693  0.1847 -0.5558  0.3860
  530TMC3    C6 7869   4.386   4.519   0.822 -0.3589  0.4857 -0.3125
  530TMC3     C 7870   4.639   0.018   0.583  0.9120 -0.9671 -0.4893
  530TMC3     O 7871   4.720   0.086   0.646 -0.1992 -0.2452  0.4387
  530TMC3     H 7872   4.688   4.658   0.826  0.4264 -0.2549  1.5183
  530TMC3    H1 7873   4.387   4.677   0.523 -3.6305  0.6399  1.7653
  530TMC3    H2 7874   4.320   4.461   0.885  0.3948  1.2194  1.1593
  530TMC3    C7 7875   4.207   4.583   0.663 -0.3111 -0.4004 -0.1608
  530TMC3    C8 7876   4.541   4.557   1.001  0.3162 -0.9661  0.0775
  530TMC3    O1 7877   4.180   4.628   0.551  0.1516 -0.0024 -0.2097
  530TMC3    O2 7878   4.437   4.547   1.067  0.1173  0.3455 -0.6504
  531MPD2     C 7879   2.701   2.508  13.022  0.4748  0.1360  0.5589
  531MPD2    C1 7880   2.629   2.600  13.092 -0.6419 -0.5303 -0.1149
  531MPD2    C2 7881   2.509   2.648  13.043  0.0045 -0.4540 -0.6634
  531MPD2    C3 7882   2.463   2.614  12.917 -0.0119 -0.3077 -0.3836
  531MPD2    C4 7883   2.542   2.521  12.839  0.4449 -0.1399  0.3291
  531MPD2    C5 7884   2.649   2.467  12.899  0.4093  0.5331  0.2192
  531MPD2     H 7885   2.450   2.714  13.105  0.2474  0.1305 -1.0583
  531MPD2    H1 7886   2.500   2.489  12.744  0.8038  1.6928 -0.4521
  531MPD2    H2 7887   2.793   2.472  13.066 -0.5579 -2.5012  0.5659
  531MPD2    H3 7888   2.705   2.385  12.857  0.3042  0.7493 -0.3380
  531MPD2     N 7889   2.340   2.659  12.861  0.9171  0.3425 -0.3977
  531MPD2    H5 7890   2.307   2.633  12.769  2.4051 -3.6195  0.2143
  531MPD2    N1 7891   2.698   2.657  13.201 -0.4325  0.9773  0.1498
  531MPD2    H7 7892   2.796   2.631  13.210 -0.3240  1.1455 -0.5027
  532TMC3    C1 7893   2.742   2.827  13.368  0.6093  0.4469 -0.6532
  532TMC3    C2 7894   2.688   2.956  13.401  0.5846 -0.3053  0.5880
  532TMC3    C3 7895   2.780   3.056  13.421 -0.1185 -0.4047  0.0791
  532TMC3    C4 7896   2.878   2.810  13.355  0.2227 -0.0446 -0.3240
  532TMC3    C5 7897   2.966   2.907  13.388 -0.0397 -0.3614 -0.7212
  532TMC3    C6 7898   2.917   3.033  13.420 -0.1620  1.0287  0.3755
  532TMC3     C 7899   2.650   2.748  13.290 -0.4404  0.0742 -0.1607
  532TMC3     O 7900   2.536   2.786  13.300  0.2473  0.5441 -0.0034
  532TMC3     H 7901   2.588   2.960  13.442 -0.3040  3.8320 -1.9621
  532TMC3    H1 7902   2.918   2.715  13.322  0.9543 -0.3204  1.3209
  532TMC3    H2 7903   2.986   3.116  13.433  0.0002  0.7883  1.0644
  532TMC3    C7 7904   3.103   2.879  13.410 -0.1067  0.1889 -0.1629
  532TMC3    C8 7905   2.736   3.175  13.347 -0.1503 -0.0871  0.1608
  532TMC3    O1 7906   3.174   2.976  13.427 -0.1309 -0.5960  0.6803
  532TMC3    O2 7907   2.810   3.268  13.355 -0.2854  0.0782  0.1163
  533TMC3    C1 7908   3.797   4.518  14.124 -0.8795 -0.4764 -0.2815
  533TMC3    C2 7909   3.925   4.564  14.126 -0.3334  0.0069 -0.4424
  533TMC3    C3 7910   3.959   4.646  14.228  0.4371  0.4029  0.0505
  533TMC3    C4 7911   3.701   4.569  14.202 -0.5802  0.4627  0.1813
  533TMC3    C5 7912   3.741   4.653  14.303  0.0992 -0.3140  0.3126
  533TMC3    C6 7913   3.871   4.694  14.321  0.6100 -0.4385 -0.0957
  533TMC3     C 7914   3.785   4.377  14.108  0.1142 -0.3553 -0.4515
  533TMC3     O 7915   3.894   4.322  14.095 -0.0411 -0.2115 -0.6063
  533TMC3     H 7916   4.004   4.533  14.059  0.8636  2.0804 -0.0010
  533TMC3    H1 7917   3.607   4.517  14.194 -0.1245 -0.5313  1.3640
  533TMC3    H2 7918   3.906   0.030  14.402 -0.0272 -0.3426  0.1037
  533TMC3    C7 7919   3.655   4.637  14.421 -0.0175 -0.3435 -0.0523
  533TMC3    C8 7920   4.079   4.722  14.222 -0.2691  1.1154  0.3233
  533TMC3    O1 7921   3.565   4.556  14.423 -0.0946 -0.3343 -0.1708
  533TMC3    O2 7922   4.122   0.037  14.328 -0.2637  0.6754  0.0457
  534MPD2     C 7923   1.655   1.322   0.981 -0.1014  0.3102 -0.2907
  534MPD2    C1 7924   1.594   1.282   1.094 -0.0036  0.0648  0.8341
  534MPD2    C2 7925   1.526   1.160   1.103  1.2178  0.3439  0.2330
  534MPD2    C3 7926   1.525   1.073   0.993 -0.4691 -0.4380 -0.3218
  534MPD2    C4 7927   1.586   1.126   0.875 -0.1240  0.0835 -0.0394
  534MPD2    C5 7928   1.643   1.246   0.870 -0.0216 -0.2120 -0.8821
  534MPD2     H 7929   1.483   1.125   1.197 -2.8040  2.3390 -0.8846
  534MPD2    H1 7930   1.598   1.064   0.787 -1.1098  1.4569 -1.1292
  534MPD2    H2 7931   1.710   1.415   0.968 -0.1094  0.3123 -0.3093
  534MPD2    H3 7932   1.702   1.275   0.784  2.4520  1.1321  1.2514
  534MPD2     N 7933   1.487   0.937   1.004 -0.3824 -0.4776 -0.5535
  534MPD2    H5 7934   1.509   0.876   0.925  0.0281 -0.2559 -0.6080
  534MPD2    N1 7935   1.590   1.361   1.211 -0.1986  0.5062 -0.3555
  534MPD2    H7 7936   1.516   1.341   1.278 -1.3028  2.0560 -1.0941
  535TMC3    C1 7937   1.394   0.742   1.090 -0.0801 -0.3000  0.4190
  535TMC3    C2 7938   1.277   0.695   1.143  0.1826 -0.2656 -0.1422
  535TMC3    C3 7939   1.224   0.578   1.095 -0.2427  0.2322  0.0234
  535TMC3    C4 7940   1.453   0.669   0.989 -0.3123  0.3135  0.0383
  535TMC3    C5 7941   1.387   0.566   0.931  0.2680 -0.1745 -0.1321
  535TMC3    C6 7942   1.272   0.519   0.980 -0.4965 -0.1130 -0.3918
  535TMC3     C 7943   1.428   0.878   1.111 -0.5733 -0.5981 -0.2875
  535TMC3     O 7944   1.401   0.927   1.221  0.0766 -0.5840 -0.5582
  535TMC3     H 7945   1.236   0.754   1.224 -0.9154  0.7783 -1.4612
  535TMC3    H1 7946   1.556   0.696   0.966 -0.2007 -0.0580  0.0981
  535TMC3    H2 7947   1.223   0.427   0.950  0.3164 -0.7055  0.0765
  535TMC3    C7 7948   1.454   0.497   0.828 -0.9994  0.0964 -0.1441
  535TMC3    C8 7949   1.124   0.506   1.169 -0.2438 -0.5063 -0.7572
  535TMC3    O1 7950   1.570   0.528   0.802 -0.1837 -0.1389 -0.3792
  535TMC3    O2 7951   1.083   0.404   1.119  0.2264 -0.0392  1.0011
  536MPD2     C 7952   0.634   3.066  16.421 -0.5718 -0.8615  0.2034
  536MPD2    C1 7953   0.675   3.199  16.418  0.0617 -0.0184  0.2437
  536MPD2    C2 7954   0.607   3.283  16.328  0.0267 -0.3274  0.0243
  536MPD2    C3 7955   0.501   3.236  16.249 -0.3783 -0.0427  0.6640
  536MPD2    C4 7956   0.469   3.102  16.251  0.5680  0.3503  0.6249
  536MPD2    C5 7957   0.533   3.018  16.335  0.5190  0.4432  0.4486
  536MPD2     H 7958   0.623   3.389  16.313  2.9158 -0.6901  0.4750
  536MPD2    H1 7959   0.384   3.068  16.192  2.1519  0.4507 -1.7097
  536MPD2    H2 7960   0.677   2.987  16.481 -1.6726 -1.1458  0.6275
  536MPD2    H3 7961   0.505   2.913  16.337  1.0635  0.2937  0.1733
  536MPD2     N 7962   0.418   3.311  16.165 -0.7703  0.2512  0.4503
  536MPD2    H5 7963   0.347   3.258  16.117  0.0932  0.6098 -1.2521
  536MPD2    N1 7964   0.769   3.251  16.511  0.1481  0.2238 -0.1464
  536MPD2    H7 7965   0.815   3.183  16.571 -0.6805 -0.5181 -0.3518
  537TMC3    C1 7966   0.880   3.403  16.643  0.0210 -0.1632  0.5189
  537TMC3    C2 7967   0.930   3.528  16.646 -0.3338  0.4102 -0.0318
  537TMC3    C3 7968   1.000   3.559  16.759  0.3100  0.1550  0.6699
  537TMC3    C4 7969   0.889   3.308  16.747  0.1219 -0.1129 -0.4871
  537TMC3    C5 7970   0.957   3.355  16.860  0.5377  0.5480  0.3389
  537TMC3    C6 7971   1.021   3.479  16.868  0.1758 -0.0652 -0.1729
  537TMC3     C 7972   0.800   3.382  16.519  0.2594  0.0499 -0.2289
  537TMC3     O 7973   0.748   3.474  16.464  0.7708  0.6827 -0.4276
  537TMC3     H 7974   0.910   3.594  16.563  2.0218 -1.1609 -1.8274
  537TMC3    H1 7975   0.821   3.223  16.748  0.6405 -0.5275 -0.2897
  537TMC3    H2 7976   1.076   3.509  16.957 -1.5138 -1.2227  1.2673
  537TMC3    C7 7977   0.904   3.317  16.985 -0.6985  0.9160  0.2312
  537TMC3    C8 7978   1.024   3.698  16.801  0.6617 -0.0608  0.5770
  537TMC3    O1 7979   0.943   3.383  17.081  0.0441 -0.0139 -0.7732
  537TMC3    O2 7980   1.059   3.720  16.916 -0.3883 -0.5148 -0.2066
  538TMC3    C1 7981   1.202   2.369  11.108  0.7565  0.6925 -0.6367
  538TMC3    C2 7982   1.204   2.263  11.028  0.1272  0.6284 -0.5166
  538TMC3    C3 7983   1.113   2.262  10.930 -0.2292 -0.2773  0.1894
  538TMC3    C4 7984   1.131   2.485  11.084 -0.7321  0.1436 -0.8618
  538TMC3    C5 7985   1.049   2.481  10.970  0.7433 -0.0986 -0.3062
  538TMC3    C6 7986   1.039   2.371  10.884  0.0774 -0.5691  0.5761
  538TMC3     C 7987   1.279   2.369  11.233 -0.4457 -0.1445 -0.7872
  538TMC3     O 7988   1.249   2.420  11.340 -0.1547 -0.1119  0.5178
  538TMC3     H 7989   1.245   2.166  11.052  0.7758  1.0990  0.2757
  538TMC3    H1 7990   1.119   2.550  11.170  1.6098  1.5967 -1.6468
  538TMC3    H2 7991   0.977   2.367  10.796  1.0631  1.7049 -0.2150
  538TMC3    C7 7992   0.991   2.599  10.933 -0.4727 -0.0946 -0.3335
  538TMC3    C8 7993   1.126   2.165  10.825 -0.6702  0.8928 -0.0462
  538TMC3    O1 7994   0.916   2.597  10.837 -0.3233  0.3911  0.2328
  538TMC3    O2 7995   1.028   2.113  10.781  0.4249  0.5833  0.4249
  539MPD2     C 7996   1.375   1.639  11.757  0.8225 -0.1958 -0.8905
  539MPD2    C1 7997   1.299   1.640  11.636 -0.0741  0.2184  1.0326
  539MPD2    C2 7998   1.256   1.756  11.575 -0.2718 -0.6297  0.2575
  539MPD2    C3 7999   1.279   1.876  11.642 -0.5925  0.5484 -0.3632
  539MPD2    C4 8000   1.357   1.876  11.757  0.1312  0.2041 -0.1948
  539MPD2    C5 8001   1.394   1.756  11.818 -0.2646  0.1774  0.1301
  539MPD2     H 8002   1.212   1.760  11.476  1.5314  0.2076 -0.5215
  539MPD2    H1 8003   1.381   1.973  11.801 -1.5565  1.1085 -1.2596
  539MPD2    H2 8004   1.397   1.548  11.811 -2.6294  0.9164  2.3424
  539MPD2    H3 8005   1.441   1.764  11.915  1.9127  0.4204 -0.9335
  539MPD2     N 8006   1.244   2.008  11.593 -0.2478 -0.1618 -0.4998
  539MPD2    H5 8007   1.256   2.087  11.655  1.5830 -0.8014 -0.0484
  539MPD2    N1 8008   1.283   1.515  11.570 -0.5031  0.0102 -0.2926
  539MPD2    H7 8009   1.322   1.432  11.615  0.8625  1.7266  1.7041
  540TMC3    C1 8010   1.094   2.158  11.487  0.6983 -0.3461  0.1879
  540TMC3    C2 8011   1.018   2.186  11.369  0.1595 -0.2949  0.5421
  540TMC3    C3 8012   0.917   2.275  11.380 -0.4164 -0.0195  0.2668
  540TMC3    C4 8013   1.059   2.230  11.603 -0.3071  0.5107  0.0752
  540TMC3    C5 8014   0.965   2.328  11.603  0.5700  0.9755  0.5175
  540TMC3    C6 8015   0.893   2.357  11.491 -0.4377  0.1808  0.4442
  540TMC3     C 8016   1.163   2.029  11.491 -0.3034  0.0906  0.3210
  540TMC3     O 8017   1.150   1.954  11.397 -0.0569 -0.1101 -0.5912
  540TMC3     H 8018   1.026   2.126  11.279 -1.0389  0.8824 -0.3532
  540TMC3    H1 8019   1.095   2.194  11.699  0.8592 -1.4187 -1.0852
  540TMC3    H2 8020   0.815   2.432  11.496 -3.2089 -2.4412 -4.2489
  540TMC3    C7 8021   0.952   2.396  11.728  0.9908  0.3499 -0.0887
  540TMC3    C8 8022   0.832   2.315  11.262  0.5014  0.1976 -0.3276
  540TMC3    O1 8023   0.985   2.339  11.835 -0.3331 -0.0722 -0.8350
  540TMC3    O2 8024   0.816   2.433  11.236  0.3545 -0.2951 -0.3809
  541MPD2     C 8025   4.458   3.055  13.505  0.0860  0.7053  0.0367
  541MPD2    C1 8026   4.351   3.023  13.426  1.0472  0.0760 -0.1490
  541MPD2    C2 8027   4.342   3.085  13.302  0.2879  0.0651  0.2007
  541MPD2    C3 8028   4.432   3.182  13.262  0.0520 -0.3783 -0.1451
  541MPD2    C4 8029   4.527   3.231  13.352  0.4761 -0.4009  0.7799
  541MPD2    C5 8030   4.539   3.162  13.468 -0.1177 -0.0746 -0.5219
  541MPD2     H 8031   4.264   3.042  13.241  0.2165 -0.4396  0.6486
  541MPD2    H1 8032   4.601   3.307  13.326  0.8164 -1.4646 -1.3342
  541MPD2    H2 8033   4.468   3.019  13.607  2.0851 -0.8125 -0.7146
  541MPD2    H3 8034   4.606   3.201  13.544 -2.8600 -1.1922  2.4762
  541MPD2     N 8035   4.422   3.262  13.143 -0.0180  0.1921 -0.3966
  541MPD2    H5 8036   4.494   3.333  13.132 -0.9484  0.4514 -4.7194
  541MPD2    N1 8037   4.251   2.930  13.459 -0.1419 -0.8245 -0.3097
  541MPD2    H7 8038   4.167   2.929  13.402 -0.4224  0.9839  0.0587
  542TMC3    C1 8039   4.366   3.326  12.926  0.2900  0.0578 -0.6358
  542TMC3    C2 8040   4.327   3.292  12.796 -0.4213  0.1169  0.5514
  542TMC3    C3 8041   4.346   3.382  12.695  0.2594  0.2766  0.0039
  542TMC3    C4 8042   4.411   3.451  12.951 -0.0572 -0.2436 -0.3684
  542TMC3    C5 8043   4.428   3.541  12.848  0.1884 -0.9044  0.2965
  542TMC3    C6 8044   4.398   3.504  12.717 -0.2602  0.4969  0.5198
  542TMC3     C 8045   4.331   3.247  13.041  0.1055  0.1576  0.3878
  542TMC3     O 8046   4.249   3.157  13.028 -0.6358 -0.0988 -0.7325
  542TMC3     H 8047   4.284   3.196  12.769  2.1873  0.1767 -3.7364
  542TMC3    H1 8048   4.415   3.484  13.054 -2.7100 -0.1716 -0.2994
  542TMC3    H2 8049   4.393   3.580  12.640 -3.4885  0.5149  0.7688
  542TMC3    C7 8050   4.454   3.682  12.874  1.0770  0.1691 -0.2281
  542TMC3    C8 8051   4.341   3.347  12.553  1.3244 -0.1083  1.0532
  542TMC3    O1 8052   4.455   3.750  12.775  0.1567  0.1629 -0.0699
  542TMC3    O2 8053   4.347   3.442  12.474  0.1905 -0.1693  0.4205
  543TMC3    C1 8054   3.788   4.123  17.486  0.4221  0.1060  0.2763
  543TMC3    C2 8055   3.790   3.987  17.493 -0.1369  0.6057  0.8899
  543TMC3    C3 8056   3.730   3.934  17.603  0.3210 -0.3833  0.1584
  543TMC3    C4 8057   3.718   4.199  17.573 -0.2882  0.0317 -0.4153
  543TMC3    C5 8058   3.676   4.138  17.686 -0.9272 -0.6219 -0.4543
  543TMC3    C6 8059   3.683   4.004  17.707 -0.0301  0.5656 -0.7171
  543TMC3     C 8060   3.801   4.178  17.351  0.9058  0.2080  0.2868
  543TMC3     O 8061   3.759   4.293  17.335 -0.5229  0.0913 -0.0234
  543TMC3     H 8062   3.841   3.914  17.431 -0.4797  1.6656 -0.6212
  543TMC3    H1 8063   3.711   4.306  17.557 -2.2039 -0.0243  0.1144
  543TMC3    H2 8064   3.632   3.958   0.082  0.0236  0.1441 -0.9197
  543TMC3    C7 8065   3.611   4.220   0.068 -0.0684 -0.2275  0.3853
  543TMC3    C8 8066   3.707   3.795  17.606  0.1306 -0.0820  0.1673
  543TMC3    O1 8067   3.670   4.328   0.073  0.2318 -0.2070  0.1173
  543TMC3    O2 8068   3.699   3.730  17.501  0.3983 -0.0863  0.3474
  544MPD2     C 8069   3.720   3.348   0.169  0.1026 -0.2694  0.5875
  544MPD2    C1 8070   3.704   3.371   0.027  0.0238 -0.6418 -0.5739
  544MPD2    C2 8071   3.716   3.504  17.686 -0.4816 -0.0283  0.0685
  544MPD2    C3 8072   3.730   3.608   0.067 -0.7878 -0.4099  0.6728
  544MPD2    C4 8073   3.741   3.585   0.199 -0.9984  0.1601 -0.5545
  544MPD2    C5 8074   3.735   3.458   0.246 -0.2625 -0.1478  0.0209
  544MPD2     H 8075   3.714   3.514  17.578 -1.4912  2.2983  0.3027
  544MPD2    H1 8076   3.750   3.668   0.267  0.6268  1.8028 -2.7735
  544MPD2    H2 8077   3.710   3.247   0.205 -1.8653 -0.0750  0.5874
  544MPD2    H3 8078   3.748   3.435   0.351 -1.8416 -0.2413  0.2019
  544MPD2     N 8079   3.732   3.744   0.024  0.1402 -0.4899 -0.2415
  544MPD2    H5 8080   3.745   3.809   0.101  0.4013 -1.8245  0.8352
  544MPD2    N1 8081   3.689   3.260  17.653 -0.5890  0.3523  0.3717
  544MPD2    H7 8082   3.722   3.173  17.695 -0.3801  0.0499 -0.4159
  545TMC3    C1 8083   3.638   3.136  17.455 -0.0588 -0.3010 -0.2496
  545TMC3    C2 8084   3.540   3.115  17.363  0.6175 -0.6783 -0.2318
  545TMC3    C3 8085   3.510   2.986  17.330 -0.6478  0.7159  0.4225
  545TMC3    C4 8086   3.716   3.030  17.508 -0.5807  0.2335  0.3633
  545TMC3    C5 8087   3.680   2.905  17.466 -0.6853 -0.5450  0.5931
  545TMC3    C6 8088   3.570   2.882  17.392  0.0820 -0.4328 -0.3289
  545TMC3     C 8089   3.635   3.266  17.522 -0.7178  0.6029 -0.0288
  545TMC3     O 8090   3.579   3.361  17.468 -0.1388  0.5637  0.5763
  545TMC3     H 8091   3.492   3.202  17.321 -2.0560 -1.5639  0.9155
  545TMC3    H1 8092   3.795   3.038  17.581 -0.0182  0.8329 -0.3183
  545TMC3    H2 8093   3.534   2.781  17.378 -0.5505 -0.6050  2.6632
  545TMC3    C7 8094   3.740   2.785  17.524  0.0526 -0.4752 -0.3004
  545TMC3    C8 8095   3.387   2.965  17.257  0.0894  0.1998  0.3184
  545TMC3    O1 8096   3.682   2.680  17.526 -0.2564  0.8034  0.3138
  545TMC3    O2 8097   3.338   2.857  17.275 -0.0968 -0.1659 -0.3825
  546MPD2     C 8098   0.516   4.230  17.357  0.2522 -0.7649  0.2978
  546MPD2    C1 8099   0.529   4.209  17.226  0.2358  0.6307 -0.3496
  546MPD2    C2 8100   0.548   4.312  17.133  0.4019 -0.4388  0.0831
  546MPD2    C3 8101   0.550   4.445  17.172 -0.4522  0.3544 -0.5103
  546MPD2    C4 8102   0.519   4.462  17.303 -0.2704 -0.5030  0.3065
  546MPD2    C5 8103   0.518   4.358  17.396  0.0111 -0.5479  0.2989
  546MPD2     H 8104   0.574   4.293  17.030  1.6343  2.0249 -0.0537
  546MPD2    H1 8105   0.511   4.565  17.338 -0.4467  0.0155 -1.2480
  546MPD2    H2 8106   0.498   4.153  17.431 -0.2580  0.4488  1.4266
  546MPD2    H3 8107   0.510   4.390  17.500  0.3596  0.1135  0.1224
  546MPD2     N 8108   0.573   4.559  17.086  0.5183  0.4013  0.0718
  546MPD2    H5 8109   0.543   4.649  17.123 -1.9080 -0.6429  0.6004
  546MPD2    N1 8110   0.537   4.074  17.174  0.2031 -0.0888  0.1950
  546MPD2    H7 8111   0.515   4.006  17.246  1.6722  0.7010  1.3713
  547TMC3    C1 8112   0.514   3.880  17.035  0.9348 -0.0273  0.3243
  547TMC3    C2 8113   0.411   3.837  16.961 -0.8266  0.2416 -0.4962
  547TMC3    C3 8114   0.370   3.709  16.971 -0.0510  0.4176  0.0474
  547TMC3    C4 8115   0.577   3.797  17.126 -0.3165 -0.0298  0.1704
  547TMC3    C5 8116   0.543   3.664  17.126  0.1812 -0.3728 -0.2057
  547TMC3    C6 8117   0.440   3.624  17.046  0.8976  0.1705  0.1531
  547TMC3     C 8118   0.533   4.022  17.042 -0.5702  0.4544  0.0617
  547TMC3     O 8119   0.512   4.082  16.936  0.0811 -0.4528  0.4798
  547TMC3     H 8120   0.342   3.909  16.919  0.2313  2.0264  0.8158
  547TMC3    H1 8121   0.647   3.844  17.194 -0.4982 -0.1143  0.4146
  547TMC3    H2 8122   0.420   3.517  17.046 -2.0179  0.7177  0.8018
  547TMC3    C7 8123   0.543   3.590  17.254  0.0502 -0.3914 -0.0639
  547TMC3    C8 8124   0.227   3.699  16.991  0.2279 -0.5680  0.6764
  547TMC3    O1 8125   0.433   3.579  17.302 -0.5984  0.0047  0.3433
  547TMC3    O2 8126   0.160   3.769  16.916 -0.7820  0.0429  0.0186
  548MPD2     C 8127   0.254   0.535  12.216  0.4094  0.8229 -0.0406
  548MPD2    C1 8128   0.226   0.410  12.277 -0.1178 -0.2110 -0.0532
  548MPD2    C2 8129   0.301   0.300  12.237 -0.0137 -0.4728 -0.3263
  548MPD2    C3 8130   0.400   0.310  12.135  0.4268 -0.2675 -0.0802
  548MPD2    C4 8131   0.422   0.439  12.079  0.4925  0.2137  0.7280
  548MPD2    C5 8132   0.352   0.552  12.120  0.6698  0.4737 -0.6271
  548MPD2     H 8133   0.260   0.203  12.264  1.6139 -1.5065 -1.5947
  548MPD2    H1 8134   0.485   0.449  11.990  0.0099 -2.0208  0.1423
  548MPD2    H2 8135   0.189   0.618  12.241 -0.2314 -0.6466  3.1753
  548MPD2    H3 8136   0.365   0.646  12.067 -0.7365  0.8513 -0.2906
  548MPD2     N 8137   0.473   0.195  12.100  0.7194  0.5241  0.1619
  548MPD2    H5 8138   0.449   0.112  12.154 -2.4765  1.1019 -0.3886
  548MPD2    N1 8139   0.118   0.393  12.368  0.0736 -0.8894  0.3165
  548MPD2    H7 8140   0.068   0.478  12.391  0.0379 -1.3343  1.8228
  549TMC3    C1 8141   4.687   0.311  12.506  0.3825  0.5723 -0.6994
  549TMC3    C2 8142   4.592   0.388  12.447  0.7103 -0.3001 -0.1914
  549TMC3    C3 8143   4.462   0.375  12.494 -0.0867 -0.6489 -0.6720
  549TMC3    C4 8144   4.654   0.211  12.594  0.1336 -0.4648 -0.5381
  549TMC3    C5 8145   4.527   0.199  12.632 -0.5633 -0.3643  0.4810
  549TMC3    C6 8146   4.426   0.280  12.588 -0.6095  0.1779  0.4922
  549TMC3     C 8147   0.076   0.280  12.436  1.0942 -0.4890 -0.2020
  549TMC3     O 8148   0.108   0.161  12.423  0.4938 -0.5528  0.0035
  549TMC3     H 8149   4.611   0.433  12.350  0.4356  0.4170  0.0855
  549TMC3    H1 8150   0.011   0.157  12.637  1.3777  0.8508 -1.3017
  549TMC3    H2 8151   4.322   0.271  12.617 -0.1964 -2.7800  1.0333
  549TMC3    C7 8152   4.498   0.131  12.751 -0.5911  0.9170 -0.2168
  549TMC3    C8 8153   4.357   0.470  12.449 -1.2700 -0.4273 -0.3200
  549TMC3    O1 8154   4.411   0.184  12.818  0.3312  0.5503 -0.3956
  549TMC3    O2 8155   4.243   0.424  12.460  0.1974 -0.9588 -0.4730
  550TMC3    C1 8156   3.260   2.576  12.930 -0.3150  0.6386 -0.0203
  550TMC3    C2 8157   3.197   2.630  13.038 -0.2171 -0.8619 -0.8221
  550TMC3    C3 8158   3.203   2.766  13.052  0.1812  0.3768  0.0182
  550TMC3    C4 8159   3.339   2.651  12.851  0.4355  0.2820 -0.6160
  550TMC3    C5 8160   3.359   2.788  12.880  0.1551  0.2531 -0.1818
  550TMC3    C6 8161   3.290   2.843  12.980 -0.2577 -0.0136 -0.7928
  550TMC3     C 8162   3.182   2.481  12.854  0.0991 -0.3249 -0.2418
  550TMC3     O 8163   3.133   2.386  12.918  0.6595 -0.1732 -0.0482
  550TMC3     H 8164   3.113   2.579  13.084 -0.2166 -0.9596 -0.9303
  550TMC3    H1 8165   3.414   2.600  12.792 -0.5547 -1.6747 -0.2199
  550TMC3    H2 8166   3.306   2.947  13.008 -1.9879 -0.1959  0.8829
  550TMC3    C7 8167   3.352   2.870  12.757  0.5560  0.3871 -0.3349
  550TMC3    C8 8168   3.068   2.831  13.034  0.0683 -0.6431  0.7007
  550TMC3    O1 8169   3.289   2.974  12.765  0.4293 -0.1490 -0.2479
  550TMC3    O2 8170   2.971   2.772  13.085  0.0151 -0.1532 -0.0903
  551TMC3    C1 8171   0.931   0.722  13.227 -0.2947  0.1658 -0.0698
  551TMC3    C2 8172   1.065   0.763  13.207  0.0180 -0.1402  1.0093
  551TMC3    C3 8173   1.112   0.867  13.283 -0.2036  0.1387 -0.1497
  551TMC3    C4 8174   0.852   0.783  13.324 -0.4553  0.4343 -0.2846
  551TMC3    C5 8175   0.911   0.890  13.382  0.5599  0.1404 -0.8085
  551TMC3    C6 8176   1.037   0.945  13.361  0.3118  0.0485  0.2113
  551TMC3     C 8177   0.888   0.616  13.135 -0.5040  0.3076 -0.3183
  551TMC3     O 8178   0.930   0.615  13.020  0.0281 -0.2633 -0.2492
  551TMC3     H 8179   1.131   0.704  13.143 -1.9354 -0.7637 -0.4435
  551TMC3    H1 8180   0.746   0.767  13.334 -0.9674  3.8617 -0.1705
  551TMC3    H2 8181   1.088   1.015  13.426  0.3760 -0.3375  0.5755
  551TMC3    C7 8182   0.860   0.931  13.508 -0.3898  0.1858  0.4642
  551TMC3    C8 8183   1.250   0.901  13.243  0.2108 -0.2223  0.7190
  551TMC3    O1 8184   0.806   0.852  13.585  0.1143 -0.2681  0.0770
  551TMC3    O2 8185   1.327   0.809  13.225 -0.1439 -0.0689  0.2783
  552MPD2     C 8186   3.506   2.660  13.910  0.4590 -0.1272  0.3679
  552MPD2    C1 8187   3.529   2.525  13.900  0.2414  0.0889  0.2025
  552MPD2    C2 8188   3.639   2.474  13.956 -0.6405  0.3126  0.5255
  552MPD2    C3 8189   3.727   2.557  14.032  1.1574  0.2235  0.6647
  552MPD2    C4 8190   3.711   2.689  14.027 -0.9743  0.9663  0.7401
  552MPD2    C5 8191   3.601   2.745  13.963 -0.1329 -0.2357  0.5275
  552MPD2     H 8192   3.669   2.371  13.940 -0.6829  0.4158 -0.1921
  552MPD2    H1 8193   3.779   2.757  14.076 -0.4813 -0.1143  1.5622
  552MPD2    H2 8194   3.419   2.701  13.860  1.8304  1.0097 -1.0563
  552MPD2    H3 8195   3.589   2.852  13.974  1.4943  0.0367 -0.2789
  552MPD2     N 8196   3.834   2.511  14.110  0.8869  0.6104  0.3325
  552MPD2    H5 8197   3.883   2.584  14.160  0.5304 -1.3173  3.5226
  552MPD2    N1 8198   3.437   2.434  13.844 -0.7487  0.3455  0.3056
  552MPD2    H7 8199   3.460   2.335  13.854 -0.4183  0.4601  0.6512
  553TMC3    C1 8200   3.229   2.346  13.775 -0.6591  0.2749  0.0804
  553TMC3    C2 8201   3.123   2.344  13.681 -1.1497  0.0583 -0.0522
  553TMC3    C3 8202   3.051   2.227  13.660 -0.0210  0.4344  0.6718
  553TMC3    C4 8203   3.263   2.235  13.842 -0.5785  0.4417 -0.2082
  553TMC3    C5 8204   3.199   2.123  13.820  0.6146  0.5667  0.1488
  553TMC3    C6 8205   3.087   2.118  13.735 -0.3156 -0.2322 -0.2806
  553TMC3     C 8206   3.312   2.461  13.793 -0.4096  0.6990  0.1124
  553TMC3     O 8207   3.259   2.566  13.771 -0.2806 -0.0084 -0.5507
  553TMC3     H 8208   3.086   2.437  13.640 -2.0129  1.1726  3.2140
  553TMC3    H1 8209   3.335   2.241  13.923  0.3867  0.5072 -1.0722
  553TMC3    H2 8210   3.032   2.026  13.723 -0.1512 -0.1247 -1.8804
  553TMC3    C7 8211   3.221   2.013  13.914 -0.4962  0.8404  0.2803
  553TMC3    C8 8212   3.029   2.208  13.520  0.1983 -0.0372  0.0266
  553TMC3    O1 8213   3.129   1.949  13.960 -0.1679  0.2238  0.3464
  553TMC3    O2 8214   3.078   2.287  13.446  0.3681 -0.1239  0.1922
  554TMC3    C1 8215   0.043   1.821  11.809  0.5389 -0.5500 -0.8435
  554TMC3    C2 8216   4.666   1.841  11.730 -0.5342  0.5977  0.3515
  554TMC3    C3 8217   4.688   1.935  11.629  0.1259 -0.3315 -0.2470
  554TMC3    C4 8218   0.159   1.885  11.816  0.0265  0.5325 -0.1391
  554TMC3    C5 8219   0.168   1.992  11.730 -0.2428 -0.5330  0.2044
  554TMC3    C6 8220   0.064   2.022  11.646 -0.7216  0.1377  0.3602
  554TMC3     C 8221   0.017   1.735  11.920 -0.4884  0.2782 -0.1553
  554TMC3     O 8222   4.627   1.706  11.945  0.1926 -0.1670 -0.1953
  554TMC3     H 8223   4.578   1.779  11.723  0.0216 -0.0481 -1.0079
  554TMC3    H1 8224   0.247   1.859  11.874  0.3725 -0.2354 -1.0223
  554TMC3    H2 8225   0.077   2.107  11.580  0.1995  1.1080  1.7819
  554TMC3    C7 8226   0.263   2.095  11.751  0.1744  0.2424  0.0719
  554TMC3    C8 8227   4.616   1.937  11.507 -0.5244  0.6419  0.4561
  554TMC3    O1 8228   0.321   2.086  11.857 -0.1749 -0.6329  0.3218
  554TMC3    O2 8229   4.627   2.039  11.438  0.7217 -0.2359  0.2344
  555TMC3    C1 8230   3.631   1.073  15.179  0.2617 -0.3094  0.7629
  555TMC3    C2 8231   3.694   1.153  15.272 -0.2785 -0.3770 -0.0208
  555TMC3    C3 8232   3.740   1.106  15.394  0.2375 -0.3817 -0.4748
  555TMC3    C4 8233   3.626   0.942  15.205  0.0882  0.3731 -0.1864
  555TMC3    C5 8234   3.687   0.898  15.319  1.3333  0.1404  0.1200
  555TMC3    C6 8235   3.750   0.970  15.421 -0.0047  0.3785 -0.3116
  555TMC3     C 8236   3.568   1.119  15.058  0.8564 -0.4360  0.8847
  555TMC3     O 8237   3.464   1.058  15.034 -0.3485  0.5541 -0.1811
  555TMC3     H 8238   3.688   1.260  15.260 -0.0335  0.0444  3.5093
  555TMC3    H1 8239   3.584   0.876  15.130 -1.2215 -0.4986  1.3200
  555TMC3    H2 8240   3.788   0.929  15.513 -0.3834  1.1953  0.2063
  555TMC3    C7 8241   3.686   0.755  15.323  0.0577 -0.3755 -0.0601
  555TMC3    C8 8242   3.788   1.204  15.491 -0.2194 -0.0423 -0.5564
  555TMC3    O1 8243   3.595   0.700  15.263 -0.0954  0.1669 -0.1845
  555TMC3    O2 8244   3.747   1.318  15.478 -0.3968 -0.2564 -0.5165
  556MPD2     C 8245   1.341   2.764  10.899  0.4192 -0.2659 -0.0760
  556MPD2    C1 8246   1.435   2.674  10.921 -0.4777 -0.6642  0.8734
  556MPD2    C2 8247   1.508   2.620  10.810  0.2063  0.7148 -0.9776
  556MPD2    C3 8248   1.481   2.663  10.682 -0.5956 -0.0892 -0.0439
  556MPD2    C4 8249   1.388   2.762  10.664 -0.9450  0.1531  0.4616
  556MPD2    C5 8250   1.312   2.808  10.769  0.2014 -0.1306  0.1954
  556MPD2     H 8251   1.595   2.555  10.817 -0.3886 -0.0127 -0.3453
  556MPD2    H1 8252   1.363   2.805  10.568 -0.4194 -1.4828 -0.4176
  556MPD2    H2 8253   1.299   2.811  10.987  0.3153 -1.2657  0.4113
  556MPD2    H3 8254   1.250   2.895  10.749 -1.9690 -1.7903 -0.1454
  556MPD2     N 8255   1.560   2.604  10.579 -0.7287  0.4222 -0.1813
  556MPD2    H5 8256   1.615   2.521  10.596  0.8034  1.3974 -0.4317
  556MPD2    N1 8257   1.478   2.635  11.046 -0.4628  0.2562  0.8569
  556MPD2    H7 8258   1.556   2.570  11.051 -0.9864 -0.5813 -1.6090
  557TMC3    C1 8259   1.630   2.548  10.365  0.5686  0.0297 -0.2935
  557TMC3    C2 8260   1.563   2.529  10.245  0.5499 -0.0553 -0.0047
  557TMC3    C3 8261   1.588   2.407  10.191 -0.3167  0.3857 -0.1265
  557TMC3    C4 8262   1.693   2.447  10.431 -0.3641  0.7296  0.0497
  557TMC3    C5 8263   1.688   2.320  10.381  0.8378  0.7811  0.4535
  557TMC3    C6 8264   1.635   2.298  10.258  0.6941  0.3528 -0.2465
  557TMC3     C 8265   1.569   2.649  10.446 -0.2331  0.2636 -0.0834
  557TMC3     O 8266   1.520   2.749  10.394  0.3418 -0.3492 -0.2649
  557TMC3     H 8267   1.520   2.618  10.202 -1.7360 -1.1265  0.0964
  557TMC3    H1 8268   1.747   2.451  10.525 -1.2180 -0.4171  0.5833
  557TMC3    H2 8269   1.640   2.204  10.205 -3.6771 -1.1741  2.1215
  557TMC3    C7 8270   1.655   2.219  10.477 -0.2322 -0.1245 -0.2122
  557TMC3    C8 8271   1.506   2.383  10.072 -0.0127 -0.6334 -0.0886
  557TMC3    O1 8272   1.687   2.244  10.593  0.0491 -0.0408 -0.4439
  557TMC3    O2 8273   1.415   2.461  10.056 -1.4282  0.6385  0.1334
  558TMC3    C1 8274   4.385   0.318  10.062  0.0099  0.0756 -0.2947
  558TMC3    C2 8275   4.324   0.274  10.177 -0.1656  0.0601  0.0002
  558TMC3    C3 8276   4.186   0.257  10.171  0.0756  0.1034  0.1772
  558TMC3    C4 8277   4.313   0.365   9.953 -0.3016 -0.3749 -0.4155
  558TMC3    C5 8278   4.175   0.352   9.958 -0.1735  0.9036  0.5181
  558TMC3    C6 8279   4.107   0.291  10.066 -0.0255 -0.9052  0.3175
  558TMC3     C 8280   4.521   0.362  10.064 -0.4825 -0.1264 -0.7056
  558TMC3     O 8281   4.549   0.461   9.998  0.0135 -0.1614 -0.1290
  558TMC3     H 8282   4.381   0.258  10.268  0.1476 -0.2191 -0.2479
  558TMC3    H1 8283   4.351   0.423   9.869  0.9646 -1.7341 -0.7577
  558TMC3    H2 8284   3.999   0.295  10.069 -0.0330 -3.0568  2.1131
  558TMC3    C7 8285   4.098   0.405   9.845 -0.0596 -0.3133  0.1353
  558TMC3    C8 8286   4.112   0.212  10.292 -0.6039  0.2361 -0.2786
  558TMC3    O1 8287   4.164   0.437   9.748 -1.1395 -0.2206 -0.5399
  558TMC3    O2 8288   3.996   0.177  10.280 -0.5657  0.4955 -0.0776
  559MPD2     C 8289   4.178   1.312  11.296  0.3158  0.9071 -0.2101
  559MPD2    C1 8290   4.206   1.219  11.196  0.4830 -0.7438  0.0959
  559MPD2    C2 8291   4.335   1.167  11.185  0.3536  0.1702 -0.0839
  559MPD2    C3 8292   4.436   1.205  11.268 -0.5371  0.7569  0.0449
  559MPD2    C4 8293   4.413   1.302  11.363 -0.5653  0.5599  0.1868
  559MPD2    C5 8294   4.285   1.353  11.375  0.0213  0.2514 -0.3575
  559MPD2     H 8295   4.358   1.097  11.106  0.6775  0.5174 -0.2971
  559MPD2    H1 8296   4.484   1.344  11.434  0.2244 -1.7389  0.7517
  559MPD2    H2 8297   4.084   1.367  11.303 -1.3689 -2.2144  1.7437
  559MPD2    H3 8298   4.261   1.430  11.448 -0.6955 -1.1058  0.8528
  559MPD2     N 8299   4.563   1.143  11.254  0.0095  0.0596 -0.0461
  559MPD2    H5 8300   4.570   1.057  11.201 -0.1979 -1.2264  1.9960
  559MPD2    N1 8301   4.095   1.175  11.119  0.3615  0.8846  0.8756
  559MPD2    H7 8302   4.003   1.216  11.127  1.5399  3.5926  0.6342
  560TMC3    C1 8303   0.056   1.112  11.324 -0.1100  0.1466  0.1920
  560TMC3    C2 8304   0.030   0.979  11.322 -0.3880 -0.2591 -0.2931
  560TMC3    C3 8305   0.132   0.901  11.363  0.0944 -0.1239  0.3304
  560TMC3    C4 8306   0.178   1.163  11.360 -0.7803  0.7734 -0.4514
  560TMC3    C5 8307   0.274   1.081  11.416 -0.7057 -0.3057  0.4440
  560TMC3    C6 8308   0.251   0.943  11.418 -0.2683  0.4475  0.3589
  560TMC3     C 8309   4.675   1.200  11.310 -0.6951  0.3481 -0.6814
  560TMC3     O 8310   4.695   1.316  11.348 -0.7966  0.4095 -0.1569
  560TMC3     H 8311   4.665   0.928  11.295  0.3599 -1.5704 -0.3538
  560TMC3    H1 8312   0.200   1.269  11.349 -1.1224  0.6911 -1.9463
  560TMC3    H2 8313   0.331   0.880  11.455  0.7120  0.4476 -1.7411
  560TMC3    C7 8314   0.394   1.138  11.479  0.5929 -0.5857 -0.2179
  560TMC3    C8 8315   0.129   0.765  11.312 -0.6330  0.2608  0.5078
  560TMC3    O1 8316   0.462   1.066  11.552 -0.1637 -0.3070 -0.6214
  560TMC3    O2 8317   0.016   0.712  11.294  0.4466 -0.0413 -0.4321
  561TMC3    C1 8318   2.412   0.187  11.217  0.4271  0.1007  0.6306
  561TMC3    C2 8319   2.398   0.168  11.349  0.0710  0.0973  0.3076
  561TMC3    C3 8320   2.317   0.256  11.416  0.1352 -0.0560 -0.3292
  561TMC3    C4 8321   2.364   0.306  11.153  0.4876 -0.0002  0.3045
  561TMC3    C5 8322   2.295   0.390  11.234 -0.5114 -0.3119  0.0058
  561TMC3    C6 8323   2.257   0.363  11.357 -0.4814 -0.1831  0.0668
  561TMC3     C 8324   2.480   0.081  11.149 -1.1440  0.2097  0.5179
  561TMC3     O 8325   2.551   0.012  11.222 -0.2064  0.3331 -0.0267
  561TMC3     H 8326   2.450   0.081  11.388  0.4912  0.5900  0.8471
  561TMC3    H1 8327   2.382   0.315  11.046  0.3085 -1.5102  0.1526
  561TMC3    H2 8328   2.191   0.434  11.405 -0.1308 -2.2324  3.5726
  561TMC3    C7 8329   2.249   0.515  11.174  0.2144 -0.0704  0.1908
  561TMC3    C8 8330   2.296   0.222  11.557 -0.3661  0.3464  0.5107
  561TMC3    O1 8331   2.153   0.574  11.222  0.2333 -0.3908 -0.1606
  561TMC3    O2 8332   2.360   0.131  11.610  0.2278 -0.7551 -0.3347
  562TMC3    C1 8333   3.590   1.188  16.057  0.3603 -0.1574 -0.9176
  562TMC3    C2 8334   3.581   1.305  15.990 -0.5566 -0.6909  0.3950
  562TMC3    C3 8335   3.555   1.287  15.853 -1.0463 -0.0145  1.4233
  562TMC3    C4 8336   3.587   1.063  16.006 -0.2153  0.2110 -0.5242
  562TMC3    C5 8337   3.574   1.055  15.869  0.5371 -0.2109  0.1026
  562TMC3    C6 8338   3.543   1.167  15.790  0.1384  0.1185 -0.2609
  562TMC3     C 8339   3.619   1.214  16.196 -0.3370  0.4051 -0.6041
  562TMC3     O 8340   3.674   1.319  16.233 -0.0915 -0.2523 -0.2194
  562TMC3     H 8341   3.573   1.401  16.040  0.4509  0.2536 -1.2592
  562TMC3    H1 8342   3.621   0.979  16.064  0.1557  2.6540  2.8084
  562TMC3    H2 8343   3.523   1.148  15.685 -1.6664 -2.1279  0.4782
  562TMC3    C7 8344   3.571   0.928  15.794  0.1461 -0.0825 -0.4964
  562TMC3    C8 8345   3.515   1.407  15.790  0.3751  0.1877  0.0029
  562TMC3    O1 8346   3.602   0.923  15.677  0.0158  0.0410 -0.1108
  562TMC3    O2 8347   3.510   1.509  15.854 -0.1795 -0.2629  0.0154
  563MPD2     C 8348   1.308   2.452  15.499 -0.3400 -0.4026  1.2857
  563MPD2    C1 8349   1.327   2.580  15.535  0.7533 -0.0696 -0.6277
  563MPD2    C2 8350   1.412   2.606  15.639 -0.7012  0.0020 -0.7156
  563MPD2    C3 8351   1.470   2.499  15.706  0.4439  0.7873 -0.1079
  563MPD2    C4 8352   1.446   2.368  15.676  0.4144 -0.2405 -0.1319
  563MPD2    C5 8353   1.370   2.352  15.568 -0.4750 -0.2585 -0.3499
  563MPD2     H 8354   1.439   2.706  15.670 -1.3722 -0.0816  0.1240
  563MPD2    H1 8355   1.503   2.277  15.693 -0.0367 -0.2369  1.3577
  563MPD2    H2 8356   1.231   2.427  15.427  0.6945 -0.2582  0.1423
  563MPD2    H3 8357   1.353   2.254  15.526  1.1057 -0.4753 -0.4914
  563MPD2     N 8358   1.566   2.541  15.805  0.3729  0.7354 -0.4587
  563MPD2    H5 8359   1.593   2.639  15.803  0.1521  0.7986 -0.3659
  563MPD2    N1 8360   1.245   2.679  15.473 -0.2873  0.2601 -0.3855
  563MPD2    H7 8361   1.188   2.647  15.395 -1.0351 -2.9327  1.4734
  564TMC3    C1 8362   1.095   2.845  15.524 -0.3203  0.2342  0.5990
  564TMC3    C2 8363   1.012   2.744  15.485  0.7933 -0.0390  0.3464
  564TMC3    C3 8364   0.927   2.683  15.574  0.8580  0.2657  0.6913
  564TMC3    C4 8365   1.071   2.903  15.644 -0.0265 -0.0128  0.4028
  564TMC3    C5 8366   0.998   2.834  15.741  0.9261 -0.0876 -0.3526
  564TMC3    C6 8367   0.925   2.721  15.706 -0.1458  0.6437  0.1027
  564TMC3     C 8368   1.233   2.803  15.520  0.0803 -0.3225  0.0410
  564TMC3     O 8369   1.313   2.873  15.572 -0.2085 -0.5927  0.6041
  564TMC3     H 8370   1.022   2.698  15.388 -3.1297  1.0570 -0.5390
  564TMC3    H1 8371   1.137   2.980  15.681  2.1686 -1.0437 -1.4112
  564TMC3    H2 8372   0.841   2.691  15.767  1.3386  0.7317  2.1838
  564TMC3    C7 8373   1.083   2.821  15.858 -0.9777  0.0858  0.3599
  564TMC3    C8 8374   0.943   2.539  15.578 -0.0656 -0.3881 -0.7144
  564TMC3    O1 8375   1.150   2.916  15.890 -0.6694  0.0041  0.4893
  564TMC3    O2 8376   0.948   2.501  15.697  0.3848 -0.4154 -0.2226
  565TMC3    C1 8377   1.167   3.859   9.841 -0.1662 -0.4395 -0.3229
  565TMC3    C2 8378   1.154   3.841   9.972  0.4749  0.0695  0.2254
  565TMC3    C3 8379   1.038   3.778  10.015  0.1305  0.3279 -0.6383
  565TMC3    C4 8380   1.073   3.806   9.748  0.7226  0.3394  0.4068
  565TMC3    C5 8381   0.961   3.753   9.796 -0.3978 -0.3288  0.5897
  565TMC3    C6 8382   0.933   3.735   9.929  0.0193 -0.7698  0.2350
  565TMC3     C 8383   1.261   3.960   9.788  0.7264  0.1824  0.4450
  565TMC3     O 8384   1.227   4.002   9.676  0.5173  0.1161  0.3377
  565TMC3     H 8385   1.225   3.879  10.045 -0.1895 -1.6667  1.7723
  565TMC3    H1 8386   1.096   3.806   9.642  0.1099  0.3257  0.2741
  565TMC3    H2 8387   0.866   3.657   9.962 -3.1924  2.0043  0.2460
  565TMC3    C7 8388   0.862   3.710   9.699 -0.5084 -0.1600  0.3109
  565TMC3    C8 8389   1.043   3.740  10.156 -0.0402  0.1614  0.1020
  565TMC3    O1 8390   0.898   3.721   9.584  0.0184 -0.4584 -0.5403
  565TMC3    O2 8391   1.155   3.738  10.207 -0.7898 -0.2585  0.3744
  566MPD2     C 8392   2.905   1.347  14.129  0.8453  0.3459 -0.0113
  566MPD2    C1 8393   3.017   1.267  14.118 -0.4183 -0.4432  0.0444
  566MPD2    C2 8394   3.007   1.146  14.047  0.5461  0.3955 -0.7019
  566MPD2    C3 8395   2.886   1.108  13.994  0.1948  1.2230 -0.3071
  566MPD2    C4 8396   2.776   1.184  14.017 -0.0661 -0.4054 -0.2642
  566MPD2    C5 8397   2.782   1.298  14.091 -0.6211  0.1180  0.0030
  566MPD2     H 8398   3.092   1.086  14.020  1.5671  2.0608 -1.1926
  566MPD2    H1 8399   2.681   1.166  13.968 -0.2079 -1.9588  0.5876
  566MPD2    H2 8400   2.905   1.442  14.182 -0.5813  0.7460 -0.7316
  566MPD2    H3 8401   2.689   1.354  14.098 -0.2841  1.0363 -2.7394
  566MPD2     N 8402   2.864   0.986  13.924  0.2831 -0.1186 -0.4494
  566MPD2    H5 8403   2.776   0.970  13.875 -0.2154 -1.0765  0.7753
  566MPD2    N1 8404   3.139   1.317  14.173  0.5461 -0.3915  0.3930
  566MPD2    H7 8405   3.143   1.415  14.200  0.4802 -0.3808  0.3638
  567TMC3    C1 8406   3.369   1.305  14.217 -0.2586  0.6288  0.5408
  567TMC3    C2 8407   3.416   1.418  14.145 -0.6751 -0.0518 -0.7989
  567TMC3    C3 8408   3.553   1.440  14.137  0.1615  0.4525 -0.3839
  567TMC3    C4 8409   3.460   1.229  14.276 -0.1477  0.0825 -0.5999
  567TMC3    C5 8410   3.596   1.256  14.275 -0.4046  0.1658 -0.4185
  567TMC3    C6 8411   3.644   1.366  14.204 -0.0699  0.5390 -0.0841
  567TMC3     C 8412   3.246   1.234  14.177  0.2808  0.0648  0.6303
  567TMC3     O 8413   3.257   1.117  14.183  0.6491  0.3760 -0.0246
  567TMC3     H 8414   3.353   1.468  14.073 -0.4408  1.5240  0.0918
  567TMC3    H1 8415   3.403   1.166  14.344  1.6457  0.3071  1.1211
  567TMC3    H2 8416   3.751   1.373  14.192 -0.0443 -1.4728 -1.0128
  567TMC3    C7 8417   3.683   1.173  14.358 -0.2796  0.0895  0.2852
  567TMC3    C8 8418   3.587   1.513  14.015 -0.1341 -0.5353  0.2201
  567TMC3    O1 8419   3.799   1.199  14.374  0.1163 -0.5696  0.0330
  567TMC3    O2 8420   3.502   1.558  13.940  0.0239 -0.3908 -0.3658
  568MPD2     C 8421   0.681   1.335  16.291 -0.3859  0.1966  0.0394
  568MPD2    C1 8422   0.771   1.409  16.370  0.5938 -0.0923  0.0217
  568MPD2    C2 8423   0.842   1.515  16.313 -0.4609 -0.1348 -0.2395
  568MPD2    C3 8424   0.839   1.528  16.177 -0.3553  0.3977 -1.0929
  568MPD2    C4 8425   0.752   1.454  16.099 -0.2874 -0.6789 -0.1442
  568MPD2    C5 8426   0.673   1.358  16.157 -0.1763 -0.1903 -0.2701
  568MPD2     H 8427   0.903   1.576  16.378  1.6176 -1.0221 -1.3674
  568MPD2    H1 8428   0.731   1.466  15.994 -0.3663  2.7972  0.2525
  568MPD2    H2 8429   0.615   1.265  16.342  0.3705 -0.9161 -0.5176
  568MPD2    H3 8430   0.602   1.296  16.104 -0.2511 -0.7023  0.4199
  568MPD2     N 8431   0.927   1.620  16.118 -0.0466  0.2317 -0.1024
  568MPD2    H5 8432   0.999   1.664  16.175 -3.0334  2.4842  1.9235
  568MPD2    N1 8433   0.770   1.381  16.501 -0.3943  0.2574 -0.0138
  568MPD2    H7 8434   0.694   1.320  16.528 -0.0186 -0.4348 -0.5184
  569TMC3    C1 8435   1.027   1.757  15.963  0.4891 -0.2838 -0.4274
  569TMC3    C2 8436   1.040   1.860  16.053  0.1570 -0.1575  0.1493
  569TMC3    C3 8437   1.112   1.972  16.003  0.4275 -0.0544  0.5624
  569TMC3    C4 8438   1.063   1.767  15.834 -0.2478 -0.3271  0.0604
  569TMC3    C5 8439   1.126   1.878  15.789  0.2898 -0.9531  1.0230
  569TMC3    C6 8440   1.150   1.979  15.872  0.5320  0.2805  0.1249
  569TMC3     C 8441   0.923   1.660  15.989 -0.5205  0.5359  0.3674
  569TMC3     O 8442   0.845   1.642  15.897  0.3027 -0.3790  0.4011
  569TMC3     H 8443   0.994   1.868  16.151  1.1099 -3.4859  0.9072
  569TMC3    H1 8444   1.034   1.689  15.764  2.3786 -0.4308 -0.9098
  569TMC3    H2 8445   1.219   2.059  15.847  0.4220  0.4764  0.4511
  569TMC3    C7 8446   1.114   1.912  15.648 -0.6652 -0.5055  1.0983
  569TMC3    C8 8447   1.104   2.101  16.069  0.2975  0.7533 -0.3273
  569TMC3    O1 8448   1.149   1.827  15.567  0.1096 -0.2782 -0.1469
  569TMC3    O2 8449   1.064   2.197  16.002 -0.0830 -0.2392  0.2992
  570TMC3    C1 8450   0.076   0.081  16.013 -0.0221 -0.0196  0.1799
  570TMC3    C2 8451   0.197   0.115  15.959  0.2164 -0.4090  0.3978
  570TMC3    C3 8452   0.246   0.245  15.961  0.9770 -0.0799  0.0676
  570TMC3    C4 8453   4.709   0.173  16.046  0.4053  0.0786  0.2223
  570TMC3    C5 8454   0.019   0.307  16.038  0.6184 -0.1939 -0.4009
  570TMC3    C6 8455   0.151   0.334  16.004 -0.0547 -0.0142 -0.3103
  570TMC3     C 8456   0.069   4.671  16.067 -0.4065  0.4734 -0.4225
  570TMC3     O 8457   0.129   4.581  16.014  0.0849  0.3498  0.3205
  570TMC3     H 8458   0.263   0.030  15.946  0.6253  0.2984 -2.1856
  570TMC3    H1 8459   4.609   0.151  16.081  0.6556 -0.4727  0.5930
  570TMC3    H2 8460   0.174   0.434  15.969  3.3089 -0.1509  1.5726
  570TMC3    C7 8461   4.661   0.396  16.103 -0.1727  0.0539  0.5466
  570TMC3    C8 8462   0.375   0.288  15.921  0.0204 -0.4747 -0.7397
  570TMC3    O1 8463   4.544   0.359  16.125  1.0348 -0.0589 -0.8056
  570TMC3    O2 8464   0.408   0.402  15.957 -0.2976  0.1395 -0.4260
  571MPD2     C 8465   3.055   2.202   0.090  0.2878 -0.1331  0.8663
  571MPD2    C1 8466   3.044   2.256  17.668  0.2066 -0.2617  0.5398
  571MPD2    C2 8467   3.113   2.373  17.639 -0.3230  0.5893 -0.4597
  571MPD2    C3 8468   3.202   2.428   0.024  0.4072  0.7275  0.0168
  571MPD2    C4 8469   3.217   2.374   0.147  0.1382 -0.2104  0.1010
  571MPD2    C5 8470   3.148   2.262   0.177 -0.1509 -0.2392 -0.4442
  571MPD2     H 8471   3.104   2.427  17.545  2.1190 -0.9737 -1.6064
  571MPD2    H1 8472   3.288   2.422   0.214 -0.6293  2.2005 -0.7937
  571MPD2    H2 8473   2.989   2.121   0.120  1.3892 -1.5151 -0.4358
  571MPD2    H3 8474   3.169   2.222   0.276  0.5648  1.6248  0.1519
  571MPD2     N 8475   3.266   2.555   0.003  0.0248 -0.2363 -0.1353
  571MPD2    H5 8476   3.320   2.588   0.082  0.3174 -1.0173 -0.0098
  571MPD2    N1 8477   2.955   2.187  17.582  0.1361 -0.4692 -0.1893
  571MPD2    H7 8478   2.897   2.118  17.629  0.7854  0.0796  1.4217
  572TMC3    C1 8479   3.316   2.768  17.638 -0.0556  0.4513 -0.0387
  572TMC3    C2 8480   3.411   2.774   0.021  0.3474  0.2492  0.5849
  572TMC3    C3 8481   3.464   2.899   0.046 -0.0820 -0.0274 -0.1283
  572TMC3    C4 8482   3.256   2.880  17.587  0.1261  0.3619 -0.1061
  572TMC3    C5 8483   3.312   3.003  17.615  0.5143 -0.0839  0.2274
  572TMC3    C6 8484   3.423   3.013  17.694 -0.2337  0.3867 -0.3734
  572TMC3     C 8485   3.239   2.648  17.617  0.3810  0.6212 -0.0818
  572TMC3     O 8486   3.156   2.664  17.526 -0.3630 -0.4153  0.6912
  572TMC3     H 8487   3.472   2.685   0.036  0.4566 -0.0168 -1.5339
  572TMC3    H1 8488   3.161   2.877  17.533  0.8268 -0.0209 -1.3301
  572TMC3    H2 8489   3.467   3.108   0.015  1.4078  0.9915 -4.6804
  572TMC3    C7 8490   3.235   3.122  17.591 -0.3003 -0.2823  0.6252
  572TMC3    C8 8491   3.585   2.895   0.112  0.6280  0.8825  0.0019
  572TMC3    O1 8492   3.154   3.122  17.502 -0.5797  0.3861  0.4345
  572TMC3    O2 8493   3.661   2.980   0.082 -0.1955  0.0569  0.2171
  573MPD2     C 8494   0.389   3.228   0.468  0.6191  0.0600  0.4314
  573MPD2    C1 8495   0.264   3.173   0.498 -0.0164 -0.2142 -0.2719
  573MPD2    C2 8496   0.198   3.099   0.406 -0.0663  0.1485 -0.3610
  573MPD2    C3 8497   0.258   3.069   0.281 -0.2021  0.0429 -0.0406
  573MPD2    C4 8498   0.384   3.120   0.248  0.2967  0.7173 -1.1550
  573MPD2    C5 8499   0.446   3.199   0.343 -0.3044 -0.2585 -0.7566
  573MPD2     H 8500   0.096   3.066   0.423  0.3233 -1.2005 -0.6127
  573MPD2    H1 8501   0.438   3.104   0.155 -0.7952 -1.6671 -1.3951
  573MPD2    H2 8502   0.440   3.284   0.545  1.4503 -0.2667  0.1221
  573MPD2    H3 8503   0.543   3.238   0.314 -0.7826 -0.2340 -2.2929
  573MPD2     N 8504   0.190   2.993   0.180 -0.0867 -0.4716 -0.1711
  573MPD2    H5 8505   0.239   2.970   0.094  2.1747 -0.2907  1.0455
  573MPD2    N1 8506   0.198   3.211   0.616  0.0204  0.2300  0.0825
  573MPD2    H7 8507   0.250   3.265   0.685  1.4742 -1.1989  0.0994
  574TMC3    C1 8508   0.019   2.863   0.063  0.1356 -0.4389 -0.0900
  574TMC3    C2 8509   4.636   2.790   0.066 -0.2070  0.5683 -0.3831
  574TMC3    C3 8510   4.565   2.765  17.661 -0.0501 -0.0579  0.2671
  574TMC3    C4 8511   0.075   2.898  17.652  0.4410  0.9492 -0.3553
  574TMC3    C5 8512   0.003   2.868  17.537  0.4529  0.1161 -1.0493
  574TMC3    C6 8513   4.617   2.787  17.542  0.3670 -0.4107  0.3901
  574TMC3     C 8514   0.068   2.925   0.193 -0.0056 -0.4055 -0.0058
  574TMC3     O 8515   4.725   2.911   0.291 -0.1589  0.0138  0.2624
  574TMC3     H 8516   4.598   2.763   0.164 -1.0969 -0.2691 -0.9590
  574TMC3    H1 8517   0.167   2.955  17.642  0.9946 -0.0165 -0.8009
  574TMC3    H2 8518   4.574   2.746  17.451  1.4557  3.0260 -1.6430
  574TMC3    C7 8519   0.028   2.941  17.414 -0.1135  0.1358 -0.6662
  574TMC3    C8 8520   4.451   2.672  17.679  0.2511  0.4384 -0.3527
  574TMC3    O1 8521   0.141   2.986  17.390 -0.5552 -0.3468  0.6982
  574TMC3    O2 8522   4.460   2.585   0.052 -0.0378  0.5646  0.3568
  575TMC3    C1 8523   1.445   3.739  10.912 -0.6112  0.2438  0.3220
  575TMC3    C2 8524   1.433   3.634  11.007  0.3276 -0.2471  0.1031
  575TMC3    C3 8525   1.324   3.547  10.986  1.5537  0.1853 -0.0463
  575TMC3    C4 8526   1.371   3.753  10.799 -0.6960 -0.4434 -0.3113
  575TMC3    C5 8527   1.275   3.659  10.782 -0.3987 -0.1840  0.3675
  575TMC3    C6 8528   1.248   3.561  10.875 -0.2492  0.0016 -0.2793
  575TMC3     C 8529   1.522   3.854  10.955  0.8086 -0.6583  0.3418
  575TMC3     O 8530   1.603   3.841  11.043 -0.5932 -0.2143 -0.1115
  575TMC3     H 8531   1.491   3.621  11.098  0.9220  2.6130  0.1485
  575TMC3    H1 8532   1.379   3.830  10.723  0.9232  1.2727  1.5828
  575TMC3    H2 8533   1.180   3.478  10.859 -0.1663 -0.2796  0.8389
  575TMC3    C7 8534   1.198   3.659  10.657  0.1915 -0.0385 -0.4549
  575TMC3    C8 8535   1.311   3.424  11.064 -0.0435 -0.4218  0.1899
  575TMC3    O1 8536   1.265   3.702  10.563  0.0655 -0.2420 -0.2591
  575TMC3    O2 8537   1.203   3.362  11.066 -0.1325  0.2745  1.1699
  576MPD2     C 8538   1.390   0.726  12.634  0.0656  0.2013 -0.1696
  576MPD2    C1 8539   1.421   0.823  12.538 -0.0285  0.7136  0.1632
  576MPD2    C2 8540   1.401   0.955  12.567  0.0349 -0.2592 -0.5695
  576MPD2    C3 8541   1.325   0.993  12.677  0.2404  0.7320 -0.2605
  576MPD2    C4 8542   1.301   0.893  12.766 -0.4184  0.5164  0.1573
  576MPD2    C5 8543   1.334   0.764  12.749 -0.1220  1.0506  0.7915
  576MPD2     H 8544   1.435   1.028  12.495 -0.3110 -0.5958 -1.0740
  576MPD2    H1 8545   1.254   0.911  12.862 -0.6851  1.9281 -0.2358
  576MPD2    H2 8546   1.391   0.621  12.606  0.9671 -0.2277  1.5037
  576MPD2    H3 8547   1.298   0.699  12.828  1.9126  1.1294  1.7795
  576MPD2     N 8548   1.285   1.124  12.698  0.5502 -0.3678  0.1470
  576MPD2    H5 8549   1.326   1.198  12.641 -0.3216 -0.4741 -0.6076
  576MPD2    N1 8550   1.495   0.785  12.422  0.3182 -0.2336 -0.1746
  576MPD2    H7 8551   1.512   0.858  12.353  2.7529 -1.3019 -0.7139
  577TMC3    C1 8552   1.605   0.661  12.267  0.5596 -0.6725  0.4557
  577TMC3    C2 8553   1.711   0.572  12.252  0.4294 -0.4689  0.1278
  577TMC3    C3 8554   1.750   0.536  12.127  0.0504  0.4310 -0.5274
  577TMC3    C4 8555   1.543   0.710  12.159  0.1278  0.1419  1.2314
  577TMC3    C5 8556   1.579   0.669  12.038  0.0764 -0.4714  0.1364
  577TMC3    C6 8557   1.687   0.584  12.018 -0.3297  0.9690  0.5051
  577TMC3     C 8558   1.546   0.660  12.401 -0.2883  0.2040 -0.3631
  577TMC3     O 8559   1.546   0.554  12.464 -0.1843  0.9118  0.5568
  577TMC3     H 8560   1.760   0.532  12.340 -0.6441  0.6726  1.2282
  577TMC3    H1 8561   1.466   0.785  12.166  0.7758  1.4952 -5.5144
  577TMC3    H2 8562   1.721   0.559  11.918 -1.3609 -1.4199  0.7699
  577TMC3    C7 8563   1.511   0.722  11.925 -0.7846  0.3296 -0.2795
  577TMC3    C8 8564   1.862   0.447  12.111  0.5037  0.0615  0.7217
  577TMC3    O1 8565   1.482   0.840  11.919 -0.7148 -0.5823 -0.1292
  577TMC3    O2 8566   1.899   0.394  12.217 -0.0749  0.0696  0.0417
  578MPD2     C 8567   4.318   0.125   1.235 -0.2695 -0.0643  0.3932
  578MPD2    C1 8568   4.365   0.149   1.110 -0.0567  0.1590 -0.0448
  578MPD2    C2 8569   4.498   0.154   1.089  0.2822 -0.2906  0.6283
  578MPD2    C3 8570   4.586   0.122   1.198 -0.8874  0.8588 -0.4050
  578MPD2    C4 8571   4.529   0.085   1.319  0.0376  0.6014  0.3453
  578MPD2    C5 8572   4.397   0.087   1.341 -0.1239  0.2880  0.1409
  578MPD2     H 8573   4.548   0.189   0.999  1.6492 -1.7392  0.8179
  578MPD2    H1 8574   4.589   0.051   1.403 -1.4072 -0.0799  1.0952
  578MPD2    H2 8575   4.213   0.107   1.249 -0.6336 -0.1400 -2.4807
  578MPD2    H3 8576   4.341   0.072   1.432  0.0687 -0.7655  0.0788
  578MPD2     N 8577   4.726   0.132   1.174 -0.1553  0.3094  0.3205
  578MPD2    H5 8578   0.016   0.140   1.074  1.5629 -0.3526  0.5451
  578MPD2    N1 8579   4.268   0.179   1.007 -0.2630  0.8662  0.1237
  578MPD2    H7 8580   4.169   0.182   1.030 -0.0631  1.1169  0.9507
  579TMC3    C1 8581   0.236   0.114   1.219 -0.4754  0.1329  0.8307
  579TMC3    C2 8582   0.330   0.173   1.304 -0.3445 -0.3187  0.2363
  579TMC3    C3 8583   0.453   0.194   1.250  0.0605 -0.4147  0.0181
  579TMC3    C4 8584   0.264   0.075   1.087 -0.0642  0.1960 -0.3299
  579TMC3    C5 8585   0.393   0.102   1.043 -0.4641 -0.7060  0.2282
  579TMC3    C6 8586   0.489   0.160   1.124  0.3922  0.0822  0.3309
  579TMC3     C 8587   0.100   0.125   1.268  0.6160  0.0441 -0.0651
  579TMC3     O 8588   0.089   0.144   1.388 -0.1164  0.5176 -0.2801
  579TMC3     H 8589   0.314   0.190   1.410 -1.1687  2.2931 -0.2940
  579TMC3    H1 8590   0.193   0.014   1.032 -1.2512  0.8613  0.4628
  579TMC3    H2 8591   0.585   0.184   1.082 -0.1231  2.1937  0.3629
  579TMC3    C7 8592   0.436   0.061   0.911 -0.0444  0.0731  0.0767
  579TMC3    C8 8593   0.528   0.300   1.312  0.5533  0.4599 -0.1392
  579TMC3    O1 8594   0.551   0.077   0.879  0.1500 -0.1221  0.4131
  579TMC3    O2 8595   0.461   0.361   1.399  0.9189  0.7190  0.1592
  580TMC3    C1 8596   4.210   4.658  12.207  0.5189  0.2389  0.5852
  580TMC3    C2 8597   4.269   0.059  12.230  0.2032  0.4048 -0.5705
  580TMC3    C3 8598   4.389   0.073  12.291 -0.6083  0.0678 -0.0292
  580TMC3    C4 8599   4.287   4.554  12.253 -0.2701  0.6347 -0.0069
  580TMC3    C5 8600   4.409   4.570  12.315  0.3982  0.1604  0.0448
  580TMC3    C6 8601   4.460   4.695  12.339  0.1755 -0.7321  0.1113
  580TMC3     C 8602   4.153   4.651  12.075 -0.9322  0.3957  0.3391
  580TMC3     O 8603   4.214   4.588  11.988  0.3274  0.8393 -0.4030
  580TMC3     H 8604   4.226   0.144  12.180  0.1549  0.4840 -0.3923
  580TMC3    H1 8605   4.257   4.452  12.235  0.6642 -0.0785  2.4502
  580TMC3    H2 8606   4.559   4.703  12.383  0.3506  0.5363 -0.4906
  580TMC3    C7 8607   4.484   4.458  12.362 -0.0452  0.0451 -0.6158
  580TMC3    C8 8608   4.466   0.188  12.217 -0.2516 -0.5826 -0.4601
  580TMC3    O1 8609   4.544   4.477  12.468 -0.6366 -0.3440  0.2956
  580TMC3    O2 8610   4.402   0.292  12.205 -0.3305  0.2747  0.0113
  581MPD2     C 8611   2.350   4.187  14.800  0.1167  0.2691  0.0379
  581MPD2    C1 8612   2.376   4.094  14.701  0.3908 -0.0728 -0.0543
  581MPD2    C2 8613   2.308   4.104  14.581  0.0395 -0.2875  0.1002
  581MPD2    C3 8614   2.214   4.207  14.572 -0.0914 -0.1739  0.4367
  581MPD2    C4 8615   2.198   4.302  14.673 -0.4537 -0.1399 -0.6031
  581MPD2    C5 8616   2.262   4.293  14.785  0.2584 -0.6598  0.8655
  581MPD2     H 8617   2.327   4.034  14.500  0.0796  2.6175 -2.3827
  581MPD2    H1 8618   2.123   4.379  14.656  2.6753  2.4996 -2.5753
  581MPD2    H2 8619   2.405   4.198  14.893 -0.5880 -1.6509  0.7021
  581MPD2    H3 8620   2.246   4.362  14.866  1.5769  0.4575  0.1722
  581MPD2     N 8621   2.143   4.238  14.452 -0.1073 -0.0933  0.0669
  581MPD2    H5 8622   2.088   4.323  14.448 -0.3824 -0.3407 -1.3115
  581MPD2    N1 8623   2.476   3.998  14.737 -0.8282 -0.4780  0.7075
  581MPD2    H7 8624   2.525   4.010  14.825  0.0938 -0.9622  0.2551
  582TMC3    C1 8625   2.558   3.782  14.761  0.1483  0.4759  1.0494
  582TMC3    C2 8626   2.606   3.839  14.875 -0.0611 -0.1857  0.6222
  582TMC3    C3 8627   2.582   3.777  14.992  0.3712 -0.6371  0.5480
  582TMC3    C4 8628   2.491   3.661  14.761 -0.1060 -0.4383 -0.1147
  582TMC3    C5 8629   2.467   3.604  14.885  0.2499 -0.7528  0.8061
  582TMC3    C6 8630   2.520   3.655  14.997 -0.0580 -0.4548 -0.5042
  582TMC3     C 8631   2.497   3.882  14.670  0.5456 -0.2943  0.2776
  582TMC3     O 8632   2.441   3.844  14.572  0.0216  0.0799 -0.6752
  582TMC3     H 8633   2.669   3.927  14.870  1.5847 -1.3817  0.0055
  582TMC3    H1 8634   2.428   3.625  14.680 -2.3433 -1.8201  2.2243
  582TMC3    H2 8635   2.499   3.604  15.091  0.3161  0.3024 -0.0139
  582TMC3    C7 8636   2.328   3.580  14.893 -0.1885  0.3251 -0.5604
  582TMC3    C8 8637   2.580   3.855  15.109 -0.0362  0.5779 -0.3925
  582TMC3    O1 8638   2.266   3.526  14.802 -0.0384 -0.0086 -0.3826
  582TMC3    O2 8639   2.474   3.864  15.168 -0.7187  0.6758  0.1369
  583MPD2     C 8640   2.295   1.015  16.902 -0.1764 -0.4864  0.1883
  583MPD2    C1 8641   2.261   1.114  16.815  0.7703  1.0465 -0.8320
  583MPD2    C2 8642   2.213   1.233  16.861 -0.5430  0.0412 -0.1930
  583MPD2    C3 8643   2.190   1.249  16.996  0.2959 -0.4739 -0.1257
  583MPD2    C4 8644   2.226   1.151  17.086  0.2956  0.4307  0.8914
  583MPD2    C5 8645   2.268   1.035  17.034  0.0866 -0.3555  0.2852
  583MPD2     H 8646   2.181   1.309  16.792 -1.1015  1.1333  1.2679
  583MPD2    H1 8647   2.212   1.159  17.193 -1.0903  0.4529  0.7045
  583MPD2    H2 8648   2.345   0.923  16.873 -1.8181 -1.6743  1.0963
  583MPD2    H3 8649   2.299   0.960  17.105  0.4888 -0.4084  0.0545
  583MPD2     N 8650   2.125   1.366  17.038  0.1725 -0.0012  0.4892
  583MPD2    H5 8651   2.094   1.419  16.957 -0.5734 -0.1382  0.6879
  583MPD2    N1 8652   2.270   1.106  16.671 -0.4572 -0.5793 -0.3641
  583MPD2    H7 8653   2.252   1.182  16.606  2.3803 -1.8598 -2.6855
  584TMC3    C1 8654   2.055   1.554  17.180 -0.5239 -0.4336  0.2112
  584TMC3    C2 8655   2.062   1.646  17.080  0.3384 -0.1972  0.2814
  584TMC3    C3 8656   2.023   1.774  17.114  0.6261 -0.4450  0.5737
  584TMC3    C4 8657   2.013   1.587  17.307 -0.4155  0.6190 -0.2752
  584TMC3    C5 8658   1.982   1.715  17.339  0.3345  0.1124  0.1975
  584TMC3    C6 8659   1.993   1.810  17.242 -0.5608  0.3875 -0.2799
  584TMC3     C 8660   2.100   1.409  17.167  0.7047 -0.8172 -1.0548
  584TMC3     O 8661   2.124   1.351  17.270  0.3061  0.3619  0.8164
  584TMC3     H 8662   2.110   1.623  16.985 -1.4987 -0.0455 -0.6836
  584TMC3    H1 8663   2.024   1.514  17.386  1.1980  1.2110  0.0392
  584TMC3    H2 8664   1.968   1.913  17.264 -1.5564  0.1833 -0.4598
  584TMC3    C7 8665   1.978   1.752  17.478  0.5909 -0.2817  0.0293
  584TMC3    C8 8666   2.035   1.880  17.016  0.1778 -0.5791 -0.1223
  584TMC3    O1 8667   1.917   1.672  17.546  0.4027  0.0351 -0.3496
  584TMC3    O2 8668   1.977   1.859  16.911 -0.2563  0.3426 -0.3471
  585MPD2     C 8669   1.404   0.169  17.433 -0.2424  0.1027  0.7709
  585MPD2    C1 8670   1.537   0.139  17.420 -0.2860 -0.7937  0.0580
  585MPD2    C2 8671   1.593   0.105  17.297  0.5650  0.3744  0.3863
  585MPD2    C3 8672   1.507   0.091  17.185  0.5628  0.0457 -0.2544
  585MPD2    C4 8673   1.379   0.130  17.189 -0.0114  0.3747  0.0446
  585MPD2    C5 8674   1.331   0.164  17.317  1.3389 -0.0027  0.0568
  585MPD2     H 8675   1.700   0.089  17.289  0.2571 -2.4391  2.0110
  585MPD2    H1 8676   1.310   0.133  17.105 -2.0464 -2.1375  1.6183
  585MPD2    H2 8677   1.364   0.203  17.528  1.1939  0.7489  1.1481
  585MPD2    H3 8678   1.229   0.201  17.325  1.9259  1.6502 -0.1697
  585MPD2     N 8679   1.544   0.041  17.060 -0.0022  0.7617 -0.3024
  585MPD2    H5 8680   1.476   0.048  16.984 -0.3913 -2.5414 -0.2778
  585MPD2    N1 8681   1.609   0.162  17.533 -0.4632 -0.5485  0.4513
  585MPD2    H7 8682   1.553   0.181  17.615  0.0586  0.1473  0.6457
  586TMC3    C1 8683   1.658   4.640  16.904 -0.0370 -0.1786  0.3804
  586TMC3    C2 8684   1.690   4.508  16.878  0.2509  0.0928  0.2752
  586TMC3    C3 8685   1.621   4.447  16.782  0.5222  0.0304  0.4801
  586TMC3    C4 8686   1.577   4.712  16.821 -0.3168  0.4607  0.5662
  586TMC3    C5 8687   1.500   4.635  16.735  1.1022 -0.2616  0.7911
  586TMC3    C6 8688   1.534   4.504  16.706 -0.4723  1.0534  0.4467
  586TMC3     C 8689   1.640   4.672  17.043 -0.2809 -0.7263 -0.1677
  586TMC3     O 8690   1.714   4.626  17.128  0.3269  0.1064  0.1844
  586TMC3     H 8691   1.742   4.457  16.959 -0.5335 -1.8631 -0.4541
  586TMC3    H1 8692   1.566   0.092  16.834 -0.2064  1.2943 -6.4004
  586TMC3    H2 8693   1.467   4.450  16.640 -0.9995  0.4054  1.5280
  586TMC3    C7 8694   1.357   4.649  16.739  0.2098 -0.0717  0.4911
  586TMC3    C8 8695   1.673   4.316  16.758 -0.9014 -0.2256 -0.0217
  586TMC3    O1 8696   1.289   4.549  16.746 -0.1695  0.1098  0.2988
  586TMC3    O2 8697   1.772   4.281  16.821 -0.5853 -0.1100  0.2658
  587TMC3    C1 8698   3.680   3.521  16.053 -0.1316  0.4016  0.0593
  587TMC3    C2 8699   3.714   3.646  16.104  0.6042 -0.2653 -0.2567
  587TMC3    C3 8700   3.835   3.654  16.171  0.1041 -0.2591  0.1817
  587TMC3    C4 8701   3.768   3.415  16.063  0.0080  0.1623 -0.0340
  587TMC3    C5 8702   3.889   3.435  16.124 -0.5701 -0.2802  0.4581
  587TMC3    C6 8703   3.922   3.552  16.184 -1.0417  0.2153  0.4905
  587TMC3     C 8704   3.580   3.518  15.951  0.0428  0.0826  0.1631
  587TMC3     O 8705   3.601   3.451  15.850 -0.5630 -0.3604 -0.0530
  587TMC3     H 8706   3.679   3.742  16.068 -0.2351 -0.6183 -0.3901
  587TMC3    H1 8707   3.739   3.327  16.006 -1.0950 -0.1669  1.0357
  587TMC3    H2 8708   4.004   3.541  16.253 -0.7429 -2.5037 -0.3098
  587TMC3    C7 8709   3.964   3.319  16.167 -0.6965  0.1567  0.8720
  587TMC3    C8 8710   3.848   3.749  16.278  0.7125  0.9438 -0.4461
  587TMC3    O1 8711   3.900   3.221  16.192 -0.0496 -0.2991  0.3141
  587TMC3    O2 8712   3.951   3.735  16.340 -0.4455  0.3889  0.2992
  588TMC3    C1 8713   1.062   1.484   9.468 -0.2849  0.3566 -0.0365
  588TMC3    C2 8714   1.021   1.354   9.460  0.2665 -0.5297  0.4541
  588TMC3    C3 8715   1.081   1.255   9.527  0.0479  0.7887  0.1432
  588TMC3    C4 8716   1.148   1.520   9.572 -0.1365  0.7282  0.5415
  588TMC3    C5 8717   1.195   1.417   9.647 -0.0233 -0.2128  0.4815
  588TMC3    C6 8718   1.172   1.283   9.624  0.8193  0.1398 -0.3957
  588TMC3     C 8719   1.002   1.596   9.390  0.1451 -0.4239 -0.6935
  588TMC3     O 8720   0.905   1.576   9.321 -0.1234 -0.1372  0.5964
  588TMC3     H 8721   0.948   1.338   9.381 -0.4369 -1.6440  1.3188
  588TMC3    H1 8722   1.183   1.622   9.582  1.7973 -0.0247  1.5265
  588TMC3    H2 8723   1.226   1.207   9.679  1.0706 -0.8335 -1.9973
  588TMC3    C7 8724   1.264   1.440   9.770 -0.4527  0.1263  0.4411
  588TMC3    C8 8725   1.041   1.118   9.506  0.1957  0.3016 -0.1295
  588TMC3    O1 8726   1.344   1.365   9.827  0.2674 -0.7793 -0.0949
  588TMC3    O2 8727   0.921   1.107   9.473 -0.4338  0.0882  0.0486
  589TMC3    C1 8728   1.165   3.942   1.117  0.1645 -0.5521 -0.4750
  589TMC3    C2 8729   1.267   4.021   1.168  0.6542  0.3707  0.3217
  589TMC3    C3 8730   1.398   3.989   1.127  0.1242  0.2617  0.2716
  589TMC3    C4 8731   1.185   3.825   1.050 -0.3909 -0.4368  0.4467
  589TMC3    C5 8732   1.313   3.797   1.027 -1.1111  0.1682 -0.3110
  589TMC3    C6 8733   1.421   3.872   1.064 -0.0650  0.5047 -1.3440
  589TMC3     C 8734   1.031   3.992   1.101 -0.0383  0.3674  0.0769
  589TMC3     O 8735   0.965   3.950   1.009 -0.3888 -0.0657 -0.1305
  589TMC3     H 8736   1.248   4.116   1.218 -1.5479 -0.0554  0.2873
  589TMC3    H1 8737   1.102   3.763   1.022 -1.1607  0.8288 -0.0917
  589TMC3    H2 8738   1.518   3.833   1.036 -0.8691 -3.1923  1.0663
  589TMC3    C7 8739   1.347   3.689   0.946  0.5993  0.1082  0.4723
  589TMC3    C8 8740   1.505   4.067   1.190  0.3374 -0.1502  0.4501
  589TMC3    O1 8741   1.432   3.712   0.861  0.0218 -0.2337  0.2635
  589TMC3    O2 8742   1.477   4.150   1.275 -0.7562 -0.2865  0.6856
  590MPD2     C 8743   4.282   1.728  16.317 -0.1517 -0.0648  0.5583
  590MPD2    C1 8744   4.264   1.849  16.259  0.0914  0.9092 -0.4631
  590MPD2    C2 8745   4.372   1.934  16.237 -0.0912  0.0308  0.3457
  590MPD2    C3 8746   4.500   1.891  16.259 -0.2624  0.2338 -0.1846
  590MPD2    C4 8747   4.518   1.768  16.308  0.0173 -0.4279 -0.5699
  590MPD2    C5 8748   4.412   1.685  16.331  0.5077  1.1823  0.1876
  590MPD2     H 8749   4.352   2.029  16.188  1.0729  0.2683  0.3361
  590MPD2    H1 8750   4.617   1.726  16.327 -0.3092 -1.1936 -0.5580
  590MPD2    H2 8751   4.202   1.660  16.345 -0.7387 -0.0870 -1.1464
  590MPD2    H3 8752   4.441   1.587  16.367  0.5791  0.5581 -1.5443
  590MPD2     N 8753   4.608   1.978  16.226 -0.6056  0.0157  0.7013
  590MPD2    H5 8754   4.588   2.068  16.184 -0.1199  0.3647  1.2143
  590MPD2    N1 8755   4.131   1.898  16.232  0.0908  0.5715 -0.2083
  590MPD2    H7 8756   4.127   1.990  16.190  2.5315  1.1441  0.7856
  591TMC3    C1 8757   0.096   2.050  16.183  0.0382  0.6220 -0.2460
  591TMC3    C2 8758   0.213   2.005  16.131 -0.1051  0.0855  0.2079
  591TMC3    C3 8759   0.285   2.087  16.047 -0.6627  0.2802  0.5369
  591TMC3    C4 8760   0.046   2.179  16.160 -0.0853 -0.1592 -0.5414
  591TMC3    C5 8761   0.113   2.261  16.074 -0.7768  0.6173  0.7069
  591TMC3    C6 8762   0.230   2.215  16.014  0.5082 -0.4812 -0.2964
  591TMC3     C 8763   0.010   1.942  16.224  0.0050  0.5288  0.7302
  591TMC3     O 8764   0.067   1.836  16.238  0.1320  0.5116  0.0733
  591TMC3     H 8765   0.258   1.910  16.156 -0.2892 -0.1078 -0.1933
  591TMC3    H1 8766   4.681   2.220  16.199  0.7264 -1.2464  2.5549
  591TMC3    H2 8767   0.251   2.255  15.916  0.5723  0.2017 -0.0006
  591TMC3    C7 8768   0.039   2.368  16.009 -0.4954  0.6238  0.0616
  591TMC3    C8 8769   0.383   2.024  15.959  1.0059  0.2341  0.1570
  591TMC3    O1 8770   4.644   2.357  16.022  0.2688  0.0725  0.3952
  591TMC3    O2 8771   0.389   1.901  15.946  0.0722  0.0277 -0.0540
  592MPD2     C 8772   0.463   4.243  11.135  0.1540 -0.3460 -0.1119
  592MPD2    C1 8773   0.507   4.248  11.263 -0.5686  0.2526 -0.5823
  592MPD2    C2 8774   0.450   4.170  11.367  0.5973  0.4564  0.2248
  592MPD2    C3 8775   0.350   4.083  11.334  0.2419  0.3900 -0.5323
  592MPD2    C4 8776   0.299   4.081  11.210  0.7488 -0.0433  0.0615
  592MPD2    C5 8777   0.358   4.160  11.111  0.3356 -0.7747  0.2325
  592MPD2     H 8778   0.500   4.149  11.461 -0.6529 -0.0733  0.7674
  592MPD2    H1 8779   0.221   4.013  11.178  0.7121  0.0329 -0.0109
  592MPD2    H2 8780   0.494   4.323  11.068 -0.8663  1.0142  1.0514
  592MPD2    H3 8781   0.307   4.168  11.017  2.2135 -1.7661 -0.8759
  592MPD2     N 8782   0.298   4.005  11.439  0.1949 -0.0479  0.3030
  592MPD2    H5 8783   0.343   4.019  11.528 -2.4533 -2.0199  1.9582
  592MPD2    N1 8784   0.612   4.344  11.296 -0.3912  0.1374 -0.1749
  592MPD2    H7 8785   0.658   4.402  11.227  1.5223 -0.0769  0.9202
  593TMC3    C1 8786   0.769   4.458  11.426  0.3249  1.2626 -0.3412
  593TMC3    C2 8787   0.777   4.528  11.541 -0.0473  0.1526 -0.6860
  593TMC3    C3 8788   0.874   4.626  11.550 -0.0621 -0.3692  0.0783
  593TMC3    C4 8789   0.851   4.481  11.318 -0.1672  0.3254  0.9547
  593TMC3    C5 8790   0.931   4.591  11.329 -0.2315 -0.5780  0.1499
  593TMC3    C6 8791   0.960   4.656  11.445 -0.3993  0.4508 -0.2141
  593TMC3     C 8792   0.671   4.357  11.427  0.3322 -0.2247 -0.5093
  593TMC3     O 8793   0.630   4.313  11.535  0.3055 -0.1297 -0.1141
  593TMC3     H 8794   0.700   4.532  11.617 -1.4871  0.0213 -2.1565
  593TMC3    H1 8795   0.848   4.423  11.226 -0.5112 -0.4799  1.4689
  593TMC3    H2 8796   1.030   0.011  11.442 -0.5570  0.6456  1.1466
  593TMC3    C7 8797   1.003   4.642  11.213 -0.4039  0.1990 -0.0749
  593TMC3    C8 8798   0.904   4.695  11.669  0.3730  0.6506  0.7932
  593TMC3    O1 8799   1.111   4.698  11.233  0.1646 -0.1021  0.2541
  593TMC3    O2 8800   0.817   0.028  11.729 -0.3835  0.3782 -0.2575
  594MPD2     C 8801   4.471   2.503  14.692  0.0452 -0.0506  0.4055
  594MPD2    C1 8802   4.414   2.561  14.580  0.7711  0.7135 -0.6888
  594MPD2    C2 8803   4.472   2.672  14.520 -0.9379  0.5404  0.1412
  594MPD2    C3 8804   4.593   2.724  14.571 -0.7482  0.3486  0.4531
  594MPD2    C4 8805   4.647   2.663  14.683  0.3773  0.3115  0.3039
  594MPD2    C5 8806   4.583   2.552  14.739  0.4766  0.2085  0.4026
  594MPD2     H 8807   4.429   2.717  14.431  0.6609  2.6343  0.4277
  594MPD2    H1 8808   0.007   2.708  14.730  0.1138 -1.7105  2.6960
  594MPD2    H2 8809   4.437   2.414  14.742  1.3047 -1.4577 -1.2317
  594MPD2    H3 8810   4.632   2.504  14.823  2.6613  0.5588 -0.6660
  594MPD2     N 8811   4.652   2.834  14.503 -0.1311  0.7297  0.7467
  594MPD2    H5 8812   4.594   2.878  14.432  3.6447  3.1727 -0.8147
  594MPD2    N1 8813   4.299   2.495  14.526 -0.5381 -0.5988  0.2181
  594MPD2    H7 8814   4.258   2.417  14.576  0.3682 -2.0283 -1.2789
  595TMC3    C1 8815   0.239   3.131  14.321 -0.1287 -0.1783 -0.7688
  595TMC3    C2 8816   0.216   3.015  14.394  0.6000 -1.0241  0.3802
  595TMC3    C3 8817   0.085   2.978  14.409 -0.2406 -1.5797  0.4567
  595TMC3    C4 8818   0.136   3.213  14.278 -0.0418 -0.2112 -0.1620
  595TMC3    C5 8819   0.013   3.181  14.315 -0.2114  0.3437  0.1491
  595TMC3    C6 8820   4.714   3.064  14.377 -0.2542 -0.4073  0.5895
  595TMC3     C 8821   0.372   3.190  14.326 -0.7483  0.3809 -0.1886
  595TMC3     O 8822   0.379   3.313  14.351 -0.3147 -0.1471  0.0315
  595TMC3     H 8823   0.301   2.953  14.421  1.0460 -0.6784 -0.2268
  595TMC3    H1 8824   0.154   3.307  14.226  0.7862 -0.4891 -0.3797
  595TMC3    H2 8825   4.611   3.041  14.400  0.0623  0.1794  2.5622
  595TMC3    C7 8826   4.632   3.270  14.289 -0.9990 -0.2276  0.7068
  595TMC3    C8 8827   0.064   2.865  14.500  0.1944 -0.2185  1.0202
  595TMC3    O1 8828   4.522   3.225  14.313  0.3219 -0.0684 -0.1252
  595TMC3    O2 8829   0.153   2.808  14.558  0.6408  0.2007  0.0943
  596MPD2     C 8830   3.167   0.754  16.374  1.1203 -0.1343  0.1108
  596MPD2    C1 8831   3.143   0.878  16.315  0.5196 -0.1246  0.1988
  596MPD2    C2 8832   3.111   0.883  16.180 -1.0373 -0.9885  0.0896
  596MPD2    C3 8833   3.099   0.769  16.108 -0.7567  0.1739 -0.1506
  596MPD2    C4 8834   3.130   0.645  16.166  0.0134  0.7237 -0.3012
  596MPD2    C5 8835   3.157   0.639  16.297  0.1970  0.6722  0.4249
  596MPD2     H 8836   3.081   0.981  16.146 -1.1064  0.3305  3.9296
  596MPD2    H1 8837   3.127   0.556  16.105 -3.0482  1.3014 -0.9981
  596MPD2    H2 8838   3.196   0.749  16.478 -3.3730 -0.1861  1.3810
  596MPD2    H3 8839   3.179   0.544  16.345 -2.1733 -0.8695 -1.5307
  596MPD2     N 8840   3.059   0.766  15.971 -0.1788 -0.4631 -0.1140
  596MPD2    H5 8841   3.039   0.680  15.920 -1.1043  0.1710 -0.8057
  596MPD2    N1 8842   3.144   0.999  16.389  0.2040 -0.2911 -0.0233
  596MPD2    H7 8843   3.140   1.084  16.334  2.7843 -1.4435 -1.9982
  597TMC3    C1 8844   3.134   1.148  16.575 -0.0096 -0.9160  0.4734
  597TMC3    C2 8845   3.203   1.244  16.509  0.6346  0.4935  0.2900
  597TMC3    C3 8846   3.217   1.370  16.561  0.5726  0.4459 -0.3604
  597TMC3    C4 8847   3.082   1.185  16.695 -0.0535  0.6501  0.2128
  597TMC3    C5 8848   3.088   1.309  16.741  0.5653  0.7253  0.5649
  597TMC3    C6 8849   3.157   1.408  16.677  0.5016 -0.3413  0.3787
  597TMC3     C 8850   3.131   1.012  16.522  0.3389 -0.5795  0.2702
  597TMC3     O 8851   3.097   0.925  16.604 -0.4749 -0.5043 -1.0498
  597TMC3     H 8852   3.272   1.213  16.430  0.8333 -1.4928  1.2420
  597TMC3    H1 8853   3.011   1.119  16.743 -1.0750 -1.0768 -3.7024
  597TMC3    H2 8854   3.171   1.509  16.713  0.0613 -0.4555  0.8654
  597TMC3    C7 8855   3.000   1.356  16.843  0.1676 -0.1566 -0.1476
  597TMC3    C8 8856   3.288   1.470  16.493 -0.1765 -0.7779  0.1035
  597TMC3    O1 8857   2.970   1.278  16.928  0.1141 -0.1193  0.4430
  597TMC3    O2 8858   3.319   1.567  16.561 -0.0371  0.2909  0.1882
  598TMC3    C1 8859   1.687   2.675  15.431  0.0826  0.4701  0.4298
  598TMC3    C2 8860   1.719   2.545  15.464 -0.3137  0.5956  0.2411
  598TMC3    C3 8861   1.720   2.452  15.362 -0.2245 -0.7638 -0.4486
  598TMC3    C4 8862   1.661   2.711  15.301 -0.1328 -0.5699  0.2217
  598TMC3    C5 8863   1.659   2.619  15.206 -0.5256  0.3168 -0.0760
  598TMC3    C6 8864   1.691   2.489  15.230 -0.6216  0.0346  0.5099
  598TMC3     C 8865   1.711   2.780  15.528 -0.3041 -0.3741  0.4485
  598TMC3     O 8866   1.770   2.755  15.633 -0.2960 -0.3815 -0.0697
  598TMC3     H 8867   1.732   2.522  15.569  1.4672 -0.3908 -0.2065
  598TMC3    H1 8868   1.629   2.810  15.271  1.3993 -0.9745 -2.7705
  598TMC3    H2 8869   1.699   2.417  15.150  1.2172  0.6695  0.1271
  598TMC3    C7 8870   1.639   2.651  15.064  0.8445  0.0725 -0.2502
  598TMC3    C8 8871   1.685   2.316  15.406  0.2116 -0.3164 -0.7552
  598TMC3    O1 8872   1.580   2.564  14.999 -0.5613  0.1606 -0.9384
  598TMC3    O2 8873   1.606   2.254  15.333  0.2924 -0.2042 -0.3157
  599MPD2     C 8874   1.297   0.066  15.602  0.3621  0.6373  0.2250
  599MPD2    C1 8875   1.271   4.663  15.562  0.2285  0.3863  0.6223
  599MPD2    C2 8876   1.161   4.607  15.628  0.4911  0.2368 -0.1350
  599MPD2    C3 8877   1.089   4.682  15.720  0.0412 -0.0841 -0.0603
  599MPD2    C4 8878   1.125   0.087  15.760  0.3737 -0.2337 -0.0925
  599MPD2    C5 8879   1.231   0.143  15.695  0.1638 -0.6972 -0.7430
  599MPD2     H 8880   1.132   4.504  15.611  1.9337 -0.3782  1.0313
  599MPD2    H1 8881   1.084   0.141  15.845  0.5217  1.5616 -1.1709
  599MPD2    H2 8882   1.374   0.129  15.559 -2.2566  3.3665 -0.5150
  599MPD2    H3 8883   1.268   0.243  15.716  1.1125 -1.0567 -0.7082
  599MPD2     N 8884   0.977   4.629  15.790 -0.0412  0.3024  0.1067
  599MPD2    H5 8885   0.941   4.688  15.866  0.8390  1.0422 -0.0537
  599MPD2    N1 8886   1.349   4.597  15.460 -0.4231 -0.1031  0.5395
  599MPD2    H7 8887   1.434   4.645  15.433 -0.4338 -0.7787 -0.6707
  600TMC3    C1 8888   0.786   4.507  15.862 -0.8157  0.4410 -0.4629
  600TMC3    C2 8889   0.734   4.382  15.881  0.6120 -0.3379  0.4554
  600TMC3    C3 8890   0.629   4.372  15.967 -0.6751 -0.4258  0.0049
  600TMC3    C4 8891   0.729   4.618  15.922  0.8178  0.4528  0.6215
  600TMC3    C5 8892   0.617   4.597  15.997 -0.5791  0.4189 -0.0425
  600TMC3    C6 8893   0.565   4.480  16.027  0.0606 -0.0245  0.2769
  600TMC3     C 8894   0.912   4.511  15.783  0.4099  0.0290  0.1056
  600TMC3     O 8895   0.942   4.407  15.724  0.6747  0.3306 -0.2321
  600TMC3     H 8896   0.775   4.290  15.841 -2.1692 -1.6115  0.5405
  600TMC3    H1 8897   0.777   4.714  15.909 -1.3480  1.6940  1.9569
  600TMC3    H2 8898   0.502   4.463  16.113  1.5472 -3.2893  0.7202
  600TMC3    C7 8899   0.566   4.704  16.089 -0.0799 -0.1323 -0.3259
  600TMC3    C8 8900   0.573   4.243  16.003  0.6065 -0.3724  0.4539
  600TMC3    O1 8901   0.450   4.708  16.121 -0.1466 -0.4598 -0.0577
  600TMC3    O2 8902   0.641   4.141  16.008 -0.3588 -0.4476  0.9655
  601MPD2     C 8903   3.176   3.620  17.671 -0.5179 -0.3010  0.8355
  601MPD2    C1 8904   3.104   3.536  17.595 -0.1911  0.0832  0.2386
  601MPD2    C2 8905   3.124   3.397  17.609 -0.2676 -0.1793  0.4271
  601MPD2    C3 8906   3.227   3.352  17.685  0.8594  0.1760 -0.0177
  601MPD2    C4 8907   3.302   3.436   0.050  0.0170  0.3059 -0.3323
  601MPD2    C5 8908   3.271   3.571   0.049  0.2144  0.1998  0.2017
  601MPD2     H 8909   3.052   3.330  17.563 -1.2570  0.9067  0.3920
  601MPD2    H1 8910   3.384   3.399   0.110 -0.8765  2.1244  1.9737
  601MPD2    H2 8911   3.174   3.728  17.667 -0.0087 -0.4241 -2.1582
  601MPD2    H3 8912   3.328   3.644   0.105  0.7707 -0.1174  0.0463
  601MPD2     N 8913   3.274   3.222  17.673  0.0094 -0.3390 -0.0204
  601MPD2    H5 8914   3.336   3.196   0.039 -0.3793 -1.2433 -0.0200
  601MPD2    N1 8915   3.017   3.582  17.490 -0.3798 -0.0643 -0.3523
  601MPD2    H7 8916   2.983   3.513  17.423  0.4221 -1.1661  0.3801
  602TMC3    C1 8917   2.880   3.732  17.370 -0.6306  0.1755 -0.4254
  602TMC3    C2 8918   2.818   3.852  17.383  0.5353 -0.1933 -0.0222
  602TMC3    C3 8919   2.717   3.881  17.287 -0.2825  0.3668 -0.2803
  602TMC3    C4 8920   2.838   3.636  17.278 -0.3488 -0.1939 -0.1823
  602TMC3    C5 8921   2.746   3.675  17.180  0.7829 -1.0201  0.0141
  602TMC3    C6 8922   2.697   3.803  17.179 -0.2256 -0.0030  0.8223
  602TMC3     C 8923   2.985   3.710  17.467 -0.5081  0.3482  0.3100
  602TMC3     O 8924   3.010   3.813  17.529  0.2188  0.1164 -0.2310
  602TMC3     H 8925   2.844   3.920  17.464 -0.7129  1.3004 -0.8839
  602TMC3    H1 8926   2.877   3.535  17.269 -2.3183 -0.9383 -0.5799
  602TMC3    H2 8927   2.615   3.825  17.112  1.5436 -1.3519 -1.7860
  602TMC3    C7 8928   2.694   3.588  17.077 -1.0408 -0.2516  0.1328
  602TMC3    C8 8929   2.664   4.012  17.291  0.6563 -0.5215 -0.3664
  602TMC3    O1 8930   2.712   3.465  17.091  0.4373 -0.7998  0.9235
  602TMC3    O2 8931   2.632   4.062  17.401  0.5723 -0.0122 -0.5508
  603TMC3    C1 8932   1.118   3.332  11.501 -0.3239  0.2069 -0.4006
  603TMC3    C2 8933   1.177   3.321  11.625  0.1851  0.8777  0.6393
  603TMC3    C3 8934   1.250   3.427  11.669 -0.6369 -0.1729  0.4202
  603TMC3    C4 8935   1.133   3.451  11.432  0.0128 -0.0978 -0.6228
  603TMC3    C5 8936   1.206   3.553  11.485  0.0899  0.1706 -0.0805
  603TMC3    C6 8937   1.282   3.539  11.599 -0.5158  0.0732 -0.0590
  603TMC3     C 8938   1.062   3.222  11.431 -0.2199 -0.4487  0.5780
  603TMC3     O 8939   0.996   3.246  11.334  0.1605  0.3208  0.0072
  603TMC3     H 8940   1.179   3.223  11.672  3.1890  1.3736  1.5533
  603TMC3    H1 8941   1.091   3.452  11.331  2.0675  0.5153 -1.4698
  603TMC3    H2 8942   1.319   3.625  11.652 -0.4460 -0.4583  0.7599
  603TMC3    C7 8943   1.235   3.669  11.398 -0.0599 -0.3442  0.9446
  603TMC3    C8 8944   1.343   3.394  11.777  0.0691  0.6741  0.3203
  603TMC3    O1 8945   1.342   3.723  11.421 -0.2010 -0.0185  0.2286
  603TMC3    O2 8946   1.351   3.277  11.800 -0.0385  0.6221 -0.1109
  604MPD2     C 8947   2.179   2.489  16.456  0.2761  0.4446 -0.5781
  604MPD2    C1 8948   2.048   2.455  16.430 -0.0784 -0.3651 -0.4802
  604MPD2    C2 8949   2.032   2.356  16.332  0.6212 -0.1670  0.1692
  604MPD2    C3 8950   2.135   2.299  16.257  0.2919  0.3939  0.6881
  604MPD2    C4 8951   2.265   2.332  16.295 -0.4204 -0.0601 -0.3566
  604MPD2    C5 8952   2.283   2.435  16.383  0.2084  0.8860 -0.3806
  604MPD2     H 8953   1.931   2.324  16.307  0.6094 -0.2579  0.3314
  604MPD2    H1 8954   2.350   2.289  16.245  1.1315 -1.3721  3.4061
  604MPD2    H2 8955   2.200   2.569  16.526 -0.6483  1.6991 -1.7253
  604MPD2    H3 8956   2.381   2.470  16.413  1.6395 -1.6794 -2.0383
  604MPD2     N 8957   2.107   2.196  16.156 -0.2969 -0.4126 -0.1199
  604MPD2    H5 8958   2.008   2.177  16.138 -0.2193 -0.6413 -0.3038
  604MPD2    N1 8959   1.948   2.526  16.496 -0.2601  0.5893 -0.8048
  604MPD2    H7 8960   1.979   2.580  16.576  3.0505 -1.7935 -0.4689
  605TMC3    C1 8961   1.733   2.644  16.499  0.1029  0.1547  0.6992
  605TMC3    C2 8962   1.793   2.757  16.539 -0.0465 -1.2398  1.1410
  605TMC3    C3 8963   1.741   2.878  16.503 -0.3413  0.4719 -0.3224
  605TMC3    C4 8964   1.616   2.646  16.433  0.2479 -0.4737  0.0553
  605TMC3    C5 8965   1.567   2.769  16.392 -0.4109  0.7117 -0.1236
  605TMC3    C6 8966   1.626   2.889  16.431 -0.0329 -0.1198 -0.0232
  605TMC3     C 8967   1.814   2.529  16.458 -0.1783  0.6838  0.5358
  605TMC3     O 8968   1.745   2.448  16.392 -0.1985 -0.8093 -0.3388
  605TMC3     H 8969   1.890   2.748  16.586 -0.0469 -1.5728  1.0788
  605TMC3    H1 8970   1.563   2.555  16.410 -0.7631  0.8332 -2.8085
  605TMC3    H2 8971   1.606   2.981  16.376 -0.2715  0.3099  0.7922
  605TMC3    C7 8972   1.464   2.772  16.287 -0.5092  0.8120  0.4752
  605TMC3    C8 8973   1.850   2.952  16.443  0.3772  0.4129 -0.1736
  605TMC3    O1 8974   1.398   2.873  16.273 -0.1309  0.0231  0.4615
  605TMC3    O2 8975   1.935   2.892  16.380  0.2030  0.3374 -0.2488
  606TMC3    C1 8976   3.583   0.476  17.487 -0.3182  0.0745 -0.2048
  606TMC3    C2 8977   3.692   0.403  17.446 -0.1344  0.0000 -0.0879
  606TMC3    C3 8978   3.682   0.265  17.462  0.3008 -0.2234  0.3176
  606TMC3    C4 8979   3.464   0.417  17.529  0.1737 -0.1947  0.1319
  606TMC3    C5 8980   3.466   0.277  17.538 -0.4125 -0.6913  0.1318
  606TMC3    C6 8981   3.575   0.204  17.516 -0.7625  0.4674  0.6605
  606TMC3     C 8982   3.599   0.628  17.487 -0.4484  0.6488 -0.2937
  606TMC3     O 8983   3.511   0.707  17.502 -0.2027  0.0572 -0.7026
  606TMC3     H 8984   3.787   0.452  17.426  0.4670 -0.8672  0.5892
  606TMC3    H1 8985   3.383   0.478  17.567  2.1370  2.9837 -0.8159
  606TMC3    H2 8986   3.566   0.096  17.528  0.9517  0.1231 -1.1935
  606TMC3    C7 8987   3.364   0.225  17.624 -0.0217 -0.5088  0.4411
  606TMC3    C8 8988   3.801   0.186  17.443  0.3805  0.0579 -0.1826
  606TMC3    O1 8989   3.393   0.160   0.014 -0.1731  0.2133 -0.1377
  606TMC3    O2 8990   3.885   0.244  17.378 -0.7630 -0.2162 -0.1567
  607MPD2     C 8991   0.447   3.677  11.797  0.5390  0.1137  0.2281
  607MPD2    C1 8992   0.564   3.722  11.850 -0.3434 -0.7126  0.6065
  607MPD2    C2 8993   0.589   3.698  11.988  0.8510  0.1150  0.0428
  607MPD2    C3 8994   0.520   3.602  12.061 -0.0824 -0.3710 -0.1267
  607MPD2    C4 8995   0.419   3.535  11.995 -0.4506  0.3586 -0.3212
  607MPD2    C5 8996   0.383   3.577  11.865 -0.0401  0.1679  0.0264
  607MPD2     H 8997   0.671   3.749  12.037  2.7373 -0.0399 -2.9440
  607MPD2    H1 8998   0.351   3.463  12.040 -0.5836 -1.3293 -3.2016
  607MPD2    H2 8999   0.425   3.701  11.694 -3.2094  3.1163  1.7232
  607MPD2    H3 9000   0.299   3.530  11.814 -1.9645  1.1178  2.2894
  607MPD2     N 9001   0.548   3.600  12.200  0.0640 -0.3422 -0.2943
  607MPD2    H5 9002   0.613   3.667  12.240 -1.7336  0.9212  0.4991
  607MPD2    N1 9003   0.650   3.818  11.791 -0.1680 -0.3583  0.0534
  607MPD2    H7 9004   0.733   3.849  11.840 -0.3807 -1.1033  0.8782
  608TMC3    C1 9005   0.752   3.985  11.669 -0.4675 -0.6966  0.6785
  608TMC3    C2 9006   0.759   4.057  11.789  0.0874 -0.6274  0.2776
  608TMC3    C3 9007   0.851   4.157  11.788  0.1635 -0.0184  0.1095
  608TMC3    C4 9008   0.833   4.009  11.563 -0.1559 -0.0267 -0.4951
  608TMC3    C5 9009   0.909   4.123  11.568  0.0286 -0.1473  0.4850
  608TMC3    C6 9010   0.919   4.198  11.680 -0.2325 -0.4493  0.0881
  608TMC3     C 9011   0.654   3.872  11.665 -0.5244  0.4637 -0.1557
  608TMC3     O 9012   0.568   3.859  11.575  0.5994  0.1720  0.7722
  608TMC3     H 9013   0.677   4.067  11.858 -0.1295  1.5701 -0.2872
  608TMC3    H1 9014   0.822   3.949  11.473 -3.4727 -2.9889  1.9095
  608TMC3    H2 9015   0.981   4.287  11.687  1.1514 -1.3288 -1.0554
  608TMC3    C7 9016   0.974   4.168  11.451  0.3264 -0.5708 -0.4895
  608TMC3    C8 9017   0.896   4.197  11.919  0.0920 -0.1563  0.3380
  608TMC3    O1 9018   0.921   4.174  11.342 -0.1193  0.2481 -0.0222
  608TMC3    O2 9019   0.970   4.296  11.937 -0.3466 -1.3700  0.1381
  609TMC3    C1 9020   4.001   2.775   9.243 -0.6834 -0.3683  0.0783
  609TMC3    C2 9021   4.008   2.831   9.115 -0.7241  0.0039  0.0869
  609TMC3    C3 9022   4.123   2.814   9.041 -0.2805 -0.0213  0.7958
  609TMC3    C4 9023   4.108   2.714   9.293  0.2762 -0.5517 -0.1814
  609TMC3    C5 9024   4.214   2.690   9.208  0.5280  0.1663  0.3875
  609TMC3    C6 9025   4.228   2.735   9.090  0.1735  0.6543 -0.6170
  609TMC3     C 9026   3.874   2.742   9.306 -0.3671  0.4691  0.4615
  609TMC3     O 9027   3.867   2.647   9.378  0.1325 -0.2967  0.0817
  609TMC3     H 9028   3.918   2.875   9.074 -0.3637 -0.3747 -1.1184
  609TMC3    H1 9029   4.110   2.683   9.397 -0.3220 -1.7362 -0.5334
  609TMC3    H2 9030   4.321   2.731   9.034 -0.5083  1.1346 -1.8069
  609TMC3    C7 9031   4.325   2.634   9.275  0.3513 -0.1760 -0.2021
  609TMC3    C8 9032   4.135   2.874   8.908  0.0536  0.1826  0.0465
  609TMC3    O1 9033   4.338   2.682   9.390 -0.0825 -0.2873 -0.1948
  609TMC3    O2 9034   4.230   2.827   8.844  0.3467 -0.6482  0.4962
  610TMC3    C1 9035   1.300   3.651  12.952  0.4412  1.1396 -0.2832
  610TMC3    C2 9036   1.245   3.677  12.829  0.1102 -0.6061 -0.5413
  610TMC3    C3 9037   1.286   3.603  12.722  0.6463 -0.3003 -0.5778
  610TMC3    C4 9038   1.383   3.547  12.971 -0.1685 -0.2603 -0.0121
  610TMC3    C5 9039   1.440   3.491  12.857 -0.0336  0.1535 -0.0560
  610TMC3    C6 9040   1.395   3.512  12.731  0.9183  0.2560 -1.1079
  610TMC3     C 9041   1.281   3.733  13.070 -0.2818  0.1756  0.2565
  610TMC3     O 9042   1.358   3.717  13.170  0.2356 -0.1307 -0.0598
  610TMC3     H 9043   1.183   3.760  12.798 -0.3065  0.6419  3.6352
  610TMC3    H1 9044   1.425   3.506  13.062  0.5760  0.6827  0.0719
  610TMC3    H2 9045   1.436   3.460  12.645  2.9832  0.9098 -0.5288
  610TMC3    C7 9046   1.495   3.358  12.880 -0.2301 -0.3861 -0.3440
  610TMC3    C8 9047   1.216   3.616  12.597  1.4701  0.2437 -0.3541
  610TMC3    O1 9048   1.598   3.332  12.821 -0.1130 -0.1252 -0.8496
  610TMC3    O2 9049   1.163   3.724  12.576  0.4175  0.0145  0.0888
  611MPD2     C 9050   0.146   3.910  10.693  0.9424 -0.2274  0.0371
  611MPD2    C1 9051   0.214   3.832  10.604 -0.0318  0.5345 -0.2947
  611MPD2    C2 9052   0.353   3.851  10.593 -0.3113 -0.5936  0.2631
  611MPD2    C3 9053   0.432   3.914  10.684  0.1519 -0.2221  0.3377
  611MPD2    C4 9054   0.361   3.980  10.785 -0.9565  0.3438  0.2210
  611MPD2    C5 9055   0.224   3.968  10.795  0.1575  0.3268  0.3764
  611MPD2     H 9056   0.404   3.789  10.521 -0.3511  1.7153 -1.7348
  611MPD2    H1 9057   0.420   4.035  10.856 -0.2918  1.7146 -1.3849
  611MPD2    H2 9058   0.041   3.905  10.718  1.4632 -1.1681  2.0372
  611MPD2    H3 9059   0.167   4.005  10.879 -2.3751 -1.2770 -0.6224
  611MPD2     N 9060   0.574   3.925  10.667 -0.0734  0.0430 -0.1972
  611MPD2    H5 9061   0.625   3.966  10.745 -0.2203  0.9603 -0.5833
  611MPD2    N1 9062   0.141   3.755  10.512  0.0741 -0.6113 -0.2091
  611MPD2    H7 9063   0.040   3.762  10.517  0.0372 -1.0546 -0.3459
  612TMC3    C1 9064   0.784   3.937  10.557 -0.1923 -0.3941  0.4251
  612TMC3    C2 9065   0.852   3.951  10.673 -0.6877  0.5345 -0.0251
  612TMC3    C3 9066   0.988   3.974  10.672 -0.1431 -0.2880  0.0778
  612TMC3    C4 9067   0.838   3.955  10.436  0.5410 -0.0563  0.6927
  612TMC3    C5 9068   0.971   3.995  10.434 -0.0597  0.1276 -0.4639
  612TMC3    C6 9069   1.042   4.016  10.547  0.8931 -0.2503  0.1662
  612TMC3     C 9070   0.645   3.890  10.553  0.3103 -0.0538  0.6566
  612TMC3     O 9071   0.610   3.857  10.441 -0.2136  0.6692  0.3576
  612TMC3     H 9072   0.802   3.919  10.764  0.4086  1.3727  0.8834
  612TMC3    H1 9073   0.779   3.947  10.346 -0.6509  2.9650  1.2142
  612TMC3    H2 9074   1.147   4.042  10.545  1.2061 -1.4345  1.2482
  612TMC3    C7 9075   1.032   4.064  10.317 -0.7072  0.0258 -0.0847
  612TMC3    C8 9076   1.062   3.991  10.789 -0.2585  0.1493 -0.3899
  612TMC3    O1 9077   1.152   4.088  10.312 -0.2006 -0.1516 -0.7483
  612TMC3    O2 9078   1.163   4.052  10.766 -0.3155 -0.7448 -0.3593
  613MPD2     C 9079   3.642   0.808  16.716  0.0045  0.0253  0.3135
  613MPD2    C1 9080   3.699   0.749  16.606  0.3709  0.1080 -0.1431
  613MPD2    C2 9081   3.629   0.643  16.548 -0.1944  0.4138 -0.4997
  613MPD2    C3 9082   3.509   0.601  16.595  0.0812 -0.0486 -1.1229
  613MPD2    C4 9083   3.450   0.663  16.703  0.7676  0.3092  0.2170
  613MPD2    C5 9084   3.517   0.767  16.760  0.1043  0.4683  0.3942
  613MPD2     H 9085   3.652   0.601  16.451  1.9879 -1.0920  0.6539
  613MPD2    H1 9086   3.350   0.649  16.742 -0.3082  2.6463 -1.6895
  613MPD2    H2 9087   3.692   0.895  16.758  1.8026 -1.5539  1.4928
  613MPD2    H3 9088   3.473   0.823  16.842 -0.3627  1.4603 -0.5225
  613MPD2     N 9089   3.432   0.509  16.522  0.1734  0.4662 -0.3569
  613MPD2    H5 9090   3.349   0.469  16.565  1.3441  0.2535  1.6907
  613MPD2    N1 9091   3.823   0.803  16.563 -0.0483  0.1081  0.5934
  613MPD2    H7 9092   3.845   0.895  16.600 -2.2497  0.0799  1.9912
  614TMC3    C1 9093   4.014   0.806  16.423  0.2925  0.6018 -0.7130
  614TMC3    C2 9094   4.087   0.714  16.350 -0.1240 -0.1720  0.8415
  614TMC3    C3 9095   4.135   0.745  16.225  0.5860 -0.4852 -0.9256
  614TMC3    C4 9096   3.978   0.922  16.360  0.9482  0.6544  0.2294
  614TMC3    C5 9097   4.037   0.950  16.237  0.7002 -0.3809  0.0407
  614TMC3    C6 9098   4.108   0.861  16.167  0.0782 -0.1973 -0.3471
  614TMC3     C 9099   3.898   0.738  16.472  0.5454 -0.9191  0.6139
  614TMC3     O 9100   3.884   0.634  16.407  0.0913 -0.3205 -0.3359
  614TMC3     H 9101   4.111   0.621  16.401 -2.7486 -0.0890  2.2025
  614TMC3    H1 9102   3.918   0.999  16.406 -1.1164  0.0337 -1.4057
  614TMC3    H2 9103   4.137   0.877  16.063 -1.7757  1.8631 -0.5589
  614TMC3    C7 9104   3.986   1.068  16.171 -0.4382 -0.2633  0.7743
  614TMC3    C8 9105   4.124   0.632  16.144  0.0722 -0.7340 -0.0010
  614TMC3    O1 9106   3.978   1.172  16.239  0.2320 -0.2170  0.1472
  614TMC3    O2 9107   4.212   0.622  16.060 -0.3994 -0.1938 -0.5029
  615MPD2     C 9108   3.505   2.329  16.128  0.6564  0.1043 -0.5667
  615MPD2    C1 9109   3.551   2.416  16.027 -0.0099  0.6724 -0.0964
  615MPD2    C2 9110   3.580   2.359  15.907  0.0438  0.3869  0.1169
  615MPD2    C3 9111   3.563   2.219  15.882 -0.5156  0.1157 -0.5244
  615MPD2    C4 9112   3.509   2.142  15.981 -0.0321  0.9378 -0.3993
  615MPD2    C5 9113   3.478   2.199  16.104  0.1474  0.0843  0.1373
  615MPD2     H 9114   3.622   2.426  15.833  0.7390 -0.8690 -0.6258
  615MPD2    H1 9115   3.489   2.038  15.960 -0.2342  0.8557  0.1856
  615MPD2    H2 9116   3.491   2.367  16.229  0.0132  0.5429 -0.8230
  615MPD2    H3 9117   3.436   2.146  16.189 -1.6232 -0.8303 -1.3274
  615MPD2     N 9118   3.603   2.156  15.760 -0.3808  0.5908  0.1400
  615MPD2    H5 9119   3.577   2.059  15.750  0.8910  0.2647 -0.0599
  615MPD2    N1 9120   3.572   2.551  16.044  0.1226  0.3850 -0.2553
  615MPD2    H7 9121   3.605   2.596  15.959  0.2934 -1.2596 -1.0584
  616TMC3    C1 9122   3.600   2.765  16.142  0.6354  0.1382  0.8284
  616TMC3    C2 9123   3.695   2.788  16.052  0.5484  0.4881 -0.5989
  616TMC3    C3 9124   3.736   2.921  16.032  0.2945  0.1215 -0.4107
  616TMC3    C4 9125   3.533   2.866  16.208  0.4629 -0.2254 -0.2477
  616TMC3    C5 9126   3.582   2.995  16.186 -0.2621 -0.5446  0.2544
  616TMC3    C6 9127   3.678   3.024  16.101  0.9245 -0.4032  0.0642
  616TMC3     C 9128   3.546   2.627  16.152  0.0261  0.5570 -0.2298
  616TMC3     O 9129   3.472   2.593  16.245  0.0892  0.2910 -0.1577
  616TMC3     H 9130   3.742   2.713  15.990  2.0191  0.8844  0.0284
  616TMC3    H1 9131   3.457   2.854  16.285 -0.6784 -0.8380 -1.4738
  616TMC3    H2 9132   3.715   3.123  16.077  1.4149 -0.4307  0.7100
  616TMC3    C7 9133   3.521   3.103  16.263 -0.1303  0.4075  0.2405
  616TMC3    C8 9134   3.855   2.946  15.953 -0.5254 -0.1277  0.2241
  616TMC3    O1 9135   3.401   3.094  16.284 -0.4786 -0.6626 -0.1167
  616TMC3    O2 9136   3.923   2.850  15.923  0.3115  0.1554  0.1197
  617MPD2     C 9137   1.807   0.710  13.948  0.3465 -0.2730 -0.2927
  617MPD2    C1 9138   1.827   0.615  13.855  0.2210  0.2763  0.5196
  617MPD2    C2 9139   1.722   0.542  13.794  0.2622 -0.3387  0.8608
  617MPD2    C3 9140   1.593   0.562  13.841  0.3829 -0.3011 -0.5385
  617MPD2    C4 9141   1.578   0.661  13.932  0.5721  0.2107 -0.9433
  617MPD2    C5 9142   1.681   0.728  13.991 -0.8310 -0.2771  0.1601
  617MPD2     H 9143   1.746   0.468  13.718  1.2192 -0.5147  1.3319
  617MPD2    H1 9144   1.477   0.677  13.967  1.2605  1.4878  0.5273
  617MPD2    H2 9145   1.884   0.777  13.985  1.0032 -0.9671 -0.3968
  617MPD2    H3 9146   1.663   0.811  14.057 -2.9784 -0.7494  0.1538
  617MPD2     N 9147   1.472   0.494  13.797 -0.7225 -0.4479  0.0597
  617MPD2    H5 9148   1.387   0.522  13.844 -1.4763 -0.8494 -1.0445
  617MPD2    N1 9149   1.968   0.601  13.831 -0.2137 -0.9767  0.1636
  617MPD2    H7 9150   2.026   0.678  13.864 -0.7639 -0.3287 -0.3869
  618TMC3    C1 9151   2.167   0.519  13.732  1.2032  0.2572  0.4236
  618TMC3    C2 9152   2.213   0.435  13.636  0.6963 -0.1455  0.1464
  618TMC3    C3 9153   2.335   0.375  13.660 -0.2888 -0.1460 -0.9860
  618TMC3    C4 9154   2.243   0.554  13.841  0.1873 -0.4367 -0.4614
  618TMC3    C5 9155   2.373   0.503  13.853  0.4958 -0.1195 -0.0689
  618TMC3    C6 9156   2.413   0.405  13.766 -0.0612 -0.6289  0.0076
  618TMC3     C 9157   2.023   0.513  13.749  0.5353 -0.2444 -0.2076
  618TMC3     O 9158   1.963   0.434  13.682 -0.0066  0.3273  0.0576
  618TMC3     H 9159   2.152   0.409  13.551  1.7312 -0.1887 -0.5824
  618TMC3    H1 9160   2.201   0.604  13.928  2.2597  1.3993 -0.4958
  618TMC3    H2 9161   2.498   0.348  13.803  0.4209  1.2699  1.7897
  618TMC3    C7 9162   2.429   0.516  13.987  0.8312  0.1145 -0.2654
  618TMC3    C8 9163   2.398   0.303  13.547  0.8778 -0.0366 -0.6205
  618TMC3    O1 9164   2.344   0.512  14.072 -0.5457  0.4697  0.3260
  618TMC3    O2 9165   2.316   0.274  13.462  0.6727 -0.3196  0.5751
  619MPD2     C 9166   3.204   1.672  13.799  0.5879 -0.3712 -0.6546
  619MPD2    C1 9167   3.149   1.718  13.677 -0.1719 -0.2363  0.6285
  619MPD2    C2 9168   3.015   1.689  13.649  0.0569 -0.0274 -0.2788
  619MPD2    C3 9169   2.941   1.615  13.736  0.3670  0.4154  0.2098
  619MPD2    C4 9170   2.998   1.559  13.853 -0.1393  0.2079 -0.3745
  619MPD2    C5 9171   3.130   1.592  13.885 -0.1723  0.2855 -0.0049
  619MPD2     H 9172   2.973   1.700  13.550  0.9966  0.4166 -0.6293
  619MPD2    H1 9173   2.943   1.495  13.921 -1.0484  0.8887 -0.4619
  619MPD2    H2 9174   3.305   1.705  13.824 -0.0354 -0.4518  1.9456
  619MPD2    H3 9175   3.171   1.565  13.982  0.3678  2.4379  0.3780
  619MPD2     N 9176   2.805   1.576  13.709 -0.2734  0.1320 -0.1563
  619MPD2    H5 9177   2.743   1.537  13.779 -0.0009 -0.0248 -0.0034
  619MPD2    N1 9178   3.209   1.801  13.583 -0.0973  0.6008  0.4570
  619MPD2    H7 9179   3.160   1.835  13.502 -1.2070 -1.2487  0.3478
  620TMC3    C1 9180   3.368   1.935  13.482 -0.0701  0.0185  0.2345
  620TMC3    C2 9181   3.324   1.914  13.355  0.3583  0.1870  0.0399
  620TMC3    C3 9182   3.357   2.010  13.257  0.0139  0.0900 -0.4516
  620TMC3    C4 9183   3.449   2.041  13.519  0.0818 -0.5661  0.0249
  620TMC3    C5 9184   3.475   2.135  13.430 -1.0305  0.6670  0.3356
  620TMC3    C6 9185   3.426   2.122  13.299  0.2740  0.2899  0.1723
  620TMC3     C 9186   3.345   1.836  13.582  0.4291  0.7583 -0.0081
  620TMC3     O 9187   3.436   1.808  13.654 -0.1455  0.1807 -0.3140
  620TMC3     H 9188   3.274   1.821  13.330  0.5422  0.0258  0.2732
  620TMC3    H1 9189   3.499   2.049  13.615  1.6658 -0.1477 -0.8388
  620TMC3    H2 9190   3.449   2.196  13.223  1.3593 -0.6705 -0.4476
  620TMC3    C7 9191   3.510   2.266  13.467  0.4796 -0.4817  0.1017
  620TMC3    C8 9192   3.298   2.012  13.123 -0.6434 -0.6020 -0.0243
  620TMC3    O1 9193   3.570   2.293  13.571  0.1265 -0.5608 -0.2966
  620TMC3    O2 9194   3.378   2.040  13.033 -0.0200 -0.4211 -0.1635
  621MPD2     C 9195   3.599   1.718   9.743  0.1466 -0.2285 -0.6846
  621MPD2    C1 9196   3.683   1.657   9.835  0.1149  0.8087  0.5830
  621MPD2    C2 9197   3.723   1.736   9.944  0.1321 -0.3718  0.2964
  621MPD2    C3 9198   3.688   1.873   9.956 -0.2528 -0.7525 -0.3635
  621MPD2    C4 9199   3.590   1.921   9.865  0.5028  0.6023  0.4089
  621MPD2    C5 9200   3.550   1.843   9.757  0.3064  0.0000  0.4064
  621MPD2     H 9201   3.784   1.676  10.011 -0.5793 -0.8706  0.5001
  621MPD2    H1 9202   3.558   2.024   9.857  0.1802  0.4179 -0.6979
  621MPD2    H2 9203   3.563   1.658   9.661  1.4978  2.7443 -3.4462
  621MPD2    H3 9204   3.488   1.890   9.682  1.0964 -0.1270 -0.3232
  621MPD2     N 9205   3.746   1.953  10.056  0.2140 -0.0691  0.1133
  621MPD2    H5 9206   3.815   1.913  10.119 -1.2197  0.4837  2.0468
  621MPD2    N1 9207   3.705   1.519   9.835  0.2871 -0.3495 -0.0469
  621MPD2    H7 9208   3.737   1.479   9.923  1.8388  1.9293  0.3988
  622TMC3    C1 9209   3.775   1.299   9.747  0.6037  0.2284  0.0703
  622TMC3    C2 9210   3.736   1.227   9.858  0.2674 -0.4293  0.1035
  622TMC3    C3 9211   3.721   1.090   9.849 -0.0041  0.4116 -0.4440
  622TMC3    C4 9212   3.804   1.230   9.633  0.8906  0.2177  0.3181
  622TMC3    C5 9213   3.780   1.095   9.632 -0.7845 -0.2828 -0.1665
  622TMC3    C6 9214   3.742   1.015   9.742 -0.0990 -0.4912 -0.4975
  622TMC3     C 9215   3.725   1.440   9.723  0.2133 -0.4998  0.8120
  622TMC3     O 9216   3.706   1.472   9.607 -0.6264 -0.2293 -0.1272
  622TMC3     H 9217   3.715   1.276   9.952 -2.0052 -1.4530  0.1256
  622TMC3    H1 9218   3.834   1.279   9.541  2.4852 -1.0014  0.1890
  622TMC3    H2 9219   3.706   0.913   9.739  2.2232 -1.3381  0.2621
  622TMC3    C7 9220   3.801   1.031   9.503  0.3009 -0.0956 -0.7660
  622TMC3    C8 9221   3.636   1.031   9.956  0.1718 -1.0997  0.1409
  622TMC3    O1 9222   3.899   1.052   9.437 -0.0525 -0.2610 -0.7119
  622TMC3    O2 9223   3.653   0.920   9.998  0.6050  0.2730  0.2385
  623MPD2     C 9224   2.407   2.474  15.952 -0.2370 -0.1429 -0.3478
  623MPD2    C1 9225   2.321   2.543  16.037  0.3334  0.3838 -0.2281
  623MPD2    C2 9226   2.372   2.610  16.142  0.2848 -0.3235 -0.2978
  623MPD2    C3 9227   2.508   2.600  16.177  0.4064  0.2523 -0.5460
  623MPD2    C4 9228   2.598   2.533  16.096 -1.2222  0.2365  0.0235
  623MPD2    C5 9229   2.546   2.480  15.978 -0.3424  0.0791 -0.3021
  623MPD2     H 9230   2.307   2.656  16.215 -0.6783 -0.5885 -0.9948
  623MPD2    H1 9231   2.706   2.531  16.106 -1.2129 -1.2378 -0.3582
  623MPD2    H2 9232   2.371   2.420  15.865  0.9089 -1.4259 -0.0347
  623MPD2    H3 9233   2.612   2.432  15.906 -0.0205  2.6128 -1.6806
  623MPD2     N 9234   2.544   2.675  16.295  0.1579 -0.0274  0.4756
  623MPD2    H5 9235   2.475   2.728  16.347 -1.9629 -1.3214 -1.0312
  623MPD2    N1 9236   2.187   2.548  16.010  0.0606  0.2584 -0.2730
  623MPD2    H7 9237   2.131   2.593  16.082 -2.5266 -1.1858 -1.3972
  624TMC3    C1 9238   2.728   3.039  16.376  0.1416 -0.2425  0.1432
  624TMC3    C2 9239   2.605   3.078  16.421  0.0396 -0.1873  0.4285
  624TMC3    C3 9240   2.525   2.976  16.466  0.3157 -0.3124 -0.3643
  624TMC3    C4 9241   2.762   2.906  16.375 -0.8440 -0.0581 -0.4097
  624TMC3    C5 9242   2.676   2.811  16.422  0.0610 -0.0506 -0.2617
  624TMC3    C6 9243   2.557   2.844  16.471 -0.1460  0.8857  1.0394
  624TMC3     C 9244   2.829   3.138  16.378 -0.1392  0.3402  0.9936
  624TMC3     O 9245   2.798   3.254  16.360 -0.5131  0.4759  1.0827
  624TMC3     H 9246   2.568   3.178  16.407 -2.7983 -1.2618  0.1978
  624TMC3    H1 9247   2.854   2.869  16.331 -1.2135 -1.5139  0.0611
  624TMC3    H2 9248   2.488   2.778  16.523  1.1524 -1.3258 -0.0808
  624TMC3    C7 9249   2.678   2.694  16.339  0.5266  0.6090 -0.1432
  624TMC3    C8 9250   2.381   2.998  16.455 -0.6322  0.4246  0.2440
  624TMC3    O1 9251   2.785   2.645  16.304  0.0446 -0.9519 -0.1207
  624TMC3    O2 9252   2.313   2.902  16.438 -0.1289 -0.3092  0.4264
  625MPD2     C 9253   2.643   3.554   0.382 -0.2434  0.4696  0.2942
  625MPD2    C1 9254   2.656   3.658   0.470 -0.8437  0.0445  0.2688
  625MPD2    C2 9255   2.749   3.656   0.574 -0.1956  0.7740  0.4358
  625MPD2    C3 9256   2.841   3.550   0.583  0.2110  0.2046  0.5530
  625MPD2    C4 9257   2.836   3.455   0.485 -1.1806  0.0406 -0.3673
  625MPD2    C5 9258   2.740   3.458   0.387 -0.1288 -0.0821  0.1026
  625MPD2     H 9259   2.750   3.738   0.644 -0.8679  1.1999 -0.0472
  625MPD2    H1 9260   2.905   3.372   0.483 -1.0417  0.1738 -1.0023
  625MPD2    H2 9261   2.572   3.550   0.300 -0.1716 -0.4227  0.2758
  625MPD2    H3 9262   2.746   3.379   0.312  0.5485 -1.6961  1.8610
  625MPD2     N 9263   2.936   3.562   0.688  0.8641 -0.2307  0.1818
  625MPD2    H5 9264   2.912   3.639   0.750 -0.5006 -0.0084 -0.6226
  625MPD2    N1 9265   2.573   3.774   0.460 -0.5824  0.5599  0.7153
  625MPD2    H7 9266   2.579   3.842   0.534 -0.5280  0.1154  1.1226
  626TMC3    C1 9267   2.396   3.908   0.394 -0.6580  0.9212 -0.6305
  626TMC3    C2 9268   2.336   3.976   0.287  0.5579 -0.0899  0.0268
  626TMC3    C3 9269   2.269   4.094   0.316  0.2269 -0.6007  0.4761
  626TMC3    C4 9270   2.375   3.940   0.522  0.0464  0.1533  0.4855
  626TMC3    C5 9271   2.308   4.061   0.544 -0.5204  0.5699 -0.9697
  626TMC3    C6 9272   2.259   4.144   0.441  0.4227 -0.1018  0.3751
  626TMC3     C 9273   2.482   3.794   0.359 -0.1841  0.4657 -0.7616
  626TMC3     O 9274   2.477   3.746   0.248  0.0481  0.3951  0.1422
  626TMC3     H 9275   2.361   3.933   0.191 -0.9493  0.9822 -0.8580
  626TMC3    H1 9276   2.435   3.902   0.604  2.3514 -0.5291 -1.5403
  626TMC3    H2 9277   2.219   4.244   0.450  2.2800  0.6571  0.3392
  626TMC3    C7 9278   2.351   4.130   0.659 -0.1900  0.9480  0.3920
  626TMC3    C8 9279   2.235   4.172   0.194  0.3470  0.1498 -0.0486
  626TMC3    O1 9280   2.467   4.102   0.687  0.4007 -0.2632 -0.6506
  626TMC3    O2 9281   2.256   4.115   0.084 -0.0344  0.1759  0.6117
  627MPD2     C 9282   1.804   3.916  13.762  0.1221 -0.4240  0.2832
  627MPD2    C1 9283   1.780   3.920  13.899  0.3790  0.6951 -0.2432
  627MPD2    C2 9284   1.707   3.814  13.954 -0.3025 -0.6261  0.6534
  627MPD2    C3 9285   1.668   3.701  13.876 -0.1361  0.7582  0.1024
  627MPD2    C4 9286   1.704   3.689  13.742  0.3583  0.3663  0.0311
  627MPD2    C5 9287   1.771   3.799  13.691 -0.0176 -0.0286  0.3815
  627MPD2     H 9288   1.696   3.812  14.061 -0.1470  3.4928  0.7585
  627MPD2    H1 9289   1.690   3.597  13.687  2.9867  0.2267 -0.4184
  627MPD2    H2 9290   1.858   3.998  13.716  2.6475 -0.0365  3.9333
  627MPD2    H3 9291   1.818   3.797  13.593 -0.8861 -0.9590 -0.0110
  627MPD2     N 9292   1.589   3.609  13.943  0.3637  0.1163 -0.2495
  627MPD2    H5 9293   1.553   3.634  14.034  2.0103 -0.5638  0.5770
  627MPD2    N1 9294   1.827   4.019  13.987 -0.2955  0.0345 -0.1308
  627MPD2    H7 9295   1.812   4.006  14.087 -3.6062  0.7754 -0.5258
  628TMC3    C1 9296   1.939   4.214  14.060 -0.7689  0.7297 -0.6144
  628TMC3    C2 9297   1.998   4.147  14.162 -0.7088 -0.0385  0.4166
  628TMC3    C3 9298   2.076   4.230  14.238  0.5018  0.1573 -0.3216
  628TMC3    C4 9299   1.946   4.352  14.046  0.1880  0.3050  0.2239
  628TMC3    C5 9300   2.002   4.427  14.144  0.1618  0.0634 -0.4776
  628TMC3    C6 9301   2.079   4.371  14.241  0.3056  0.1240  1.3612
  628TMC3     C 9302   1.883   4.136  13.951 -0.1011  0.2675 -0.8274
  628TMC3     O 9303   1.900   4.181  13.836  0.1903  0.3587 -0.9940
  628TMC3     H 9304   2.000   4.039  14.165 -4.4079 -0.0860  0.3189
  628TMC3    H1 9305   1.903   4.398  13.958 -1.1602  2.7210  2.1473
  628TMC3    H2 9306   2.154   4.434  14.287 -0.1242  1.9341 -0.3957
  628TMC3    C7 9307   1.955   4.562  14.152 -0.3159  0.3487  0.1489
  628TMC3    C8 9308   2.141   4.158  14.345 -0.6199 -0.5539 -0.1084
  628TMC3    O1 9309   2.028   4.634  14.222  0.1895  0.4888  0.3292
  628TMC3    O2 9310   2.151   4.036  14.346 -0.0204  0.4783  0.0390
  629MPD2     C 9311   4.229   3.263  15.811 -0.1984 -0.0781  0.2303
  629MPD2    C1 9312   4.234   3.138  15.854 -0.3336 -0.9032 -0.6322
  629MPD2    C2 9313   4.122   3.070  15.885 -0.1611 -0.1177  0.1780
  629MPD2    C3 9314   3.998   3.132  15.865  0.1043 -0.1508 -0.0336
  629MPD2    C4 9315   3.991   3.258  15.821 -0.2805 -0.7925  0.3261
  629MPD2    C5 9316   4.106   3.332  15.788 -0.0993  0.4783  0.5246
  629MPD2     H 9317   4.124   2.977  15.940  0.3357 -0.1319  0.1416
  629MPD2    H1 9318   3.892   3.295  15.799  0.4167 -0.2223 -1.8652
  629MPD2    H2 9319   4.318   3.317  15.780 -0.2789 -1.0053 -1.6434
  629MPD2    H3 9320   4.091   3.437  15.766 -0.8680  0.3949  0.6622
  629MPD2     N 9321   3.872   3.078  15.911 -0.1619  0.0560  0.3417
  629MPD2    H5 9322   3.792   3.141  15.911 -0.4462 -0.3022  0.9857
  629MPD2    N1 9323   4.366   3.094  15.883  0.0154  0.0877  0.0085
  629MPD2    H7 9324   4.443   3.160  15.887 -1.9220  2.2445  1.4102
  630TMC3    C1 9325   4.534   2.955  15.974 -0.3975  0.5462  0.1982
  630TMC3    C2 9326   4.626   3.042  15.928  0.7832 -0.7848  0.0453
  630TMC3    C3 9327   0.029   3.026  15.986  0.9283  0.0908 -0.0770
  630TMC3    C4 9328   4.548   2.858  16.078 -0.2602  0.4640 -0.3801
  630TMC3    C5 9329   4.679   2.853  16.121 -0.3416 -0.2283  0.6729
  630TMC3    C6 9330   0.054   2.931  16.078  0.1404  0.6368 -0.5360
  630TMC3     C 9331   4.399   2.965  15.923  0.5137 -0.7622  0.3157
  630TMC3     O 9332   4.318   2.873  15.944 -0.2583 -0.1806 -0.5820
  630TMC3     H 9333   4.609   3.120  15.855  0.2855 -1.3712 -0.4631
  630TMC3    H1 9334   4.466   2.823  16.138  1.3394 -0.3312  1.3272
  630TMC3    H2 9335   0.156   2.912  16.108 -0.4360 -1.6985 -0.0012
  630TMC3    C7 9336   4.706   2.788  16.245  0.0138 -0.0859 -0.3954
  630TMC3    C8 9337   0.133   3.119  15.950  0.0685  0.1535 -0.1212
  630TMC3    O1 9338   0.088   2.818  16.301 -0.0566  0.5897  0.1718
  630TMC3    O2 9339   0.219   3.140  16.031  0.3081  0.0085  0.1281
  631MPD2     C 9340   3.062   2.469  15.330 -0.7771  0.0592  0.5386
  631MPD2    C1 9341   3.168   2.500  15.247 -0.1468  0.4571  0.2781
  631MPD2    C2 9342   3.266   2.403  15.236 -0.2395  0.0839  0.3832
  631MPD2    C3 9343   3.260   2.285  15.302  0.8457 -0.3174 -0.5327
  631MPD2    C4 9344   3.144   2.252  15.375 -0.1162  0.6691  0.1730
  631MPD2    C5 9345   3.047   2.349  15.395  0.1429  0.2183  0.0769
  631MPD2     H 9346   3.350   2.419  15.170  0.0977  2.5810  1.4229
  631MPD2    H1 9347   3.136   2.158  15.429  1.4531  0.8741  0.7695
  631MPD2    H2 9348   2.978   2.537  15.329  0.6267  1.8032  0.5935
  631MPD2    H3 9349   2.952   2.338  15.447 -0.0328  4.0752  0.5336
  631MPD2     N 9350   3.374   2.197  15.287 -0.3145  0.3910 -0.0396
  631MPD2    H5 9351   3.450   2.244  15.238 -0.7003  1.9318  0.8215
  631MPD2    N1 9352   3.165   2.623  15.177 -0.1224  0.9547  0.3054
  631MPD2    H7 9353   3.080   2.676  15.195 -1.0714 -0.1709 -0.8707
  632TMC3    C1 9354   3.212   2.792  15.007  0.6062  0.1481 -0.2297
  632TMC3    C2 9355   3.126   2.880  15.072 -0.3165 -0.5668 -0.1731
  632TMC3    C3 9356   3.054   2.965  14.994  0.2445  0.3341 -0.0661
  632TMC3    C4 9357   3.247   2.812  14.877 -0.0294 -0.0226 -0.6601
  632TMC3    C5 9358   3.187   2.914  14.811 -0.2818  0.0712 -0.4985
  632TMC3    C6 9359   3.091   2.993  14.874 -0.8567 -0.6290  0.4144
  632TMC3     C 9360   3.251   2.661  15.075  0.6076  0.5384 -0.5844
  632TMC3     O 9361   3.334   2.589  15.018 -0.3545 -0.0609  0.1475
  632TMC3     H 9362   3.103   2.867  15.177  2.4117 -1.5757  0.2832
  632TMC3    H1 9363   3.312   2.739  14.830 -2.5334 -0.6472 -3.1215
  632TMC3    H2 9364   3.039   3.064  14.810  2.6188  1.2132 -0.3812
  632TMC3    C7 9365   3.224   2.960  14.676  0.2227  0.7277 -0.2840
  632TMC3    C8 9366   2.968   3.059  15.059  0.0144 -0.2666  0.2851
  632TMC3    O1 9367   3.140   3.022  14.610 -0.3064 -1.0147  0.3564
  632TMC3    O2 9368   2.862   3.085  15.006 -0.2612  0.0867 -0.4862
  633MPD2     C 9369   2.618   0.959  17.362  0.1533 -0.2538 -0.6808
  633MPD2    C1 9370   2.590   0.888  17.243  0.1424 -1.0507 -0.2410
  633MPD2    C2 9371   2.546   0.757  17.248  0.2444  0.0401  0.2690
  633MPD2    C3 9372   2.516   0.706  17.375  1.1415  0.4236  0.0461
  633MPD2    C4 9373   2.541   0.776  17.494  0.1216  0.7356  0.4365
  633MPD2    C5 9374   2.599   0.897  17.486 -0.0452 -0.2680 -0.2306
  633MPD2     H 9375   2.523   0.705  17.155 -1.1306 -0.3126  0.7906
  633MPD2    H1 9376   2.536   0.733  17.593  0.6812  1.3523  0.7272
  633MPD2    H2 9377   2.673   1.052  17.364  1.8766 -1.1741 -3.8730
  633MPD2    H3 9378   2.631   0.948  17.576  1.0638  0.4163 -1.0097
  633MPD2     N 9379   2.475   0.569  17.401  0.7945 -0.5064  0.1128
  633MPD2    H5 9380   2.458   0.537  17.496 -0.8826  3.3164  1.1207
  633MPD2    N1 9381   2.601   0.951  17.115  0.0215 -0.1415 -0.2257
  633MPD2    H7 9382   2.596   0.893  17.032 -2.8247 -0.9066  0.4876
  634TMC3    C1 9383   2.642   1.129  16.960 -0.1639  0.4566 -0.4060
  634TMC3    C2 9384   2.715   1.037  16.882  0.3371  0.0096  0.5935
  634TMC3    C3 9385   2.704   1.048  16.741  0.1785  0.3123 -0.2969
  634TMC3    C4 9386   2.571   1.227  16.898 -0.3271  0.4022  1.2004
  634TMC3    C5 9387   2.579   1.244  16.763 -0.3709 -0.3132 -0.0419
  634TMC3    C6 9388   2.639   1.152  16.680  0.0688 -0.4137  0.5807
  634TMC3     C 9389   2.613   1.088  17.097  0.0063 -0.5615  1.1443
  634TMC3     O 9390   2.616   1.179  17.179 -0.0538  0.1650 -0.1842
  634TMC3     H 9391   2.781   0.964  16.929 -0.6775 -0.5316  1.1657
  634TMC3    H1 9392   2.508   1.286  16.963  0.3432  2.2943  0.1188
  634TMC3    H2 9393   2.649   1.175  16.574 -0.1022  1.7707  1.0388
  634TMC3    C7 9394   2.516   1.352  16.700  0.3924 -0.6563 -0.1607
  634TMC3    C8 9395   2.752   0.935  16.664  0.0545 -0.3101 -0.2531
  634TMC3    O1 9396   2.517   1.348  16.576  0.4525  0.2448 -0.2024
  634TMC3    O2 9397   2.762   0.830  16.720  0.1823  0.5487 -0.5955
  635TMC3    C1 9398   2.839   2.140  17.375  0.2454 -0.3223 -0.2686
  635TMC3    C2 9399   2.827   2.172  17.245  0.0943 -0.0088  0.2329
  635TMC3    C3 9400   2.721   2.133  17.170 -0.3515  0.3549  0.1650
  635TMC3    C4 9401   2.758   2.050  17.434  0.2161 -0.1622 -0.3894
  635TMC3    C5 9402   2.646   2.010  17.364  0.7210  0.5638 -0.0900
  635TMC3    C6 9403   2.631   2.050  17.230  0.1220 -0.2568 -0.0373
  635TMC3     C 9404   2.943   2.216  17.447 -0.3275  0.0312 -0.0017
  635TMC3     O 9405   3.009   2.301  17.386 -0.3618 -0.1717 -0.2983
  635TMC3     H 9406   2.908   2.226  17.196  0.6363 -0.5897  0.4860
  635TMC3    H1 9407   2.781   2.005  17.530 -0.6175  2.7784  1.1836
  635TMC3    H2 9408   2.537   2.023  17.184 -0.5298  0.9492  0.5611
  635TMC3    C7 9409   2.532   1.949  17.438  0.0800  0.2201 -0.7043
  635TMC3    C8 9410   2.712   2.167  17.030 -0.0106  0.6225  0.2599
  635TMC3    O1 9411   2.433   1.934  17.369 -0.3413  0.5223 -0.3833
  635TMC3    O2 9412   2.598   2.172  16.985 -0.7559  0.1722 -0.3566
  636MPD2     C 9413   3.588   0.638  15.731  0.6713 -0.2813  0.0452
  636MPD2    C1 9414   3.535   0.688  15.852 -0.5692 -0.6034  0.4411
  636MPD2    C2 9415   3.483   0.602  15.947 -0.8164  0.2304 -0.4528
  636MPD2    C3 9416   3.472   0.469  15.922  0.6827  0.3048  0.2608
  636MPD2    C4 9417   3.518   0.418  15.799 -0.0860  0.3165  0.1998
  636MPD2    C5 9418   3.574   0.502  15.706  0.1167  0.3652 -0.0158
  636MPD2     H 9419   3.446   0.643  16.040 -0.8519  0.9636 -0.7932
  636MPD2    H1 9420   3.532   0.313  15.777  1.3823  0.8154 -1.2511
  636MPD2    H2 9421   3.634   0.703  15.657 -1.9139 -0.3553 -1.6349
  636MPD2    H3 9422   3.610   0.455  15.615 -1.2836  1.1068 -0.9460
  636MPD2     N 9423   3.421   0.393  16.026 -0.3860  0.6621  0.2607
  636MPD2    H5 9424   3.408   0.446  16.112  1.3129  0.3304  0.7259
  636MPD2    N1 9425   3.545   0.823  15.880  0.4164 -0.1988 -0.2060
  636MPD2    H7 9426   3.512   0.838  15.975  1.0042  1.8018 -0.3159
  637TMC3    C1 9427   3.397   0.220  16.171  0.1626 -0.0655  0.5450
  637TMC3    C2 9428   3.358   0.325  16.250 -0.6519 -0.6165 -0.7262
  637TMC3    C3 9429   3.407   0.332  16.374 -0.0047  0.8695 -0.4042
  637TMC3    C4 9430   3.484   0.132  16.214 -0.3615 -0.2052  0.2119
  637TMC3    C5 9431   3.551   0.154  16.326 -0.1317  0.1825 -0.1552
  637TMC3    C6 9432   3.493   0.241  16.422 -0.4459  0.4025  0.6034
  637TMC3     C 9433   3.426   0.256  16.031  0.6287 -0.8224 -0.0567
  637TMC3     O 9434   3.476   0.176  15.953 -0.0819  0.6469  0.0646
  637TMC3     H 9435   3.283   0.392  16.212  1.4174  1.5621 -0.9808
  637TMC3    H1 9436   3.526   0.054  16.150 -1.3267  1.0652 -1.9349
  637TMC3    H2 9437   3.550   0.272  16.509 -0.4299  2.7643 -0.2450
  637TMC3    C7 9438   3.681   0.204  16.299 -0.1772 -0.0478  0.3672
  637TMC3    C8 9439   3.458   0.468  16.399 -0.8089  0.1774 -0.2547
  637TMC3    O1 9440   3.751   0.242  16.389 -0.0016  0.2140 -0.2426
  637TMC3    O2 9441   3.495   0.539  16.307  0.1174 -0.7171  0.2737
  638MPD2     C 9442   3.736   0.054  14.744  0.2423 -0.5023  0.3382
  638MPD2    C1 9443   3.686   4.689  14.651 -0.3342 -0.0481  0.4332
  638MPD2    C2 9444   3.662   4.561  14.693  0.0973 -0.2839  0.1758
  638MPD2    C3 9445   3.681   4.522  14.827 -0.7454 -0.3006  0.6492
  638MPD2    C4 9446   3.712   4.626  14.916  0.4102  0.0557  0.2067
  638MPD2    C5 9447   3.739   0.024  14.876  0.2650 -0.3941 -0.1429
  638MPD2     H 9448   3.639   4.479  14.626 -1.6167  0.1882  0.1661
  638MPD2    H1 9449   3.723   4.609  15.022 -0.7083  2.2137  0.6517
  638MPD2    H2 9450   3.761   0.154  14.710 -0.2606 -0.7209 -0.6626
  638MPD2    H3 9451   3.769   0.096  14.951 -0.3878 -0.4093  0.1322
  638MPD2     N 9452   3.683   4.384  14.865 -0.1179 -0.2780 -0.3169
  638MPD2    H5 9453   3.655   4.321  14.790  0.3779 -0.0768 -0.6680
  638MPD2    N1 9454   3.700   4.719  14.516  0.0714 -0.1023 -0.3559
  638MPD2    H7 9455   3.771   0.062  14.498  3.2901 -3.3561 -0.2420
  639TMC3    C1 9456   3.750   4.188  14.955  0.6712  0.2447  0.0436
  639TMC3    C2 9457   3.698   4.112  14.855  0.2740 -0.6671  0.7976
  639TMC3    C3 9458   3.682   3.974  14.868  0.9214  0.2463 -0.7944
  639TMC3    C4 9459   3.782   4.128  15.071 -0.4554  0.1249  0.3930
  639TMC3    C5 9460   3.757   3.992  15.091 -0.0158  0.1505  0.5691
  639TMC3    C6 9461   3.703   3.915  14.994  0.6143  0.1721 -0.7592
  639TMC3     C 9462   3.743   4.328  14.974 -0.7505  0.0988 -0.1262
  639TMC3     O 9463   3.805   4.392  15.057 -0.3498 -0.2458 -0.1695
  639TMC3     H 9464   3.683   4.153  14.755 -1.6650 -3.6273 -0.1228
  639TMC3    H1 9465   3.823   4.188  15.151 -0.9422 -0.9064  1.4238
  639TMC3    H2 9466   3.710   3.809  15.015 -0.9759  0.2140 -0.0185
  639TMC3    C7 9467   3.856   3.918  15.171  0.3036 -0.2074  0.2630
  639TMC3    C8 9468   3.629   3.897  14.763 -0.9716  0.2687  0.0369
  639TMC3    O1 9469   3.827   3.806  15.202  0.9662  0.2016  0.2534
  639TMC3    O2 9470   3.649   3.942  14.649 -0.2748 -0.1379  0.1525
  640MPD2     C 9471   3.709   3.166  10.474  0.4038 -0.2151  0.1530
  640MPD2    C1 9472   3.714   3.216  10.349 -0.0550 -0.4514 -0.0319
  640MPD2    C2 9473   3.676   3.351  10.333  0.8121  0.3842 -0.1082
  640MPD2    C3 9474   3.604   3.410  10.431  0.2717 -0.8768 -0.9211
  640MPD2    C4 9475   3.587   3.353  10.554  0.0990 -0.1289 -0.3364
  640MPD2    C5 9476   3.643   3.231  10.570 -0.0139  0.5664  0.2477
  640MPD2     H 9477   3.691   3.410  10.243 -1.2679  0.4386 -0.4418
  640MPD2    H1 9478   3.531   3.392  10.639  1.6379  1.5332 -0.0771
  640MPD2    H2 9479   3.755   3.073  10.508  0.2284  0.0516  1.1312
  640MPD2    H3 9480   3.644   3.187  10.669 -0.4500 -0.4881 -0.2151
  640MPD2     N 9481   3.544   3.543  10.416 -0.2320  0.5445 -0.8760
  640MPD2    H5 9482   3.505   3.577  10.503 -0.6198  0.0905 -0.8730
  640MPD2    N1 9483   3.749   3.129  10.248  0.5249  0.0239  0.3475
  640MPD2    H7 9484   3.784   3.037  10.275  0.0815 -0.5407 -1.0257
  641TMC3    C1 9485   3.799   3.070  10.031  0.3401 -0.3172  0.3238
  641TMC3    C2 9486   3.894   2.981  10.073 -0.5175 -0.9051  0.1066
  641TMC3    C3 9487   3.947   2.902   9.975 -0.0093  0.1609 -0.8453
  641TMC3    C4 9488   3.760   3.083   9.896  0.2503  0.1455 -0.1074
  641TMC3    C5 9489   3.825   3.010   9.806 -0.0615 -0.1056 -0.0948
  641TMC3    C6 9490   3.921   2.921   9.842  0.7056  0.6846 -0.0052
  641TMC3     C 9491   3.731   3.160  10.117  0.1222 -0.0211 -0.3906
  641TMC3     O 9492   3.681   3.260  10.069 -0.1557  0.4626 -0.0071
  641TMC3     H 9493   3.928   2.984  10.176 -2.1722 -1.6310  0.6659
  641TMC3    H1 9494   3.664   3.129   9.876  1.0113  1.2376 -1.2233
  641TMC3    H2 9495   3.973   2.865   9.765 -0.6884  1.3954 -1.4418
  641TMC3    C7 9496   3.801   3.057   9.670  0.7177 -0.0114 -0.0884
  641TMC3    C8 9497   4.068   2.821  10.007  0.1407 -0.5937  0.7854
  641TMC3    O1 9498   3.709   3.136   9.646 -0.0025 -0.3046 -0.1625
  641TMC3    O2 9499   4.131   2.783   9.911 -0.1954 -0.1155 -0.1156
  642TMC3    C1 9500   0.657   0.077  12.010 -0.0101  0.6551 -0.5505
  642TMC3    C2 9501   0.797   0.079  12.013 -0.0741 -0.0442 -0.6688
  642TMC3    C3 9502   0.866   4.686  12.027  0.1991 -0.1835  0.4880
  642TMC3    C4 9503   0.591   4.687  11.994  0.1532 -0.5633 -0.6169
  642TMC3    C5 9504   0.665   4.572  12.000 -0.3982  0.0134 -0.4097
  642TMC3    C6 9505   0.799   4.569  12.026 -0.4338 -0.0057  0.6174
  642TMC3     C 9506   0.580   0.200  12.012 -0.0516  0.0684 -0.1089
  642TMC3     O 9507   0.615   0.285  11.935 -0.1570 -0.4810 -0.3198
  642TMC3     H 9508   0.848   0.172  11.995  0.9690 -0.4126  0.3484
  642TMC3    H1 9509   0.487   4.698  11.966 -0.0814 -1.2770 -0.0140
  642TMC3    H2 9510   0.857   4.480  12.009 -0.2664 -0.2878  2.7150
  642TMC3    C7 9511   0.603   4.445  11.973 -0.3914  0.0515 -0.1193
  642TMC3    C8 9512   1.016   4.675  12.038 -0.3909  0.7660 -0.1887
  642TMC3    O1 9513   0.503   4.444  11.895  0.9086 -0.3280 -0.3143
  642TMC3    O2 9514   1.063   4.562  12.031  0.2778  0.4083 -0.1800
  643TMC3    C1 9515   0.291   3.548   0.406 -0.1069  0.7218  0.3413
  643TMC3    C2 9516   0.164   3.490   0.398 -0.1946  0.7074  0.6520
  643TMC3    C3 9517   0.127   3.451   0.277 -0.5638 -0.9924  0.4158
  643TMC3    C4 9518   0.373   3.552   0.301 -0.0780  0.0271 -0.1959
  643TMC3    C5 9519   0.327   3.501   0.178  0.1937 -0.2866  0.0369
  643TMC3    C6 9520   0.200   3.459   0.172 -0.0239  0.1782  0.9577
  643TMC3     C 9521   0.327   3.607   0.532  0.1090  0.7714  0.0593
  643TMC3     O 9522   0.241   3.630   0.616  0.4524 -0.1236 -0.3130
  643TMC3     H 9523   0.097   3.475   0.482 -1.1985 -2.0623 -0.6807
  643TMC3    H1 9524   0.456   3.619   0.318  0.4369 -0.7823  0.5212
  643TMC3    H2 9525   0.162   3.420   0.079  1.1021 -0.1292  0.6267
  643TMC3    C7 9526   0.399   3.491   0.054  0.4444  0.3598 -0.8986
  643TMC3    C8 9527   4.714   3.468   0.258 -0.5083 -0.6873  0.2524
  643TMC3    O1 9528   0.344   3.449  17.660  0.4907 -0.0724  0.0611
  643TMC3    O2 9529   4.644   3.374   0.296 -0.8140 -0.2398 -0.0461
  644MPD2     C 9530   4.246   3.869   9.556 -0.7919 -0.0451  0.3574
  644MPD2    C1 9531   4.365   3.821   9.598 -0.0563  0.5144 -1.1948
  644MPD2    C2 9532   4.467   3.914   9.623  0.2255 -0.0759 -0.5739
  644MPD2    C3 9533   4.444   4.056   9.624 -0.0403 -0.1944  0.1080
  644MPD2    C4 9534   4.318   4.100   9.583  0.2571  0.3984  0.8736
  644MPD2    C5 9535   4.221   4.008   9.550  0.3938  0.1076 -0.3672
  644MPD2     H 9536   4.561   3.876   9.661 -0.2299  2.4950  3.1496
  644MPD2    H1 9537   4.288   4.203   9.568  0.0392  0.2407  0.1955
  644MPD2    H2 9538   4.156   3.814   9.530 -0.0937 -1.2091  0.3982
  644MPD2    H3 9539   4.125   4.039   9.510 -0.1143 -0.5045  0.3609
  644MPD2     N 9540   4.551   4.138   9.659 -0.2273 -0.6934 -0.3131
  644MPD2    H5 9541   4.632   4.082   9.686 -0.9263 -1.1577  0.8204
  644MPD2    N1 9542   4.374   3.680   9.619 -0.0847  0.1077  0.1434
  644MPD2    H7 9543   4.295   3.620   9.595  0.8337 -1.4288  0.9470
  645TMC3    C1 9544   4.697   4.323   9.651 -0.2150  0.2466  0.3634
  645TMC3    C2 9545   4.709   4.458   9.662  0.4296  0.8866  0.6157
  645TMC3    C3 9546   0.085   4.509   9.590  0.1709  0.0308  0.0893
  645TMC3    C4 9547   0.073   4.239   9.611  0.5474 -0.0648  0.0865
  645TMC3    C5 9548   0.184   4.303   9.560  0.0014 -0.7271 -0.1089
  645TMC3    C6 9549   0.195   4.438   9.541 -0.2355  0.3120  0.4350
  645TMC3     C 9550   4.558   4.273   9.649  0.7218  0.4905 -0.4127
  645TMC3     O 9551   4.464   4.351   9.635 -0.4103 -0.3041 -0.1814
  645TMC3     H 9552   4.634   4.524   9.704  0.3720  0.5648  1.0127
  645TMC3    H1 9553   0.057   4.132   9.611  3.5619 -0.4731  2.0426
  645TMC3    H2 9554   0.268   4.482   9.474  1.9187 -1.8377  1.3656
  645TMC3    C7 9555   0.299   4.214   9.563 -0.2067  0.1003 -0.0568
  645TMC3    C8 9556   0.074   4.647   9.556 -0.0230  0.0500 -0.5658
  645TMC3    O1 9557   0.270   4.096   9.574  0.0679  0.0354  0.4438
  645TMC3    O2 9558   4.694   4.692   9.529 -0.3781 -0.0513  0.2043
  646MPD2     C 9559   4.066   3.450  14.068 -0.0693  0.9310 -0.0657
  646MPD2    C1 9560   3.977   3.374  14.144 -0.8769  0.3492 -0.1036
  646MPD2    C2 9561   3.843   3.405  14.131  0.6225 -1.1838  0.9327
  646MPD2    C3 9562   3.796   3.501  14.039  0.3724  0.5122  0.1478
  646MPD2    C4 9563   3.888   3.539  13.944  0.1726 -0.4817 -0.8566
  646MPD2    C5 9564   4.020   3.517  13.960 -0.5386 -0.1765 -0.3795
  646MPD2     H 9565   3.772   3.377  14.207 -1.2413  0.6441 -0.1552
  646MPD2    H1 9566   3.859   3.600  13.859 -0.5271  0.0094 -0.2651
  646MPD2    H2 9567   4.174   3.443  14.076 -0.0826  1.5691  0.6472
  646MPD2    H3 9568   4.086   3.560  13.885 -0.3925  0.4048  0.0832
  646MPD2     N 9569   3.659   3.528  14.043 -0.0824 -0.7247  0.2737
  646MPD2    H5 9570   3.602   3.491  14.118 -1.1920 -1.6627 -1.0201
  646MPD2    N1 9571   4.039   3.279  14.238 -0.3696  0.4735 -0.1510
  646MPD2    H7 9572   4.139   3.260  14.232 -0.8730 -1.7574 -1.4774
  647TMC3    C1 9573   4.043   3.137  14.438  0.4027 -0.1181 -0.1723
  647TMC3    C2 9574   3.963   3.059  14.523 -0.5627 -0.1988  0.4237
  647TMC3    C3 9575   4.020   2.993  14.632  0.6202 -0.3662 -1.0712
  647TMC3    C4 9576   4.176   3.159  14.474 -0.0694 -0.3498 -0.3153
  647TMC3    C5 9577   4.222   3.090  14.587 -0.7481  0.0868  0.2433
  647TMC3    C6 9578   4.147   3.011  14.665  0.0165 -0.2286 -0.4025
  647TMC3     C 9579   3.974   3.230  14.348 -0.0445 -0.7277  0.6237
  647TMC3     O 9580   3.859   3.243  14.383 -0.6561  0.2063 -0.2144
  647TMC3     H 9581   3.860   3.044  14.494 -0.7091 -0.6754  1.1954
  647TMC3    H1 9582   4.236   3.213  14.402  0.2744 -0.1637  0.1119
  647TMC3    H2 9583   4.192   2.961  14.750 -0.9344 -0.1962  0.1161
  647TMC3    C7 9584   4.359   3.098  14.633  0.3108  0.4150  0.2393
  647TMC3    C8 9585   3.968   2.851  14.664 -0.0513 -0.5638 -0.0546
  647TMC3    O1 9586   4.403   2.990  14.680 -0.1618  0.3775  0.0984
  647TMC3    O2 9587   4.012   2.793  14.766 -0.1856  0.0484 -0.3307
  648TMC3    C1 9588   2.991   0.866  15.765 -0.4657  0.2176 -0.5594
  648TMC3    C2 9589   2.985   0.743  15.700  0.2423  0.0701 -0.2691
  648TMC3    C3 9590   2.929   0.750  15.578  0.6319  1.3375  0.1299
  648TMC3    C4 9591   2.925   0.976  15.717 -0.2118  0.6602 -0.1786
  648TMC3    C5 9592   2.859   0.972  15.597 -0.1573 -0.3291 -0.0145
  648TMC3    C6 9593   2.877   0.861  15.524 -0.2465 -0.4308  0.2166
  648TMC3     C 9594   3.046   0.884  15.899  0.3957  0.5987  0.2422
  648TMC3     O 9595   3.064   0.998  15.941  0.4320  0.0918 -0.0586
  648TMC3     H 9596   3.013   0.650  15.748 -0.0691 -0.2622 -0.7414
  648TMC3    H1 9597   2.927   1.061  15.785 -0.0218  1.0783 -0.7065
  648TMC3    H2 9598   2.822   0.862  15.431  0.0592 -0.2901  0.0351
  648TMC3    C7 9599   2.776   1.076  15.553 -0.3105 -0.3374  0.1670
  648TMC3    C8 9600   2.864   0.630  15.526  0.6679  0.2547  0.3048
  648TMC3    O1 9601   2.784   1.099  15.432  0.2903  0.2618 -0.6763
  648TMC3    O2 9602   2.760   0.638  15.462 -0.4011 -0.5304  0.5296
  649TMC3    C1 9603   1.690   2.096  12.684  0.5402 -0.0582  0.2746
  649TMC3    C2 9604   1.813   2.112  12.628 -0.1049 -0.3644  0.0381
  649TMC3    C3 9605   1.922   2.069  12.705  0.7173 -0.1631  0.7646
  649TMC3    C4 9606   1.664   2.032  12.798  1.1266 -0.3352 -0.3343
  649TMC3    C5 9607   1.770   1.982  12.863 -0.3452 -0.3506 -0.0857
  649TMC3    C6 9608   1.900   1.996  12.821 -0.2249 -0.6266 -0.2353
  649TMC3     C 9609   1.571   2.139  12.614  0.2176 -0.3112  0.2464
  649TMC3     O 9610   1.474   2.152  12.688 -0.0896  0.3392  0.2989
  649TMC3     H 9611   1.812   2.164  12.534  0.4952 -1.9358 -0.8376
  649TMC3    H1 9612   1.562   2.021  12.833  0.7159  1.5166 -0.9318
  649TMC3    H2 9613   1.984   1.975  12.887  0.5210 -1.4474 -1.4367
  649TMC3    C7 9614   1.734   1.894  12.972  0.2911  0.1459 -0.7687
  649TMC3    C8 9615   2.057   2.106  12.673  0.8047 -0.2740 -0.4865
  649TMC3    O1 9616   1.624   1.910  13.025 -0.3409 -0.4001  0.5257
  649TMC3    O2 9617   2.151   2.058  12.736  1.0246  0.2876  0.0372
  650TMC3    C1 9618   0.142   3.994  12.944  0.8669  0.2356  0.2118
  650TMC3    C2 9619   0.161   4.130  12.973 -0.5654 -0.5295  0.3309
  650TMC3    C3 9620   0.200   4.205  12.862 -0.0213 -0.0282  0.9796
  650TMC3    C4 9621   0.150   3.941  12.817  0.3049  0.2682  0.8200
  650TMC3    C5 9622   0.171   4.026  12.715 -1.0482 -0.0277 -0.0806
  650TMC3    C6 9623   0.217   4.155  12.733  0.3113 -0.5282 -0.2486
  650TMC3     C 9624   0.162   3.912  13.059 -0.0727  0.8672 -0.1567
  650TMC3     O 9625   0.198   3.953  13.168  0.0162  0.1742 -0.3795
  650TMC3     H 9626   0.158   4.160  13.077  0.4500 -1.1220  0.5301
  650TMC3    H1 9627   0.142   3.835  12.798 -0.5707  0.4963 -0.0743
  650TMC3    H2 9628   0.242   4.223  12.653  2.6481  0.2702  1.1517
  650TMC3    C7 9629   0.108   3.986  12.592  0.5419  0.0179 -0.3503
  650TMC3    C8 9630   0.118   4.324  12.850  0.4536  0.5686  0.6987
  650TMC3    O1 9631   0.086   3.867  12.570 -0.3788  0.0205  0.3018
  650TMC3    O2 9632   0.081   4.354  12.736 -0.3245  0.2386 -0.1766
  651MPD2     C 9633   3.344   0.594  10.635  0.9825 -0.3715 -0.3060
  651MPD2    C1 9634   3.329   0.733  10.628 -0.1545 -0.4260  0.2149
  651MPD2    C2 9635   3.444   0.807  10.648  0.6617  0.1595 -0.6673
  651MPD2    C3 9636   3.564   0.749  10.687  0.2782 -0.9507 -0.2487
  651MPD2    C4 9637   3.574   0.615  10.709  1.1149  0.5400  0.3853
  651MPD2    C5 9638   3.461   0.534  10.678  0.9906  0.8333 -0.0992
  651MPD2     H 9639   3.445   0.916  10.641  2.7404  0.2150  0.3297
  651MPD2    H1 9640   3.670   0.567  10.722  0.0827 -1.4894  0.5078
  651MPD2    H2 9641   3.266   0.521  10.614 -1.1860  1.8501 -0.0438
  651MPD2    H3 9642   3.476   0.427  10.679  0.1290  0.7157 -0.8623
  651MPD2     N 9643   3.675   0.837  10.701 -0.2906 -0.6019 -0.4405
  651MPD2    H5 9644   3.659   0.926  10.656 -0.7811  0.8040  2.5515
  651MPD2    N1 9645   3.196   0.795  10.611 -0.6674  0.0102 -0.1536
  651MPD2    H7 9646   3.193   0.896  10.598  1.0973  0.4836  3.1100
  652TMC3    C1 9647   3.972   1.061  10.965  0.1801 -0.7537  0.4399
  652TMC3    C2 9648   3.940   0.942  10.904 -0.3287  0.3616  0.1099
  652TMC3    C3 9649   3.853   0.941  10.799 -0.2629 -0.7300 -0.0885
  652TMC3    C4 9650   3.914   1.179  10.928 -0.2491  0.6512 -0.2152
  652TMC3    C5 9651   3.841   1.176  10.810 -0.1348  0.1266  0.7479
  652TMC3    C6 9652   3.800   1.058  10.753  0.5737  0.3523  0.6159
  652TMC3     C 9653   4.098   1.064  11.038 -0.2068  0.4811  0.2225
  652TMC3     O 9654   4.173   0.967  11.030 -0.1042  0.1741 -0.3665
  652TMC3     H 9655   3.982   0.845  10.927  1.0593  0.3124 -2.7112
  652TMC3    H1 9656   3.953   1.280  10.939 -0.2818  0.4688  1.5048
  652TMC3    H2 9657   3.723   1.068  10.677  0.2246  0.5655  0.9919
  652TMC3    C7 9658   3.766   1.301  10.780  0.0966 -0.4666  0.5914
  652TMC3    C8 9659   3.780   0.812  10.784 -0.4055 -0.1798  0.1430
  652TMC3    O1 9660   3.727   1.320  10.666 -0.3711  0.6693  0.5429
  652TMC3    O2 9661   3.804   0.716  10.855  0.0936 -0.7996  0.2220
  653MPD2     C 9662   2.221   0.945  17.520  0.1640 -0.5538 -0.0687
  653MPD2    C1 9663   2.171   1.054  17.451 -0.4170  0.3628  0.4299
  653MPD2    C2 9664   2.071   1.035  17.360 -0.7069 -0.5401  0.2607
  653MPD2    C3 9665   2.015   0.909  17.330  0.4559  0.3089  0.8554
  653MPD2    C4 9666   2.058   0.801  17.402  0.0749  0.1754 -0.0712
  653MPD2    C5 9667   2.159   0.822  17.496  0.1176 -0.2497  0.5590
  653MPD2     H 9668   2.029   1.122  17.311 -3.5896 -2.7931 -1.2240
  653MPD2    H1 9669   2.010   0.704  17.394  0.2759  0.1129 -0.5733
  653MPD2    H2 9670   2.302   0.951  17.591 -1.1885 -0.7828  1.4806
  653MPD2    H3 9671   2.195   0.734  17.549  0.6320  0.2717  1.0702
  653MPD2     N 9672   1.911   0.898  17.233  0.0918  0.0729 -0.5009
  653MPD2    H5 9673   1.869   0.983  17.198  3.4301  2.7619  2.0232
  653MPD2    N1 9674   2.246   1.179  17.448 -0.3147  0.2495 -0.5654
  653MPD2    H7 9675   2.214   1.257  17.391  0.4730  1.4684  0.6595
  654TMC3    C1 9676   1.769   0.763  17.082  0.5251  1.1839  0.7252
  654TMC3    C2 9677   1.665   0.847  17.085  0.4330  0.5629 -0.5750
  654TMC3    C3 9678   1.566   0.827  16.985 -0.0433 -0.0838 -0.0671
  654TMC3    C4 9679   1.776   0.660  16.992 -0.3348  0.6745 -0.1627
  654TMC3    C5 9680   1.677   0.639  16.902 -0.0193 -0.3149  0.1541
  654TMC3    C6 9681   1.569   0.720  16.891 -0.5538 -0.3972  0.3999
  654TMC3     C 9682   1.889   0.780  17.164 -0.5161  0.5580 -0.5003
  654TMC3     O 9683   1.960   0.681  17.174 -0.1251  0.3762 -0.6850
  654TMC3     H 9684   1.663   0.928  17.157 -0.8526  1.1766 -1.3101
  654TMC3    H1 9685   1.868   0.603  16.978 -0.7328  0.4505 -1.8153
  654TMC3    H2 9686   1.498   0.710  16.810  0.3055 -0.9612 -0.2867
  654TMC3    C7 9687   1.681   0.518  16.814  0.2009 -0.0620 -0.8472
  654TMC3    C8 9688   1.433   0.889  17.004  0.6380 -0.3700  0.0219
  654TMC3    O1 9689   1.634   0.521  16.701  0.0837 -0.2644 -0.0427
  654TMC3    O2 9690   1.364   0.898  16.904  0.0944 -0.3749  0.1754
  655MPD2     C 9691   3.294   1.011  15.540  0.9846  0.2514  0.5124
  655MPD2    C1 9692   3.215   1.102  15.463  0.3187 -0.1951  0.8533
  655MPD2    C2 9693   3.180   1.063  15.336 -0.1121  0.3692 -1.0180
  655MPD2    C3 9694   3.214   0.936  15.283  0.2032  0.0528  0.4436
  655MPD2    C4 9695   3.299   0.855  15.347  0.1846 -0.2445 -0.0350
  655MPD2    C5 9696   3.333   0.893  15.477  0.2182 -0.0123  0.2314
  655MPD2     H 9697   3.121   1.131  15.275  1.1670  1.7741 -0.6780
  655MPD2    H1 9698   3.346   0.770  15.299 -1.2497 -0.6129 -0.7576
  655MPD2    H2 9699   3.322   1.027  15.644  0.9844  1.5194  0.3201
  655MPD2    H3 9700   3.373   0.822  15.549 -0.5897  1.5704  2.2486
  655MPD2     N 9701   3.162   0.885  15.160 -0.2164 -0.1711 -0.0134
  655MPD2    H5 9702   3.217   0.813  15.114  1.1838  1.3915 -0.8337
  655MPD2    N1 9703   3.163   1.225  15.505  0.2062  0.0082 -0.6986
  655MPD2    H7 9704   3.097   1.266  15.441  0.8128 -0.2241 -1.4793
  656TMC3    C1 9705   3.079   1.366  15.655 -0.3485 -0.1249 -0.1866
  656TMC3    C2 9706   3.054   1.404  15.785 -0.4960 -0.8259  0.4415
  656TMC3    C3 9707   2.979   1.510  15.824 -0.0966 -0.7195  0.5659
  656TMC3    C4 9708   3.025   1.457  15.559 -0.6823  0.7661 -1.0309
  656TMC3    C5 9709   2.961   1.569  15.603 -0.9271 -0.0300 -0.1472
  656TMC3    C6 9710   2.919   1.592  15.732 -0.9506  0.5858 -0.0026
  656TMC3     C 9711   3.170   1.262  15.634  0.2139 -0.1675  0.7486
  656TMC3     O 9712   3.220   1.219  15.731  0.4962  0.0894  0.2241
  656TMC3     H 9713   3.074   1.334  15.865  0.4172 -2.2246 -1.0255
  656TMC3    H1 9714   3.040   1.446  15.452 -0.4852 -0.2932 -0.8869
  656TMC3    H2 9715   2.860   1.675  15.768 -1.6299  0.8153 -1.6440
  656TMC3    C7 9716   2.885   1.635  15.500  0.6843 -0.6587  0.1706
  656TMC3    C8 9717   2.887   1.472  15.929 -0.8156  0.5091 -0.0976
  656TMC3    O1 9718   2.944   1.697  15.412 -0.2982  0.4808 -0.2295
  656TMC3    O2 9719   2.875   1.353  15.946  0.2041 -0.5261 -0.0220
  657TMC3    C1 9720   2.266   0.060  14.865 -0.2057 -0.1340  0.1375
  657TMC3    C2 9721   2.325   0.070  14.987  1.1701 -0.1400 -0.2656
  657TMC3    C3 9722   2.265   0.153  15.080 -0.0158  0.9701  0.1318
  657TMC3    C4 9723   2.155   0.127  14.832 -0.0477  0.1994 -0.4183
  657TMC3    C5 9724   2.109   0.220  14.924  0.7719  0.4062  0.3876
  657TMC3    C6 9725   2.159   0.231  15.045  0.8878 -0.1267  0.4160
  657TMC3     C 9726   2.335   4.712  14.762  0.1550 -0.6783  0.0330
  657TMC3     O 9727   2.264   4.678  14.670  0.0482 -0.3305 -0.0596
  657TMC3     H 9728   2.408   0.006  15.015  1.5721 -0.2957 -1.8343
  657TMC3    H1 9729   2.110   0.129  14.734 -1.1006 -1.0336  0.0386
  657TMC3    H2 9730   2.126   0.324  15.090  1.1643  0.2896 -0.2567
  657TMC3    C7 9731   1.983   0.284  14.908 -0.0651 -1.0075 -0.0667
  657TMC3    C8 9732   2.350   0.207  15.181  0.8506  0.1657  0.3802
  657TMC3    O1 9733   1.971   0.389  14.969 -0.0554  0.3895  0.1141
  657TMC3    O2 9734   2.468   0.190  15.156 -0.4998 -0.5913  0.2915
  658MPD2     C 9735   3.616   0.896  14.780 -0.4737  0.6046  0.0862
  658MPD2    C1 9736   3.507   0.885  14.699  0.3304  0.1214 -0.4715
  658MPD2    C2 9737   3.517   0.927  14.569  0.3836  0.3661 -0.6992
  658MPD2    C3 9738   3.620   1.008  14.527  0.0819  0.4406 -0.3823
  658MPD2    C4 9739   3.720   1.045  14.615 -0.2769 -0.0039 -0.8215
  658MPD2    C5 9740   3.718   0.980  14.736  0.0842 -0.5652 -0.1861
  658MPD2     H 9741   3.437   0.920  14.496 -1.0879 -0.1520  0.9651
  658MPD2    H1 9742   3.793   1.123  14.595  1.7568 -1.7031 -0.1143
  658MPD2    H2 9743   3.620   0.861  14.882  0.9963  0.3405 -0.0496
  658MPD2    H3 9744   3.801   0.993  14.804  0.6331 -2.3591 -0.5318
  658MPD2     N 9745   3.615   1.057  14.400  0.5748  0.1951 -0.1921
  658MPD2    H5 9746   3.540   1.028  14.338  0.4108 -1.9244  0.9924
  658MPD2    N1 9747   3.387   0.822  14.743 -0.4581 -0.1770  0.1752
  658MPD2    H7 9748   3.386   0.805  14.843  0.5534 -1.2770 -0.0029
  659TMC3    C1 9749   3.159   0.808  14.768  0.6623 -0.2787  0.5284
  659TMC3    C2 9750   3.177   0.871  14.890 -0.3796 -1.2442 -0.3225
  659TMC3    C3 9751   3.059   0.883  14.959 -0.0305  0.2334  0.9075
  659TMC3    C4 9752   3.039   0.797  14.704  0.1975  0.7582  0.4808
  659TMC3    C5 9753   2.930   0.815  14.778  1.2443 -0.2698 -0.0970
  659TMC3    C6 9754   2.935   0.846  14.912  0.0522  0.1970  0.0449
  659TMC3     C 9755   3.269   0.817  14.675  0.0418  0.0697  0.0420
  659TMC3     O 9756   3.242   0.831  14.557  0.6802  0.2501 -0.1655
  659TMC3     H 9757   3.264   0.927  14.920  0.1420 -0.5114 -3.2213
  659TMC3    H1 9758   3.034   0.754  14.605  0.4340 -0.8662  1.1670
  659TMC3    H2 9759   2.848   0.846  14.976 -0.0918  2.7770 -0.1403
  659TMC3    C7 9760   2.800   0.750  14.729  1.1241  0.2946 -0.7746
  659TMC3    C8 9761   3.055   0.936  15.092 -0.5259  0.0732  0.0232
  659TMC3    O1 9762   2.727   0.703  14.818 -0.0510 -0.2926  0.0257
  659TMC3    O2 9763   2.980   1.027  15.121 -0.0771  0.4184 -0.3993
  660MPD2     C 9764   2.057   4.389  12.218 -0.2394  0.3590 -0.0731
  660MPD2    C1 9765   1.947   4.475  12.231 -0.8114  0.4343 -0.0931
  660MPD2    C2 9766   1.835   4.442  12.313  0.0449  0.3569  0.0003
  660MPD2    C3 9767   1.830   4.310  12.366  0.5271  0.4535 -0.1424
  660MPD2    C4 9768   1.935   4.224  12.353 -0.1562  0.6347  0.3868
  660MPD2    C5 9769   2.039   4.267  12.280  0.4683 -0.3290 -0.4249
  660MPD2     H 9770   1.747   4.503  12.331  2.6176  3.1967  3.1169
  660MPD2    H1 9771   1.937   4.124  12.395 -0.5031  0.3879 -0.1769
  660MPD2    H2 9772   2.146   4.411  12.160  0.0156 -2.4574 -0.7501
  660MPD2    H3 9773   2.121   4.197  12.284 -0.0754 -0.8468  1.7316
  660MPD2     N 9774   1.709   4.256  12.422 -0.0745 -0.4300  0.4537
  660MPD2    H5 9775   1.704   4.158  12.449  0.0329 -0.4956  0.2319
  660MPD2    N1 9776   1.938   4.596  12.146 -0.2242  0.5959  0.3034
  660MPD2    H7 9777   2.003   4.601  12.068  0.1856 -1.8590  0.4707
  661TMC3    C1 9778   1.829   0.032  12.020  0.4207 -0.0199 -0.1348
  661TMC3    C2 9779   1.910   0.001  11.907  0.3151 -0.3860  0.2287
  661TMC3    C3 9780   1.884   0.057  11.783  0.4205 -0.0341  0.2739
  661TMC3    C4 9781   1.721   0.114  11.997 -0.5126 -0.0753  0.2707
  661TMC3    C5 9782   1.694   0.156  11.877  0.0504 -0.1856  0.3932
  661TMC3    C6 9783   1.768   0.124  11.775  0.4336  0.8214  0.0919
  661TMC3     C 9784   1.848   4.697  12.150  0.0385 -0.0741 -0.0771
  661TMC3     O 9785   1.777   0.006  12.245 -0.3515  0.2871 -0.7836
  661TMC3     H 9786   1.989   4.655  11.918  1.1043  0.8283  2.7070
  661TMC3    H1 9787   1.650   0.147  12.071  0.9020  0.1118  1.5595
  661TMC3    H2 9788   1.734   0.163  11.680 -0.8325 -2.3242 -0.7508
  661TMC3    C7 9789   1.570   0.217  11.839 -0.1705 -0.4815 -0.1822
  661TMC3    C8 9790   1.956   0.017  11.666  0.0904 -0.7150 -0.4014
  661TMC3    O1 9791   1.577   0.336  11.827  0.0039  0.0450  0.0315
  661TMC3    O2 9792   2.032   4.649  11.690  0.1270 -0.2912 -0.2892
  662MPD2     C 9793   1.661   3.865  16.508  0.3715 -0.1310  0.0659
  662MPD2    C1 9794   1.743   3.913  16.605 -0.5435 -0.7661  0.2195
  662MPD2    C2 9795   1.734   4.045  16.647  0.0121  0.1891 -0.0567
  662MPD2    C3 9796   1.633   4.125  16.603 -0.2131 -0.3352 -0.2089
  662MPD2    C4 9797   1.550   4.073  16.510 -0.4028 -0.4875  0.6358
  662MPD2    C5 9798   1.555   3.944  16.465  0.0429  0.3034  0.3973
  662MPD2     H 9799   1.806   4.075  16.722  1.6255  0.5727 -1.7864
  662MPD2    H1 9800   1.456   4.123  16.488  1.1427  1.8380 -0.6812
  662MPD2    H2 9801   1.664   3.763  16.474 -0.2734  0.0164 -0.4220
  662MPD2    H3 9802   1.479   3.921  16.391  2.9075  0.2312 -2.4998
  662MPD2     N 9803   1.607   4.255  16.651  0.4804  0.2803 -0.2148
  662MPD2    H5 9804   1.529   4.308  16.613  0.3362 -0.6804 -1.2879
  662MPD2    N1 9805   1.838   3.838  16.675 -0.0151  0.0252 -0.0434
  662MPD2    H7 9806   1.880   3.886  16.754 -0.4103  0.0279  0.1644
  663TMC3    C1 9807   1.955   3.677  16.777 -0.5238 -0.4380  0.1063
  663TMC3    C2 9808   2.022   3.778  16.827 -0.4953  0.7318 -0.3569
  663TMC3    C3 9809   2.061   3.781  16.955 -0.4667 -0.2948  0.0042
  663TMC3    C4 9810   1.904   3.577  16.851  0.5502 -0.0135 -0.3871
  663TMC3    C5 9811   1.930   3.590  16.985  0.4168  0.1369 -0.2223
  663TMC3    C6 9812   2.004   3.687  17.033  0.0866 -0.3756 -0.0860
  663TMC3     C 9813   1.870   3.711  16.668  0.6734  0.2148 -0.3521
  663TMC3     O 9814   1.832   3.621  16.596  0.2682 -0.1302  0.0955
  663TMC3     H 9815   2.070   3.847  16.758  0.7317  0.7625  0.5400
  663TMC3    H1 9816   1.840   3.500  16.812  0.8926 -0.8971  0.7807
  663TMC3    H2 9817   2.052   3.673  17.129 -1.7081 -1.4391  0.6524
  663TMC3    C7 9818   1.889   3.490  17.072 -0.6102 -0.3846  0.9801
  663TMC3    C8 9819   2.032   3.916  16.990 -0.0628 -0.6432 -0.4670
  663TMC3    O1 9820   1.872   3.388  17.018  0.2489 -0.4411 -0.1143
  663TMC3    O2 9821   1.970   3.979  16.907  0.1064 -0.2513 -0.2831
  664MPD2     C 9822   0.038   2.465  17.510 -0.3369 -0.5374 -0.4036
  664MPD2    C1 9823   0.147   2.551  17.492 -0.3000 -0.5779  0.1717
  664MPD2    C2 9824   0.229   2.581  17.598 -0.3881 -0.1354  0.7428
  664MPD2    C3 9825   0.197   2.535   0.016  0.6190 -0.0725 -0.5052
  664MPD2    C4 9826   0.090   2.447   0.034 -0.1526  0.4541 -0.3224
  664MPD2    C5 9827   0.008   2.413  17.635 -0.7635 -0.6474 -0.0742
  664MPD2     H 9828   0.314   2.646  17.581 -0.3072 -0.9350 -1.9488
  664MPD2    H1 9829   0.059   2.402   0.128 -0.8249  2.5773  0.4719
  664MPD2    H2 9830   4.701   2.436  17.427 -1.6781  0.1662  0.3725
  664MPD2    H3 9831   4.658   2.341  17.655 -1.3567  0.5967  2.1306
  664MPD2     N 9832   0.254   2.598   0.133 -0.0133  0.1430  0.0752
  664MPD2    H5 9833   0.330   2.663   0.118  1.9959 -1.5315  3.0342
  664MPD2    N1 9834   0.181   2.615  17.375  0.2017 -0.0763 -0.4794
  664MPD2    H7 9835   0.268   2.667  17.368 -0.3641  0.9699  0.1764
  665TMC3    C1 9836   0.256   2.677   0.361  0.0352 -0.6209  0.0936
  665TMC3    C2 9837   0.164   2.698   0.458 -0.0190 -0.0787 -0.4170
  665TMC3    C3 9838   0.211   2.758   0.573 -0.2797 -0.3049 -0.2382
  665TMC3    C4 9839   0.387   2.714   0.373 -0.0998 -0.1600  0.3386
  665TMC3    C5 9840   0.424   2.767   0.490 -0.4633 -0.1352 -0.6918
  665TMC3    C6 9841   0.344   2.784   0.596 -0.4524  0.1067 -0.5653
  665TMC3     C 9842   0.198   2.593   0.256  0.4976  0.6139 -0.4431
  665TMC3     O 9843   0.111   2.519   0.296 -0.4506 -0.4687  0.1735
  665TMC3     H 9844   0.061   2.666   0.452  0.4816 -1.4208 -1.6582
  665TMC3    H1 9845   0.453   2.697   0.289 -1.1348  0.3333 -0.5689
  665TMC3    H2 9846   0.376   2.813   0.695 -1.3047 -1.2591  0.1087
  665TMC3    C7 9847   0.540   2.849   0.481 -0.7016 -0.2217 -0.1595
  665TMC3    C8 9848   0.111   2.814   0.665 -0.4841  0.5009 -0.5030
  665TMC3    O1 9849   0.619   2.844   0.389 -0.1881 -0.0104  0.4454
  665TMC3    O2 9850   0.146   2.824   0.782  0.5287  0.2681  0.0502
  666TMC3    C1 9851   3.823   2.160  10.159 -0.4472  0.0096 -0.3020
  666TMC3    C2 9852   3.878   2.104  10.265  0.3522 -0.2230 -0.2561
  666TMC3    C3 9853   3.948   2.180  10.355  0.2875  0.1988 -0.7210
  666TMC3    C4 9854   3.825   2.294  10.136  0.8457  0.4156 -0.4295
  666TMC3    C5 9855   3.888   2.372  10.229 -0.3515  0.8183  0.5698
  666TMC3    C6 9856   3.951   2.314  10.340  0.3949 -0.1846 -0.7338
  666TMC3     C 9857   3.738   2.090  10.063  0.2338 -0.3165 -0.3826
  666TMC3     O 9858   3.666   2.164   9.998 -0.1683  0.0073  0.8189
  666TMC3     H 9859   3.870   1.996  10.274 -0.0752 -0.2167 -0.5867
  666TMC3    H1 9860   3.768   2.333  10.052  0.2547 -1.5496 -0.9488
  666TMC3    H2 9861   4.005   2.372  10.414  0.6087 -0.5441 -0.6070
  666TMC3    C7 9862   3.843   2.509  10.240  0.4199  0.1375 -0.3880
  666TMC3    C8 9863   3.982   2.122  10.483 -0.2813  0.2645 -0.3272
  666TMC3    O1 9864   3.854   2.562  10.348  0.1448  0.7352  0.0295
  666TMC3    O2 9865   3.912   2.031  10.520  0.8768  0.0364 -0.2198
  667MPD2     C 9866   0.738   1.690  15.144 -0.2350 -0.1991  0.1458
  667MPD2    C1 9867   0.621   1.747  15.182  0.0647 -0.3123  0.6071
  667MPD2    C2 9868   0.504   1.667  15.186 -0.1766 -0.4288 -0.5133
  667MPD2    C3 9869   0.506   1.541  15.134 -0.1468 -0.1779 -0.0274
  667MPD2    C4 9870   0.625   1.482  15.102 -0.2157 -0.5490 -0.0970
  667MPD2    C5 9871   0.739   1.555  15.103  0.1262 -0.1464  0.5264
  667MPD2     H 9872   0.411   1.711  15.221 -1.9200 -3.1623 -1.7015
  667MPD2    H1 9873   0.631   1.381  15.062  1.5382 -1.4967  2.5666
  667MPD2    H2 9874   0.824   1.755  15.156  0.0571 -0.6732  0.6088
  667MPD2    H3 9875   0.834   1.505  15.087 -0.5871 -2.0583  2.2888
  667MPD2     N 9876   0.391   1.459  15.137 -0.1354  0.0028  0.3650
  667MPD2    H5 9877   0.308   1.489  15.187  0.4821 -0.2499  1.5334
  667MPD2    N1 9878   0.610   1.884  15.207  0.7902 -0.0336  0.0590
  667MPD2    H7 9879   0.516   1.909  15.236  0.4312 -2.3378  0.8541
  668TMC3    C1 9880   0.651   2.112  15.216 -0.4280 -0.4404 -0.4002
  668TMC3    C2 9881   0.684   2.215  15.135 -0.2479  0.6819  0.0494
  668TMC3    C3 9882   0.647   2.339  15.173  0.0768 -0.1805  0.0403
  668TMC3    C4 9883   0.573   2.129  15.326 -0.0598 -0.8363 -0.4102
  668TMC3    C5 9884   0.532   2.253  15.362  0.2358  0.0049 -0.0889
  668TMC3    C6 9885   0.569   2.358  15.287  1.0702  0.5905  0.3230
  668TMC3     C 9886   0.699   1.980  15.185 -0.5052  0.2563 -0.7739
  668TMC3     O 9887   0.799   1.966  15.118 -0.6660  0.1042  0.5706
  668TMC3     H 9888   0.759   2.201  15.058 -0.4368 -0.5272  0.0699
  668TMC3    H1 9889   0.554   2.048  15.395 -0.0354 -0.1884  0.3431
  668TMC3    H2 9890   0.557   2.460  15.324 -1.3178  0.7054 -0.7586
  668TMC3    C7 9891   0.433   2.282  15.469 -0.0202 -0.0797 -0.5770
  668TMC3    C8 9892   0.687   2.463  15.110  0.2215  0.0849 -0.2508
  668TMC3    O1 9893   0.413   2.399  15.494 -0.2011 -0.4540  0.2625
  668TMC3    O2 9894   0.618   2.565  15.113 -0.5231 -0.3373 -0.4185
  669TMC3    C1 9895   4.039   2.224  14.423  0.6190  0.8640 -0.0673
  669TMC3    C2 9896   3.968   2.233  14.301  0.4980  0.5308 -0.6439
  669TMC3    C3 9897   3.965   2.354  14.240 -0.3010  0.2392  0.5464
  669TMC3    C4 9898   4.124   2.322  14.466 -0.4035 -0.3060 -0.1556
  669TMC3    C5 9899   4.123   2.440  14.400  0.0341  0.3031 -0.0338
  669TMC3    C6 9900   4.039   2.459  14.289 -0.3678  0.5714 -0.1215
  669TMC3     C 9901   4.015   2.096  14.494  0.8169 -0.0716 -0.5703
  669TMC3     O 9902   3.924   2.027  14.455 -0.1519  0.0083  0.4242
  669TMC3     H 9903   3.883   2.168  14.285  0.8670  0.4267 -2.1510
  669TMC3    H1 9904   4.175   2.306  14.560 -1.3165  1.2304  0.5941
  669TMC3    H2 9905   4.042   2.550  14.231  1.4870 -0.1987 -1.2327
  669TMC3    C7 9906   4.224   2.534  14.418 -0.0715 -0.1593  1.2676
  669TMC3    C8 9907   3.859   2.378  14.141  0.1087  1.0636 -0.0621
  669TMC3    O1 9908   4.233   2.630  14.345  0.0433 -0.2547 -0.0150
  669TMC3    O2 9909   3.794   2.279  14.107  0.3028 -0.0868 -0.5793
  670MPD2     C 9910   2.147   0.452  12.989  0.2802 -0.4453 -0.5685
  670MPD2    C1 9911   2.199   0.446  13.117 -0.2032  0.0715 -0.2931
  670MPD2    C2 9912   2.119   0.397  13.218  0.3262  0.6649 -0.6011
  670MPD2    C3 9913   1.996   0.338  13.196  0.2933 -0.2571  0.1262
  670MPD2    C4 9914   1.955   0.336  13.065  0.1863  0.3623  0.4062
  670MPD2    C5 9915   2.024   0.398  12.964 -0.3567 -0.3955  0.3048
  670MPD2     H 9916   2.141   0.405  13.323  0.5817 -0.5250 -0.5600
  670MPD2    H1 9917   1.860   0.292  13.037  0.2842  1.0151 -0.9483
  670MPD2    H2 9918   2.195   0.496  12.903  1.6401 -1.4365 -0.3189
  670MPD2    H3 9919   1.999   0.397  12.858 -0.8415 -0.0846  0.4150
  670MPD2     N 9920   1.939   0.285  13.312  0.1514  0.1853 -0.3282
  670MPD2    H5 9921   1.987   0.287  13.401 -1.4344 -1.5491  0.5765
  670MPD2    N1 9922   2.322   0.506  13.160  0.4144 -0.1029 -1.0477
  670MPD2    H7 9923   2.335   0.514  13.260 -0.1582 -0.3391 -0.9544
  671TMC3    C1 9924   1.769   0.169  13.434  0.4619 -0.3162  0.2489
  671TMC3    C2 9925   1.840   0.184  13.550  0.7496  0.4869  0.1919
  671TMC3    C3 9926   1.792   0.121  13.665  0.3262  0.2852  0.2864
  671TMC3    C4 9927   1.648   0.104  13.430 -0.3292  0.3305  0.1933
  671TMC3    C5 9928   1.611   0.035  13.544 -0.0862 -0.1787 -0.1375
  671TMC3    C6 9929   1.685   0.043  13.660  0.2706  0.0301 -0.4283
  671TMC3     C 9930   1.816   0.221  13.307 -0.0791  0.1868  0.0055
  671TMC3     O 9931   1.742   0.212  13.212 -0.1219  0.5659 -0.7075
  671TMC3     H 9932   1.947   0.200  13.541  0.7713 -0.7172 -1.7131
  671TMC3    H1 9933   1.603   0.087  13.332  1.1789 -2.1777 -0.0487
  671TMC3    H2 9934   1.658   4.717  13.751  0.9137 -1.4091 -1.0738
  671TMC3    C7 9935   1.546   4.631  13.520  0.2940 -0.2696  0.5880
  671TMC3    C8 9936   1.892   0.040  13.730 -0.4305 -0.2147  0.4565
  671TMC3    O1 9937   1.513   4.609  13.403  0.0336  0.2424 -0.6819
  671TMC3    O2 9938   1.874   4.649  13.752  0.2127  0.2292 -0.3931
  672MPD2     C 9939   1.794   1.298   1.586 -0.6976 -0.0239  0.4976
  672MPD2    C1 9940   1.877   1.290   1.475 -0.0376  0.5649 -0.5307
  672MPD2    C2 9941   2.002   1.342   1.483  0.0085  0.2644  0.6330
  672MPD2    C3 9942   2.061   1.383   1.604  0.1872  0.1106  0.5968
  672MPD2    C4 9943   1.978   1.400   1.711 -0.2351  0.4746  0.3967
  672MPD2    C5 9944   1.847   1.351   1.703  0.5683 -0.1686 -0.2675
  672MPD2     H 9945   2.068   1.340   1.397 -1.9582 -2.1349 -0.8333
  672MPD2    H1 9946   2.016   1.452   1.799 -0.9489 -0.8099  1.4622
  672MPD2    H2 9947   1.690   1.265   1.591 -0.4759 -0.9952 -1.1289
  672MPD2    H3 9948   1.784   1.359   1.792  0.9174 -0.2139 -0.0167
  672MPD2     N 9949   2.192   1.426   1.603 -0.4457  0.4039  0.5981
  672MPD2    H5 9950   2.239   1.424   1.513 -1.0193 -2.6765  0.3486
  672MPD2    N1 9951   1.846   1.211   1.365 -0.3505  0.8560 -0.0854
  672MPD2    H7 9952   1.908   1.202   1.285 -1.8592  2.0304 -1.3835
  673TMC3    C1 9953   1.803   1.009   1.265  0.0614 -0.1633 -0.0874
  673TMC3    C2 9954   1.805   0.873   1.298  0.1865 -0.1944  0.1044
  673TMC3    C3 9955   1.917   0.806   1.264  0.2655 -0.5038 -0.0985
  673TMC3    C4 9956   1.886   1.061   1.178  0.4194 -0.4238 -0.1715
  673TMC3    C5 9957   1.968   0.972   1.115 -0.2045 -0.1405  0.1830
  673TMC3    C6 9958   2.003   0.850   1.168  0.0138  0.2617 -0.1470
  673TMC3     C 9959   1.768   1.097   1.370 -0.1459 -0.4949 -0.7195
  673TMC3     O 9960   1.684   1.051   1.446 -0.1911  0.0572  0.0163
  673TMC3     H 9961   1.760   0.829   1.386  1.4161 -0.0765  0.7935
  673TMC3    H1 9962   1.850   1.152   1.130 -0.4464 -0.8957 -0.4165
  673TMC3    H2 9963   2.083   0.793   1.125 -1.0034 -1.9771  0.9348
  673TMC3    C7 9964   2.000   0.990   0.970  1.3249 -0.2080  0.1310
  673TMC3    C8 9965   1.945   0.699   1.348  0.4006  0.2531  0.3265
  673TMC3    O1 9966   2.018   0.886   0.908 -0.0382 -0.4842 -0.1955
  673TMC3    O2 9967   1.854   0.629   1.392 -0.4923 -0.1354  0.2159
  674MPD2     C 9968   2.181   0.919   0.263  0.3789  0.3367 -0.7391
  674MPD2    C1 9969   2.182   0.825   0.364  0.7479  0.1229 -0.8502
  674MPD2    C2 9970   2.106   0.714   0.351  0.4406  0.0655 -0.2513
  674MPD2    C3 9971   2.031   0.696   0.232 -0.0052 -0.2001 -0.2168
  674MPD2    C4 9972   2.032   0.790   0.138 -0.2579  0.0034 -0.0522
  674MPD2    C5 9973   2.108   0.904   0.152 -0.0505  0.2973 -0.8122
  674MPD2     H 9974   2.109   0.638   0.427  0.0061  0.0520 -0.2511
  674MPD2    H1 9975   1.978   0.788   0.044  0.0111  1.5999 -0.2462
  674MPD2    H2 9976   2.245   1.006   0.275 -0.8553  1.3286 -1.3937
  674MPD2    H3 9977   2.118   0.976   0.071 -0.1233  0.7868 -0.3918
  674MPD2     N 9978   1.971   0.567   0.214 -0.6215 -0.4699  0.6038
  674MPD2    H5 9979   1.953   0.505   0.292  0.2087  0.1124  1.2508
  674MPD2    N1 9980   2.251   0.852   0.487  0.0759  0.0026  0.5089
  674MPD2    H7 9981   2.298   0.942   0.491  0.2429 -0.0608 -0.0993
  675TMC3    C1 9982   2.338   0.822   0.713  0.4588 -0.3763  0.1522
  675TMC3    C2 9983   2.368   0.739   0.816  0.0244 -0.5198  0.2178
  675TMC3    C3 9984   2.384   0.802   0.936  0.0953 -0.2484 -0.3193
  675TMC3    C4 9985   2.331   0.961   0.723 -0.4763 -0.0378  0.5862
  675TMC3    C5 9986   2.344   1.017   0.846  0.4735 -0.0123 -0.1812
  675TMC3    C6 9987   2.369   0.939   0.955  0.3512 -0.6347  0.1191
  675TMC3     C 9988   2.273   0.768   0.598 -0.2776 -0.2929  0.0338
  675TMC3     O 9989   2.238   0.650   0.610 -0.4033 -0.4425  0.1095
  675TMC3     H 9990   2.387   0.633   0.801  1.1041 -0.2336 -0.4161
  675TMC3    H1 9991   2.289   1.023   0.644 -0.7266 -1.0543 -0.0761
  675TMC3    H2 9992   2.389   0.983   1.052  1.6984 -1.5378  0.2536
  675TMC3    C7 9993   2.324   1.160   0.873 -0.6343 -0.2794 -0.4826
  675TMC3    C8 9994   2.445   0.731   1.045  0.0685  0.2241 -0.2581
  675TMC3    O1 9995   2.313   1.187   0.994  0.4250 -0.2068 -1.0215
  675TMC3    O2 9996   2.503   0.802   1.131  0.0298  0.9568 -0.3193
  676MPD2     C 9997   4.340   3.790  11.056  0.2673  0.6916 -0.2323
  676MPD2    C1 9998   4.327   3.727  11.182 -0.0002 -0.2588  0.6519
  676MPD2    C2 9999   4.290   3.588  11.178 -0.4236 -0.3367  0.0057
  676MPD2    C310000   4.282   3.513  11.060 -0.4155 -0.5235  0.3705
  676MPD2    C410001   4.293   3.589  10.938 -0.2417  0.1686  0.2486
  676MPD2    C510002   4.320   3.725  10.941  0.1147  0.5084  1.1892
  676MPD2     H10003   4.278   3.541  11.275  1.9882  0.1798  0.5465
  676MPD2    H110004   4.271   3.550  10.839 -1.9136  0.5682  0.4637
  676MPD2    H210005   4.356   3.897  11.048  2.4516  0.4500  0.7765
  676MPD2    H310006   4.326   3.782  10.849  0.1533  0.4464  1.1532
  676MPD2     N10007   4.261   3.378  11.046  0.2911 -0.1009 -0.6353
  676MPD2    H510008   4.248   3.342  10.952 -1.8738  0.3261 -0.5070
  676MPD2    N110009   4.334   3.791  11.304 -0.3450  0.0819 -0.0205
  676MPD2    H710010   4.300   3.739  11.384 -1.2280 -0.8353 -0.9845
  677TMC3    C110011   4.326   3.976  11.440 -0.2359 -0.3657  0.9988
  677TMC3    C210012   4.217   3.923  11.499  0.5036 -0.7823 -0.8917
  677TMC3    C310013   4.167   3.965  11.618 -0.2030  0.0874  0.2527
  677TMC3    C410014   4.399   4.077  11.503  0.1352 -0.3005  0.8522
  677TMC3    C510015   4.351   4.108  11.629  0.0802 -1.2588  0.6156
  677TMC3    C610016   4.232   4.059  11.684 -0.1016  0.3682  0.8303
  677TMC3     C10017   4.372   3.919  11.321 -1.0117  0.4629  0.1326
  677TMC3     O10018   4.463   3.979  11.256  0.4518  0.0378 -0.6617
  677TMC3     H10019   4.164   3.842  11.451 -0.1554 -0.3127 -0.9576
  677TMC3    H110020   4.495   4.109  11.465  0.0155 -2.6515 -1.4438
  677TMC3    H210021   4.200   4.094  11.781 -1.2538  0.3106  0.4659
  677TMC3    C710022   4.452   4.143  11.724 -0.6332 -0.1998 -0.6371
  677TMC3    C810023   4.056   3.895  11.666  0.0220 -0.6808 -0.0486
  677TMC3    O110024   4.416   4.154  11.840  0.0877 -0.4759  0.2571
  677TMC3    O210025   3.956   3.914  11.600 -0.1345  0.4136  0.3391
  678MPD2     C10026   2.005   4.079   1.341 -0.4607 -1.0653 -0.9843
  678MPD2    C110027   1.990   3.995   1.226 -0.6196 -0.2118  0.2612
  678MPD2    C210028   1.870   3.987   1.162  0.6993 -0.7175  0.1584
  678MPD2    C310029   1.759   4.049   1.214 -0.2335 -0.6618 -0.3570
  678MPD2    C410030   1.772   4.122   1.331  0.1036 -0.4816 -0.0063
  678MPD2    C510031   1.893   4.141   1.393 -0.3863  0.0250 -0.0021
  678MPD2     H10032   1.872   3.924   1.074  0.5372 -0.4187 -0.0548
  678MPD2    H110033   1.685   4.164   1.380 -0.2714  0.3651 -1.3989
  678MPD2    H210034   2.105   4.086   1.382 -0.7587  1.3786 -0.6947
  678MPD2    H310035   1.905   4.207   1.478  0.0502  1.1938 -0.9650
  678MPD2     N10036   1.633   4.010   1.157  0.2856  0.3951  0.0576
  678MPD2    H510037   1.637   3.962   1.068  1.9443  0.8349 -0.1004
  678MPD2    N110038   2.097   3.911   1.176  0.3151  0.4680  0.0512
  678MPD2    H710039   2.080   3.839   1.106  1.3211 -1.8126  2.1325
  679TMC3    C110040   2.347   3.586   1.110 -0.4109 -0.0985 -0.5622
  679TMC3    C210041   2.335   3.692   1.198 -0.7483 -0.5467  0.2879
  679TMC3    C310042   2.298   3.811   1.144  0.3812  0.3798  0.7466
  679TMC3    C410043   2.313   3.599   0.981  0.1747  0.2698  0.4085
  679TMC3    C510044   2.272   3.721   0.933 -0.1671  0.6489 -0.5904
  679TMC3    C610045   2.268   3.834   1.010  0.3034  0.0844 -0.8607
  679TMC3     C10046   2.386   3.453   1.159  0.1431 -0.0198  0.7107
  679TMC3     O10047   2.337   3.359   1.096 -0.0247  0.3474 -0.2659
  679TMC3     H10048   2.344   3.677   1.305 -0.9098  1.3606  0.5706
  679TMC3    H110049   2.320   3.509   0.920 -1.0757 -1.0413  2.1863
  679TMC3    H210050   2.241   3.934   0.980 -2.5182 -0.6533 -0.8264
  679TMC3    C710051   2.216   3.747   0.802  0.2574  0.2745  0.5787
  679TMC3    C810052   2.224   3.904   1.229 -0.1109 -0.1208 -0.4497
  679TMC3    O110053   2.149   3.847   0.776  0.2820 -0.3138  0.2168
  679TMC3    O210054   2.274   3.949   1.329  0.3196 -0.3555 -0.5182
  680MPD2     C10055   1.281   1.949  13.815  0.1796  0.5281 -0.2633
  680MPD2    C110056   1.397   1.887  13.762  0.1354 -0.5123  0.3907
  680MPD2    C210057   1.516   1.952  13.752  0.0669  0.1165  0.0876
  680MPD2    C310058   1.529   2.081  13.794 -0.1146  0.1377  0.4055
  680MPD2    C410059   1.416   2.138  13.853  0.6324  0.1520 -0.0611
  680MPD2    C510060   1.292   2.075  13.863  0.4295  0.2524  0.0254
  680MPD2     H10061   1.594   1.888  13.712 -1.3582 -1.1458 -0.6778
  680MPD2    H110062   1.413   2.242  13.883  0.0613  0.3599 -0.8652
  680MPD2    H210063   1.185   1.899  13.822  1.0012 -0.8296  1.2221
  680MPD2    H310064   1.200   2.117  13.903 -1.1360 -1.4172 -1.8312
  680MPD2     N10065   1.653   2.142  13.795  0.0319 -0.3510 -0.0498
  680MPD2    H510066   1.653   2.239  13.825  1.0116 -0.3795  0.0387
  680MPD2    N110067   1.408   1.753  13.710 -0.4682 -0.8884  0.3131
  680MPD2    H710068   1.501   1.716  13.694  0.3896  2.6927 -3.0724
  681TMC3    C110069   1.332   1.541  13.647  0.3084  0.9218 -0.2602
  681TMC3    C210070   1.252   1.432  13.667 -0.0718  0.5649 -0.3215
  681TMC3    C310071   1.289   1.310  13.616  0.8649  0.0256  0.0233
  681TMC3    C410072   1.432   1.533  13.550 -0.5059 -0.6927  0.4568
  681TMC3    C510073   1.466   1.413  13.499  0.2446  0.3081  0.0812
  681TMC3    C610074   1.395   1.297  13.530 -0.2645 -0.1382 -0.1759
  681TMC3     C10075   1.297   1.670  13.692  0.3838 -0.3345 -0.1706
  681TMC3     O10076   1.183   1.687  13.736 -0.3048 -0.1231  0.0327
  681TMC3     H10077   1.169   1.434  13.736  1.4749  0.7034  1.5230
  681TMC3    H110078   1.483   1.625  13.526 -3.0446  0.3153 -1.1241
  681TMC3    H210079   1.448   1.204  13.511  1.0004  0.7280 -0.8510
  681TMC3    C710080   1.572   1.402  13.395 -0.4097  0.0858  0.3922
  681TMC3    C810081   1.264   1.191  13.686 -0.2157 -1.0499 -0.3121
  681TMC3    O110082   1.625   1.293  13.393 -0.8639 -0.1276  0.4726
  681TMC3    O210083   1.231   1.088  13.629 -0.2149  0.1111  0.2578
  682MPD2     C10084   3.323   3.565  10.795  0.5236 -0.2710 -0.3351
  682MPD2    C110085   3.338   3.436  10.838  0.1531 -0.5005  0.0568
  682MPD2    C210086   3.402   3.400  10.949  0.1807 -0.6448 -0.7225
  682MPD2    C310087   3.455   3.499  11.030  0.8453 -0.2768 -0.5373
  682MPD2    C410088   3.443   3.634  10.986  0.2364 -0.3969  0.7629
  682MPD2    C510089   3.389   3.657  10.867  0.4883  0.4241 -0.3742
  682MPD2     H10090   3.417   3.295  10.971  0.7313 -0.1389  1.3456
  682MPD2    H110091   3.482   3.716  11.046  1.5689 -0.2057 -0.3679
  682MPD2    H210092   3.257   3.601  10.716  2.0932  1.9902 -0.6341
  682MPD2    H310093   3.373   3.759  10.835  2.4271  0.0937 -2.3939
  682MPD2     N10094   3.512   3.484  11.165 -0.1709 -1.0066  0.1215
  682MPD2    H510095   3.528   3.576  11.203 -0.9472 -1.1058  0.6900
  682MPD2    N110096   3.295   3.324  10.759  0.4395 -0.1161 -0.1543
  682MPD2    H710097   3.317   3.236  10.804 -1.3551 -0.4392  0.0804
  683TMC3    C110098   3.645   3.526  11.549 -0.2415  0.2719  0.2822
  683TMC3    C210099   3.641   3.421  11.636 -0.1386 -0.6776  0.6588
  683TMC3    C310100   3.613   3.300  11.587 -0.0973 -0.1065  0.0061
  683TMC3    C410101   3.627   3.511  11.415  0.6035 -0.1652  0.3184
  683TMC3    C510102   3.587   3.383  11.372 -0.1636  0.4975  0.1383
  683TMC3    C610103   3.587   3.277  11.453  0.4066  0.2972 -0.0354
  683TMC3     C10104   3.672   3.661  11.599  0.5295 -0.3086 -0.1535
  683TMC3     O10105   3.659   3.759  11.527 -0.0513 -0.1008 -0.5228
  683TMC3     H10106   3.658   3.431  11.743 -0.0082  0.2159  0.5562
  683TMC3    H110107   3.631   3.600  11.353 -1.9731  0.6229  1.2709
  683TMC3    H210108   3.568   3.176  11.420 -2.9402 -0.0801  3.0506
  683TMC3    C710109   3.526   3.367  11.234 -0.6841 -0.0768  0.4209
  683TMC3    C810110   3.656   3.184  11.664 -0.5076 -0.1364 -0.5213
  683TMC3    O110111   3.455   3.267  11.222  0.4764 -0.7463  0.1214
  683TMC3    O210112   3.754   3.187  11.740 -0.2684  0.3750  0.5136
  684MPD2     C10113   1.877   3.150  16.122  0.1966  0.0742  0.0942
  684MPD2    C110114   1.904   3.102  15.994 -0.0854 -1.2082  0.4998
  684MPD2    C210115   1.960   3.180  15.901  0.4066  0.3545 -0.2061
  684MPD2    C310116   1.989   3.307  15.929 -0.4987  0.8915 -0.0214
  684MPD2    C410117   1.965   3.352  16.058 -0.1042 -0.2540  0.6521
  684MPD2    C510118   1.900   3.278  16.158 -0.5708 -0.2829  0.3925
  684MPD2     H10119   1.983   3.136  15.805  0.9461 -2.4040  1.1889
  684MPD2    H110120   1.994   3.454  16.083 -1.0484 -0.1257  1.2438
  684MPD2    H210121   1.842   3.082  16.199  0.7951 -0.0131  0.2875
  684MPD2    H310122   1.889   3.321  16.257 -0.5103  0.4261  0.0912
  684MPD2     N10123   2.046   3.399  15.840 -0.4337  0.1745 -0.2716
  684MPD2    H510124   2.051   3.496  15.870  0.1875 -0.3954  1.5013
  684MPD2    N110125   1.902   2.959  15.968  0.2017  0.1671  0.2330
  684MPD2    H710126   1.954   2.926  15.887  0.4469  0.9876  0.0547
  685TMC3    C110127   1.854   2.729  15.986 -0.4881  0.2766 -0.2495
  685TMC3    C210128   1.742   2.656  15.966 -0.2236  0.7603 -0.2441
  685TMC3    C310129   1.754   2.525  15.926 -0.2944  0.4516  0.0288
  685TMC3    C410130   1.975   2.675  15.962 -0.0042  0.3736 -0.8917
  685TMC3    C510131   1.981   2.542  15.917 -0.0267  0.1299 -0.0434
  685TMC3    C610132   1.872   2.461  15.905 -0.2903  0.1110 -0.0407
  685TMC3     C10133   1.836   2.861  16.042 -0.7368 -0.5197 -0.1234
  685TMC3     O10134   1.764   2.876  16.142 -0.0373 -0.9573 -0.2590
  685TMC3     H10135   1.644   2.701  15.973  1.1874  3.3534  2.3423
  685TMC3    H110136   2.063   2.737  15.966  1.2644 -1.5517  1.1388
  685TMC3    H210137   1.874   2.354  15.891 -0.5561 -0.3395  3.4899
  685TMC3    C710138   2.109   2.485  15.917  0.0583 -0.0781 -0.7110
  685TMC3    C810139   1.645   2.452  15.867  0.7108  0.0592  0.4095
  685TMC3    O110140   2.137   2.408  15.825 -0.4240  0.0192  0.7806
  685TMC3    O210141   1.651   2.328  15.868  0.0455  0.2176  0.5998
  686MPD2     C10142   3.422   2.768  15.376  0.1467  0.2195 -0.2753
  686MPD2    C110143   3.419   2.686  15.487 -0.3272  0.3288 -0.0977
  686MPD2    C210144   3.510   2.581  15.487  0.7595  0.1352  0.9052
  686MPD2    C310145   3.580   2.546  15.375  0.4650  0.0927 -0.3231
  686MPD2    C410146   3.579   2.623  15.260  0.0619 -0.0827  0.3545
  686MPD2    C510147   3.506   2.738  15.270  0.3790  0.3609 -0.0462
  686MPD2     H10148   3.513   2.511  15.570  0.1136 -3.2864 -1.9614
  686MPD2    H110149   3.630   2.592  15.169 -0.9669  0.0786 -0.2842
  686MPD2    H210150   3.359   2.856  15.376 -0.2677 -0.0731 -0.0711
  686MPD2    H310151   3.493   2.803  15.184  1.9646  0.2341 -0.3827
  686MPD2     N10152   3.649   2.430  15.377 -0.0100  0.4777 -0.6017
  686MPD2    H510153   3.658   2.380  15.465  0.4068 -1.2869 -1.6303
  686MPD2    N110154   3.318   2.707  15.590 -0.2163 -0.1320 -0.1805
  686MPD2    H710155   3.262   2.789  15.569 -1.1635 -1.0960 -1.4415
  687TMC3    C110156   3.706   2.217  15.315  0.1385 -0.7729 -0.6200
  687TMC3    C210157   3.599   2.144  15.278  0.1069  0.3939 -0.2098
  687TMC3    C310158   3.541   2.068  15.368  0.3054  0.7758 -0.0839
  687TMC3    C410159   3.756   2.207  15.443  0.1462  0.1113  0.6656
  687TMC3    C510160   3.690   2.133  15.536  0.1159 -0.6664 -0.2251
  687TMC3    C610161   3.580   2.065  15.498 -0.0525  0.0104 -0.3117
  687TMC3     C10162   3.694   2.357  15.265 -0.5952 -0.4410 -0.1659
  687TMC3     O10163   3.654   2.356  15.153 -0.2740  0.3115  0.3230
  687TMC3     H10164   3.569   2.132  15.175  0.2784 -2.9253  0.1293
  687TMC3    H110165   3.844   2.267  15.466  0.4522  0.2700 -0.8974
  687TMC3    H210166   3.525   2.010  15.574  1.5569 -0.7360  0.3199
  687TMC3    C710167   3.673   2.213  15.658  0.6062 -0.7693 -0.4034
  687TMC3    C810168   3.396   2.078  15.353  1.1686 -0.3772 -0.0552
  687TMC3    O110169   3.712   2.327  15.647 -0.2255 -0.0805 -0.3856
  687TMC3    O210170   3.328   2.009  15.424 -0.8380  0.2395  0.1922
  688MPD2     C10171   2.658   1.682  17.037  0.8112  0.2037 -0.1791
  688MPD2    C110172   2.702   1.561  17.080  0.7165  0.3704  0.0170
  688MPD2    C210173   2.800   1.492  17.013 -0.2675  0.3312 -0.1351
  688MPD2    C310174   2.850   1.544  16.896 -0.2307  0.2395  0.2758
  688MPD2    C410175   2.803   1.660  16.843 -0.4801 -0.1846 -0.2947
  688MPD2    C510176   2.709   1.730  16.912  0.5017  0.2223  0.1811
  688MPD2     H10177   2.824   1.398  17.060 -1.2837 -0.3979 -1.0689
  688MPD2    H110178   2.830   1.683  16.740 -1.9916  3.2786  0.0746
  688MPD2    H210179   2.585   1.743  17.089  0.3654 -0.7470  0.3212
  688MPD2    H310180   2.669   1.825  16.879 -0.6326  0.6846  2.8486
  688MPD2     N10181   2.944   1.481  16.817  0.1216  0.2518  0.0439
  688MPD2    H510182   2.965   1.521  16.726 -0.8331 -0.2465 -0.3973
  688MPD2    N110183   2.660   1.495  17.189  0.0754  0.4102 -0.0672
  688MPD2    H710184   2.725   1.431  17.233  1.1768  0.4566 -1.6192
  689TMC3    C110185   2.534   1.454  17.382  0.2357 -0.5088  0.2832
  689TMC3    C210186   2.626   1.483  17.481  0.3188 -0.8321  0.2491
  689TMC3    C310187   2.593   1.442  17.607  1.0735 -0.0484  0.2823
  689TMC3    C410188   2.421   1.381  17.403  0.2165 -0.2311  0.6503
  689TMC3    C510189   2.402   1.332  17.525  0.0493  0.1065 -0.3654
  689TMC3    C610190   2.486   1.364  17.629  0.3467  0.3086 -0.0588
  689TMC3     C10191   2.542   1.523  17.254  0.0361  0.2934 -0.5336
  689TMC3     O10192   2.438   1.571  17.209 -0.3675  0.1786  0.0651
  689TMC3     H10193   2.720   1.534  17.463  0.7895 -0.6359  3.3821
  689TMC3    H110194   2.360   1.370  17.314 -1.5392 -1.3748  1.9939
  689TMC3    H210195   2.473   1.339   0.024  1.8778 -1.6347 -0.3393
  689TMC3    C710196   2.324   1.214  17.551 -1.4366  0.3690 -0.3727
  689TMC3    C810197   2.674   1.490   0.017 -0.4279  0.0433  0.0521
  689TMC3    O110198   2.347   1.159  17.659  0.1957  0.4927 -0.2378
  689TMC3    O210199   2.637   1.462   0.131 -0.6291  0.3448  0.5796
  690MPD2     C10200   4.500   3.565  15.280  0.2457 -0.1259  0.2355
  690MPD2    C110201   4.583   3.455  15.314 -0.1675 -0.3661  0.6504
  690MPD2    C210202   4.717   3.468  15.314  0.0423 -0.5584 -0.0166
  690MPD2    C310203   0.050   3.590  15.276 -0.2011  0.1221 -0.8989
  690MPD2    C410204   4.694   3.703  15.250 -0.2022 -0.4105  0.3473
  690MPD2    C510205   4.559   3.686  15.251  0.7548 -0.4797  0.4414
  690MPD2     H10206   0.050   3.379  15.328 -0.7805 -1.1222 -0.0223
  690MPD2    H110207   0.007   3.803  15.237 -0.7489 -0.2803 -0.3973
  690MPD2    H210208   4.393   3.553  15.286  0.3424 -0.3272  1.7132
  690MPD2    H310209   4.509   3.779  15.229 -0.0235 -0.5464  1.9221
  690MPD2     N10210   0.195   3.602  15.275 -0.2214 -0.1379  0.1825
  690MPD2    H510211   0.251   3.520  15.295 -2.3939 -1.7119 -0.2137
  690MPD2    N110212   4.537   3.322  15.326 -0.2271 -0.1489 -0.1122
  690MPD2    H710213   4.605   3.249  15.347 -0.6416  0.4378  3.2702
  691TMC3    C110214   4.391   3.155  15.379 -0.0594 -0.3098 -0.3455
  691TMC3    C210215   4.305   3.133  15.478  0.1725  0.0546  0.4850
  691TMC3    C310216   4.278   3.000  15.513  0.6028 -0.3051  0.3841
  691TMC3    C410217   4.459   3.056  15.317 -0.7380  0.0882  0.0794
  691TMC3    C510218   4.428   2.925  15.352 -0.4202  0.5711  0.1758
  691TMC3    C610219   4.344   2.897  15.455  0.2080 -0.2699  0.5217
  691TMC3     C10220   4.405   3.288  15.339  0.2783  0.1846 -0.2730
  691TMC3     O10221   4.304   3.356  15.340  0.0119 -0.3762  0.4008
  691TMC3     H10222   4.248   3.213  15.524  1.1125  1.0165 -0.0240
  691TMC3    H110223   4.526   3.081  15.236 -1.9028  2.3074 -0.1774
  691TMC3    H210224   4.319   2.795  15.479 -0.4851  0.0210  1.0490
  691TMC3    C710225   4.487   2.823  15.272 -0.6178 -0.3862 -0.2801
  691TMC3    C810226   4.138   2.965  15.543 -0.1319 -0.3953 -0.0796
  691TMC3    O110227   4.598   2.846  15.222 -0.3028  0.2404 -0.3306
  691TMC3    O210228   4.123   2.843  15.562 -0.2500 -0.6359 -0.0872
  692TMC3    C110229   1.415   4.433  15.305  0.4719 -0.4348  1.0872
  692TMC3    C210230   1.539   4.493  15.325  0.0186  0.4698  0.1183
  692TMC3    C310231   1.652   4.416  15.310 -0.5382 -0.1631  0.2281
  692TMC3    C410232   1.400   4.300  15.285  0.0866  0.6102  0.2952
  692TMC3    C510233   1.512   4.228  15.269  0.0777 -0.0230  0.4471
  692TMC3    C610234   1.640   4.279  15.289  0.4776 -0.2156  0.3577
  692TMC3     C10235   1.307   4.485  15.393 -0.0008  0.2560 -0.1494
  692TMC3     O10236   1.197   4.431  15.406  0.1565  0.0194  0.7272
  692TMC3     H10237   1.544   4.597  15.296  0.6502  0.8183  1.4756
  692TMC3    H110238   1.301   4.256  15.276  0.6228 -0.1399 -1.9366
  692TMC3    H210239   1.730   4.229  15.256  0.3750 -1.3811  1.8881
  692TMC3    C710240   1.501   4.084  15.259 -0.6368 -0.0718 -0.0187
  692TMC3    C810241   1.759   4.453  15.405 -0.3432 -0.4991  0.7711
  692TMC3    O110242   1.399   4.045  15.201  0.7721  0.1467  0.6596
  692TMC3    O210243   1.860   4.385  15.389  0.2388 -0.8274  0.2934
  693MPD2     C10244   0.853   3.078  11.033 -1.2198  0.7916  0.6383
  693MPD2    C110245   0.775   2.972  10.998 -0.2517  0.1922 -0.5680
  693MPD2    C210246   0.834   2.846  10.977 -0.6205  0.2042  0.3819
  693MPD2    C310247   0.967   2.835  11.010 -0.9286  0.1243 -0.3561
  693MPD2    C410248   1.042   2.943  11.045 -0.3600  0.1389 -0.6114
  693MPD2    C510249   0.991   3.068  11.041 -0.7283  0.3535  0.5903
  693MPD2     H10250   0.771   2.763  10.949  0.3925 -0.9141  1.4148
  693MPD2    H110251   1.150   2.931  11.042 -0.3531  0.0646 -0.0347
  693MPD2    H210252   0.817   3.180  11.035 -4.3598 -0.3020 -0.1177
  693MPD2    H310253   1.058   3.153  11.052  0.4442 -0.9658  3.8027
  693MPD2     N10254   1.034   2.711  11.005  1.2263 -0.1474 -0.4999
  693MPD2    H510255   1.117   2.709  11.063  1.7658 -2.1831 -1.3368
  693MPD2    N110256   0.641   3.009  10.966 -0.0736  0.4512 -0.4595
  693MPD2    H710257   0.621   3.107  10.949  0.0689  0.7747  1.2241
  694TMC3    C110258   0.542   2.801  11.025 -0.6607 -0.1619 -1.0110
  694TMC3    C210259   0.503   2.700  10.945  0.1180  0.0250 -0.9483
  694TMC3    C310260   0.496   2.573  10.991 -0.2746  0.2566 -0.1676
  694TMC3    C410261   0.564   2.774  11.162 -0.5204  0.1750  0.5673
  694TMC3    C510262   0.543   2.645  11.205 -0.6576 -0.0411 -0.8124
  694TMC3    C610263   0.520   2.541  11.121 -0.9670 -0.2624 -0.4383
  694TMC3     C10264   0.530   2.932  10.974  0.2812  0.0739  0.0682
  694TMC3     O10265   0.417   2.958  10.937  0.2292 -0.0339 -0.5144
  694TMC3     H10266   0.502   2.721  10.838  0.3588 -2.6934 -1.4744
  694TMC3    H110267   0.559   2.859  11.229  0.2876 -0.1797  1.0692
  694TMC3    H210268   0.516   2.437  11.152 -1.0269 -0.5560 -1.4236
  694TMC3    C710269   0.533   2.634  11.348 -0.4799  0.2093  0.8551
  694TMC3    C810270   0.419   2.478  10.922  0.3915  0.1801  0.3659
  694TMC3    O110271   0.554   2.730  11.419  0.1158 -0.9615  0.4064
  694TMC3    O210272   0.351   2.402  10.989 -0.5762 -0.1868 -0.0502
  695MPD2     C10273   2.138   3.897  13.434 -0.7753  0.5816 -0.2380
  695MPD2    C110274   2.081   3.991  13.512 -0.1564  0.1232  0.7754
  695MPD2    C210275   1.969   4.066  13.465 -0.4290  0.0416 -0.2226
  695MPD2    C310276   1.916   4.037  13.341  0.6173  0.1408 -0.9011
  695MPD2    C410277   1.987   3.943  13.262 -0.7020  0.5714  0.8620
  695MPD2    C510278   2.082   3.863  13.317  0.7931 -0.3540 -0.6855
  695MPD2     H10279   1.924   4.142  13.528  1.7411  0.8458  0.3444
  695MPD2    H110280   1.958   3.918  13.160  2.0182  0.7581  0.0536
  695MPD2    H210281   2.224   3.839  13.466 -0.6372  0.7928 -0.2245
  695MPD2    H310282   2.118   3.777  13.262 -0.3969  0.3070 -2.4962
  695MPD2     N10283   1.792   4.100  13.304  0.0610  0.1801 -0.5271
  695MPD2    H510284   1.751   4.170  13.364 -0.3809 -0.1610 -0.4237
  695MPD2    N110285   2.118   4.011  13.647 -0.2996 -0.2530 -0.0755
  695MPD2    H710286   2.074   4.088  13.696  2.3062 -0.1963  2.1463
  696TMC3    C110287   1.608   4.151  13.161 -0.2968  0.3123  0.4123
  696TMC3    C210288   1.514   4.110  13.256 -0.3761 -0.6352  0.2670
  696TMC3    C310289   1.380   4.119  13.231 -0.3719 -0.0066  0.2970
  696TMC3    C410290   1.570   4.206  13.045  0.5072 -0.4288  0.2630
  696TMC3    C510291   1.433   4.235  13.031  0.4507 -0.1875  0.1800
  696TMC3    C610292   1.342   4.183  13.116  0.2874  0.3392  0.6879
  696TMC3     C10293   1.740   4.095  13.174  0.0593  0.0044  0.2571
  696TMC3     O10294   1.793   4.067  13.069  0.4682  0.3226  0.9679
  696TMC3     H10295   1.542   4.033  13.327 -1.9439  0.2346  1.8240
  696TMC3    H110296   1.643   4.255  12.982 -0.7095  0.7402 -0.2380
  696TMC3    H210297   1.235   4.198  13.106  0.6168  3.1638  1.2577
  696TMC3    C710298   1.408   4.370  12.994  0.2375  1.2524  1.1534
  696TMC3    C810299   1.319   4.178  13.345 -0.8621 -0.1219 -0.4587
  696TMC3    O110300   1.486   4.421  12.910  0.0892  0.2028  0.7592
  696TMC3    O210301   1.275   4.289  13.316 -0.0901 -0.3887 -0.2621
  697MPD2     C10302   1.098   1.315  15.854  0.5075  1.5390  0.8332
  697MPD2    C110303   1.137   1.248  15.739  0.3975  0.1172 -0.4936
  697MPD2    C210304   1.250   1.291  15.672  0.0461 -0.2672  0.0458
  697MPD2    C310305   1.312   1.414  15.699  0.9339  0.0779  0.2412
  697MPD2    C410306   1.270   1.478  15.816 -0.3965  0.4969 -0.5562
  697MPD2    C510307   1.171   1.424  15.894 -0.0209  0.5322 -0.0171
  697MPD2     H10308   1.275   1.247  15.576 -0.1971  3.2787 -1.6399
  697MPD2    H110309   1.318   1.570  15.847 -0.9107 -0.0340  1.7971
  697MPD2    H210310   1.013   1.291  15.917 -0.3269  1.2428 -0.3874
  697MPD2    H310311   1.138   1.473  15.985 -1.6566 -1.3216  0.3914
  697MPD2     N10312   1.411   1.463  15.611 -0.3898 -0.4977  0.3499
  697MPD2    H510313   1.419   1.413  15.523  2.3649  0.0219  0.3069
  697MPD2    N110314   1.089   1.123  15.698  0.6602  0.5223  0.6041
  697MPD2    H710315   1.128   1.074  15.618  0.5689 -0.8296  1.3851
  698TMC3    C110316   1.564   1.602  15.509 -1.0797  0.4048 -0.4746
  698TMC3    C210317   1.679   1.670  15.512  0.1987 -0.0514 -0.0400
  698TMC3    C310318   1.717   1.734  15.396  0.4130 -0.5817 -0.0190
  698TMC3    C410319   1.488   1.587  15.398 -0.0303 -0.5167 -0.4501
  698TMC3    C510320   1.539   1.641  15.282 -0.2145  0.4316 -0.9321
  698TMC3    C610321   1.656   1.709  15.277 -0.1001 -0.3011 -0.3088
  698TMC3     C10322   1.494   1.574  15.634  0.3726 -0.2668  0.1952
  698TMC3     O10323   1.522   1.632  15.738 -0.0136 -0.0499  0.1593
  698TMC3     H10324   1.741   1.670  15.601  0.6850  1.3696 -0.3788
  698TMC3    H110325   1.388   1.545  15.393 -0.9099  1.6535 -1.0949
  698TMC3    H210326   1.705   1.725  15.182  0.6703  0.4901  0.2324
  698TMC3    C710327   1.504   1.562  15.171  0.4756 -0.3372  0.2435
  698TMC3    C810328   1.841   1.808  15.396  0.5150 -0.7526  0.0630
  698TMC3    O110329   1.457   1.456  15.196  0.3432 -0.2446 -0.1025
  698TMC3    O210330   1.919   1.782  15.484  0.1918 -0.3245 -0.3790
  699TMC3    C110331   1.484   4.239  12.491  0.1841 -0.3111  0.0050
  699TMC3    C210332   1.527   4.141  12.584 -0.6341  0.4604 -0.6147
  699TMC3    C310333   1.431   4.096  12.666  0.5854  0.5953  0.0114
  699TMC3    C410334   1.354   4.273  12.481  0.0008 -0.4535  0.7272
  699TMC3    C510335   1.259   4.218  12.559  0.1325  0.0664  0.4673
  699TMC3    C610336   1.300   4.128  12.661  0.3425  0.5771  0.4537
  699TMC3     C10337   1.580   4.311  12.413 -0.1075 -0.6406 -0.3871
  699TMC3     O10338   1.547   4.415  12.352 -0.2098 -0.0951 -0.2114
  699TMC3     H10339   1.630   4.108  12.587 -0.4339  1.0445 -0.9025
  699TMC3    H110340   1.328   4.339  12.399  0.7139 -0.6376  0.3517
  699TMC3    H210341   1.232   4.082  12.731  1.3227 -2.0279 -0.2957
  699TMC3    C710342   1.154   4.308  12.608 -0.5706  0.6398 -0.1974
  699TMC3    C810343   1.460   3.983  12.754  0.2167  0.1412 -0.2625
  699TMC3    O110344   1.101   4.291  12.717  0.3552  0.0006 -0.1722
  699TMC3    O210345   1.374   3.967  12.842 -0.3053  0.5229 -0.1531
  700TMC3    C110346   0.135   2.176  17.236 -0.9712 -0.4209 -0.3048
  700TMC3    C210347   0.136   2.037  17.250 -0.3404 -0.1208 -1.1271
  700TMC3    C310348   0.210   1.988  17.357  0.8112 -0.3338 -0.4961
  700TMC3    C410349   0.197   2.249  17.322  0.2783 -0.0674 -0.5878
  700TMC3    C510350   0.270   2.202  17.425 -0.7575 -0.4019 -0.2428
  700TMC3    C610351   0.287   2.069  17.436 -0.7789 -0.3416 -0.2858
  700TMC3     C10352   0.130   2.214  17.089 -0.1803  0.0155  0.1106
  700TMC3     O10353   0.033   2.172  17.025  0.1139  0.4183 -0.5580
  700TMC3     H10354   0.096   1.967  17.177 -0.8263 -0.5625 -0.4323
  700TMC3    H110355   0.194   2.354  17.297 -1.0381 -0.2628 -1.2442
  700TMC3    H210356   0.353   2.026  17.509  1.2817 -1.1971 -2.6510
  700TMC3    C710357   0.387   2.278  17.453  0.6241 -0.6391 -0.0646
  700TMC3    C810358   0.262   1.851  17.339 -0.4941 -0.0893 -0.0023
  700TMC3    O110359   0.430   2.334  17.353 -0.6883 -0.6297  0.1704
  700TMC3    O210360   0.367   1.823  17.393 -0.2691  0.1684  0.6390
  701TMC3    C110361   0.218   0.612  15.353 -0.1860 -0.2217 -0.2136
  701TMC3    C210362   0.252   0.549  15.236 -0.1075  0.2160  0.6464
  701TMC3    C310363   0.379   0.574  15.185  0.1092 -0.6661 -0.4145
  701TMC3    C410364   0.316   0.672  15.429  0.3057  0.5113  0.1581
  701TMC3    C510365   0.445   0.680  15.380  0.0926  0.8330 -0.3551
  701TMC3    C610366   0.476   0.630  15.259  0.3126  0.4447  0.2595
  701TMC3     C10367   0.080   0.586  15.410 -0.9571 -0.5352 -0.6753
  701TMC3     O10368   0.012   0.492  15.362  0.3416  0.2591  0.0487
  701TMC3     H10369   0.173   0.498  15.181 -1.3867  0.5033  2.2025
  701TMC3    H110370   0.290   0.721  15.522  0.4945 -2.5585  1.8482
  701TMC3    H210371   0.578   0.634  15.221  0.0786  0.8541 -0.3267
  701TMC3    C710372   0.534   0.774  15.429  0.5872  0.8329 -0.7184
  701TMC3    C810373   0.398   0.596  15.042 -0.0357 -0.3603 -0.1820
  701TMC3    O110374   0.617   0.825  15.357  0.4546  0.4755 -0.3129
  701TMC3    O210375   0.500   0.654  15.001  0.0729  0.2245  0.7070
  702MPD2     C10376   4.629   2.902  10.704 -0.2267  0.1580 -0.1397
  702MPD2    C110377   4.540   3.005  10.692  0.3681 -0.4226  0.6709
  702MPD2    C210378   4.564   3.109  10.601 -0.3016 -0.7007  0.4476
  702MPD2    C310379   4.679   3.119  10.525  0.3025  0.0816 -0.7507
  702MPD2    C410380   0.043   3.025  10.542  0.3206  0.2597  0.4823
  702MPD2    C510381   0.017   2.918  10.624  0.1043  0.3233 -0.0965
  702MPD2     H10382   4.488   3.186  10.605 -1.0172 -1.1928 -3.7051
  702MPD2    H110383   0.132   3.019  10.480 -1.2897 -0.6027 -1.7510
  702MPD2    H210384   4.615   2.819  10.773  0.7865  1.4509  1.6412
  702MPD2    H310385   0.083   2.833  10.623  0.9897  1.0232 -2.8158
  702MPD2     N10386   4.700   3.217  10.432 -0.4649 -0.3529  0.0711
  702MPD2    H510387   4.627   3.288  10.424 -0.8032 -0.5446  1.4227
  702MPD2    N110388   4.434   3.025  10.775  0.3035  0.4613 -0.2328
  702MPD2    H710389   4.386   3.114  10.777 -0.5592 -0.0494  2.0678
  703TMC3    C110390   0.058   3.356  10.279  1.0840  0.4403 -0.0926
  703TMC3    C210391   4.652   3.388  10.261 -0.7328 -0.6265 -0.2305
  703TMC3    C310392   4.600   3.513  10.290 -0.5659  0.2426 -0.2966
  703TMC3    C410393   0.142   3.452  10.320  0.6361  0.3952 -0.0823
  703TMC3    C510394   0.089   3.570  10.364 -0.5696  0.5522 -0.0034
  703TMC3    C610395   4.691   3.607  10.339 -0.0846 -1.1114  0.2716
  703TMC3     C10396   0.081   3.241  10.354 -0.3115  0.2968  0.4191
  703TMC3     O10397   0.187   3.177  10.340  0.1323  0.1059  0.0377
  703TMC3     H10398   4.592   3.306  10.222 -0.6156 -0.6424 -0.3773
  703TMC3    H110399   0.247   3.433  10.340  0.8537  1.9003  0.2422
  703TMC3    H210400   4.659   3.709  10.355  3.3822  0.0783 -0.3052
  703TMC3    C710401   0.188   3.655  10.431 -0.7722  0.0502 -0.1193
  703TMC3    C810402   4.454   3.538  10.308 -0.3676 -0.0466 -0.5309
  703TMC3    O110403   0.306   3.617  10.425 -0.3994 -0.0649 -0.1070
  703TMC3    O210404   4.418   3.629  10.379  0.1570 -0.1268  0.0552
  704TMC3    C110405   2.126   1.187  12.436 -0.0881  0.1137  0.4615
  704TMC3    C210406   2.259   1.222  12.417  0.1152  0.1997 -0.1878
  704TMC3    C310407   2.353   1.163  12.495  0.1568 -0.1668  0.6982
  704TMC3    C410408   2.087   1.096  12.535  0.7554  0.6819 -0.2368
  704TMC3    C510409   2.185   1.030  12.604  0.8798  0.2061 -0.3499
  704TMC3    C610410   2.318   1.071  12.590 -0.0421  0.3684 -0.4883
  704TMC3     C10411   2.011   1.259  12.371 -0.7985  0.3427 -0.1711
  704TMC3     O10412   1.909   1.279  12.430  0.3683 -0.4678 -0.1728
  704TMC3     H10413   2.269   1.282  12.327  0.8763 -0.3935 -0.5015
  704TMC3    H110414   1.982   1.070  12.537  0.1935  2.9266 -0.7901
  704TMC3    H210415   2.393   0.997  12.614 -1.8810 -1.4533 -0.3350
  704TMC3    C710416   2.170   0.892  12.643 -0.0751  0.4866  0.4607
  704TMC3    C810417   2.486   1.166  12.429  0.1646 -0.3286 -0.1777
  704TMC3    O110418   2.254   0.842  12.716 -0.0777 -0.4530  0.1605
  704TMC3    O210419   2.473   1.175  12.309  0.5159  0.4843  0.2409
  705MPD2     C10420   1.922   3.979  15.738 -0.6728 -0.6069  0.1769
  705MPD2    C110421   1.947   4.086  15.826  0.1932  0.0057 -0.2325
  705MPD2    C210422   1.862   4.111  15.929  0.6010  0.3671  0.6683
  705MPD2    C310423   1.742   4.036  15.932  0.0322  0.0704  0.1398
  705MPD2    C410424   1.716   3.940  15.840 -0.1573 -0.0815  0.3392
  705MPD2    C510425   1.808   3.905  15.742 -0.3470  0.1109  0.6816
  705MPD2     H10426   1.883   4.187  16.004  3.3568  1.8915 -1.6704
  705MPD2    H110427   1.621   3.888  15.832  0.8243 -1.6206 -1.2935
  705MPD2    H210428   1.986   3.944  15.659  1.3864 -0.4603  1.7876
  705MPD2    H310429   1.785   3.844  15.655  0.2551 -0.1777  0.7274
  705MPD2     N10430   1.633   4.066  16.022 -0.1046 -0.7395 -0.5101
  705MPD2    H510431   1.541   4.026  16.007 -0.3263  0.0352 -1.1987
  705MPD2    N110432   2.060   4.167  15.822  0.0811 -0.5724  0.2567
  705MPD2    H710433   2.079   4.228  15.901 -0.1723  1.1112 -0.9857
  706TMC3    C110434   2.451   4.349  15.644 -0.2660  0.8290 -0.2714
  706TMC3    C210435   2.462   4.437  15.744 -0.2236 -0.0738  0.5233
  706TMC3    C310436   2.374   4.435  15.849  0.1981  0.1428 -0.4668
  706TMC3    C410437   2.344   4.271  15.634  0.1405  0.7556 -0.1815
  706TMC3    C510438   2.254   4.270  15.728 -0.6672  1.0783 -0.0324
  706TMC3    C610439   2.265   4.349  15.840 -0.2904  0.3165 -0.2471
  706TMC3     C10440   2.585   4.313  15.579  0.4351 -0.1713  1.1214
  706TMC3     O10441   2.685   4.358  15.633 -0.1441 -0.3312 -0.3177
  706TMC3     H10442   2.546   4.507  15.743 -1.1013  1.0020  2.3179
  706TMC3    H110443   2.334   4.204  15.550  0.5609  0.8738 -0.3233
  706TMC3    H210444   2.176   4.364  15.900  0.7568 -0.8404  1.5927
  706TMC3    C710445   2.138   4.178  15.708  0.7552 -0.5483  0.3749
  706TMC3    C810446   2.369   4.542  15.943  0.4977 -0.0079 -0.1158
  706TMC3    O110447   2.120   4.138  15.592 -0.0479  0.0564  0.4460
  706TMC3    O210448   2.437   4.638  15.909  0.1582 -0.7691  0.1059
  707TMC3    C110449   3.873   3.785   1.050  0.6140  0.4670  0.3017
  707TMC3    C210450   3.849   3.718   1.162  0.2149  0.2074 -0.7218
  707TMC3    C310451   3.788   3.781   1.267 -0.3729  0.0109 -0.1848
  707TMC3    C410452   3.828   3.910   1.029  0.2182  0.0342  0.0973
  707TMC3    C510453   3.765   3.975   1.139  0.7937 -0.3346  0.3292
  707TMC3    C610454   3.752   3.909   1.256  0.7183  0.0155  0.3507
  707TMC3     C10455   4.010   3.757   1.004 -0.0698 -0.3361  0.3756
  707TMC3     O10456   4.077   3.680   1.074 -0.0312  0.1033  0.3323
  707TMC3     H10457   3.874   3.612   1.165  1.6843  0.5370 -1.4866
  707TMC3    H110458   3.849   3.967   0.939 -2.4381 -1.3464 -1.3831
  707TMC3    H210459   3.727   3.967   1.344  2.5438 -1.3126  1.7503
  707TMC3    C710460   3.669   4.076   1.115  0.1198  0.2779  0.8012
  707TMC3    C810461   3.825   3.747   1.404 -0.0311  0.5370  0.0398
  707TMC3    O110462   3.690   4.163   1.026  0.1898 -0.1819 -0.5032
  707TMC3    O210463   3.791   3.817   1.500 -0.0764  0.3987  0.0538
  708MPD2     C10464   0.617   2.016  14.327  0.6683 -0.2146 -0.1949
  708MPD2    C110465   0.633   2.138  14.272 -0.3754  0.6567  0.0539
  708MPD2    C210466   0.652   2.243  14.359 -0.1791  0.4150 -0.3348
  708MPD2    C310467   0.652   2.233  14.496 -0.9072  0.4171  0.9993
  708MPD2    C410468   0.627   2.113  14.546 -0.8328  0.0314  0.0873
  708MPD2    C510469   0.605   1.999  14.466 -0.6445 -0.4037 -0.1818
  708MPD2     H10470   0.670   2.342  14.319  0.5007 -0.2498 -1.6832
  708MPD2    H110471   0.610   2.090  14.651 -0.3902  0.6202  0.2886
  708MPD2    H210472   0.611   1.926  14.268  0.4317  0.3853 -1.0792
  708MPD2    H310473   0.581   1.906  14.517  1.7869 -0.4554  0.8477
  708MPD2     N10474   0.661   2.348  14.577  0.1753 -0.3001 -0.3877
  708MPD2    H510475   0.682   2.439  14.539  1.8524 -0.9764 -1.0441
  708MPD2    N110476   0.635   2.155  14.129  0.5848  0.1977 -0.1310
  708MPD2    H710477   0.623   2.072  14.071 -0.6659 -0.1110  0.5724
  709TMC3    C110478   0.586   2.255  13.922  0.0243  1.1267  0.2049
  709TMC3    C210479   0.602   2.365  13.844  0.2662 -0.2077 -0.1933
  709TMC3    C310480   0.496   2.423  13.782  0.0768 -0.1271  0.0203
  709TMC3    C410481   0.462   2.203  13.933 -0.0927  0.0489  0.3334
  709TMC3    C510482   0.357   2.267  13.882 -0.1838  0.1949  0.4457
  709TMC3    C610483   0.367   2.374  13.798  0.0673 -0.2177 -0.4696
  709TMC3     C10484   0.635   2.274  14.058  0.2344  0.9688 -0.5362
  709TMC3     O10485   0.638   2.384  14.104 -0.4882 -0.3081 -0.2194
  709TMC3     H10486   0.696   2.418  13.855 -0.8064  1.4918  0.6245
  709TMC3    H110487   0.448   2.123  14.004 -1.2604 -0.2213 -0.1987
  709TMC3    H210488   0.280   2.435  13.776  0.9639  2.1124  2.4069
  709TMC3    C710489   0.236   2.275  13.965  0.0751 -0.3618 -0.7439
  709TMC3    C810490   0.511   2.562  13.775  0.4527 -0.4951  0.9331
  709TMC3    O110491   0.131   2.296  13.912  0.2800 -0.4141 -0.1590
  709TMC3    O210492   0.599   2.619  13.836 -0.0248  0.0673 -0.0627
  710TMC3    C110493   1.657   4.059   0.185  0.0753 -0.1121 -0.0377
  710TMC3    C210494   1.721   4.081   0.065  0.3643 -0.4721 -0.2046
  710TMC3    C310495   1.856   4.054   0.046  0.6727  0.3260  0.3640
  710TMC3    C410496   1.731   3.996   0.286  0.0861 -0.0278  0.5380
  710TMC3    C510497   1.862   3.961   0.263  0.6668  0.5423 -0.0357
  710TMC3    C610498   1.928   3.985   0.144  0.2117  0.0041  0.0522
  710TMC3     C10499   1.514   4.085   0.194  0.0546  0.4053 -0.2126
  710TMC3     O10500   1.449   4.069   0.092  0.2662 -0.3080  0.0557
  710TMC3     H10501   1.669   4.134  17.695 -1.6071 -0.7010  0.9183
  710TMC3    H110502   1.675   3.964   0.373 -0.4811 -0.3834  0.0405
  710TMC3    H210503   2.032   3.954   0.133 -0.4974 -1.1354 -3.1134
  710TMC3    C710504   1.928   3.884   0.358  0.0549 -0.6986  0.1911
  710TMC3    C810505   1.920   4.059  17.628 -0.7209 -0.6046  0.2081
  710TMC3    O110506   1.895   3.908   0.470  0.1991  0.0336 -0.0530
  710TMC3    O210507   2.008   3.976  17.612  0.0875  0.1672  0.0345
  711TMC3    C110508   1.031   0.391  15.216  0.3189  0.3912  0.2224
  711TMC3    C210509   1.047   0.407  15.350  0.0614  0.9738 -0.8068
  711TMC3    C310510   1.164   0.391  15.407 -0.0171 -0.5173  0.5197
  711TMC3    C410511   1.133   0.335  15.140  0.7643 -0.2927  0.0673
  711TMC3    C510512   1.248   0.305  15.200  0.0581  0.2433 -0.4322
  711TMC3    C610513   1.272   0.336  15.334 -0.3370 -0.1309 -1.1050
  711TMC3     C10514   0.893   0.366  15.172 -0.7281 -0.0929  0.3322
  711TMC3     O10515   0.883   0.352  15.050 -0.0427 -0.4463  0.0153
  711TMC3     H10516   0.968   0.452  15.409  1.6323  0.8938  1.3448
  711TMC3    H110517   1.128   0.314  15.034 -0.8156  3.6945 -0.6650
  711TMC3    H210518   1.365   0.307  15.382 -0.7389 -1.7438 -1.3012
  711TMC3    C710519   1.328   0.185  15.156  0.0647 -0.4219 -0.3309
  711TMC3    C810520   1.184   0.453  15.532 -0.6232 -0.3080  0.7016
  711TMC3    O110521   1.437   0.165  15.202  0.1756 -0.0731  0.4103
  711TMC3    O210522   1.091   0.446  15.612 -0.2347 -0.3289 -0.1989
  712MPD2     C10523   2.289   0.858  13.619 -0.3407 -0.3167  0.0137
  712MPD2    C110524   2.242   0.946  13.521  0.2590 -0.4347 -0.1678
  712MPD2    C210525   2.268   1.081  13.538 -0.3028 -0.3682 -0.5593
  712MPD2    C310526   2.324   1.137  13.653  0.4835 -0.1993 -0.9338
  712MPD2    C410527   2.351   1.049  13.756 -0.5945 -0.0633  0.5016
  712MPD2    C510528   2.341   0.911  13.735  0.7666 -0.0703  0.1655
  712MPD2     H10529   2.249   1.136  13.447 -1.9839  0.5532  0.3299
  712MPD2    H110530   2.404   1.084  13.844 -0.9190 -2.1685  1.5484
  712MPD2    H210531   2.266   0.752  13.621 -0.4327 -0.3642 -3.2802
  712MPD2    H310532   2.357   0.845  13.819 -0.1684  1.1335  1.2868
  712MPD2     N10533   2.357   1.276  13.666  0.3938  0.3473 -0.3082
  712MPD2    H510534   2.403   1.305  13.751  0.1168  0.0176 -0.0487
  712MPD2    N110535   2.194   0.903  13.393 -0.1775 -0.0797 -0.6394
  712MPD2    H710536   2.156   0.969  13.325 -0.2292 -1.0603 -1.5591
  713TMC3    C110537   2.388   1.505  13.596 -0.1929  0.0876 -0.1497
  713TMC3    C210538   2.516   1.506  13.632  0.2878 -0.9176 -0.2327
  713TMC3    C310539   2.597   1.616  13.604  0.5387 -0.1956  0.3258
  713TMC3    C410540   2.328   1.615  13.530 -0.5068  0.4582 -0.1520
  713TMC3    C510541   2.415   1.716  13.502 -0.6187  0.5095  0.5017
  713TMC3    C610542   2.546   1.726  13.538  1.2711  0.0058 -0.0544
  713TMC3     C10543   2.310   1.378  13.579  0.0604 -0.3815  0.7066
  713TMC3     O10544   2.218   1.368  13.496 -0.4183  0.5224  0.5763
  713TMC3     H10545   2.552   1.424  13.694 -0.7930 -2.4139 -1.5880
  713TMC3    H110546   2.227   1.609  13.492 -0.3702 -1.2681 -0.2443
  713TMC3    H210547   2.619   1.796  13.497  1.1140 -1.3868 -2.6831
  713TMC3    C710548   2.358   1.827  13.417  0.9581  0.2285 -0.7576
  713TMC3    C810549   2.737   1.601  13.590 -0.4481  0.0057  0.0277
  713TMC3    O110550   2.435   1.851  13.323  0.1376 -0.1599  0.0827
  713TMC3    O210551   2.781   1.635  13.482 -0.0299 -1.0452  1.0765
  714MPD2     C10552   0.153   4.475   1.374 -0.8088 -0.1290  0.2701
  714MPD2    C110553   0.227   4.499   1.258  0.0152 -0.2881  0.4233
  714MPD2    C210554   0.154   4.511   1.142 -0.6095 -0.1411 -0.4332
  714MPD2    C310555   0.010   4.512   1.143 -0.1936  0.1338  0.1353
  714MPD2    C410556   4.666   4.503   1.265  0.1324  0.0663 -0.2525
  714MPD2    C510557   0.020   4.493   1.376 -0.1853 -0.8404  0.3154
  714MPD2     H10558   0.196   4.516   1.042  2.0032 -1.6128  0.6110
  714MPD2    H110559   4.560   4.504   1.283 -0.1462  1.7208 -1.9797
  714MPD2    H210560   0.203   4.463   1.469  0.4181  0.2808 -0.3275
  714MPD2    H310561   4.708   4.493   1.477  0.9902 -0.9320  0.7777
  714MPD2     N10562   4.672   4.522   1.017 -0.2885 -0.1727 -0.5462
  714MPD2    H510563   0.007   4.528   0.938 -1.2266 -1.2482 -1.3581
  714MPD2    N110564   0.369   4.516   1.268 -0.1507  0.0443  0.4718
  714MPD2    H710565   0.401   4.525   1.364 -0.1192  0.0222  0.4636
  715TMC3    C110566   0.590   4.529   1.200  0.6329 -0.1645 -0.4911
  715TMC3    C210567   0.688   4.476   1.119  0.1612  0.3193 -0.2021
  715TMC3    C310568   0.820   4.490   1.152  0.0628 -0.3782 -0.2722
  715TMC3    C410569   0.630   4.612   1.304 -0.2980 -1.1011 -0.2009
  715TMC3    C510570   0.765   4.629   1.321  0.0324  0.5222  0.4424
  715TMC3    C610571   0.865   4.568   1.254  0.5218 -0.0274 -0.5671
  715TMC3     C10572   0.448   4.499   1.158 -0.0722  0.2150  0.4255
  715TMC3     O10573   0.422   4.458   1.043  0.7716 -0.9008  0.3982
  715TMC3     H10574   0.670   4.431   1.022  2.0028  0.5685 -0.6714
  715TMC3    H110575   0.557   4.678   1.350  0.8621  1.1052 -1.5631
  715TMC3    H210576   0.970   4.577   1.282 -0.2355  1.9161  1.6626
  715TMC3    C710577   0.814   0.026   1.383 -0.1710  0.5411 -0.3011
  715TMC3    C810578   0.911   4.424   1.065  0.5632 -0.5550  0.1120
  715TMC3    O110579   0.914   0.087   1.347  0.6276  0.5991  0.7790
  715TMC3    O210580   0.860   4.343   0.987 -0.0855  0.0303 -0.5729
  716MPD2     C10581   4.218   2.745  10.333 -0.6795 -0.2560 -0.6191
  716MPD2    C110582   4.206   2.750  10.198 -0.1534 -0.5076 -0.2207
  716MPD2    C210583   4.315   2.704  10.126 -0.3221  0.8189 -0.4950
  716MPD2    C310584   4.432   2.668  10.184  0.1350  0.3267 -0.2463
  716MPD2    C410585   4.439   2.675  10.324 -0.0003  0.5440  0.3198
  716MPD2    C510586   4.331   2.709  10.397  0.4182  0.4197  0.0829
  716MPD2     H10587   4.307   2.703  10.018 -0.1275  0.5160 -0.5055
  716MPD2    H110588   4.522   2.638  10.383 -1.4275 -0.6226  1.5935
  716MPD2    H210589   4.136   2.766  10.400  0.3872 -3.9862  1.8672
  716MPD2    H310590   4.330   2.693  10.505 -1.2436 -1.4267 -0.2223
  716MPD2     N10591   4.534   2.629  10.098 -0.0977  0.1796  0.3700
  716MPD2    H510592   4.508   2.627   9.999  0.8790  1.0111  0.0950
  716MPD2    N110593   4.084   2.799  10.147  0.4849 -0.6190 -0.0911
  716MPD2    H710594   4.015   2.813  10.220  0.9304  1.5676 -0.0682
  717TMC3    C110595   0.009   2.544  10.018 -0.3623  0.7253 -0.0896
  717TMC3    C210596   4.697   2.565   9.888  0.1238 -0.6509  0.2550
  717TMC3    C310597   0.011   2.480   9.790 -0.0965 -0.8258  0.5251
  717TMC3    C410598   0.093   2.446  10.058 -0.3950  0.1517  0.0565
  717TMC3    C510599   0.136   2.367   9.950 -0.4065  0.1664 -0.3990
  717TMC3    C610600   0.098   2.379   9.816  0.1326 -0.1108  0.0806
  717TMC3     C10601   4.659   2.593  10.133 -0.5593  0.3572  0.1178
  717TMC3     O10602   4.719   2.588  10.241 -1.0995 -0.1713 -0.0202
  717TMC3     H10603   4.640   2.655   9.866  3.6677  1.0659 -1.9532
  717TMC3    H110604   0.123   2.429  10.161  0.4116 -0.7051 -0.3164
  717TMC3    H210605   0.124   2.314   9.734  0.2056  1.5624 -1.2191
  717TMC3    C710606   0.223   2.258   9.984  0.1356 -0.0946 -0.5378
  717TMC3    C810607   4.669   2.497   9.662 -0.7304  0.2993  0.1635
  717TMC3    O110608   0.258   2.252  10.103 -0.0457 -0.1105 -1.0231
  717TMC3    O210609   4.609   2.604   9.650 -0.5675 -0.2016 -0.1965
  718MPD2     C10610   4.108   1.898  13.242  0.4152 -0.1000 -0.1623
  718MPD2    C110611   4.092   1.879  13.109  0.0970  0.7920  0.4403
  718MPD2    C210612   4.044   1.753  13.070 -0.1460  0.5682  0.1552
  718MPD2    C310613   4.009   1.656  13.159  0.0495  0.4781 -0.0023
  718MPD2    C410614   4.039   1.673  13.293  0.2588  0.8803  0.2533
  718MPD2    C510615   4.088   1.797  13.333 -0.0880 -0.5997  0.3885
  718MPD2     H10616   4.048   1.722  12.966 -1.7711  1.2441 -0.1174
  718MPD2    H110617   4.028   1.592  13.365  0.1110 -0.6496 -1.4901
  718MPD2    H210618   4.151   1.993  13.274 -1.8390  0.6463  0.6724
  718MPD2    H310619   4.130   1.811  13.432  0.7367  0.0180 -0.0547
  718MPD2     N10620   3.954   1.538  13.109 -0.0311 -0.2077 -0.1206
  718MPD2    H510621   3.970   1.528  13.010  1.9469 -0.8861  0.2545
  718MPD2    N110622   4.130   1.980  13.016  0.5232 -0.0523  0.9587
  718MPD2    H710623   4.161   2.068  13.057  0.9318  0.7454 -1.1023
  719TMC3    C110624   4.107   2.092  12.804  0.5389 -0.3041  0.4573
  719TMC3    C210625   4.029   2.074  12.693  0.5020 -0.1211 -0.0426
  719TMC3    C310626   4.084   2.101  12.574  0.6209  0.3184  0.1830
  719TMC3    C410627   4.227   2.154  12.799 -0.5999  0.3623 -0.8340
  719TMC3    C510628   4.273   2.188  12.673  0.3700 -0.1515 -0.1581
  719TMC3    C610629   4.214   2.141  12.553  0.5999  0.3369  0.6644
  719TMC3     C10630   4.107   1.964  12.877 -0.2811  0.1336  0.2070
  719TMC3     O10631   4.060   1.875  12.808  0.6080 -0.3124  0.1541
  719TMC3     H10632   3.929   2.036  12.707  1.1065 -0.7043  2.7136
  719TMC3    H110633   4.288   2.162  12.888  0.6648 -2.2970 -1.4600
  719TMC3    H210634   4.255   2.175  12.459 -0.0511  1.4080  0.7671
  719TMC3    C710635   4.403   2.253  12.657  0.4822  0.5957 -0.7727
  719TMC3    C810636   4.042   2.004  12.479 -0.1630 -0.6031  0.4740
  719TMC3    O110637   4.451   2.235  12.548  0.3639  0.1761  0.1138
  719TMC3    O210638   4.069   2.025  12.361  0.1890  0.6650  0.1218
  720MPD2     C10639   2.551   3.101  13.732  0.9061 -0.1285 -0.1073
  720MPD2    C110640   2.598   3.218  13.683  0.0784 -0.2830 -0.0935
  720MPD2    C210641   2.728   3.258  13.700 -0.7113 -0.6247 -0.7025
  720MPD2    C310642   2.810   3.191  13.789 -0.0415 -0.0864  0.0283
  720MPD2    C410643   2.759   3.078  13.846  0.1672  0.8873  0.6624
  720MPD2    C510644   2.633   3.031  13.821  0.7760 -0.0544 -0.0597
  720MPD2     H10645   2.775   3.336  13.642 -0.2374 -0.0307  0.4970
  720MPD2    H110646   2.815   3.017  13.916 -0.8110 -0.6482  0.1035
  720MPD2    H210647   2.461   3.060  13.688  1.7581  1.0264 -2.9370
  720MPD2    H310648   2.614   2.932  13.862  0.2065  0.8062  1.7611
  720MPD2     N10649   2.950   3.220  13.803 -0.6179 -0.2163 -0.7530
  720MPD2    H510650   2.991   3.276  13.728  0.1117  1.7598  1.1082
  720MPD2    N110651   2.527   3.290  13.578 -0.2625  0.1929 -0.5614
  720MPD2    H710652   2.574   3.372  13.542 -2.4040  1.1518 -1.1485
  721TMC3    C110653   3.158   3.216  13.889 -0.0685  0.2288  0.7611
  721TMC3    C210654   3.226   3.252  14.010 -0.2578  0.6681  0.6638
  721TMC3    C310655   3.359   3.276  13.994  0.4951  0.2155  0.1463
  721TMC3    C410656   3.228   3.203  13.772 -0.3533  0.1929 -0.4127
  721TMC3    C510657   3.360   3.235  13.761  0.8491 -0.1060 -0.5347
  721TMC3    C610658   3.428   3.283  13.869  0.0939 -0.4038 -0.1824
  721TMC3     C10659   3.023   3.171  13.906 -0.3317  0.5024 -0.1320
  721TMC3     O10660   2.984   3.132  14.019  0.3013 -0.4824  0.1027
  721TMC3     H10661   3.175   3.257  14.106  1.5063 -2.4183  1.7523
  721TMC3    H110662   3.173   3.172  13.684 -0.1063 -0.9346 -0.1599
  721TMC3    H210663   3.536   3.284  13.870  0.0775  1.1430  0.4799
  721TMC3    C710664   3.430   3.139  13.687 -0.3782  0.2346 -0.4676
  721TMC3    C810665   3.447   3.238  14.113 -0.6441  0.6956  0.3050
  721TMC3    O110666   3.385   3.028  13.709  0.4429 -0.7107 -0.1992
  721TMC3    O210667   3.569   3.260  14.115  0.3062  0.6516 -0.3018
  722MPD2     C10668   1.153   1.637  13.346  0.0960  0.2089 -0.4126
  722MPD2    C110669   1.119   1.773  13.347  0.2269 -0.3485 -0.9095
  722MPD2    C210670   0.991   1.802  13.315  0.2337  0.1750  0.0971
  722MPD2    C310671   0.894   1.711  13.282 -0.1665  1.1765  0.4242
  722MPD2    C410672   0.926   1.582  13.280 -0.1815  0.9901 -0.9382
  722MPD2    C510673   1.057   1.544  13.307 -0.3564  0.4464 -0.2589
  722MPD2     H10674   0.968   1.906  13.297  0.4498  0.1372 -0.3995
  722MPD2    H110675   0.853   1.507  13.252 -0.9773  0.1528  3.3971
  722MPD2    H210676   1.251   1.594  13.357 -0.1092  0.5872  2.8146
  722MPD2    H310677   1.093   1.442  13.295  1.6748  1.1830 -0.4024
  722MPD2     N10678   0.768   1.729  13.223 -0.2891 -0.1087 -0.3810
  722MPD2    H510679   0.711   1.646  13.206 -3.1086  2.2274 -2.2035
  722MPD2    N110680   1.209   1.879  13.376  0.6756  0.1840 -0.4303
  722MPD2    H710681   1.157   1.962  13.402 -0.1592 -0.3624 -0.3286
  723TMC3    C110682   0.597   1.845  13.102 -0.6758 -0.2068 -0.1281
  723TMC3    C210683   0.577   1.736  13.021 -0.3797 -0.1598  0.1489
  723TMC3    C310684   0.494   1.746  12.909 -0.1074  0.2151 -0.5172
  723TMC3    C410685   0.537   1.966  13.074  0.0063  0.3198 -0.1301
  723TMC3    C510686   0.442   1.967  12.967  0.6671  0.0198  0.5452
  723TMC3    C610687   0.427   1.860  12.886 -0.3244 -0.5520  0.2369
  723TMC3     C10688   0.725   1.852  13.175 -0.0584  0.2666 -0.1320
  723TMC3     O10689   0.779   1.963  13.183  0.0999 -0.1312  0.2576
  723TMC3     H10690   0.633   1.645  13.040  0.5263  0.5794  1.0837
  723TMC3    H110691   0.557   2.055  13.132  0.0985 -0.4713  1.0316
  723TMC3    H210692   0.366   1.874  12.798 -0.0007  0.9077  0.2413
  723TMC3    C710693   0.393   2.097  12.909  0.4284 -0.1753 -0.1446
  723TMC3    C810694   0.537   1.681  12.785 -0.3914 -0.0255 -0.5547
  723TMC3    O110695   0.306   2.101  12.822 -0.1506  0.0522 -0.2833
  723TMC3    O210696   0.504   1.724  12.681 -0.2439 -0.1190 -0.3138
  724TMC3    C110697   1.630   4.553  10.319 -0.2927  0.3808  0.3957
  724TMC3    C210698   1.523   4.539  10.230  0.3644 -0.1398 -0.8140
  724TMC3    C310699   1.521   4.631  10.120 -1.0730  0.6710 -0.2720
  724TMC3    C410700   1.730   4.640  10.292 -0.2341  1.2222 -0.2095
  724TMC3    C510701   1.732   4.717  10.179 -0.1493  0.0744 -0.1114
  724TMC3    C610702   1.625   4.714  10.092 -0.3337  0.1326  0.6613
  724TMC3     C10703   1.664   4.438  10.404 -0.2550 -0.6431 -0.5469
  724TMC3     O10704   1.750   4.458  10.482  0.3911 -0.2297 -0.0011
  724TMC3     H10705   1.433   4.491  10.268  0.5491 -1.0458 -1.5224
  724TMC3    H110706   1.821   4.631  10.350  0.3230  0.6259 -1.1579
  724TMC3    H210707   1.627   0.042   9.998 -1.8187 -2.7596 -1.0749
  724TMC3    C710708   1.846   0.068  10.127  0.3496  0.7193 -0.9161
  724TMC3    C810709   1.418   4.608  10.020  0.2227  0.0074 -0.5151
  724TMC3    O110710   1.856   0.107  10.011 -0.1443  0.4464  1.0667
  724TMC3    O210711   1.342   4.516  10.052 -0.0098 -0.0542 -0.8646
  725TMC3    C110712   3.071   3.581  12.395  0.5017  0.3431 -0.4162
  725TMC3    C210713   3.023   3.598  12.273 -0.3384 -0.4041  0.2260
  725TMC3    C310714   2.914   3.520  12.240 -0.6374 -0.4243  0.1285
  725TMC3    C410715   3.009   3.501  12.486  0.3045 -0.1279  0.1597
  725TMC3    C510716   2.900   3.424  12.450  0.3009 -0.5761 -0.5863
  725TMC3    C610717   2.844   3.436  12.330 -0.5049  0.3182  0.0455
  725TMC3     C10718   3.129   3.699  12.451 -0.4004 -0.1460  0.2524
  725TMC3     O10719   3.187   3.773  12.374  0.3368 -0.2359  0.1042
  725TMC3     H10720   3.075   3.666  12.207 -0.6619 -0.3279  0.0510
  725TMC3    H110721   3.049   3.478  12.585 -0.4670  0.2012  0.5493
  725TMC3    H210722   2.761   3.370  12.308  0.1224 -0.2862 -0.5218
  725TMC3    C710723   2.834   3.330  12.543  0.4912  0.4876 -0.2197
  725TMC3    C810724   2.886   3.505  12.097  0.2417 -0.1773  1.0632
  725TMC3    O110725   2.716   3.305  12.519  0.3448 -0.7055 -0.0190
  725TMC3    O210726   2.806   3.418  12.068 -1.0021 -0.1750 -0.0005
  726MPD2     C10727   1.291   0.634  10.181 -0.0908 -0.5128  0.0360
  726MPD2    C110728   1.167   0.690  10.156 -0.5009 -0.0825  0.1598
  726MPD2    C210729   1.051   0.640  10.215 -0.4421  0.4477  0.3324
  726MPD2    C310730   1.058   0.537  10.311  0.4824 -0.1015 -0.6481
  726MPD2    C410731   1.187   0.497  10.351  0.0292 -1.0512  0.8826
  726MPD2    C510732   1.300   0.544  10.282  0.1254  0.1835  0.4437
  726MPD2     H10733   0.956   0.682  10.185  0.0845 -0.1127 -2.0563
  726MPD2    H110734   1.215   0.433  10.434  0.1924 -0.5402  1.2180
  726MPD2    H210735   1.377   0.668  10.124  1.3369 -4.9861 -0.4698
  726MPD2    H310736   1.395   0.499  10.311 -0.5708 -1.8412 -0.4316
  726MPD2     N10737   0.938   0.471  10.363 -0.2057  0.2870 -0.0123
  726MPD2    H510738   0.852   0.509  10.323  0.8484  1.4445 -1.1777
  726MPD2    N110739   1.143   0.795  10.070 -0.0966 -0.2213 -0.7153
  726MPD2    H710740   1.043   0.798  10.050 -0.1864 -1.8987 -0.4622
  727TMC3    C110741   1.163   0.985   9.951  0.3931 -0.1143  0.1909
  727TMC3    C210742   1.210   1.108   9.994  0.8050 -0.4967  0.3409
  727TMC3    C310743   1.112   1.202  10.024  0.2610  0.3882  0.7457
  727TMC3    C410744   1.031   0.958   9.927  0.0187  0.2139  0.5129
  727TMC3    C510745   0.940   1.053   9.953 -0.1631  0.3811  0.3631
  727TMC3    C610746   0.978   1.175  10.011 -0.5322  0.1586  0.0011
  727TMC3     C10747   1.233   0.874  10.007 -0.4060 -0.4405  0.2846
  727TMC3     O10748   1.354   0.883  10.021 -0.3621 -0.1425 -0.0176
  727TMC3     H10749   1.316   1.126  10.003  0.9561 -1.5848  0.7246
  727TMC3    H110750   1.010   0.860   9.885  4.3283  0.9932 -3.3904
  727TMC3    H210751   0.908   1.240  10.061  0.7467  1.2656  0.3627
  727TMC3    C710752   0.820   1.044   9.876 -0.2292 -0.3413  0.1460
  727TMC3    C810753   1.154   1.310  10.120 -0.4018  0.3375 -0.0989
  727TMC3    O110754   0.757   1.150   9.873 -0.3431  0.0528 -0.3780
  727TMC3    O210755   1.069   1.376  10.175  0.4686  0.5232 -0.6839
  728TMC3    C110756   0.400   3.705  15.202 -0.4004 -0.5904 -0.4891
  728TMC3    C210757   0.472   3.641  15.288 -0.1981 -0.2089  0.4669
  728TMC3    C310758   0.607   3.647  15.278  0.1297  1.7410  0.1132
  728TMC3    C410759   0.451   3.791  15.103 -0.7095  0.2304 -0.3598
  728TMC3    C510760   0.586   3.774  15.086  0.0495  0.2196 -0.7265
  728TMC3    C610761   0.667   3.719  15.180  0.3628 -0.4423  0.0324
  728TMC3     C10762   0.257   3.706  15.213  0.2515 -0.4462  0.2148
  728TMC3     O10763   0.213   3.809  15.165 -0.7111  0.3036  0.0011
  728TMC3     H10764   0.436   3.587  15.375  1.4887 -0.5224  0.9708
  728TMC3    H110765   0.388   3.840  15.030  1.6223  1.3103 -1.6406
  728TMC3    H210766   0.769   3.711  15.145  0.2423  1.5576 -0.7925
  728TMC3    C710767   0.656   3.851  14.980 -0.0289 -0.1898  0.7585
  728TMC3    C810768   0.688   3.589  15.386  0.1662  0.0398 -0.2303
  728TMC3    O110769   0.750   3.798  14.924 -0.2564 -0.1588 -0.0960
  728TMC3    O210770   0.643   3.494  15.451 -0.5279  0.3697  0.2810
  729MPD2     C10771   2.326   0.196  16.597  0.6044  0.1526 -0.8118
  729MPD2    C110772   2.442   0.138  16.650  0.1794  0.1350 -0.3193
  729MPD2    C210773   2.452   0.121  16.788 -0.3600 -0.2036 -0.0429
  729MPD2    C310774   2.342   0.162  16.867  0.1839 -0.3198 -0.1280
  729MPD2    C410775   2.235   0.230  16.812 -0.3016 -0.9079 -0.6425
  729MPD2    C510776   2.225   0.248  16.674  0.1401  0.1610 -0.4111
  729MPD2     H10777   2.537   0.078  16.840 -0.1518 -0.3993 -0.5408
  729MPD2    H110778   2.154   0.262  16.877 -1.3531 -2.7311 -1.0541
  729MPD2    H210779   2.319   0.207  16.490  2.5159 -2.7558 -1.2279
  729MPD2    H310780   2.135   0.295  16.636 -1.9823 -2.7299  0.9915
  729MPD2     N10781   2.338   0.161  17.011  0.3147  0.5602 -0.3702
  729MPD2    H510782   2.250   0.192  17.051  0.1261  0.0426 -0.3808
  729MPD2    N110783   2.550   0.120  16.560  0.0472 -0.7571 -0.1304
  729MPD2    H710784   2.545   0.158  16.466 -2.4300  0.9220  0.6653
  730TMC3    C110785   2.410   0.138  17.231  0.1614 -0.2361 -0.3482
  730TMC3    C210786   2.509   0.093  17.310  0.4321  0.0354 -0.0481
  730TMC3    C310787   2.582   0.176  17.387  0.5754  0.5902 -0.0842
  730TMC3    C410788   2.370   0.270  17.244  0.7724 -1.1126 -0.0438
  730TMC3    C510789   2.437   0.345  17.330 -0.3791 -0.5222 -0.2459
  730TMC3    C610790   2.538   0.303  17.412  0.7413  0.6251 -0.1926
  730TMC3     C10791   2.434   0.115  17.098 -0.3554 -0.1330 -0.3054
  730TMC3     O10792   2.543   0.062  17.072  0.3584  0.5526 -0.2690
  730TMC3     H10793   2.538   4.715  17.302 -0.8325 -0.4024  1.0690
  730TMC3    H110794   2.292   0.319  17.188  1.6211  0.8689  0.5349
  730TMC3    H210795   2.605   0.372  17.462 -0.3917 -0.0847  2.2596
  730TMC3    C710796   2.438   0.481  17.299 -0.1107 -0.0293  0.0141
  730TMC3    C810797   2.671   0.120  17.483  0.2592  0.3351 -0.7139
  730TMC3    O110798   2.427   0.513  17.181 -0.7378 -0.1785 -0.3148
  730TMC3    O210799   2.633   0.019  17.542 -0.0991 -0.5018  0.4541
  731MPD2     C10800   2.879   2.846  12.586 -0.0381  0.0908  0.3055
  731MPD2    C110801   2.789   2.913  12.491 -0.2279 -0.0445 -0.1916
  731MPD2    C210802   2.653   2.932  12.517  0.5879 -0.2114  0.4776
  731MPD2    C310803   2.607   2.869  12.632  0.2059 -0.9633 -0.2570
  731MPD2    C410804   2.694   2.798  12.719  0.0608 -0.5880 -0.4943
  731MPD2    C510805   2.829   2.789  12.697 -0.5098  0.2091 -0.0693
  731MPD2     H10806   2.591   2.985  12.446  0.4276 -0.4778  0.4188
  731MPD2    H110807   2.660   2.754  12.812  1.3676 -1.2231 -0.3220
  731MPD2    H210808   2.985   2.833  12.569  0.0036  1.0554 -0.1770
  731MPD2    H310809   2.896   2.739  12.766 -0.7347 -0.0669 -0.0497
  731MPD2     N10810   2.467   2.870  12.665 -0.4552 -0.0909 -0.1772
  731MPD2    H510811   2.448   2.804  12.740  3.9882 -0.1414  0.9474
  731MPD2    N110812   2.861   2.986  12.391 -0.4314 -0.4360  0.0733
  731MPD2    H710813   2.962   2.972  12.391 -0.0064  2.6743 -1.3299
  732TMC3    C110814   2.905   3.106  12.188 -0.0716  0.8109 -0.3193
  732TMC3    C210815   2.863   3.098  12.060 -0.1818  0.2195 -0.0177
  732TMC3    C310816   2.955   3.133  11.959 -0.4256 -0.4987  1.0301
  732TMC3    C410817   3.031   3.136  12.227 -0.0977  0.4194 -0.1853
  732TMC3    C510818   3.127   3.148  12.126  0.1434  0.3162 -0.0040
  732TMC3    C610819   3.088   3.160  11.994  0.1523 -0.3561  0.0423
  732TMC3     C10820   2.807   3.056  12.284 -1.3063  0.3095 -0.4663
  732TMC3     O10821   2.691   3.073  12.257 -0.0624  0.1175  0.3364
  732TMC3     H10822   2.764   3.058  12.042 -0.6004  1.3320 -0.1587
  732TMC3    H110823   3.055   3.118  12.332  0.2721  2.3240  0.0553
  732TMC3    H210824   3.159   3.186  11.917 -2.4614  0.9784 -1.9419
  732TMC3    C710825   3.262   3.120  12.156 -0.0242  0.6169 -0.3365
  732TMC3    C810826   2.923   3.121  11.822  0.5636  0.4157  0.0872
  732TMC3    O110827   3.333   3.090  12.059  0.2834  0.7473  0.1324
  732TMC3    O210828   3.010   3.106  11.738 -0.0524 -0.1432  0.6607
  733TMC3    C110829   3.617   1.370  12.963 -0.0453 -0.6136  0.4034
  733TMC3    C210830   3.680   1.368  13.082 -0.6260  0.2761  0.2070
  733TMC3    C310831   3.815   1.350  13.091  0.5829 -0.7236 -0.1098
  733TMC3    C410832   3.689   1.354  12.849 -0.1800 -0.6782 -0.3081
  733TMC3    C510833   3.821   1.347  12.852 -0.3544  0.1230 -0.0612
  733TMC3    C610834   3.886   1.327  12.980  0.1962 -0.4117  0.2991
  733TMC3     C10835   3.474   1.376  12.951  0.2812  0.2185 -0.1822
  733TMC3     O10836   3.419   1.415  12.847  0.1161 -0.1738  0.1665
  733TMC3     H10837   3.623   1.385  13.172 -0.7749 -1.5230  0.4638
  733TMC3    H110838   3.642   1.380  12.755 -0.4313  1.4748  0.4237
  733TMC3    H210839   3.994   1.323  12.983  0.1021 -2.5313  0.4702
  733TMC3    C710840   3.885   1.445  12.762  0.1067 -0.5703  0.9530
  733TMC3    C810841   3.876   1.449  13.181  0.3919  0.5418  0.1671
  733TMC3    O110842   3.986   1.496  12.809 -0.2446 -0.0379 -0.2550
  733TMC3    O210843   3.830   1.464  13.292 -0.1905 -0.8521 -0.2303
  734MPD2     C10844   0.889   4.132  12.431 -0.0426 -0.1440 -0.7950
  734MPD2    C110845   0.841   4.018  12.372  0.0970 -0.2332 -0.2093
  734MPD2    C210846   0.834   4.014  12.235  0.5712 -0.3066 -0.2459
  734MPD2    C310847   0.868   4.120  12.155 -0.0691  0.3711  0.3897
  734MPD2    C410848   0.917   4.235  12.212 -0.1506  0.1538 -0.7383
  734MPD2    C510849   0.912   4.238  12.348  0.8224 -0.5041 -0.5459
  734MPD2     H10850   0.801   3.929  12.177 -0.3360  0.5959 -1.0634
  734MPD2    H110851   0.944   4.322  12.153 -0.9977  2.0742  1.7092
  734MPD2    H210852   0.885   4.152  12.538 -1.1560 -1.4841 -0.5830
  734MPD2    H310853   0.943   4.331  12.394 -0.9349 -0.0621 -0.2634
  734MPD2     N10854   0.856   4.107  12.010  0.0533 -0.2154  0.1221
  734MPD2    H510855   0.832   4.018  11.967 -3.3460  0.2105  1.1172
  734MPD2    N110856   0.799   3.914  12.453 -0.2799  0.4883 -0.0697
  734MPD2    H710857   0.805   3.934  12.552 -1.1418 -1.8862  0.4568
  735TMC3    C110858   0.688   3.709  12.516 -0.3377 -0.0221  1.0203
  735TMC3    C210859   0.577   3.673  12.444 -0.0917  0.2823  0.1295
  735TMC3    C310860   0.541   3.540  12.428  0.0278  0.2240  0.1736
  735TMC3    C410861   0.766   3.618  12.577  0.0894 -0.4244 -0.2539
  735TMC3    C510862   0.727   3.490  12.560 -0.3581  0.0732  0.5475
  735TMC3    C610863   0.617   3.447  12.490  0.2112 -0.3081  0.3835
  735TMC3     C10864   0.760   3.791  12.409  0.1191  0.3519 -0.3505
  735TMC3     O10865   0.751   3.750  12.295  0.4565  0.0595  0.4322
  735TMC3     H10866   0.523   3.752  12.394 -0.8953  0.4679  1.2835
  735TMC3    H110867   0.871   3.643  12.594 -0.8025  1.4951  2.4631
  735TMC3    H210868   0.599   3.340  12.486  0.3340 -0.2937 -0.7216
  735TMC3    C710869   0.824   3.387  12.602 -0.7508  0.1820  0.3598
  735TMC3    C810870   0.506   3.507  12.291 -0.5225  0.0886  0.4011
  735TMC3    O110871   0.940   3.426  12.618  0.1735 -0.3246  0.4173
  735TMC3    O210872   0.443   3.408  12.256  0.1456 -0.6147  0.6453
  736MPD2     C10873   0.800   3.045  12.746  0.2320  0.0492 -1.2924
  736MPD2    C110874   0.860   3.153  12.674  0.1417  0.1432  0.0926
  736MPD2    C210875   0.995   3.140  12.636  0.1684 -0.5909 -0.5662
  736MPD2    C310876   1.069   3.030  12.681  0.1907 -0.4049  0.3431
  736MPD2    C410877   1.008   2.927  12.742 -0.1679  0.2401 -1.0005
  736MPD2    C510878   0.879   2.940  12.783 -0.5382 -0.3019 -1.1684
  736MPD2     H10879   1.037   3.215  12.570  1.0275 -1.2124 -0.7130
  736MPD2    H110880   1.066   2.838  12.766  1.2042  0.6577 -2.8066
  736MPD2    H210881   0.697   3.048  12.780  0.3316  0.4160 -1.0202
  736MPD2    H310882   0.828   2.861  12.836 -0.2244 -0.3673 -0.9645
  736MPD2     N10883   1.213   3.013  12.653 -0.0690  0.2272 -0.7627
  736MPD2    H510884   1.253   2.921  12.671 -2.3340 -0.1875  2.1869
  736MPD2    N110885   0.774   3.260  12.635 -0.0236  0.1731 -0.2240
  736MPD2    H710886   0.676   3.267  12.659 -0.1281 -0.1515 -0.5798
  737TMC3    C110887   1.410   3.073  12.538  0.9310 -0.5780  0.2632
  737TMC3    C210888   1.492   3.168  12.505 -0.2591  0.0768 -0.6636
  737TMC3    C310889   1.578   3.136  12.402 -0.1565 -0.5796 -0.1283
  737TMC3    C410890   1.425   2.943  12.491  0.2759  0.5060  0.2445
  737TMC3    C510891   1.505   2.917  12.394  0.3921  0.0879 -0.2720
  737TMC3    C610892   1.589   3.017  12.345  0.0763 -0.1400  0.9265
  737TMC3     C10893   1.285   3.118  12.594 -0.5027 -0.1541  0.5316
  737TMC3     O10894   1.257   3.233  12.585  0.1939 -0.2881  0.4718
  737TMC3     H10895   1.486   3.272  12.538 -1.7480 -0.1511 -0.2385
  737TMC3    H110896   1.348   2.868  12.509  0.4165  0.3848  0.3319
  737TMC3    H210897   1.663   2.995  12.268  0.9979  1.4525  1.3642
  737TMC3    C710898   1.495   2.788  12.335  0.1053  1.1165 -0.1243
  737TMC3    C810899   1.634   3.254  12.336 -1.1599 -0.2926 -0.3081
  737TMC3    O110900   1.455   2.692  12.400  0.2348 -0.4705  0.0524
  737TMC3    O210901   1.649   3.352  12.410 -0.1556  0.6615 -0.1963
  738MPD2     C10902   2.082   1.918  15.279 -0.1995 -0.2163  0.0113
  738MPD2    C110903   1.955   1.959  15.243 -0.0240  0.1764  0.8377
  738MPD2    C210904   1.939   2.063  15.161  0.7530 -0.1624 -0.8642
  738MPD2    C310905   2.046   2.135  15.111 -0.4798 -0.6484  0.4776
  738MPD2    C410906   2.170   2.084  15.129  0.5586  0.2443  0.1102
  738MPD2    C510907   2.186   1.984  15.221  0.2082  0.5097 -0.5154
  738MPD2     H10908   1.839   2.097  15.136  1.0088 -1.1420 -3.2043
  738MPD2    H110909   2.249   2.125  15.067  1.7678 -2.9188 -0.4393
  738MPD2    H210910   2.109   1.832  15.339  2.5202  0.3205 -0.4612
  738MPD2    H310911   2.285   1.940  15.218  1.9611  4.2221  2.2932
  738MPD2     N10912   2.041   2.231  15.008  0.4113  0.0249  0.0154
  738MPD2    H510913   2.127   2.268  14.969  0.0794  0.5616 -0.2047
  738MPD2    N110914   1.843   1.891  15.288 -1.0581 -0.0899 -0.0024
  738MPD2    H710915   1.753   1.911  15.245 -0.8953 -0.1983 -0.3949
  739TMC3    C110916   1.956   2.381  14.863 -0.0372  0.2794 -0.3761
  739TMC3    C210917   2.035   2.348  14.758  0.2194 -0.2537  0.1561
  739TMC3    C310918   2.080   2.446  14.678 -0.2934 -0.1273  0.4385
  739TMC3    C410919   1.920   2.516  14.887 -0.9307 -0.2017 -0.8063
  739TMC3    C510920   1.962   2.611  14.794 -0.0907  0.2962  0.0598
  739TMC3    C610921   2.038   2.579  14.688 -0.1871 -0.1600  0.2843
  739TMC3     C10922   1.925   2.277  14.957  0.4912 -0.4577 -0.1403
  739TMC3     O10923   1.813   2.272  15.006 -0.0545  0.7227 -0.0593
  739TMC3     H10924   2.067   2.245  14.757  3.3373  0.7698 -2.5036
  739TMC3    H110925   1.850   2.547  14.963 -1.9286  1.2181 -2.2883
  739TMC3    H210926   2.054   2.648  14.607  0.3529  0.5205  0.9753
  739TMC3    C710927   1.985   2.739  14.858 -0.3403  0.7748  0.1513
  739TMC3    C810928   2.139   2.408  14.554  0.7981  0.1398 -0.4074
  739TMC3    O110929   1.986   2.734  14.982 -0.0358  0.5594  0.2004
  739TMC3    O210930   2.140   2.294  14.520  0.2769  0.2521  0.6135
  740TMC3    C110931   2.457   3.617  14.119  0.1059  0.0913 -0.2510
  740TMC3    C210932   2.463   3.575  14.253  0.8580 -0.3862 -0.0465
  740TMC3    C310933   2.586   3.580  14.306 -0.0991  0.1209 -0.4084
  740TMC3    C410934   2.560   3.652  14.038  0.3621 -0.0324  0.0062
  740TMC3    C510935   2.675   3.647  14.105 -0.1724  0.0996  0.0815
  740TMC3    C610936   2.691   3.612  14.230 -0.0209 -0.6104 -0.2558
  740TMC3     C10937   2.328   3.584  14.063  0.2584  0.2018  0.2386
  740TMC3     O10938   2.326   3.561  13.942  0.7400 -0.5757  0.3497
  740TMC3     H10939   2.381   3.556  14.321  0.3155 -0.5028 -0.7338
  740TMC3    H110940   2.541   3.687  13.937 -1.9337 -2.4228 -0.3825
  740TMC3    H210941   2.791   3.627  14.268  0.5587  1.1703 -2.5154
  740TMC3    C710942   2.790   3.630  14.012 -0.7965 -0.6777 -0.8732
  740TMC3    C810943   2.601   3.516  14.439 -0.9861  0.7115 -0.2288
  740TMC3    O110944   2.889   3.563  14.045  0.1741  0.8340  0.1188
  740TMC3    O210945   2.502   3.495  14.507  0.4715  0.0676  0.6773
  741TMC3    C110946   1.971   2.735  14.086 -0.6785 -0.5577 -0.2159
  741TMC3    C210947   1.936   2.667  13.971 -0.0793 -0.2994 -0.4443
  741TMC3    C310948   1.860   2.555  13.985  0.3394  0.7288 -0.3040
  741TMC3    C410949   1.943   2.679  14.216 -0.0495  0.3130 -0.3195
  741TMC3    C510950   1.881   2.563  14.225  0.4396 -0.1982 -0.5599
  741TMC3    C610951   1.830   2.503  14.110 -0.0045  0.1103  0.1103
  741TMC3     C10952   2.044   2.855  14.070  0.1673  0.4107  0.1294
  741TMC3     O10953   2.055   2.903  13.958  0.2047  0.4857 -0.0750
  741TMC3     H10954   1.955   2.711  13.873  0.3202  2.2499  0.7723
  741TMC3    H110955   1.972   2.734  14.304  0.8402 -1.3313  0.4105
  741TMC3    H210956   1.771   2.413  14.121  1.4392 -0.8929 -0.3163
  741TMC3    C710957   1.824   2.522  14.351  0.2213  0.9722 -0.1119
  741TMC3    C810958   1.777   2.505  13.875  0.4277 -0.1501 -0.0482
  741TMC3    O110959   1.824   2.611  14.434  0.9036  0.3539 -0.0362
  741TMC3    O210960   1.683   2.433  13.903 -0.6163 -0.3952 -0.1697
  742TMC3    C110961   1.422   0.875  15.390 -0.3168  0.1033  0.7717
  742TMC3    C210962   1.344   0.916  15.286 -0.3142 -0.1297 -0.3316
  742TMC3    C310963   1.374   0.864  15.160  0.4918  0.2599  0.3115
  742TMC3    C410964   1.541   0.807  15.372  0.1328 -0.1127  0.1563
  742TMC3    C510965   1.570   0.765  15.245 -0.0263 -0.2349 -0.0584
  742TMC3    C610966   1.491   0.794  15.134  0.3672 -0.1275 -0.2217
  742TMC3     C10967   1.399   0.936  15.524  0.1398 -0.4403 -0.5877
  742TMC3     O10968   1.289   0.995  15.532  0.3595 -0.0407 -0.4043
  742TMC3     H10969   1.251   0.968  15.303 -0.4484 -0.8594  1.1049
  742TMC3    H110970   1.605   0.784  15.456 -0.0626 -0.0857  0.3121
  742TMC3    H210971   1.534   0.770  15.037  0.7421  0.1455 -0.1239
  742TMC3    C710972   1.709   0.735  15.220  0.8315  0.4483 -0.3431
  742TMC3    C810973   1.305   0.915  15.041 -0.1317 -0.0118 -0.8545
  742TMC3    O110974   1.731   0.650  15.133 -0.4527  0.2012 -0.1061
  742TMC3    O210975   1.330   0.851  14.939  0.8544  0.5893 -0.3711
  743MPD2     C10976   4.525   2.948   1.930  0.1374 -0.6959 -0.2481
  743MPD2    C110977   4.597   2.923   1.821 -0.7445  0.5222  0.7879
  743MPD2    C210978   4.720   2.863   1.841  0.7168  0.1127 -0.0147
  743MPD2    C310979   0.036   2.810   1.965  0.4011 -0.2295 -0.2319
  743MPD2    C410980   4.686   2.842   2.074 -0.5204 -0.1535 -0.1012
  743MPD2    C510981   4.571   2.915   2.054 -0.0532 -0.2930 -0.3558
  743MPD2     H10982   0.056   2.831   1.759 -0.1781  0.2753 -0.7632
  743MPD2    H110983   4.722   2.821   2.174  1.8690  1.2485 -0.6432
  743MPD2    H210984   4.431   3.002   1.925 -0.8098 -2.5128 -2.0255
  743MPD2    H310985   4.509   2.925   2.142  3.1742 -1.0234  2.0130
  743MPD2     N10986   0.151   2.732   1.965  0.2579 -0.0121 -0.1158
  743MPD2    H510987   0.195   2.719   1.875 -1.8034  2.3367 -1.4483
  743MPD2    N110988   4.540   2.965   1.702  0.9977  0.0725 -0.2967
  743MPD2    H710989   4.448   3.009   1.704  0.4717 -1.0771  0.6179
  744TMC3    C110990   4.528   2.996   1.466  0.8497  0.0850 -0.1807
  744TMC3    C210991   4.435   3.098   1.484  0.4007 -0.0224 -0.8645
  744TMC3    C310992   4.372   3.159   1.373  0.6424  0.1235  0.9423
  744TMC3    C410993   4.552   2.955   1.337 -0.6772  0.1064  0.1378
  744TMC3    C510994   4.496   3.020   1.226 -0.3971  0.8861 -0.0918
  744TMC3    C610995   4.405   3.122   1.247  0.5677  0.2867 -0.2466
  744TMC3     C10996   4.593   2.937   1.578  0.2620 -0.5818 -0.8114
  744TMC3     O10997   4.695   2.884   1.548 -0.1605  0.0805 -0.1991
  744TMC3     H10998   4.408   3.129   1.585 -2.0908  0.5617 -1.6979
  744TMC3    H110999   4.629   2.882   1.316  0.3149  0.7448  1.5445
  744TMC3    H211000   4.363   3.166   1.157  3.0628  1.5559 -0.7824
  744TMC3    C711001   4.546   2.985   1.092  0.0374  0.1211  0.4967
  744TMC3    C811002   4.284   3.272   1.386  0.3332  0.0085 -0.3534
  744TMC3    O111003   4.640   2.906   1.080 -0.5323  0.1315  0.6258
  744TMC3    O211004   4.236   3.316   1.279  0.2350 -1.1226  0.4150
  745TMC3    C111005   2.102   0.755  13.243  0.0939  0.0293 -0.2433
  745TMC3    C211006   1.998   0.671  13.267  0.1301  0.0365 -0.1464
  745TMC3    C311007   1.886   0.703  13.198 -0.1589 -0.1958 -0.5760
  745TMC3    C411008   2.098   0.849  13.150 -0.1546 -0.0327 -0.2038
  745TMC3    C511009   1.999   0.841  13.057 -0.5495 -0.4322 -0.8058
  745TMC3    C611010   1.885   0.779  13.089 -0.5784  0.0987 -0.1113
  745TMC3     C11011   2.181   0.768  13.358 -0.1771 -0.4344  0.1786
  745TMC3     O11012   2.222   0.672  13.422 -0.3787 -0.4233 -0.4851
  745TMC3     H11013   2.010   0.604  13.351 -1.2457 -1.7868 -1.4011
  745TMC3    H111014   2.191   0.903  13.137  0.9384 -1.3068  2.3176
  745TMC3    H211015   1.790   0.795  13.039 -0.1524  0.8266 -0.6822
  745TMC3    C711016   1.981   0.951  12.960  0.0365  0.4902  0.1134
  745TMC3    C811017   1.766   0.731  13.270 -0.2586  0.1258 -0.2663
  745TMC3    O111018   1.873   0.948  12.904  0.3974  0.1578  0.2046
  745TMC3    O211019   1.657   0.759  13.216  0.2521 -0.1493 -0.4374
  746TMC3    C111020   4.247   3.152  11.112 -0.6366 -0.1979 -0.1382
  746TMC3    C211021   4.301   3.116  10.993 -0.2620  0.2707  0.2140
  746TMC3    C311022   4.296   2.986  10.955 -0.0645  0.2073  0.2955
  746TMC3    C411023   4.194   3.059  11.202 -0.0395 -0.1721  0.0186
  746TMC3    C511024   4.198   2.928  11.169 -0.9641  0.2719 -0.1187
  746TMC3    C611025   4.233   2.899  11.040  0.5031 -0.1748  0.2276
  746TMC3     C11026   4.241   3.292  11.156  0.3642 -0.7646 -0.3013
  746TMC3     O11027   4.238   3.315  11.275 -0.0514 -0.5078  0.5609
  746TMC3     H11028   4.360   3.190  10.941  1.7305 -1.1315  0.4589
  746TMC3    H111029   4.156   3.095  11.297  1.8976  0.8524  0.3984
  746TMC3    H211030   4.232   2.796  11.008 -0.0398 -0.1292  0.0944
  746TMC3    C711031   4.103   2.835  11.231  0.6939 -0.8109  0.0245
  746TMC3    C811032   4.383   2.927  10.852  0.3207 -0.5563 -0.2752
  746TMC3    O111033   4.033   2.770  11.149 -0.8443  0.0996  0.4560
  746TMC3    O211034   4.412   2.808  10.856 -0.1130 -0.3810 -0.3336
  747TMC3    C111035   1.524   2.644  11.278  0.3953  0.6105 -0.1608
  747TMC3    C211036   1.472   2.641  11.406  0.5694 -0.5605 -0.3321
  747TMC3    C311037   1.545   2.675  11.511 -0.3149  0.1992  0.7188
  747TMC3    C411038   1.653   2.684  11.258 -0.3712 -0.3687  0.4676
  747TMC3    C511039   1.733   2.704  11.369  0.5104 -0.2046 -0.1023
  747TMC3    C611040   1.679   2.709  11.495 -0.6259 -0.4218  0.3540
  747TMC3     C11041   1.424   2.672  11.165  0.0097  0.0367 -0.1152
  747TMC3     O11042   1.326   2.744  11.185  0.2309  0.3821  0.1548
  747TMC3     H11043   1.365   2.626  11.413  0.2933  1.7162  0.2701
  747TMC3    H111044   1.672   2.721  11.158 -0.8492  0.4444  0.6835
  747TMC3    H211045   1.740   2.733  11.581 -0.0444  0.5299 -0.3215
  747TMC3    C711046   1.857   2.777  11.335  0.1916  0.0186  0.7144
  747TMC3    C811047   1.499   2.612  11.636  0.3437  0.0258  0.6263
  747TMC3    O111048   1.893   2.868  11.408  0.0999  0.1165  0.3784
  747TMC3    O211049   1.402   2.538  11.626  0.0954  0.0268  0.0951
  748MPD2     C11050   3.639   4.224   1.891  0.1255 -0.2488  0.1310
  748MPD2    C111051   3.595   4.109   1.816  0.2740  0.0626  0.3257
  748MPD2    C211052   3.701   4.031   1.761  0.0873  0.9532  1.0331
  748MPD2    C311053   3.830   4.072   1.764  0.3461 -0.8002  0.7243
  748MPD2    C411054   3.870   4.176   1.844  0.1328 -1.0769 -0.7332
  748MPD2    C511055   3.770   4.254   1.909  0.3193 -0.3324  0.9900
  748MPD2     H11056   3.669   3.950   1.696  0.0787  2.1088 -0.3989
  748MPD2    H111057   3.975   4.202   1.851 -0.0172 -0.6817  0.0348
  748MPD2    H211058   3.564   4.289   1.935  0.0456 -1.6951  2.1447
  748MPD2    H311059   3.806   4.336   1.970 -0.7128  0.0734  1.0522
  748MPD2     N11060   3.923   4.003   1.683  0.1177 -0.0979 -0.7219
  748MPD2    H511061   3.877   3.936   1.621 -0.2701 -0.2130 -0.3127
  748MPD2    N111062   3.462   4.073   1.818  0.1847  0.1464 -0.3094
  748MPD2    H711063   3.401   4.134   1.872 -1.7700 -0.1615 -2.1432
  749TMC3    C111064   4.129   3.930   1.583  0.8586 -0.3394  0.6907
  749TMC3    C211065   4.205   3.828   1.625  0.3956 -0.1488 -0.0080
  749TMC3    C311066   4.297   3.782   1.537  0.0320  0.1915  0.1906
  749TMC3    C411067   4.118   3.966   1.452  0.1196 -0.2510 -0.3976
  749TMC3    C511068   4.211   3.907   1.363  0.0159  0.5163  0.3234
  749TMC3    C611069   4.298   3.813   1.405 -0.5979  0.2680 -0.3433
  749TMC3     C11070   4.059   4.009   1.690  0.2365 -1.0273 -0.4076
  749TMC3     O11071   4.118   4.040   1.791 -0.4982 -0.1319  0.1405
  749TMC3     H11072   4.191   3.796   1.727  0.6967  1.3567  0.5040
  749TMC3    H111073   4.061   4.056   1.429  0.8731  0.6382  1.1388
  749TMC3    H211074   4.369   3.769   1.336 -1.3238 -0.4744 -0.6136
  749TMC3    C711075   4.238   3.978   1.238  0.1320 -0.2414  0.1428
  749TMC3    C811076   4.400   3.700   1.593 -0.1307  0.1393 -0.5358
  749TMC3    O111077   4.351   3.953   1.187 -0.1715 -0.0947 -0.0898
  749TMC3    O211078   4.405   3.671   1.713 -0.4026  0.0163 -0.0745
  750MPD2     C11079   0.295   0.132  11.151 -0.0182  0.2417  0.2608
  750MPD2    C111080   0.208   0.075  11.237 -0.1698 -0.3775  0.1899
  750MPD2    C211081   0.168   4.672  11.219  0.6007 -0.0532 -0.4272
  750MPD2    C311082   0.211   4.602  11.106 -0.1559 -0.0752  0.2792
  750MPD2    C411083   0.300   4.658  11.024 -0.1429 -0.2005 -0.1312
  750MPD2    C511084   0.350   0.057  11.048 -0.0570 -0.7874  0.0519
  750MPD2     H11085   0.113   4.617  11.295 -0.9980  0.2533 -1.3808
  750MPD2    H111086   0.334   4.600  10.939 -1.5672 -0.4965 -0.5005
  750MPD2    H211087   0.325   0.235  11.171 -0.2100  0.0716  1.4332
  750MPD2    H311088   0.412   0.110  10.978 -0.4400 -0.3172  0.0605
  750MPD2     N11089   0.157   4.478  11.060 -0.6282  0.2747  0.1701
  750MPD2    H511090   0.189   4.440  10.971 -1.3559 -0.7618  0.3397
  750MPD2    N111091   0.169   0.160  11.348 -0.0482 -0.1688 -0.1565
  750MPD2    H711092   0.214   0.250  11.366 -1.3279  0.4192  0.1032
  751TMC3    C111093   4.718   4.311  11.046  0.5181 -0.3246 -0.5504
  751TMC3    C211094   4.585   4.299  11.078 -0.5004 -0.1271 -0.6043
  751TMC3    C311095   4.497   4.276  10.976  0.0029 -0.4744  0.4165
  751TMC3    C411096   0.039   4.302  10.915 -0.8805 -0.4577  0.1716
  751TMC3    C511097   4.676   4.268  10.822  0.4666 -0.7909 -0.1991
  751TMC3    C611098   4.542   4.277  10.844 -0.3032 -0.3438  0.7830
  751TMC3     C11099   0.063   4.401  11.132  0.2845 -0.4238  0.6239
  751TMC3     O11100   0.013   4.426  11.243  0.5365  0.2953 -0.3251
  751TMC3     H11101   4.557   4.295  11.182 -2.2665 -1.6795 -1.1436
  751TMC3    H111102   0.146   4.299  10.903 -0.8203  0.1270  0.5407
  751TMC3    H211103   4.479   4.253  10.760  0.3365  0.7742 -0.0131
  751TMC3    C711104   4.718   4.259  10.686 -0.1033  1.0103 -0.3244
  751TMC3    C811105   4.376   4.208  10.992 -0.0437  0.7003 -0.1392
  751TMC3    O111106   0.105   4.297  10.650  0.0013  0.0478  0.0261
  751TMC3    O211107   4.335   4.127  10.906  0.2994 -0.7107 -0.1260
  752TMC3    C111108   3.455   4.298  16.987 -0.3212  0.2264 -0.2119
  752TMC3    C211109   3.510   4.176  17.017 -0.3320  0.1143  0.0472
  752TMC3    C311110   3.474   4.127  17.136 -0.1455  0.3595 -0.1119
  752TMC3    C411111   3.375   4.370  17.074 -0.4419 -0.3319 -0.4819
  752TMC3    C511112   3.347   4.313  17.193  0.1243 -0.2077  0.1191
  752TMC3    C611113   3.392   4.195  17.223  0.0015 -0.3577 -0.5529
  752TMC3     C11114   3.487   4.353  16.855 -0.0536  0.5210  0.2897
  752TMC3     O11115   3.576   4.302  16.789 -0.0912  0.1745  0.3671
  752TMC3     H11116   3.580   4.124  16.952  1.1793 -0.0076  1.7460
  752TMC3    H111117   3.353   4.474  17.054 -0.2652 -0.1771  0.1282
  752TMC3    H211118   3.397   4.159  17.325  0.8589 -0.1581 -0.5212
  752TMC3    C711119   3.313   4.399  17.302  0.1417  0.3548  0.0782
  752TMC3    C811120   3.511   3.994  17.170 -0.2958  0.2454  0.0943
  752TMC3    O111121   3.309   4.517  17.271  0.1108  0.0610 -0.6437
  752TMC3    O211122   3.518   3.972  17.293 -0.1013  0.3107  0.1786
  753TMC3    C111123   0.533   1.477  13.466 -0.1065 -0.5583  0.3055
  753TMC3    C211124   0.535   1.446  13.602  0.0544 -0.3830 -0.2154
  753TMC3    C311125   0.546   1.316  13.635  0.2914  0.6477 -1.0054
  753TMC3    C411126   0.549   1.375  13.373  0.0318 -0.2301 -0.2027
  753TMC3    C511127   0.571   1.254  13.417  0.1444  0.6125 -0.2899
  753TMC3    C611128   0.577   1.217  13.547 -0.1817 -1.1400 -0.9122
  753TMC3     C11129   0.509   1.612  13.410 -0.1071  0.2327  0.5183
  753TMC3     O11130   0.472   1.624  13.293  0.0221  0.1865  0.3108
  753TMC3     H11131   0.509   1.525  13.671 -0.6100 -0.0609 -0.8228
  753TMC3    H111132   0.542   1.391  13.266 -1.5724 -2.1222 -0.3850
  753TMC3    H211133   0.585   1.115  13.582  1.0155 -0.1907  1.6231
  753TMC3    C711134   0.573   1.148  13.312  0.2654  0.2380 -0.4542
  753TMC3    C811135   0.533   1.266  13.768 -0.4659  0.2689  0.0209
  753TMC3    O111136   0.638   1.165  13.210 -0.6764  0.4270  0.2870
  753TMC3    O211137   0.498   1.149  13.787 -0.4123 -0.2566  0.4332
  754MPD2     C11138   4.233   4.085  12.345 -0.5821  0.6346  0.2772
  754MPD2    C111139   4.188   4.169  12.446 -0.8710 -0.1837  0.6466
  754MPD2    C211140   4.085   4.249  12.417 -0.2130 -0.1707  0.6549
  754MPD2    C311141   4.016   4.239  12.306 -0.0525  0.4557  0.0642
  754MPD2    C411142   4.060   4.162  12.201  0.1812 -0.2249  0.1086
  754MPD2    C511143   4.168   4.089  12.222  0.2081 -0.0051 -0.1017
  754MPD2     H11144   4.046   4.316  12.493 -0.1361  1.4678 -0.7311
  754MPD2    H111145   4.000   4.160  12.111 -1.4221  1.5060  1.1557
  754MPD2    H211146   4.319   4.018  12.346 -1.2865 -0.2797 -0.6978
  754MPD2    H311147   4.208   4.040  12.133 -1.3689 -0.8038 -0.3748
  754MPD2     N11148   3.890   4.295  12.302 -0.4477  0.0810  0.6303
  754MPD2    H511149   3.830   4.257  12.230  0.1624 -1.2669  0.8428
  754MPD2    N111150   4.256   4.161  12.571  0.2138  0.4685  0.0562
  754MPD2    H711151   4.331   4.093  12.575 -2.3902 -2.3183  0.6402
  755MPD2     C11152   3.501   0.324  12.854 -0.3476  0.5526  0.0471
  755MPD2    C111153   3.466   0.206  12.912 -0.5390  0.5070  0.3106
  755MPD2    C211154   3.478   0.085  12.842  0.0321  0.0918  0.4112
  755MPD2    C311155   3.513   0.085  12.708  0.2001 -0.7043  0.3178
  755MPD2    C411156   3.554   0.205  12.656  0.6983 -0.2344  0.1331
  755MPD2    C511157   3.544   0.320  12.730  0.0567 -1.2968  0.5459
  755MPD2     H11158   3.440   4.721  12.887 -0.1709  0.6645  1.3857
  755MPD2    H111159   3.584   0.208  12.552 -0.2911  0.0289 -0.1425
  755MPD2    H211160   3.506   0.414  12.913  1.3996  0.2011  0.4312
  755MPD2    H311161   3.577   0.410  12.681  2.3400 -0.9676  2.6811
  755MPD2     N11162   3.532   4.696  12.636  0.4281  0.2048  0.2037
  755MPD2    H511163   3.576   4.714  12.547  0.6481 -0.8726  0.0885
  755MPD2    N111164   3.421   0.197  13.048 -0.0899  0.2301 -0.3961
  755MPD2    H711165   3.402   0.104  13.083  3.6767 -0.4162  0.0029
  756MPD2     C11166   3.891   0.492   9.651 -0.4008  0.2398  0.1217
  756MPD2    C111167   3.875   0.495   9.792 -0.4349 -0.1731 -0.6990
  756MPD2    C211168   3.749   0.543   9.837  0.2056  0.8040 -1.1498
  756MPD2    C311169   3.655   0.605   9.754  0.8199 -0.1405 -0.0362
  756MPD2    C411170   3.680   0.609   9.621  0.4036  0.1435  0.1188
  756MPD2    C511171   3.792   0.549   9.569  0.3151  0.4455  0.1220
  756MPD2     H11172   3.715   0.529   9.939  3.3877 -1.1127 -0.3648
  756MPD2    H111173   3.607   0.638   9.547  1.2878 -0.7565 -1.0906
  756MPD2    H211174   3.984   0.464   9.602  0.1280  4.5978 -1.4311
  756MPD2    H311175   3.805   0.536   9.462  1.0819 -1.5346  0.4573
  756MPD2     N11176   3.533   0.657   9.809 -0.3870  0.2453 -0.0727
  756MPD2    H511177   3.515   0.640   9.908  0.7206  1.2865  0.3048
  756MPD2    N111178   3.967   0.438   9.877  0.1423 -0.1859 -0.1497
  756MPD2    H711179   3.948   0.428   9.977  0.5825  1.1268  0.0658
  757MPD2     C11180   2.966   0.329  10.399  0.0621 -1.1579 -0.1534
  757MPD2    C111181   3.033   0.280  10.289  0.1841  0.5200  0.4163
  757MPD2    C211182   3.088   0.366  10.192 -0.3246  0.0085 -0.1204
  757MPD2    C311183   3.053   0.500  10.193 -0.0051 -0.0743 -0.3557
  757MPD2    C411184   2.972   0.551  10.294  0.0216  0.0895  0.1693
  757MPD2    C511185   2.927   0.465  10.395 -0.2404  0.3330 -0.8093
  757MPD2     H11186   3.144   0.328  10.107 -0.2144 -0.6825  0.2649
  757MPD2    H111187   2.960   0.658  10.308  3.9015  0.6097 -0.4677
  757MPD2    H211188   2.918   0.264  10.472  0.0685  0.4250  1.2571
  757MPD2    H311189   2.865   0.502  10.475  0.7696 -0.6456  0.4293
  757MPD2     N11190   3.102   0.579  10.081  0.4021 -0.2688  0.3886
  757MPD2    H511191   3.157   0.533  10.009 -1.5079 -0.1178 -1.1730
  757MPD2    N111192   3.059   0.148  10.295 -0.2135 -0.0315 -0.1158
  757MPD2    H711193   3.018   0.100  10.375 -0.9773 -1.7864 -1.5438
  758MPD2     C11194   4.346   3.627  15.931  0.7368 -0.2430 -0.3171
  758MPD2    C111195   4.442   3.589  16.023  0.3558 -0.2019  0.6370
  758MPD2    C211196   4.410   3.618  16.156  0.4359  0.0197 -0.4922
  758MPD2    C311197   4.286   3.664  16.200  0.1645 -0.6302  0.3796
  758MPD2    C411198   4.195   3.678  16.103 -0.3755 -0.4631  0.0822
  758MPD2    C511199   4.227   3.670  15.971 -0.0528  0.3052 -0.4291
  758MPD2     H11200   4.495   3.630  16.223  0.2664 -1.1366 -0.0706
  758MPD2    H111201   4.096   3.716  16.125 -0.2524  0.6700 -1.3064
  758MPD2    H211202   4.368   3.612  15.826  0.8790 -2.1215 -0.0245
  758MPD2    H311203   4.149   3.688  15.898 -0.3075 -0.8781 -0.4483
  758MPD2     N11204   4.250   3.680  16.333  0.2840 -0.1811  0.3215
  758MPD2    H511205   4.162   3.717  16.368 -0.1662 -0.3119 -0.6981
  758MPD2    N111206   4.568   3.542  15.982  0.1417 -0.9465 -0.8321
  758MPD2    H711207   4.593   3.544  15.884  0.0952  2.6215 -0.7733
  759MPD2     C11208   3.089   1.809   9.619 -0.0616 -0.3904 -0.5537
  759MPD2    C111209   3.085   1.841   9.756 -0.4520  0.3960  0.0149
  759MPD2    C211210   3.154   1.947   9.805  0.0103  0.3928 -0.5614
  759MPD2    C311211   3.228   2.019   9.714  0.1195  0.0606  0.3032
  759MPD2    C411212   3.233   1.989   9.575 -0.7901  0.2857  0.4513
  759MPD2    C511213   3.165   1.883   9.529 -0.0833  0.5111 -0.0895
  759MPD2     H11214   3.143   1.978   9.908 -0.5333  0.2428 -0.5770
  759MPD2    H111215   3.274   2.060   9.505 -0.0083 -0.2336  0.3806
  759MPD2    H211216   3.035   1.723   9.580 -0.0206 -0.0970 -1.2652
  759MPD2    H311217   3.155   1.862   9.423  0.5534  1.6064 -0.3655
  759MPD2     N11218   3.306   2.123   9.771 -0.1253  0.3850  0.4317
  759MPD2    H511219   3.289   2.148   9.868  0.4994 -1.4941  1.0039
  759MPD2    N111220   3.018   1.764   9.849 -0.0368 -0.4211 -0.2478
  759MPD2    H711221   3.022   1.788   9.947 -0.8479  0.8743 -0.5229
  760MPD2     C11222   2.593   4.629  11.860  0.4241 -0.5749  0.1781
  760MPD2    C111223   2.674   4.682  11.763 -0.0743  0.1394  0.1085
  760MPD2    C211224   2.759   4.602  11.692 -0.3711 -0.5158  0.2331
  760MPD2    C311225   2.772   4.473  11.730 -0.0570  0.0489 -0.5515
  760MPD2    C411226   2.698   4.424  11.833 -0.0451 -0.0891  0.1006
  760MPD2    C511227   2.602   4.498  11.890  0.5087 -0.4213  0.7924
  760MPD2     H11228   2.828   4.645  11.620 -0.7995 -0.6903 -0.2779
  760MPD2    H111229   2.726   4.328  11.874 -1.8160 -0.2227  1.0028
  760MPD2    H211230   2.526   4.686  11.923  0.9780 -0.3411  0.5421
  760MPD2    H311231   2.547   4.457  11.974 -0.4340  0.0619  0.4103
  760MPD2     N11232   2.852   4.373  11.658 -0.9063  0.4958  0.1024
  760MPD2    H511233   2.843   4.287  11.711 -3.6770 -0.3859 -1.8355
  760MPD2    N111234   2.677   0.094  11.740  0.1792 -0.3714  0.4079
  760MPD2    H711235   2.729   0.113  11.655 -0.5621 -0.3476 -0.0404
  761MPD2     C11236   3.984   4.058  11.285 -0.0327  0.2676  0.3980
  761MPD2    C111237   4.011   4.038  11.154 -0.5297 -0.2335  0.5346
  761MPD2    C211238   4.118   4.107  11.096 -0.1292 -0.2602  0.0013
  761MPD2    C311239   4.200   4.192  11.167  0.1626  0.0698  0.1768
  761MPD2    C411240   4.167   4.208  11.302  0.2266  0.8420 -0.2365
  761MPD2    C511241   4.060   4.144  11.356 -0.4084 -0.0563  0.5275
  761MPD2     H11242   4.135   4.091  10.990 -0.5359 -2.0963  0.2222
  761MPD2    H111243   4.223   4.274  11.368  0.0539  0.6226  0.1270
  761MPD2    H211244   3.900   4.007  11.330  0.5362 -1.3106 -0.2871
  761MPD2    H311245   4.020   4.171  11.453  1.8415 -2.2349  2.0535
  761MPD2     N11246   4.316   4.243  11.112  0.1895 -0.7250  0.0728
  761MPD2    H511247   4.368   4.305  11.174 -0.3272  0.2881 -0.5056
  761MPD2    N111248   3.935   3.946  11.079 -0.3262 -0.1844  0.7900
  761MPD2    H711249   3.878   3.883  11.136 -0.8646  0.2894  0.7784
  762MPD2     C11250   4.054   3.244  10.435 -0.7282  0.1852  0.4810
  762MPD2    C111251   4.088   3.374  10.484  0.5548  0.6261  0.1334
  762MPD2    C211252   4.205   3.427  10.429 -0.2733  0.1734 -0.6691
  762MPD2    C311253   4.268   3.370  10.319  0.4194 -0.2368  0.0175
  762MPD2    C411254   4.226   3.251  10.263 -0.2162 -0.0042 -0.0393
  762MPD2    C511255   4.121   3.190  10.331 -0.5004 -0.3072 -0.7693
  762MPD2     H11256   4.236   3.523  10.470  1.0834 -0.5623  0.0100
  762MPD2    H111257   4.270   3.198  10.179  1.6270 -0.5541  1.2539
  762MPD2    H211258   3.976   3.183  10.481 -1.2629  0.2635 -0.3090
  762MPD2    H311259   4.087   3.093  10.296  2.1040 -0.7327 -2.1170
  762MPD2     N11260   4.382   3.426  10.258  0.1834 -0.2269  0.4485
  762MPD2    H511261   4.418   3.373  10.180 -2.6669  0.3080 -1.2362
  762MPD2    N111262   4.004   3.440  10.580 -0.1567  0.4647 -0.0279
  762MPD2    H711263   3.912   3.404  10.603 -0.3181  0.9790  0.1395
  763MPD2     C11264   1.512   4.250  15.716 -0.2571 -0.5756  0.6157
  763MPD2    C111265   1.381   4.297  15.739 -0.7099  0.6795 -0.5710
  763MPD2    C211266   1.355   4.415  15.814 -0.5048 -0.0133  0.4617
  763MPD2    C311267   1.469   4.467  15.879  0.0446  0.1252 -0.4265
  763MPD2    C411268   1.598   4.409  15.859 -0.0809  0.1255  1.0569
  763MPD2    C511269   1.622   4.304  15.773 -0.0387 -0.2626  0.6527
  763MPD2     H11270   1.254   4.449  15.831 -0.4429 -0.1089  1.0277
  763MPD2    H111271   1.684   4.460  15.903  0.8086  0.5376 -1.1600
  763MPD2    H211272   1.537   4.161  15.659 -2.3101  1.0662 -2.8590
  763MPD2    H311273   1.724   4.268  15.762  0.5196  1.6809 -0.5108
  763MPD2     N11274   1.472   4.573  15.972  0.1693 -0.6307  0.1519
  763MPD2    H511275   1.560   4.608  16.008  0.8813 -2.6264  0.3755
  763MPD2    N111276   1.267   4.233  15.678  0.0616 -0.1541 -0.4857
  763MPD2    H711277   1.179   4.278  15.700  0.0651 -1.5605  2.3740
  764MPD2     C11278   4.342   0.744  17.224 -0.3207  0.5796 -0.9061
  764MPD2    C111279   4.251   0.640  17.235 -0.1603  0.2892  0.1890
  764MPD2    C211280   4.305   0.517  17.285 -0.2088  0.8775  0.6633
  764MPD2    C311281   4.440   0.496  17.308  0.1673 -0.2648 -0.1372
  764MPD2    C411282   4.523   0.609  17.293 -0.5700  0.5376 -0.2190
  764MPD2    C511283   4.473   0.727  17.252 -0.3044  0.1403 -0.8798
  764MPD2     H11284   4.232   0.439  17.302  0.1053  0.1422 -1.3711
  764MPD2    H111285   4.628   0.596  17.312 -0.5381  0.1377 -0.6487
  764MPD2    H211286   4.313   0.842  17.188  1.6804  0.9109 -1.6098
  764MPD2    H311287   4.542   0.809  17.237 -0.2444  0.4014  0.7646
  764MPD2     N11288   4.485   0.370  17.338 -0.0420  0.2057  0.0407
  764MPD2    H511289   4.423   0.290  17.329  0.8346 -0.6606  1.5972
  764MPD2    N111290   4.114   0.654  17.218  0.6438 -0.1901 -0.2951
  764MPD2    H711291   4.054   0.578  17.247 -1.1704  2.3992  2.8745
  765MPD2     C11292   3.630   3.047  15.584 -0.1003 -0.3015  0.2843
  765MPD2    C111293   3.686   3.164  15.547  0.0244  0.3958  0.2489
  765MPD2    C211294   3.828   3.172  15.547 -0.0905 -0.0810 -0.1135
  765MPD2    C311295   3.904   3.059  15.568  0.3512 -0.3492 -0.5415
  765MPD2    C411296   3.840   2.934  15.594  0.0631  0.0306 -0.5075
  765MPD2    C511297   3.707   2.934  15.597  0.1664 -0.7901  0.6023
  765MPD2     H11298   3.886   3.260  15.521  2.4983 -1.4098  1.2534
  765MPD2    H111299   3.905   2.848  15.609 -0.3177 -0.4068 -1.3590
  765MPD2    H211300   3.522   3.047  15.592 -0.1332  2.0688 -0.1727
  765MPD2    H311301   3.655   2.839  15.609 -2.3898  0.6340  0.6382
  765MPD2     N11302   4.047   3.068  15.546  0.2066 -0.4559 -0.1658
  765MPD2    H511303   4.085   3.160  15.525 -0.5043  0.3289  1.9772
  765MPD2    N111304   3.600   3.270  15.514 -0.7632  0.1176 -0.0795
  765MPD2    H711305   3.500   3.250  15.511 -0.4491 -1.7397  1.6123
  766MPD2     C11306   3.352   3.331  14.901 -0.0216  0.1529 -0.0862
  766MPD2    C111307   3.454   3.408  14.948  0.4067 -0.6437  0.6340
  766MPD2    C211308   3.562   3.430  14.865 -0.2150  0.1747 -0.0416
  766MPD2    C311309   3.572   3.389  14.732 -0.8194  0.0869 -0.1066
  766MPD2    C411310   3.462   3.313  14.688 -0.1399 -0.4551 -0.7104
  766MPD2    C511311   3.359   3.283  14.774  0.0216 -0.1800 -1.0329
  766MPD2     H11312   3.646   3.485  14.906 -1.4106  1.6296  0.4194
  766MPD2    H111313   3.446   3.284  14.585 -0.3590 -1.5358 -0.3698
  766MPD2    H211314   3.260   3.319  14.957  0.6288  1.5348  1.2815
  766MPD2    H311315   3.284   3.215  14.736  0.7901 -1.2520 -0.6418
  766MPD2     N11316   3.678   3.429  14.649 -0.0002 -0.5373  0.1302
  766MPD2    H511317   3.657   3.408  14.552  0.3664  0.9971 -0.2781
  766MPD2    N111318   3.444   3.470  15.077 -0.3742 -0.0156  0.6166
  766MPD2    H711319   3.532   3.513  15.104 -0.0603 -0.5707  0.4852
  767MPD2     C11320   3.330   3.671  14.787 -0.0833 -0.0982 -0.5092
  767MPD2    C111321   3.429   3.743  14.727  0.1945 -0.6611  0.3609
  767MPD2    C211322   3.432   3.752  14.589 -0.3346  0.6593 -0.3743
  767MPD2    C311323   3.331   3.691  14.510  0.4513 -0.4187 -0.1925
  767MPD2    C411324   3.224   3.635  14.579  0.0002 -0.1241 -0.5968
  767MPD2    C511325   3.225   3.622  14.714 -0.2721 -0.4076  0.1818
  767MPD2     H11326   3.516   3.793  14.535 -0.3205  2.7640  1.2634
  767MPD2    H111327   3.144   3.596  14.517  0.9130 -0.3384 -1.6388
  767MPD2    H211328   3.328   3.666  14.895  0.3768 -1.3275 -0.5492
  767MPD2    H311329   3.141   3.576  14.763  1.4594 -1.9013  1.7483
  767MPD2     N11330   3.348   3.698  14.369  0.6360 -0.0613 -0.1654
  767MPD2    H511331   3.435   3.731  14.327  0.2749  2.0300  0.7126
  767MPD2    N111332   3.531   3.809  14.808  0.2688 -0.2707  0.2926
  767MPD2    H711333   3.522   3.807  14.909  0.4835  2.0814  0.3716
  768MPD2     C11334   3.948   2.445  10.976 -0.5957  0.0728 -0.2938
  768MPD2    C111335   3.947   2.423  11.117  0.5934 -0.3861  0.6679
  768MPD2    C211336   4.064   2.433  11.192  0.1622  0.7213  0.2872
  768MPD2    C311337   4.181   2.483  11.126  0.2372  0.4309  0.2887
  768MPD2    C411338   4.177   2.523  10.999 -0.0982  0.1490  0.2388
  768MPD2    C511339   4.060   2.505  10.920 -0.4761  0.4697 -0.4180
  768MPD2     H11340   4.080   2.408  11.296 -0.6126 -0.3792  0.1526
  768MPD2    H111341   4.264   2.558  10.944  0.9362  0.4205  2.0360
  768MPD2    H211342   3.859   2.434  10.916  0.1778 -1.2810 -1.1633
  768MPD2    H311343   4.045   2.525  10.814  2.1513  2.4457 -0.4224
  768MPD2     N11344   4.306   2.505  11.183 -0.7164  0.4614  0.2364
  768MPD2    H511345   4.373   2.554  11.126  1.4122  0.5162  2.7720
  768MPD2    N111346   3.831   2.365  11.180  0.3706 -0.1334 -0.4834
  768MPD2    H711347   3.848   2.360  11.280 -1.1092 -0.1186 -0.2435
  769MPD2     C11348   0.267   0.548  14.547 -0.3559 -0.0132  0.1539
  769MPD2    C111349   0.207   0.446  14.616 -0.5936 -0.1117  0.5691
  769MPD2    C211350   0.212   0.447  14.755 -0.1380  0.1688 -0.5440
  769MPD2    C311351   0.292   0.537  14.822  0.0849 -0.2855  0.0708
  769MPD2    C411352   0.359   0.634  14.747 -0.3353  0.2687  0.5214
  769MPD2    C511353   0.339   0.641  14.610 -0.1608 -0.1022  0.6133
  769MPD2     H11354   0.161   0.364  14.802 -1.1342  0.7352 -0.6307
  769MPD2    H111355   0.418   0.713  14.792  0.2077 -0.2471  0.7098
  769MPD2    H211356   0.275   0.560  14.439 -1.1805 -0.7090  0.0217
  769MPD2    H311357   0.385   0.716  14.546 -0.9152  0.3453  0.5924
  769MPD2     N11358   0.302   0.533  14.961 -0.0003 -0.1337 -0.1254
  769MPD2    H511359   0.230   0.480  15.009  0.8718  0.6021  1.9887
  769MPD2    N111360   0.146   0.355  14.534 -0.2850 -0.3750 -0.7310
  769MPD2    H711361   0.159   0.380  14.436  1.3898  2.9087  0.3301
  770MPD2     C11362   0.241   4.136  14.609  0.2321 -0.0727 -0.8338
  770MPD2    C111363   0.155   4.214  14.684 -0.5913 -0.1663 -0.0444
  770MPD2    C211364   0.124   4.339  14.636  0.8128  0.0009  0.1128
  770MPD2    C311365   0.182   4.386  14.522 -0.2972 -0.5586  0.3530
  770MPD2    C411366   0.263   4.303  14.442  0.1390  0.8278 -0.7401
  770MPD2    C511367   0.294   4.175  14.486 -0.9653 -0.6865 -0.1957
  770MPD2     H11368   0.064   4.405  14.698  2.1185  2.4819 -1.2789
  770MPD2    H111369   0.304   4.334  14.347 -0.2128  2.2187 -0.4497
  770MPD2    H211370   0.274   4.044  14.657  0.2260 -1.1960 -3.0191
  770MPD2    H311371   0.355   4.106  14.428  2.0542  1.3055  0.6200
  770MPD2     N11372   0.153   4.511  14.469 -0.4972  0.1367  0.4455
  770MPD2    H511373   0.087   4.566  14.523 -0.4000  0.8260 -0.1398
  770MPD2    N111374   0.112   4.159  14.808  0.2208 -0.2733  0.0230
  770MPD2    H711375   0.153   4.069  14.833 -0.7615 -0.4772  0.8577
  771MPD2     C11376   1.436   3.011  13.428 -0.9594 -0.1462  0.1811
  771MPD2    C111377   1.359   3.128  13.423 -0.4358 -0.5724  0.2448
  771MPD2    C211378   1.227   3.109  13.383  0.1010 -0.4911  0.5089
  771MPD2    C311379   1.172   2.992  13.327  0.0123  0.5331 -0.1089
  771MPD2    C411380   1.257   2.883  13.329 -0.1514 -0.0427  0.0603
  771MPD2    C511381   1.378   2.901  13.389  0.2199  0.8520 -0.3459
  771MPD2     H11382   1.161   3.195  13.387  0.5958 -0.0073 -1.6864
  771MPD2    H111383   1.231   2.781  13.303 -0.8962  0.5912 -1.6476
  771MPD2    H211384   1.539   3.018  13.462  0.0331 -3.1612 -2.2553
  771MPD2    H311385   1.437   2.811  13.399 -0.4134  0.2684 -1.7887
  771MPD2     N11386   1.041   2.987  13.274 -0.1529 -0.4000  0.0422
  771MPD2    H511387   0.991   3.076  13.278  0.4064 -0.0438 -0.8986
  771MPD2    N111388   1.401   3.255  13.460 -0.2556 -0.5256  0.8921
  771MPD2    H711389   1.327   3.324  13.468  0.6708  1.0031 -3.3550
  772MPD2     C11390   1.255   3.860  13.813 -0.2834 -0.4039  0.5987
  772MPD2    C111391   1.202   3.746  13.757 -0.7118 -0.1006  0.1018
  772MPD2    C211392   1.106   3.668  13.824  0.1488 -0.0876 -0.1259
  772MPD2    C311393   1.049   3.721  13.938 -0.1216 -0.2992  0.0146
  772MPD2    C411394   1.104   3.833  13.996 -0.1131 -1.0665 -0.0409
  772MPD2    C511395   1.207   3.895  13.932 -0.2911  0.7319 -0.1668
  772MPD2     H11396   1.075   3.569  13.793  2.3961 -0.9781  0.4380
  772MPD2    H111397   1.072   3.866  14.094 -0.9777  2.2700 -1.4615
  772MPD2    H211398   1.349   3.900  13.777 -0.7117 -0.8098 -0.9782
  772MPD2    H311399   1.254   3.984  13.973 -0.1627  1.2882 -1.5402
  772MPD2     N11400   0.949   3.653  14.008  0.0347 -0.6134  0.6273
  772MPD2    H511401   0.923   3.696  14.096 -1.7946 -0.3043 -0.0484
  772MPD2    N111402   1.259   3.686  13.642  0.5237  0.0204  0.1102
  772MPD2    H711403   1.247   3.586  13.627 -0.3205 -0.1814  2.1083
  773MPD2     C11404   0.402   3.885  17.432 -0.2403  0.2377 -0.8828
  773MPD2    C111405   0.299   3.938  17.511 -0.2632 -0.4434 -0.0242
  773MPD2    C211406   0.316   3.957  17.644  0.4252  0.0880 -0.3584
  773MPD2    C311407   0.435   3.931  17.709  0.2953  0.4589 -0.3969
  773MPD2    C411408   0.546   3.900  17.628 -0.1567  0.2852  0.5819
  773MPD2    C511409   0.523   3.876  17.492  0.0194 -0.5140 -0.1570
  773MPD2     H11410   0.223   3.980  17.696  0.7493 -0.1033  0.3100
  773MPD2    H111411   0.646   3.890  17.669 -0.9764 -1.8242  2.0636
  773MPD2    H211412   0.402   3.860  17.327  1.8427 -0.8892 -0.6185
  773MPD2    H311413   0.604   3.860  17.423 -1.0772 -1.4737 -1.2200
  773MPD2     N11414   0.445   3.919   0.143 -0.1995  0.9627 -0.0132
  773MPD2    H511415   0.354   3.923   0.188  0.6880  1.3347  1.7667
  773MPD2    N111416   0.175   3.962  17.449  0.7397  0.4043 -0.4114
  773MPD2    H711417   0.095   3.975  17.510  0.5390  1.5602 -0.9284
  774MPD2     C11418   4.101   3.422  13.204  0.7968 -0.0784 -0.7893
  774MPD2    C111419   4.191   3.503  13.276 -0.4910  0.0577  0.2721
  774MPD2    C211420   4.229   3.629  13.232 -0.8154  0.3608 -0.6052
  774MPD2    C311421   4.165   3.681  13.121 -0.0351  0.1118  0.3820
  774MPD2    C411422   4.083   3.594  13.044 -0.3974 -0.2710 -0.2675
  774MPD2    C511423   4.061   3.464  13.083 -0.2461  0.0045  0.5115
  774MPD2     H11424   4.292   3.688  13.298 -0.3414  1.4875 -2.0691
  774MPD2    H111425   4.030   3.623  12.954 -0.8664  0.1940  0.1585
  774MPD2    H211426   4.098   3.319  13.238 -1.4311 -0.3014 -1.6659
  774MPD2    H311427   4.005   3.393  13.024 -2.1010 -1.0366  3.5131
  774MPD2     N11428   4.189   3.812  13.081 -0.9957 -0.3594  0.1310
  774MPD2    H511429   4.237   3.867  13.151 -2.2440 -0.7989  1.3286
  774MPD2    N111430   4.230   3.451  13.404 -0.0887 -0.8496  0.7035
  774MPD2    H711431   4.187   3.360  13.421  0.9067 -1.4900 -0.1830
  775MPD2     C11432   0.625   0.113  15.713 -0.0589  0.3837  0.1370
  775MPD2    C111433   0.568   0.217  15.786  0.1128  0.0300 -0.4128
  775MPD2    C211434   0.652   0.334  15.803 -1.2970 -0.4327  0.1150
  775MPD2    C311435   0.771   0.349  15.734  0.3558 -0.5655 -0.4251
  775MPD2    C411436   0.819   0.241  15.664  1.0720  0.4480  0.0200
  775MPD2    C511437   0.745   0.123  15.655  0.2255  0.2835  0.5858
  775MPD2     H11438   0.616   0.425  15.849  0.6596  0.7397 -0.6713
  775MPD2    H111439   0.917   0.243  15.619 -0.4055  2.5353 -3.0852
  775MPD2    H211440   0.575   0.019  15.694 -0.6909  1.0618 -1.6063
  775MPD2    H311441   0.784   0.053  15.581 -0.7178  0.1652  0.2063
  775MPD2     N11442   0.847   0.467  15.721 -0.2555  0.6929  0.1027
  775MPD2    H511443   0.925   0.456  15.658 -0.4415 -1.8292  0.3011
  775MPD2    N111444   0.440   0.196  15.843  0.1984 -0.5491  0.3698
  775MPD2    H711445   0.395   0.107  15.828 -0.7347 -0.0144 -0.0110
  776MPD2     C11446   0.353   0.629  11.731  0.4186  0.4366  0.3740
  776MPD2    C111447   0.225   0.662  11.707  0.5426 -1.1156 -0.1015
  776MPD2    C211448   0.179   0.790  11.729  0.2701 -0.3816  0.3714
  776MPD2    C311449   0.272   0.884  11.768 -0.1962  0.6991  0.4990
  776MPD2    C411450   0.407   0.846  11.775  0.1329  0.0237 -0.3508
  776MPD2    C511451   0.449   0.720  11.769  0.6196 -0.4657  0.1523
  776MPD2     H11452   0.073   0.814  11.720  1.0022  2.1851 -1.5328
  776MPD2    H111453   0.483   0.924  11.781  0.9467 -0.7129 -1.2612
  776MPD2    H211454   0.387   0.526  11.733 -0.1131  0.2453 -0.4444
  776MPD2    H311455   0.554   0.695  11.781  0.7833  1.0011  1.8831
  776MPD2     N11456   0.239   1.023  11.777 -0.3689 -0.0385  0.7941
  776MPD2    H511457   0.310   1.083  11.818 -0.9046  0.8520  0.4182
  776MPD2    N111458   0.151   0.561  11.651  0.2636 -0.4409 -0.0477
  776MPD2    H711459   0.193   0.469  11.643  1.2916  0.1656 -1.6583
  777MPD2     C11460   0.774   3.264   0.666  0.2193 -0.2417  0.0414
  777MPD2    C111461   0.654   3.252   0.728 -0.1037  0.8737  0.0582
  777MPD2    C211462   0.572   3.147   0.693  0.1189 -0.7491  0.2939
  777MPD2    C311463   0.617   3.051   0.611  0.0917  0.1245  0.0498
  777MPD2    C411464   0.740   3.060   0.554  0.9007  0.3827  0.6486
  777MPD2    C511465   0.818   3.170   0.582 -0.4303  0.0977 -0.5298
  777MPD2     H11466   0.475   3.137   0.739 -1.2528 -2.0305 -2.8415
  777MPD2    H111467   0.764   2.990   0.475  3.5008  0.4817  1.3497
  777MPD2    H211468   0.829   3.356   0.681 -0.7792  0.2951  0.4416
  777MPD2    H311469   0.905   3.200   0.525 -0.1205 -0.2830 -0.2507
  777MPD2     N11470   0.530   2.946   0.581 -0.3554 -0.1308  0.6691
  777MPD2    H511471   0.449   2.948   0.642 -0.9988  2.1232 -0.2651
  777MPD2    N111472   0.616   3.364   0.812  0.2433  0.1966 -0.2448
  777MPD2    H711473   0.688   3.422   0.853  0.7044  2.6204 -4.4645
  778MPD2     C11474   0.859   2.678  15.004  0.4549  0.3161 -1.0506
  778MPD2    C111475   0.873   2.546  14.971 -0.3166 -0.3028 -0.5633
  778MPD2    C211476   0.970   2.515  14.878  0.0561 -0.2569  0.0746
  778MPD2    C311477   1.049   2.612  14.819 -0.4541 -0.1441  0.1056
  778MPD2    C411478   1.024   2.743  14.850 -0.5190 -0.3486  0.4169
  778MPD2    C511479   0.930   2.774  14.942  0.4149 -0.2162 -0.2076
  778MPD2     H11480   0.989   2.412  14.848 -0.6518 -0.8886  1.7970
  778MPD2    H111481   1.073   2.828  14.805 -1.1591 -0.7602 -1.0687
  778MPD2    H211482   0.786   2.728  15.067  3.4530  1.6783  1.4200
  778MPD2    H311483   0.911   2.880  14.953 -1.0337 -0.4549 -0.4432
  778MPD2     N11484   1.138   2.571  14.718  0.4436 -0.0495 -0.6001
  778MPD2    H511485   1.131   2.476  14.682  4.3269 -0.3637 -0.5871
  778MPD2    N111486   0.798   2.445  15.032 -0.3958  0.0500 -0.5463
  778MPD2    H711487   0.827   2.349  15.021  0.8899  0.4333 -0.4692
  779MPD2     C11488   1.041   2.326  14.285 -0.0713 -1.3792 -0.7307
  779MPD2    C111489   1.009   2.222  14.193  0.9607 -0.2250  0.0188
  779MPD2    C211490   0.973   2.255  14.062 -0.2341 -0.0511  0.5141
  779MPD2    C311491   1.010   2.376  14.013  0.1426  0.0864 -0.0293
  779MPD2    C411492   1.068   2.471  14.096 -0.5777  0.5860  0.7194
  779MPD2    C511493   1.075   2.449  14.231  0.2759 -0.7311  0.9847
  779MPD2     H11494   0.942   2.180  13.991  1.1997  0.2643 -0.4348
  779MPD2    H111495   1.109   2.564  14.058  3.7003 -0.6372  2.3191
  779MPD2    H211496   1.042   2.314  14.392 -2.5751  0.4679 -0.5030
  779MPD2    H311497   1.112   2.529  14.294 -1.6532  1.3157 -0.5054
  779MPD2     N11498   1.005   2.402  13.872  0.1335 -0.1340 -0.4048
  779MPD2    H511499   1.061   2.482  13.843 -0.2418  0.4225  0.3955
  779MPD2    N111500   0.987   2.085  14.238  0.0467  0.6125 -0.3124
  779MPD2    H711501   0.958   2.017  14.168 -1.2411 -0.3278  1.1389
  780MPD2     C11502   4.433   1.746   0.851  0.3168  0.6955  0.1032
  780MPD2    C111503   4.526   1.643   0.839 -0.4599 -0.3198 -0.2836
  780MPD2    C211504   4.636   1.662   0.759 -0.7193 -0.2745  0.2910
  780MPD2    C311505   4.654   1.781   0.694  0.2854 -0.1757  0.0290
  780MPD2    C411506   4.559   1.878   0.699 -0.3008 -0.0573  0.2453
  780MPD2    C511507   4.456   1.864   0.787 -0.2285 -0.1431 -0.4184
  780MPD2     H11508   4.710   1.586   0.738  1.5168  2.0748 -0.3355
  780MPD2    H111509   4.569   1.974   0.650 -1.1604 -1.1403 -2.0921
  780MPD2    H211510   4.345   1.732   0.913  0.9715  0.2942  0.9478
  780MPD2    H311511   4.384   1.945   0.795  1.0803  0.9531  0.3355
  780MPD2     N11512   0.045   1.791   0.609 -0.0691  0.4091  0.0095
  780MPD2    H511513   0.107   1.711   0.607 -2.1617 -1.2383  0.4303
  780MPD2    N111514   4.511   1.523   0.911 -0.9038 -0.8124  0.2803
  780MPD2    H711515   4.423   1.507   0.959  0.3061 -0.7856  2.4953
  781MPD2     C11516   2.600   3.927  11.689  0.3320  0.7276 -0.6418
  781MPD2    C111517   2.557   3.805  11.733 -0.0730  0.1409  0.5643
  781MPD2    C211518   2.506   3.708  11.648  0.6732  0.2788  0.0216
  781MPD2    C311519   2.506   3.730  11.515 -0.5020  0.1905  0.1267
  781MPD2    C411520   2.538   3.862  11.468  0.4000  0.3827 -0.2947
  781MPD2    C511521   2.584   3.953  11.557  0.0627 -0.2976  0.8094
  781MPD2     H11522   2.483   3.609  11.684 -0.0904  0.9253  1.3286
  781MPD2    H111523   2.525   3.876  11.361 -0.6926  3.4348  0.2589
  781MPD2    H211524   2.644   4.009  11.746 -1.4954 -0.3832  2.4120
  781MPD2    H311525   2.617   4.050  11.522  1.5000 -0.5940  1.3163
  781MPD2     N11526   2.473   3.629  11.414  0.4108  0.6779  0.0561
  781MPD2    H511527   2.492   3.661  11.319  2.3138 -0.1306  0.1620
  781MPD2    N111528   2.573   3.762  11.869 -0.1570 -0.0067  0.4652
  781MPD2    H711529   2.532   3.675  11.900  0.5641  0.0542  1.5634
  782MPD2     C11530   0.315   0.068   9.944 -0.2034  0.6347  0.0190
  782MPD2    C111531   0.378   4.716  10.034 -0.2083 -0.4378  0.2956
  782MPD2    C211532   0.438   0.044  10.148 -0.6352 -0.5757 -0.6093
  782MPD2    C311533   0.443   0.184  10.168 -0.4832 -0.1546 -0.5284
  782MPD2    C411534   0.385   0.261  10.069 -0.1930  0.2970  0.7212
  782MPD2    C511535   0.324   0.203   9.964  0.8962  0.2673  0.1592
  782MPD2     H11536   0.480   4.699  10.216  0.8239 -1.2887 -2.2739
  782MPD2    H111537   0.401   0.368  10.067  2.3379 -0.0716  1.3996
  782MPD2    H211538   0.265   0.044   9.850  0.5125  0.8807 -0.4283
  782MPD2    H311539   0.298   0.276   9.888  1.6522  0.8842  0.5017
  782MPD2     N11540   0.489   0.246  10.290 -0.7263 -0.3663 -0.3159
  782MPD2    H511541   0.473   0.346  10.291 -0.0707 -0.2781  1.2738
  782MPD2    N111542   0.386   4.581  10.016 -0.2903 -0.0347 -0.2868
  782MPD2    H711543   0.428   4.532  10.094  1.8141 -0.5235 -1.7266
  783MPD2     C11544   4.559   4.027  10.454 -0.0122  0.2883  0.2386
  783MPD2    C111545   4.657   4.110  10.499  0.9403  0.2987  0.1098
  783MPD2    C211546   0.034   4.141  10.413 -0.5446  0.2518  0.3306
  783MPD2    C311547   0.038   4.086  10.286  0.4887 -0.3620  0.3708
  783MPD2    C411548   4.667   3.995  10.249  0.2403  0.0689  0.7346
  783MPD2    C511549   4.572   3.966  10.338 -0.4513 -0.7142  0.1212
  783MPD2     H11550   0.126   4.189  10.446 -0.1574 -0.1528 -0.1535
  783MPD2    H111551   4.663   3.949  10.150  1.5591  0.3839  0.5361
  783MPD2    H211552   4.473   3.989  10.508 -0.1663 -2.9505 -2.3242
  783MPD2    H311553   4.494   3.892  10.327 -0.7728 -0.7296  2.5110
  783MPD2     N11554   0.141   4.125  10.201  0.1203 -0.2544 -0.1865
  783MPD2    H511555   0.213   4.183  10.243  0.1684 -1.0770  0.8857
  783MPD2    N111556   4.640   4.163  10.626 -0.1047 -0.2761  0.0072
  783MPD2    H711557   4.572   4.117  10.686  1.6667 -1.8361  0.8245
  784MPD2     C11558   2.242   0.403   1.656  0.0309 -0.4490  0.2401
  784MPD2    C111559   2.324   0.499   1.601  0.4425 -0.3424 -0.0625
  784MPD2    C211560   2.273   0.587   1.503  0.2879 -0.1691 -0.5470
  784MPD2    C311561   2.135   0.591   1.471 -0.4474 -0.1865 -0.0059
  784MPD2    C411562   2.065   0.479   1.517  0.0448  0.3292  0.1730
  784MPD2    C511563   2.113   0.389   1.608  0.2687  0.6105 -0.9167
  784MPD2     H11564   2.334   0.664   1.457  1.0687 -0.7481 -0.4773
  784MPD2    H111565   1.961   0.459   1.491  0.5211 -2.6622  0.5452
  784MPD2    H211566   2.281   0.323   1.717  2.3987  0.1261 -0.5133
  784MPD2    H311567   2.050   0.306   1.638  0.2328  0.8404 -0.3384
  784MPD2     N11568   2.082   0.686   1.386  0.5540  0.4886  0.0319
  784MPD2    H511569   2.150   0.746   1.340 -0.2053  1.9418  0.8304
  784MPD2    N111570   2.462   0.511   1.632 -0.2318  0.7550  0.6524
  784MPD2    H711571   2.503   0.598   1.601  0.8959 -0.5109 -1.3748
  785MPD2     C11572   1.881   2.780  10.474  0.4742  0.0632 -0.8150
  785MPD2    C111573   1.795   2.879  10.517  0.0189  0.1690 -0.4959
  785MPD2    C211574   1.750   2.970  10.428  0.0007 -0.4473 -0.3266
  785MPD2    C311575   1.768   2.957  10.294 -0.2273 -0.4637  0.4209
  785MPD2    C411576   1.849   2.853  10.243 -0.3768 -0.5648 -0.0479
  785MPD2    C511577   1.904   2.769  10.338  0.7744 -0.5972  0.4406
  785MPD2     H11578   1.679   3.040  10.472  0.9283  1.4026 -1.7548
  785MPD2    H111579   1.858   2.843  10.136  0.7439 -1.0367  0.0969
  785MPD2    H211580   1.922   2.707  10.542 -1.9675 -0.3245  0.2460
  785MPD2    H311581   1.966   2.687  10.304  0.7610 -1.0238  1.4270
  785MPD2     N11582   1.711   3.058  10.215 -0.7351 -0.0095  0.4257
  785MPD2    H511583   1.656   3.124  10.269 -3.4357 -1.1517 -0.9222
  785MPD2    N111584   1.766   2.901  10.656 -0.4702 -0.0589 -0.8688
  785MPD2    H711585   1.693   2.965  10.684  0.7298 -0.1844  2.5157
  786MPD2     C11586   1.006   1.227  14.760  0.8818  0.8325  0.5517
  786MPD2    C111587   1.064   1.106  14.734  0.0574  0.2444 -0.7292
  786MPD2    C211588   1.144   1.044  14.829  0.0461  0.0375  0.3912
  786MPD2    C311589   1.156   1.098  14.956  0.2317 -0.1880 -0.2695
  786MPD2    C411590   1.092   1.219  14.979  0.0055 -0.2095 -0.2399
  786MPD2    C511591   1.012   1.281  14.886  0.1690  0.1934  0.0022
  786MPD2     H11592   1.184   0.946  14.805  2.0383  0.8666  0.3981
  786MPD2    H111593   1.109   1.265  15.076 -0.7976 -0.9029  0.2333
  786MPD2    H211594   0.939   1.277  14.690  1.9751  1.7644  0.1623
  786MPD2    H311595   0.956   1.372  14.903 -1.2096 -0.9953  1.7923
  786MPD2     N11596   1.228   1.029  15.061 -0.4962  0.1743 -0.4184
  786MPD2    H511597   1.235   1.079  15.149 -0.4548 -1.1704  0.3531
  786MPD2    N111598   1.044   1.037  14.615  0.8852 -0.0136  0.5932
  786MPD2    H711599   1.083   0.943  14.614 -0.6468 -0.6056 -3.4498
  787MPD2     C11600   0.965   0.448  14.671  0.0431 -0.2265  0.4515
  787MPD2    C111601   1.029   0.465  14.547 -0.4075  0.1780  0.1325
  787MPD2    C211602   1.107   0.360  14.497  0.1972 -0.2890  0.0923
  787MPD2    C311603   1.121   0.235  14.558  0.5457 -1.0510  0.0961
  787MPD2    C411604   1.049   0.217  14.679 -0.4177 -0.3721 -0.2683
  787MPD2    C511605   0.974   0.323  14.722 -0.9885 -0.0979  0.2796
  787MPD2     H11606   1.161   0.366  14.403  0.1128 -0.8311  0.0138
  787MPD2    H111607   1.043   0.131  14.745  0.1255  0.7524  1.2392
  787MPD2    H211608   0.891   0.518  14.706 -0.6825 -1.3163  1.1135
  787MPD2    H311609   0.897   0.302  14.795 -0.3113 -1.5063  0.5757
  787MPD2     N11610   1.201   0.134  14.498  0.6198 -0.2491  0.1523
  787MPD2    H511611   1.268   0.167  14.429  0.4691 -1.2774 -0.4915
  787MPD2    N111612   1.021   0.592  14.483  0.5374  0.1484  0.3055
  787MPD2    H711613   0.976   0.665  14.537 -0.5887 -1.7563  1.9365
  788MPD2     C11614   3.017   4.012   1.247  0.9524 -0.1308 -0.1276
  788MPD2    C111615   2.982   3.986   1.116 -0.4746  0.0080 -0.7590
  788MPD2    C211616   2.912   4.083   1.047  0.3078  0.4183  0.7818
  788MPD2    C311617   2.889   4.203   1.110  0.0371  0.1236  0.1718
  788MPD2    C411618   2.934   4.227   1.241 -0.2208  0.0542 -0.3834
  788MPD2    C511619   2.984   4.124   1.318  0.0575  0.3980  0.1418
  788MPD2     H11620   2.895   4.074   0.941  0.4707  1.1934  0.6941
  788MPD2    H111621   2.932   4.327   1.283  0.2817  0.8093 -2.1628
  788MPD2    H211622   3.067   3.935   1.304 -1.9447 -2.3789 -0.6233
  788MPD2    H311623   3.006   4.150   1.421  2.7138 -1.3557  0.0154
  788MPD2     N11624   2.837   4.313   1.038  0.2974 -0.2218 -0.3609
  788MPD2    H511625   2.835   4.406   1.079  2.4455 -0.1634 -0.3573
  788MPD2    N111626   3.027   3.868   1.048 -0.0561  0.0548 -0.2334
  788MPD2    H711627   2.997   3.852   0.952 -0.1105  0.6962 -0.3180
  789MPD2     C11628   3.811   3.891  16.535  0.4778 -0.1821  0.5195
  789MPD2    C111629   3.728   3.903  16.422  0.2823  0.2302  0.5539
  789MPD2    C211630   3.610   3.970  16.441 -0.4804 -0.2669  0.4420
  789MPD2    C311631   3.585   4.049  16.553  0.7063 -0.0681 -0.4303
  789MPD2    C411632   3.674   4.044  16.657 -0.0115 -0.0370 -0.0268
  789MPD2    C511633   3.778   3.963  16.641 -0.0709  0.3190  0.1357
  789MPD2     H11634   3.542   3.972  16.357 -1.9157  0.3866  1.6169
  789MPD2    H111635   3.659   4.104  16.746  0.1399  0.1573 -0.1305
  789MPD2    H211636   3.908   3.842  16.540 -1.5317 -4.2410  0.1196
  789MPD2    H311637   3.847   3.963  16.725  1.0019  1.2947 -0.7496
  789MPD2     N11638   3.464   4.118  16.571 -0.1476 -0.3963  0.1417
  789MPD2    H511639   3.444   4.152  16.665  2.4433 -1.2544  1.0221
  789MPD2    N111640   3.740   3.835  16.305 -0.3780 -0.8838  0.5822
  789MPD2    H711641   3.656   3.834  16.247  0.9603 -0.3743 -1.3678
  790MPD2     C11642   4.604   1.298  13.464 -0.8230 -1.0312  1.0058
  790MPD2    C111643   4.517   1.187  13.478  0.1949 -0.3454  0.7665
  790MPD2    C211644   4.483   1.112  13.363  0.1671 -0.2966 -0.2907
  790MPD2    C311645   4.538   1.151  13.242  0.1116 -0.4349 -0.7092
  790MPD2    C411646   4.610   1.265  13.223 -0.1616  0.9910 -0.1523
  790MPD2    C511647   4.646   1.330  13.337 -1.1372  0.3610  1.2322
  790MPD2     H11648   4.425   1.021  13.360 -0.9103  0.2538  3.3620
  790MPD2    H111649   4.660   1.299  13.132 -0.2271  0.8457 -0.2434
  790MPD2    H211650   4.644   1.351  13.549 -0.7441  0.2243  0.1924
  790MPD2    H311651   4.706   1.418  13.322 -2.7324  0.9596 -1.8171
  790MPD2     N11652   4.515   1.066  13.128  0.4769 -0.1987  0.3052
  790MPD2    H511653   4.438   1.001  13.136 -0.3618  0.7709  0.1487
  790MPD2    N111654   4.474   1.140  13.609 -0.4489 -0.5311  0.5822
  790MPD2    H711655   4.509   1.183  13.693  1.3014  1.2738 -1.0832
  791MPD2     C11656   4.026   1.109  12.660  0.3080  0.2654 -0.2933
  791MPD2    C111657   4.060   0.982  12.690  0.8231  0.3368  0.1887
  791MPD2    C211658   3.976   0.883  12.664  0.6249  0.1487 -0.2888
  791MPD2    C311659   3.848   0.903  12.623  0.7558 -1.0326 -0.3413
  791MPD2    C411660   3.811   1.029  12.589 -0.0368 -0.4580  0.3625
  791MPD2    C511661   3.909   1.132  12.595  0.5237  0.1145 -0.0087
  791MPD2     H11662   4.003   0.780  12.686  0.0483  1.0444  4.5753
  791MPD2    H111663   3.713   1.054  12.552  1.1565  2.6189 -0.7243
  791MPD2    H211664   4.086   1.190  12.699 -0.8707  0.4074  1.2418
  791MPD2    H311665   3.877   1.234  12.577  1.3762  0.0824 -1.7294
  791MPD2     N11666   3.773   0.792  12.589  0.5555  0.3877  0.1957
  791MPD2    H511667   3.829   0.707  12.588 -2.8023 -1.7939 -0.4510
  791MPD2    N111668   4.182   0.965  12.765  0.4420  0.3168 -0.8123
  791MPD2    H711669   4.246   1.044  12.766 -0.4905  1.0860 -0.8163
  792MPD2     C11670   0.416   0.618  11.154 -0.0726  0.6813  0.6352
  792MPD2    C111671   0.281   0.617  11.190 -0.3292 -0.4137 -0.0041
  792MPD2    C211672   0.189   0.537  11.122  0.2107  0.2378 -0.1688
  792MPD2    C311673   0.245   0.453  11.025  0.3577  0.1297 -0.1762
  792MPD2    C411674   0.378   0.444  10.999  0.6648 -0.2438 -0.2737
  792MPD2    C511675   0.462   0.530  11.059  0.1893 -0.1876  0.3222
  792MPD2     H11676   0.082   0.548  11.131  0.1627  1.4208 -2.3423
  792MPD2    H111677   0.423   0.378  10.926  1.0972  2.7399 -2.7174
  792MPD2    H211678   0.493   0.675  11.205  2.1094 -1.0506 -0.6927
  792MPD2    H311679   0.566   0.509  11.036 -0.2531 -1.8715 -0.1313
  792MPD2     N11680   0.171   0.353  10.956  0.2837 -0.3629  0.2460
  792MPD2    H511681   0.217   0.293  10.889  3.4184  0.9609  1.2231
  792MPD2    N111682   0.251   0.713  11.295 -0.4504 -0.9420 -0.5283
  792MPD2    H711683   0.334   0.750  11.339 -2.0720 -1.6535  3.1217
  793MPD2     C11684   4.057   0.081  10.547 -0.0261 -0.3931  0.0430
  793MPD2    C111685   4.159   0.171  10.528 -0.3746  0.3272  0.1496
  793MPD2    C211686   4.256   0.188  10.631  0.4008  0.0005  0.3234
  793MPD2    C311687   4.262   0.106  10.748  0.6911  0.2389 -0.3885
  793MPD2    C411688   4.155   0.017  10.762 -0.6816 -0.2007 -0.5762
  793MPD2    C511689   4.055   0.007  10.663  0.1159  0.3109  0.8253
  793MPD2     H11690   4.339   0.256  10.619  0.1431  0.5336  1.5722
  793MPD2    H111691   4.147   4.678  10.848 -1.2798  1.0850  0.3390
  793MPD2    H211692   3.978   0.056  10.477  0.1721  0.1780 -0.3827
  793MPD2    H311693   3.982   4.655  10.674 -0.5481  1.0296  1.5819
  793MPD2     N11694   4.379   0.104  10.827  0.5012 -0.4133 -0.1844
  793MPD2    H511695   4.442   0.182  10.817 -0.1329  0.1917  0.5484
  793MPD2    N111696   4.177   0.237  10.409 -0.1428  0.0453  0.2124
  793MPD2    H711697   4.270   0.276  10.397  0.0598 -0.9094 -1.3487
  794MPD2     C11698   4.489   4.077  16.692  0.2466 -0.0406 -0.1883
  794MPD2    C111699   4.423   4.111  16.803 -0.3745 -0.5767  0.8786
  794MPD2    C211700   4.334   4.216  16.786  0.3371  0.3642  0.2197
  794MPD2    C311701   4.303   4.272  16.662 -0.7464  0.1039  0.4896
  794MPD2    C411702   4.370   4.225  16.549 -0.3892 -0.2120 -0.0670
  794MPD2    C511703   4.467   4.133  16.574  0.5855  0.0991 -0.4450
  794MPD2     H11704   4.277   4.238  16.875  0.8796 -0.3552  0.7443
  794MPD2    H111705   4.349   4.262  16.449 -1.1265  2.4164  1.0670
  794MPD2    H211706   4.578   4.015  16.690 -1.1525 -2.0666  0.6177
  794MPD2    H311707   4.526   4.105  16.487 -0.6155 -0.7201 -1.0066
  794MPD2     N11708   4.196   4.354  16.643  0.1774  0.2801 -0.3080
  794MPD2    H511709   4.154   4.340  16.551 -2.2049  0.0344  0.8238
  794MPD2    N111710   4.453   4.066  16.934  0.3608 -0.0046  0.0267
  794MPD2    H711711   4.405   4.113  17.010  2.0572  2.4650 -0.4432
  795MPD2     C11712   1.981   2.057  13.175  0.5423  0.8582 -0.1656
  795MPD2    C111713   1.923   2.008  13.291  0.0992 -0.1492  0.1245
  795MPD2    C211714   1.999   1.941  13.383 -0.3903  0.1962 -0.8396
  795MPD2    C311715   2.138   1.923  13.354 -0.7807  0.4841 -0.5338
  795MPD2    C411716   2.195   1.976  13.240 -0.1763 -0.9935  0.4449
  795MPD2    C511717   2.111   2.039  13.152  0.3338 -0.8775 -0.0246
  795MPD2     H11718   1.959   1.928  13.483  0.3849 -1.7575 -0.7693
  795MPD2    H111719   2.296   1.973  13.202 -0.4040 -2.1591 -0.0702
  795MPD2    H211720   1.930   2.115  13.099 -1.3533 -0.0983  0.3586
  795MPD2    H311721   2.156   2.075  13.061 -0.2366  0.0476  0.0570
  795MPD2     N11722   2.226   1.861  13.450 -0.0825 -0.2144  0.3878
  795MPD2    H511723   2.187   1.833  13.539 -0.6804 -2.1452 -0.4685
  795MPD2    N111724   1.797   2.048  13.328 -0.6418  0.7560 -0.0244
  795MPD2    H711725   1.753   1.995  13.403  0.6208 -1.0467 -0.5877
  796MPD2     C11726   1.681   3.597  15.291 -0.1665 -0.5804 -0.4027
  796MPD2    C111727   1.776   3.687  15.333 -0.0491 -0.2377 -0.3329
  796MPD2    C211728   1.748   3.825  15.338 -0.2284 -0.0912 -0.7950
  796MPD2    C311729   1.630   3.879  15.296  0.0019 -0.0518 -0.3011
  796MPD2    C411730   1.537   3.787  15.247  0.4400 -0.9390 -0.9454
  796MPD2    C511731   1.563   3.650  15.246 -0.2442 -0.3917 -0.0034
  796MPD2     H11732   1.821   3.896  15.376 -1.6690  0.7787  0.3741
  796MPD2    H111733   1.435   3.813  15.222  1.1467  2.7092 -0.0881
  796MPD2    H211734   1.700   3.490  15.289 -0.4505 -0.6165 -1.1503
  796MPD2    H311735   1.487   3.583  15.207 -1.7783  0.7639  1.0243
  796MPD2     N11736   1.614   4.022  15.303 -0.3903  0.4345  0.8000
  796MPD2    H511737   1.688   4.074  15.350  0.6413 -1.8706  1.7407
  796MPD2    N111738   1.906   3.642  15.378  0.5059 -0.9123  0.4994
  796MPD2    H711739   1.912   3.543  15.396  0.1864 -0.6446  2.0487
  797MPD2     C11740   2.462   3.527  16.904  0.5131 -0.3690  0.2730
  797MPD2    C111741   2.547   3.630  16.881 -0.4095 -0.4187 -0.3738
  797MPD2    C211742   2.510   3.722  16.783 -0.0692 -0.9493 -0.9242
  797MPD2    C311743   2.403   3.709  16.694 -0.4359  1.1877 -0.0974
  797MPD2    C411744   2.320   3.600  16.724  0.4133  0.0317  0.4711
  797MPD2    C511745   2.347   3.509  16.830  0.1243 -0.1711  0.3360
  797MPD2     H11746   2.569   3.810  16.761 -2.4355  1.0628  0.7601
  797MPD2    H111747   2.236   3.575  16.659 -1.4848 -0.6539  3.1849
  797MPD2    H211748   2.483   3.447  16.974  2.7156 -0.9029 -0.9793
  797MPD2    H311749   2.283   3.431  16.870 -0.3577 -0.7495 -1.5732
  797MPD2     N11750   2.376   3.801  16.591 -0.0219  0.1129 -0.1139
  797MPD2    H511751   2.446   3.872  16.571 -1.4511  1.5777  0.1295
  797MPD2    N111752   2.665   3.657  16.960  0.3763 -0.0598 -0.7690
  797MPD2    H711753   2.708   3.749  16.953  2.6411 -1.1057 -0.4441
  798MPD2     C11754   2.261   4.205  17.051 -0.7653  0.6121  0.2457
  798MPD2    C111755   2.356   4.183  16.956  0.1342 -0.2663 -0.0218
  798MPD2    C211756   2.481   4.135  16.994 -0.2941 -0.6647  0.2470
  798MPD2    C311757   2.504   4.107  17.128 -0.4722  0.0231  0.0324
  798MPD2    C411758   2.402   4.128  17.219 -0.1406 -0.0489 -0.3046
  798MPD2    C511759   2.283   4.179  17.183  0.0434  0.2411  0.0282
  798MPD2     H11760   2.565   4.114  16.928  0.1289 -2.8004  1.4839
  798MPD2    H111761   2.413   4.104  17.324  0.3247  1.0291 -0.1044
  798MPD2    H211762   2.163   4.238  17.020 -0.2568  2.4032  0.5347
  798MPD2    H311763   2.203   4.194  17.255  0.0134  2.3210 -0.4294
  798MPD2     N11764   2.617   4.044  17.165  0.3909  0.0684 -0.3959
  798MPD2    H511765   2.670   4.020  17.082 -1.3705  0.1340 -1.5207
  798MPD2    N111766   2.319   4.200  16.825 -0.1056 -0.0124 -0.1747
  798MPD2    H711767   2.220   4.212  16.806 -0.8419 -1.0937  3.0896
  799MPD2     C11768   1.862   0.113  14.120 -0.4711  0.2041  0.8513
  799MPD2    C111769   1.790   4.725  14.088  0.3664  0.2567  1.3250
  799MPD2    C211770   1.664   0.008  14.030 -0.6823  0.0611 -0.6397
  799MPD2    C311771   1.618   0.133  14.002 -0.0975 -0.3931 -0.2743
  799MPD2    C411772   1.685   0.248  14.039  0.1903 -0.8386  0.2280
  799MPD2    C511773   1.813   0.237  14.082  0.4005 -0.0220  0.1944
  799MPD2     H11774   1.603   4.649  14.003  0.9178 -0.4614 -2.5554
  799MPD2    H111775   1.641   0.341  14.005 -3.2452 -2.0164  1.5181
  799MPD2    H211776   1.966   0.116  14.147  0.0205 -3.4254 -0.6597
  799MPD2    H311777   1.871   0.327  14.101 -0.4914  0.7031 -0.5599
  799MPD2     N11778   1.497   0.157  13.938  0.1453  0.0698  0.5540
  799MPD2    H511779   1.472   0.255  13.936  0.9685  0.2498 -0.6321
  799MPD2    N111780   1.836   4.592  14.101 -0.2345  0.0186 -0.2737
  799MPD2    H711781   1.778   4.519  14.061  0.9454 -0.5572 -0.9274
  800MPD2     C11782   1.594   0.984  13.685  0.1004  0.1030  0.1243
  800MPD2    C111783   1.726   0.955  13.708 -0.6673  0.9906 -0.2610
  800MPD2    C211784   1.791   0.885  13.613  0.0590  0.0122  0.0764
  800MPD2    C311785   1.725   0.840  13.501  0.4871  0.2613  0.5402
  800MPD2    C411786   1.586   0.857  13.482  1.0197 -0.7149 -0.9109
  800MPD2    C511787   1.524   0.930  13.578  0.2234 -0.2386 -0.4076
  800MPD2     H11788   1.895   0.861  13.631 -0.2484  1.4183  3.7979
  800MPD2    H111789   1.527   0.828  13.396  0.0848  2.1007 -1.2284
  800MPD2    H211790   1.548   1.057  13.750 -2.8652 -0.0144 -1.8587
  800MPD2    H311791   1.417   0.929  13.568  0.1886 -0.2283 -0.0455
  800MPD2     N11792   1.805   0.759  13.407  0.0354 -0.0567  0.5471
  800MPD2    H511793   1.903   0.741  13.428  0.2232  0.0555 -0.2557
  800MPD2    N111794   1.794   1.013  13.812 -0.4319 -0.3184 -0.4296
  800MPD2    H711795   1.744   1.086  13.863  0.9120  0.5174 -0.2917
  801MPD2     C11796   1.997   1.714  14.278 -0.0426 -0.1321 -0.2278
  801MPD2    C111797   1.921   1.618  14.220  0.3144 -0.0476  0.1353
  801MPD2    C211798   1.800   1.582  14.271 -0.2438 -0.1810 -0.1582
  801MPD2    C311799   1.749   1.645  14.376  0.2981 -0.4478  0.2991
  801MPD2    C411800   1.822   1.738  14.448  0.1235 -0.8645  0.6741
  801MPD2    C511801   1.945   1.772  14.395  0.7439  0.0019  0.0359
  801MPD2     H11802   1.744   1.497  14.234 -1.1219  0.6667 -0.7621
  801MPD2    H111803   1.785   1.786  14.537  1.7352  0.0544  0.8527
  801MPD2    H211804   2.091   1.744  14.231 -1.2561  2.1334 -1.1978
  801MPD2    H311805   2.007   1.844  14.447  0.0955 -0.4299  1.3976
  801MPD2     N11806   1.639   1.588  14.447  0.1712  0.4015  0.2779
  801MPD2    H511807   1.635   1.623  14.543  1.7296  0.1602  0.4319
  801MPD2    N111808   1.974   1.539  14.106  0.0292 -0.5780  0.3584
  801MPD2    H711809   2.070   1.559  14.080  0.2842 -2.0456  0.1850
  802MPD2     C11810   1.016   1.817  16.863 -0.1103  0.9445  0.0804
  802MPD2    C111811   1.062   1.818  16.996 -0.0783  0.6858 -0.6434
  802MPD2    C211812   1.145   1.717  17.035  0.3461 -0.7263 -0.5987
  802MPD2    C311813   1.176   1.615  16.951  0.1257 -0.1048 -0.5507
  802MPD2    C411814   1.133   1.616  16.824 -0.3748 -0.3551  0.5480
  802MPD2    C511815   1.059   1.719  16.780  0.3246  0.4000  0.2124
  802MPD2     H11816   1.194   1.728  17.131 -1.3060  1.6383 -0.0317
  802MPD2    H111817   1.150   1.537  16.752  1.0506  0.3058  0.1591
  802MPD2    H211818   0.942   1.888  16.829 -0.8901  0.1024 -0.0012
  802MPD2    H311819   1.030   1.705  16.677  0.3700 -0.8103  0.3561
  802MPD2     N11820   1.252   1.518  17.013  0.4620 -0.0041  0.3642
  802MPD2    H511821   1.268   1.540  17.111 -1.5312  1.9228  0.2447
  802MPD2    N111822   1.037   1.921  17.085 -0.3548  0.2656  0.4051
  802MPD2    H711823   1.077   1.914  17.178  2.3088 -1.5197 -0.8631
  803MPD2     C11824   2.460   0.757  11.770  0.4764  0.0972  0.2639
  803MPD2    C111825   2.559   0.748  11.859 -0.1113 -1.0299  0.3123
  803MPD2    C211826   2.548   0.669  11.969  0.2160 -0.2061 -0.3614
  803MPD2    C311827   2.437   0.583  11.986  0.8237 -0.4149 -0.4942
  803MPD2    C411828   2.330   0.595  11.895  0.0868 -0.0281  0.2786
  803MPD2    C511829   2.349   0.682  11.791  0.2877  0.3523  0.0691
  803MPD2     H11830   2.623   0.674  12.047  0.9345 -2.3472 -0.9014
  803MPD2    H111831   2.236   0.541  11.900  0.9538 -1.6933 -1.1939
  803MPD2    H211832   2.463   0.825  11.687 -5.3498 -0.2645 -0.2468
  803MPD2    H311833   2.267   0.690  11.721 -0.4455 -0.2979  0.8592
  803MPD2     N11834   2.419   0.499  12.100  0.1943  0.1984 -0.3088
  803MPD2    H511835   2.329   0.458  12.119 -1.2061  2.4461 -2.0806
  803MPD2    N111836   2.683   0.821  11.850  0.0717 -0.1506 -0.0666
  803MPD2    H711837   2.742   0.813  11.932  2.4437  1.3173 -1.6558
  804MPD2     C11838   2.096   2.144  16.897  0.3736  0.3319 -1.2493
  804MPD2    C111839   2.136   2.102  17.019  0.3514  0.3586  0.2785
  804MPD2    C211840   2.230   2.179  17.083  0.2804 -0.6666  0.5156
  804MPD2    C311841   2.280   2.300  17.044  0.3470 -0.1754 -0.2108
  804MPD2    C411842   2.232   2.341  16.924  0.0033  0.2610  0.2904
  804MPD2    C511843   2.142   2.266  16.851  0.7066  0.0233  0.1266
  804MPD2     H11844   2.280   2.146  17.173 -0.6270 -2.5047  0.3583
  804MPD2    H111845   2.272   2.426  16.871  0.4149 -1.0493 -1.5090
  804MPD2    H211846   2.028   2.094  16.829 -0.0076 -0.6948 -0.1294
  804MPD2    H311847   2.113   2.295  16.751  0.0151 -1.2822 -0.0514
  804MPD2     N11848   2.376   2.365  17.127 -0.4581 -0.1678 -0.9345
  804MPD2    H511849   2.399   2.320  17.215 -1.5895 -0.9690 -1.0498
  804MPD2    N111850   2.094   1.986  17.080 -0.0360 -0.4312 -0.1280
  804MPD2    H711851   2.122   1.981  17.177  2.7256  2.6952 -0.7615
  805MPD2     C11852   1.252   0.636  15.745 -0.2837 -0.5995  0.0426
  805MPD2    C111853   1.344   0.556  15.679  0.1152 -0.6246 -0.2021
  805MPD2    C211854   1.478   0.549  15.724 -0.4851 -0.7393  0.6281
  805MPD2    C311855   1.520   0.608  15.836 -0.2339  0.3261  0.1170
  805MPD2    C411856   1.424   0.679  15.903 -0.6009  0.0283  0.2506
  805MPD2    C511857   1.290   0.697  15.860 -0.1646  0.0892 -1.2280
  805MPD2     H11858   1.547   0.501  15.656 -0.1910  0.5058  0.0510
  805MPD2    H111859   1.437   0.739  15.993  0.7378  1.1275 -0.6633
  805MPD2    H211860   1.159   0.659  15.695 -0.1410 -0.1044  0.0042
  805MPD2    H311861   1.228   0.768  15.914  0.2453 -1.3707  1.1799
  805MPD2     N11862   1.652   0.603  15.899 -0.5420  1.0205  0.0953
  805MPD2    H511863   1.667   0.661  15.981 -2.3513 -0.3798  1.4400
  805MPD2    N111864   1.314   0.484  15.557 -0.2992 -0.0630  0.0036
  805MPD2    H711865   1.393   0.451  15.502 -1.1699 -1.5060 -0.3724
  806MPD2     C11866   2.480   0.340   1.371  0.8794 -0.3647 -0.4153
  806MPD2    C111867   2.378   0.321   1.282  0.7881  0.0958  0.1883
  806MPD2    C211868   2.353   0.418   1.181  0.0776  0.0998  0.0613
  806MPD2    C311869   2.435   0.521   1.165  0.6862  0.0368  0.5563
  806MPD2    C411870   2.546   0.539   1.246 -0.2292  0.5215 -0.1208
  806MPD2    C511871   2.563   0.450   1.350  0.8162  0.8857  0.4443
  806MPD2     H11872   2.272   0.417   1.110 -1.6097  2.1512  1.9807
  806MPD2    H111873   2.616   0.622   1.244 -0.3404  0.6340  0.8216
  806MPD2    H211874   2.502   0.266   1.447 -0.3201  0.1834  0.4683
  806MPD2    H311875   2.650   0.462   1.413  0.1647 -3.2077  2.1184
  806MPD2     N11876   2.402   0.603   1.051 -0.0072 -0.3528 -0.0491
  806MPD2    H511877   2.327   0.572   0.989  0.1489 -0.3348 -0.2461
  806MPD2    N111878   2.291   0.209   1.310  0.3191 -0.4092 -0.3303
  806MPD2    H711879   2.296   0.167   1.402  0.0768  0.3309  0.0279
  807MPD2     C11880   2.175   4.518   1.844 -0.1412  0.2388 -0.8457
  807MPD2    C111881   2.177   4.467   1.719  0.2293 -0.3551  0.2683
  807MPD2    C211882   2.230   4.338   1.706  0.9852 -0.3715 -0.0309
  807MPD2    C311883   2.299   4.268   1.802 -0.0901 -0.5838  0.2626
  807MPD2    C411884   2.303   4.324   1.931 -0.8337 -0.2114 -0.7540
  807MPD2    C511885   2.231   4.449   1.952 -0.6219 -0.4250 -0.0198
  807MPD2     H11886   2.230   4.303   1.604  0.9174 -2.4872  0.6865
  807MPD2    H111887   2.348   4.280   2.019 -1.3683 -0.9267 -0.8410
  807MPD2    H211888   2.131   4.616   1.860 -1.3314 -0.5544  0.7600
  807MPD2    H311889   2.239   4.486   2.054 -0.1095  0.8263 -0.5153
  807MPD2     N11890   2.353   4.151   1.759 -0.7449  0.4380 -0.3680
  807MPD2    H511891   2.338   4.138   1.660 -0.4993  0.6016 -0.4269
  807MPD2    N111892   2.132   4.537   1.607 -0.9316  0.3306  0.0098
  807MPD2    H711893   2.137   4.498   1.514  1.0274  1.8993 -0.5352
  808MPD2     C11894   1.561   0.901   9.326  0.0086  0.2838 -0.3417
  808MPD2    C111895   1.577   0.772   9.372 -0.6419  0.2149 -0.0125
  808MPD2    C211896   1.694   0.750   9.448  0.2914  0.3681 -0.1099
  808MPD2    C311897   1.781   0.849   9.468 -0.8068 -0.2125 -0.6877
  808MPD2    C411898   1.750   0.983   9.437 -0.0010  0.8414  1.1605
  808MPD2    C511899   1.641   1.004   9.357 -0.3231  0.1998 -0.1323
  808MPD2     H11900   1.713   0.648   9.480  1.3579  0.2809 -1.0464
  808MPD2    H111901   1.814   1.069   9.454  1.6795  0.6172 -4.0464
  808MPD2    H211902   1.488   0.926   9.249  1.7780 -0.8164 -2.3896
  808MPD2    H311903   1.604   1.102   9.329  0.2571  0.5550  0.3101
  808MPD2     N11904   1.906   0.821   9.533  0.3387 -0.0231 -0.3106
  808MPD2    H511905   1.963   0.904   9.548  0.0049 -0.0788  1.2492
  808MPD2    N111906   1.499   0.665   9.343 -0.0325  0.2526 -0.3543
  808MPD2    H711907   1.533   0.578   9.382 -3.2564 -1.3066 -0.9645
  809MPD2     C11908   2.545   0.547   9.012  0.5499 -0.4468 -0.4061
  809MPD2    C111909   2.615   0.528   9.127  0.3834 -0.7062 -0.9368
  809MPD2    C211910   2.561   0.528   9.252  0.5484 -0.5132 -0.0768
  809MPD2    C311911   2.421   0.546   9.254 -0.4602 -0.6764 -0.8682
  809MPD2    C411912   2.349   0.559   9.135 -0.5930  0.4084 -0.8285
  809MPD2    C511913   2.413   0.562   9.007 -0.0454  0.4560  0.7486
  809MPD2     H11914   2.617   0.497   9.339  0.1603 -1.0344 -0.0134
  809MPD2    H111915   2.241   0.569   9.134 -0.6932 -0.6806 -1.7937
  809MPD2    H211916   2.593   0.551   8.915  0.2592  1.9095 -0.4376
  809MPD2    H311917   2.362   0.588   8.914  1.5285  1.0545  0.0650
  809MPD2     N11918   2.346   0.567   9.377 -0.3866 -0.0964  0.0917
  809MPD2    H511919   2.246   0.583   9.372 -0.6259 -1.3651  0.8668
  809MPD2    N111920   2.752   0.507   9.113  0.0466 -0.1052 -0.4564
  809MPD2    H711921   2.793   0.488   9.022 -0.0729  0.3653 -0.6066
  810MPD2     C11922   2.097   0.617   9.984 -0.1672 -0.9686  0.7243
  810MPD2    C111923   1.981   0.693   9.983  0.1884  0.1656  0.0126
  810MPD2    C211924   1.990   0.825  10.011 -0.1916 -0.0796 -0.4712
  810MPD2    C311925   2.112   0.876  10.060 -0.0659 -0.3679  0.2471
  810MPD2    C411926   2.226   0.799  10.068 -0.3566 -0.4370  0.1600
  810MPD2    C511927   2.216   0.666  10.029 -0.3056  0.2845 -0.1222
  810MPD2     H11928   1.897   0.880  10.003  1.3350  2.4545 -1.0575
  810MPD2    H111929   2.318   0.830  10.115 -0.2531 -0.6760  0.1170
  810MPD2    H211930   2.097   0.510   9.964 -3.6400 -1.1583  1.6673
  810MPD2    H311931   2.296   0.599  10.058  0.7312  1.5401 -0.0527
  810MPD2     N11932   2.123   1.009  10.099  0.3935  0.5400 -0.7983
  810MPD2    H511933   2.209   1.044  10.140 -0.1640  1.6609 -0.5946
  810MPD2    N111934   1.855   0.636   9.939 -0.7575 -0.5097  0.2833
  810MPD2    H711935   1.778   0.702   9.946 -0.8793 -0.3986 -2.1461
  811MPD2     C11936   1.060   0.617   9.612  0.2816  0.0479 -0.4573
  811MPD2    C111937   1.182   0.670   9.639 -0.5064  0.4850  0.0671
  811MPD2    C211938   1.204   0.812   9.621  0.1660 -0.2953 -0.1625
  811MPD2    C311939   1.106   0.889   9.561  0.8536  0.0993 -0.4849
  811MPD2    C411940   0.982   0.834   9.554 -0.0164 -0.4341 -0.3941
  811MPD2    C511941   0.963   0.699   9.570 -0.2786 -0.0812  0.2940
  811MPD2     H11942   1.297   0.858   9.654 -0.4727 -0.1886  1.4385
  811MPD2    H111943   0.887   0.884   9.537 -0.2006 -0.5809  0.2026
  811MPD2    H211944   1.033   0.516   9.641 -1.9624  0.5513 -0.8133
  811MPD2    H311945   0.859   0.667   9.565 -0.6060  1.0234  0.0796
  811MPD2     N11946   1.133   1.026   9.541 -0.1094  0.4395  0.6660
  811MPD2    H511947   1.224   1.062   9.569  0.4154 -1.0592  0.8918
  811MPD2    N111948   1.278   0.580   9.694  0.1873  0.1252 -0.3608
  811MPD2    H711949   1.260   0.480   9.699 -0.3583  0.2949  1.1786
  812MPD2     C11950   0.807   0.682  12.074  0.1954  0.1809  0.3374
  812MPD2    C111951   0.763   0.713  12.205 -0.2935  0.1956  0.3623
  812MPD2    C211952   0.758   0.611  12.305  0.1774  0.6248  0.5443
  812MPD2    C311953   0.785   0.480  12.274 -0.8276 -0.0149 -0.2687
  812MPD2    C411954   0.821   0.455  12.141  0.5902 -1.0794  0.0274
  812MPD2    C511955   0.841   0.554  12.048  0.0778  0.2720 -0.5148
  812MPD2     H11956   0.734   0.640  12.407  0.3914  1.7329  0.2816
  812MPD2    H111957   0.855   0.355  12.116 -1.9303 -1.8819 -0.1381
  812MPD2    H211958   0.834   0.763  12.007  1.6837 -2.6726 -2.4536
  812MPD2    H311959   0.888   0.539  11.952 -0.4162  0.7875 -0.8358
  812MPD2     N11960   0.790   0.380  12.374  0.4855  0.2832 -0.1327
  812MPD2    H511961   0.745   0.399  12.463  1.4311  2.5078 -0.1225
  812MPD2    N111962   0.745   0.852  12.239  0.7013 -0.2443  0.4021
  812MPD2    H711963   0.755   0.920  12.165  0.1017  0.1780  0.7104
  813MPD2     C11964   4.212   2.855  12.934 -0.0712 -0.5519  0.0848
  813MPD2    C111965   4.306   2.825  13.031  0.0225  0.4419  0.7369
  813MPD2    C211966   4.259   2.760  13.142  0.4703 -0.1082  0.2166
  813MPD2    C311967   4.128   2.722  13.160 -0.1819 -0.6846  0.5105
  813MPD2    C411968   4.038   2.749  13.058  0.3771 -0.4666  0.9815
  813MPD2    C511969   4.081   2.824  12.948  0.3194 -0.0957 -0.3728
  813MPD2     H11970   4.322   2.746  13.229  1.7701 -1.1114 -0.8942
  813MPD2    H111971   3.935   2.718  13.074  0.5386 -1.2009  0.6048
  813MPD2    H211972   4.239   2.920  12.852 -2.5504  0.3539 -0.0386
  813MPD2    H311973   4.013   2.852  12.868  0.5658  1.1184 -0.1503
  813MPD2     N11974   4.090   2.670  13.289  0.5755  0.6412 -0.0658
  813MPD2    H511975   4.162   2.656  13.359  0.2181 -1.9732 -0.2540
  813MPD2    N111976   4.443   2.875  13.022 -0.0667  0.7734  0.0683
  813MPD2    H711977   4.453   2.937  12.942 -1.2855  1.2904  0.3216
  814MPD2     C11978   0.426   4.007  12.147  0.5435 -0.4645 -0.3090
  814MPD2    C111979   0.413   4.058  12.020  0.1497  1.0343  0.4443
  814MPD2    C211980   0.489   4.171  11.994  0.4423 -0.1781 -0.2036
  814MPD2    C311981   0.551   4.241  12.097 -0.3034  0.4507 -0.3124
  814MPD2    C411982   0.570   4.181  12.219  0.6404  0.0110  0.1177
  814MPD2    C511983   0.514   4.058  12.244 -0.3587 -0.0593 -0.0651
  814MPD2     H11984   0.493   4.202  11.890 -2.0201 -2.5890 -1.0075
  814MPD2    H111985   0.628   4.224  12.300  1.1429  1.1102 -0.8357
  814MPD2    H211986   0.372   3.917  12.173 -2.9181  1.7816  0.2576
  814MPD2    H311987   0.509   4.007  12.339  0.1233  1.1117  0.5833
  814MPD2     N11988   0.614   4.366  12.080  0.5597 -0.3822 -0.2754
  814MPD2    H511989   0.666   4.406  12.158 -3.3950 -0.0539  2.2023
  814MPD2    N111990   0.349   3.999  11.907 -0.3227 -0.1955  0.2295
  814MPD2    H711991   0.373   4.032  11.814  3.0757  0.6457  1.4110
  815MPD2     C11992   0.844   2.742  11.793  0.9629 -0.1981 -0.5759
  815MPD2    C111993   0.842   2.604  11.808 -0.0683 -0.6683  0.6428
  815MPD2    C211994   0.785   2.546  11.919 -0.2637 -0.8173 -0.8945
  815MPD2    C311995   0.732   2.627  12.015 -0.4406 -0.6930  0.1069
  815MPD2    C411996   0.734   2.766  11.996  0.2875  0.4016  0.9533
  815MPD2    C511997   0.787   2.824  11.881  0.4373  0.2050  0.0515
  815MPD2     H11998   0.774   2.439  11.935  2.8290 -0.9232  0.7404
  815MPD2    H111999   0.689   2.831  12.070  0.2206  1.8701 -0.3724
  815MPD2    H212000   0.898   2.780  11.708  0.4809 -1.2497 -1.3562
  815MPD2    H312001   0.792   2.931  11.861 -3.0064  0.4510  0.3834
  815MPD2     N12002   0.662   2.558  12.121 -0.0750 -0.2124 -0.4760
  815MPD2    H512003   0.662   2.457  12.129  0.6609 -0.2934 -1.4953
  815MPD2    N112004   0.902   2.527  11.705 -0.0067  0.4455 -0.2621
  815MPD2    H712005   0.930   2.567  11.616  1.1641 -0.0911 -0.1398
  816MPD2     C12006   0.090   1.589  17.148  0.0430  0.2306 -0.2930
  816MPD2    C112007   0.197   1.654  17.213 -0.0980 -1.1806 -0.5969
  816MPD2    C212008   0.321   1.620  17.165  0.1688 -0.1314  0.4530
  816MPD2    C312009   0.348   1.535  17.064 -0.4031 -0.4871  0.0699
  816MPD2    C412010   0.242   1.495  16.990 -0.1166 -0.9882  0.4318
  816MPD2    C512011   0.114   1.520  17.033  0.3073 -0.1886  0.0909
  816MPD2     H12012   0.408   1.666  17.212  0.6091 -0.0198 -0.4738
  816MPD2    H112013   0.239   1.443  16.895 -0.9094  1.1218 -0.7143
  816MPD2    H212014   4.717   1.599  17.188 -0.0962  1.3940 -0.9349
  816MPD2    H312015   0.036   1.491  16.963  0.2984 -1.0182  0.4473
  816MPD2     N12016   0.479   1.505  17.029 -0.3719  0.6458  0.5119
  816MPD2    H512017   0.552   1.556  17.078  1.4123 -2.9638  1.6589
  816MPD2    N112018   0.164   1.758  17.299  0.2884 -1.0743 -0.0530
  816MPD2    H712019   0.068   1.789  17.287  0.6450 -0.4321 -1.2220
  817MPD2     C12020   0.034   2.886  10.236 -0.2491  0.2643  0.6439
  817MPD2    C112021   0.108   2.912  10.126  0.1890  0.1910 -0.4711
  817MPD2    C212022   0.056   3.003  10.031  0.1649  0.7340 -0.0079
  817MPD2    C312023   4.650   3.052  10.039 -0.2635 -0.1392  0.1455
  817MPD2    C412024   4.574   3.005  10.149  0.0921 -0.3391 -0.0010
  817MPD2    C512025   4.637   2.934  10.243 -0.1467  0.1880 -0.6306
  817MPD2     H12026   0.112   3.012   9.938  0.7719  3.6660  0.6684
  817MPD2    H112027   4.470   3.029  10.164 -0.2965 -2.6463  0.9323
  817MPD2    H212028   0.068   2.821  10.315 -0.8152  0.2587  0.8890
  817MPD2    H312029   4.576   2.906  10.327  2.9084 -0.2751  1.4138
  817MPD2     N12030   4.601   3.121   9.932 -0.0866  0.2321 -0.4381
  817MPD2    H512031   4.663   3.117   9.851  1.4564  0.4635  0.7248
  817MPD2    N112032   0.232   2.852  10.107 -0.4092  0.2675 -0.1787
  817MPD2    H712033   0.284   2.871  10.022 -0.5928 -2.3212 -0.8438
  818MPD2     C12034   3.523   2.873  10.075  0.2025  0.1650 -0.4299
  818MPD2    C112035   3.549   2.826  10.204 -0.0632 -0.4875  0.9911
  818MPD2    C212036   3.639   2.729  10.223  0.7236 -0.3404 -0.0736
  818MPD2    C312037   3.706   2.679  10.113  0.9149  0.6695  0.7477
  818MPD2    C412038   3.684   2.721   9.987  0.6720  0.3912 -0.6249
  818MPD2    C512039   3.598   2.824   9.971 -0.2107  0.4791 -0.2021
  818MPD2     H12040   3.647   2.694  10.325  2.4590 -1.9185 -0.7601
  818MPD2    H112041   3.747   2.689   9.904  0.3140 -0.9635 -0.3721
  818MPD2    H212042   3.454   2.955  10.059 -0.6224 -0.3380  0.6116
  818MPD2    H312043   3.578   2.871   9.876 -1.2438  0.4325 -0.0006
  818MPD2     N12044   3.803   2.566  10.124 -0.2361 -0.9083 -0.6053
  818MPD2    H512045   3.838   2.527  10.037  1.7819  1.6293 -0.9448
  818MPD2    N112046   3.480   2.866  10.321 -0.6640  0.2319 -0.2888
  818MPD2    H712047   3.482   2.822  10.413 -0.0684 -0.3766 -0.5983
  819MPD2     C12048   2.019   0.036  15.442 -0.1112  0.3940 -0.0994
  819MPD2    C112049   2.108   4.674  15.383  0.6234 -0.6623  0.7813
  819MPD2    C212050   2.244   4.679  15.405  0.3968 -0.8291 -0.6753
  819MPD2    C312051   2.288   0.034  15.501 -0.0268 -0.0129  0.0779
  819MPD2    C412052   2.200   0.113  15.575  0.5992  0.1510 -0.2573
  819MPD2    C512053   2.065   0.104  15.551 -0.7419  0.6061  0.1851
  819MPD2     H12054   2.308   4.601  15.366  0.4102 -0.1549 -1.9972
  819MPD2    H112055   2.230   0.188  15.647 -0.9109  0.6672 -0.1640
  819MPD2    H212056   1.915   0.031  15.413  0.2941  0.8760 -1.6351
  819MPD2    H312057   1.997   0.166  15.608 -0.8135 -0.1238  0.8961
  819MPD2     N12058   2.428   0.035  15.524  0.9304  0.6639  0.0804
  819MPD2    H512059   2.484   4.697  15.471 -0.9947 -2.6012  2.0738
  819MPD2    N112060   2.053   4.601  15.281 -0.0333  0.0351  0.1210
  819MPD2    H712061   1.953   4.614  15.270 -0.0750 -1.4028 -1.2296
  820MPD2     C12062   1.199   4.649  14.931  0.7592  0.9212 -0.3621
  820MPD2    C112063   1.293   0.002  14.992 -0.4092  0.6531  0.0868
  820MPD2    C212064   1.430   4.688  14.984  0.9691 -0.3052 -0.3494
  820MPD2    C312065   1.465   4.580  14.914  0.0398 -0.3613 -0.4106
  820MPD2    C412066   1.372   4.512  14.835  0.3114 -0.1478  0.0125
  820MPD2    C512067   1.240   4.551  14.848  0.0809  0.0723 -0.2789
  820MPD2     H12068   1.506   0.016  15.039  1.5354 -2.0944  0.6872
  820MPD2    H112069   1.401   4.436  14.764 -1.3500 -1.5097  0.8001
  820MPD2    H212070   1.093   4.674  14.937  0.1191 -1.1176 -2.7430
  820MPD2    H312071   1.169   4.490  14.794  0.8869 -0.2974 -0.9051
  820MPD2     N12072   1.593   4.530  14.909  0.6919  0.4065  0.4502
  820MPD2    H512073   1.614   4.453  14.845 -0.8325  0.7733 -0.4731
  820MPD2    N112074   1.253   0.105  15.073  0.1594  0.0875  0.1319
  820MPD2    H712075   1.155   0.130  15.059  0.4034  0.7222 -0.4416
  821MPD2     C12076   1.964   1.209  12.823 -0.2169 -0.4267 -0.2096
  821MPD2    C112077   2.082   1.158  12.869  0.8547  0.1301 -0.4127
  821MPD2    C212078   2.205   1.222  12.877  0.0201 -0.5709 -0.1191
  821MPD2    C312079   2.215   1.339  12.806  0.7169 -0.2984  0.2254
  821MPD2    C412080   2.100   1.395  12.749 -0.3142  0.3652 -0.3639
  821MPD2    C512081   1.972   1.336  12.762  0.1215  0.0497  0.3666
  821MPD2     H12082   2.287   1.168  12.923 -0.7582  0.4307  2.4803
  821MPD2    H112083   2.103   1.488  12.693 -0.4548  0.6646  0.1172
  821MPD2    H212084   1.866   1.166  12.805 -1.5225  1.3624  2.5476
  821MPD2    H312085   1.885   1.380  12.715  0.3056 -0.0594 -0.0775
  821MPD2     N12086   2.335   1.405  12.773  0.1184 -0.1367 -0.3046
  821MPD2    H512087   2.335   1.497  12.729  0.1576 -1.2311 -2.6047
  821MPD2    N112088   2.091   1.032  12.935 -0.7890 -0.2523  0.6855
  821MPD2    H712089   2.180   1.010  12.980  2.0788  1.4369 -4.1765
  822MPD2     C12090   2.595   1.309  15.540 -0.1451  0.1077 -0.0139
  822MPD2    C112091   2.646   1.256  15.660 -0.2059  0.2139 -0.7553
  822MPD2    C212092   2.596   1.307  15.778 -0.2380  0.3118 -0.2082
  822MPD2    C312093   2.524   1.419  15.780  0.3091 -0.1401 -0.3498
  822MPD2    C412094   2.490   1.477  15.665 -0.3102  0.2057  0.2033
  822MPD2    C512095   2.520   1.424  15.542  0.0875 -0.7599 -0.1770
  822MPD2     H12096   2.625   1.256  15.869  0.4035  2.0295  0.5441
  822MPD2    H112097   2.435   1.571  15.657 -2.1752 -0.7583  1.6289
  822MPD2    H212098   2.605   1.264  15.442  1.4043  0.2060  0.0958
  822MPD2    H312099   2.490   1.469  15.448 -2.7308 -3.9712 -0.8112
  822MPD2     N12100   2.475   1.476  15.896 -0.0962  0.2314 -0.1362
  822MPD2    H512101   2.479   1.431  15.986 -2.7063 -0.2995 -0.2745
  822MPD2    N112102   2.720   1.138  15.663  0.1745 -0.2862 -0.0436
  822MPD2    H712103   2.734   1.098  15.756 -0.6157 -0.5825 -0.0573
  823MPD2     C12104   2.232   1.757  16.682  0.3612 -0.4796 -0.4824
  823MPD2    C112105   2.249   1.663  16.590 -0.7008  0.6949  1.1368
  823MPD2    C212106   2.323   1.553  16.631 -0.3829  0.1598 -0.2421
  823MPD2    C312107   2.375   1.543  16.759  0.5680 -0.5232  0.4589
  823MPD2    C412108   2.353   1.643  16.849 -0.4563  0.3366 -0.5336
  823MPD2    C512109   2.282   1.753  16.811 -0.3260 -0.5696 -0.6546
  823MPD2     H12110   2.355   1.489  16.549 -1.4437 -0.1465 -0.4102
  823MPD2    H112111   2.417   1.650  16.936 -1.6704 -1.9121  0.5474
  823MPD2    H212112   2.173   1.846  16.660  1.5783  0.7375  1.1792
  823MPD2    H312113   2.252   1.839  16.870 -2.2879 -1.5166 -0.2802
  823MPD2     N12114   2.462   1.437  16.792  0.1280  0.8506 -0.7140
  823MPD2    H512115   2.496   1.428  16.887 -0.1400 -0.6377 -0.7586
  823MPD2    N112116   2.214   1.693  16.456 -0.0288 -0.4311  0.0857
  823MPD2    H712117   2.174   1.786  16.442  0.0698 -0.3402  0.4050
  824MPD2     C12118   2.856   0.379  15.367 -0.4077  0.1569 -0.0602
  824MPD2    C112119   2.968   0.418  15.431 -0.3046  0.8963 -0.0714
  824MPD2    C212120   3.086   0.339  15.424 -0.7877 -0.7010 -0.8617
  824MPD2    C312121   3.086   0.220  15.346 -0.4075 -1.2437  0.2752
  824MPD2    C412122   2.963   0.184  15.284  0.5898  1.1526  0.2274
  824MPD2    C512123   2.859   0.272  15.293  0.0627 -0.8857  1.0436
  824MPD2     H12124   3.176   0.371  15.476 -1.4477 -0.7738  0.3363
  824MPD2    H112125   2.947   0.099  15.218  0.9134  0.9823  0.3668
  824MPD2    H212126   2.764   0.436  15.365 -0.4993  0.0512  1.3803
  824MPD2    H312127   2.769   0.252  15.235  1.4455 -1.8993 -0.7711
  824MPD2     N12128   3.200   0.150  15.324  0.3580  0.3306 -0.6665
  824MPD2    H512129   3.283   0.178  15.376 -0.6015  0.1820  0.9313
  824MPD2    N112130   2.964   0.540  15.505 -0.6965  0.4960 -0.2864
  824MPD2    H712131   3.053   0.564  15.547  0.1982  0.1495 -1.9686
  825MPD2     C12132   3.921   0.321  15.471 -0.0835  0.0479 -0.3587
  825MPD2    C112133   3.811   0.341  15.398 -0.4027 -0.9535 -0.7452
  825MPD2    C212134   3.757   0.470  15.371  1.1553 -0.0022  0.3621
  825MPD2    C312135   3.822   0.578  15.426 -0.4244  0.4761  0.6774
  825MPD2    C412136   3.935   0.561  15.505  0.1703  1.0060 -0.0254
  825MPD2    C512137   3.984   0.433  15.518 -0.4781  0.4331  1.2437
  825MPD2     H12138   3.667   0.476  15.311  0.3481  0.1440  1.5858
  825MPD2    H112139   4.006   0.634  15.542 -0.4750  1.1276  0.9894
  825MPD2    H212140   3.963   0.225  15.497 -0.5896  0.2099  1.0431
  825MPD2    H312141   4.080   0.413  15.563  0.0403 -2.1507 -0.9890
  825MPD2     N12142   3.783   0.713  15.411 -0.7368 -0.5763  0.3206
  825MPD2    H512143   3.847   0.782  15.448  0.1028 -0.1886 -1.8607
  825MPD2    N112144   3.747   0.231  15.349  0.4333 -0.3414 -0.2482
  825MPD2    H712145   3.784   0.141  15.374 -2.4852 -0.7579  2.6540
  826MPD2     C12146   3.590   0.345  13.657 -0.4237  0.5840  0.6678
  826MPD2    C112147   3.581   0.431  13.544 -0.0176 -0.2386 -0.1696
  826MPD2    C212148   3.507   0.540  13.558 -0.1711  0.0275 -0.2334
  826MPD2    C312149   3.428   0.571  13.667  0.0052 -0.2675 -0.0381
  826MPD2    C412150   3.435   0.485  13.773 -0.0905  0.1464 -0.0011
  826MPD2    C512151   3.515   0.375  13.769  0.2620  0.5136 -0.2337
  826MPD2     H12152   3.509   0.606  13.472 -0.5394  1.7567  1.0880
  826MPD2    H112153   3.372   0.490  13.861  1.3442  1.3533  0.9527
  826MPD2    H212154   3.653   0.257  13.651 -1.2310 -0.0655  1.7773
  826MPD2    H312155   3.510   0.316  13.860 -1.7208  0.1034 -0.5944
  826MPD2     N12156   3.352   0.686  13.681 -0.6938  0.4536  0.2442
  826MPD2    H512157   3.317   0.702  13.775 -0.3691  0.5707  0.3455
  826MPD2    N112158   3.667   0.406  13.431 -0.8675  0.0376 -0.1308
  826MPD2    H712159   3.731   0.327  13.436  1.8513  2.0858 -1.9817
  827MPD2     C12160   4.308   2.303  10.237 -0.2858 -0.1786  0.4465
  827MPD2    C112161   4.317   2.167  10.255 -0.8150  0.0865 -0.0321
  827MPD2    C212162   4.259   2.078  10.165  0.2262 -0.1128 -0.9911
  827MPD2    C312163   4.185   2.130  10.059 -0.0372  0.3415 -0.5078
  827MPD2    C412164   4.164   2.268  10.047  0.6689  0.8267 -0.1989
  827MPD2    C512165   4.237   2.347  10.129 -0.4202 -0.2232  0.2978
  827MPD2     H12166   4.266   1.970  10.169 -0.7319 -0.1582 -0.4500
  827MPD2    H112167   4.109   2.324   9.972 -0.8815  0.1903  0.4659
  827MPD2    H212168   4.355   2.368  10.310 -0.9144  2.7847 -1.7663
  827MPD2    H312169   4.208   2.452  10.122  1.4680  0.0999 -2.9161
  827MPD2     N12170   4.132   2.032   9.967 -0.4062 -0.0700  0.0877
  827MPD2    H512171   4.149   1.936   9.997  1.5344 -0.3234 -1.8044
  827MPD2    N112172   4.387   2.126  10.371 -0.1750 -0.7150 -0.0911
  827MPD2    H712173   4.449   2.194  10.414 -1.3253  0.5301 -0.4087
  828MPD2     C12174   2.745   1.489  12.374  0.1946  0.0761  0.5093
  828MPD2    C112175   2.712   1.552  12.257 -0.6786 -0.5234 -0.2866
  828MPD2    C212176   2.809   1.560  12.159  0.3051  0.1587 -0.6078
  828MPD2    C312177   2.936   1.499  12.180 -0.9222 -0.4003  0.0205
  828MPD2    C412178   2.964   1.427  12.296 -0.4878 -0.0075 -0.9631
  828MPD2    C512179   2.866   1.428  12.392 -0.1349  0.4129 -0.1602
  828MPD2     H12180   2.780   1.620  12.073  1.3331  0.1494 -0.9650
  828MPD2    H112181   3.058   1.376  12.315 -0.5156  0.4510  0.4252
  828MPD2    H212182   2.679   1.471  12.458 -0.1387 -0.0485  0.2152
  828MPD2    H312183   2.887   1.371  12.482  2.5719  0.7712 -0.5716
  828MPD2     N12184   3.034   1.491  12.079 -0.0915 -0.1761 -0.1311
  828MPD2    H512185   3.117   1.443  12.114 -1.6740 -0.4302  3.1791
  828MPD2    N112186   2.576   1.584  12.224 -0.4994  0.3543 -0.6757
  828MPD2    H712187   2.565   1.628  12.133  0.6165  3.1780  0.5672
  829MPD2     C12188   2.552   1.759  11.465  1.0810  0.7566 -0.2614
  829MPD2    C112189   2.420   1.762  11.481  0.3200 -0.4870 -0.4744
  829MPD2    C212190   2.370   1.739  11.606  0.2398 -0.7365  0.2572
  829MPD2    C312191   2.458   1.724  11.711  0.4381 -0.2161 -1.0667
  829MPD2    C412192   2.594   1.719  11.691 -0.5253  0.2928  0.7592
  829MPD2    C512193   2.638   1.740  11.568 -0.2996 -0.0908 -0.4992
  829MPD2     H12194   2.265   1.718  11.624 -0.2728  0.1559 -1.6963
  829MPD2    H112195   2.666   1.699  11.769 -0.4582 -0.3347  0.5416
  829MPD2    H212196   2.593   1.774  11.365 -2.5130  1.1325 -1.6746
  829MPD2    H312197   2.745   1.737  11.549 -0.4642  2.0347 -1.7592
  829MPD2     N12198   2.407   1.713  11.845 -0.2335  0.3773 -0.3799
  829MPD2    H512199   2.478   1.700  11.916 -0.3104  2.4173  0.0807
  829MPD2    N112200   2.334   1.781  11.370 -0.3582 -0.3656  0.4723
  829MPD2    H712201   2.386   1.790  11.283 -0.4166 -0.5706  0.4159
  830MPD2     C12202   3.150   4.377  15.513  0.3373 -0.1292 -0.0574
  830MPD2    C112203   3.054   4.439  15.439 -0.1991  0.0906 -0.9722
  830MPD2    C212204   3.055   4.429  15.303 -0.2108 -0.8878 -0.0592
  830MPD2    C312205   3.158   4.361  15.245 -0.1128 -0.7281 -0.0039
  830MPD2    C412206   3.248   4.285  15.321 -0.2544 -0.6819 -0.2841
  830MPD2    C512207   3.243   4.293  15.458  0.1104  0.2814 -0.3936
  830MPD2     H12208   2.981   4.479  15.241 -2.0795  0.6716  3.3976
  830MPD2    H112209   3.322   4.217  15.281  1.1342 -0.8549  2.5569
  830MPD2    H212210   3.146   4.383  15.622 -1.5135  0.2305 -0.1412
  830MPD2    H312211   3.314   4.240  15.521 -1.0509  0.2375  0.8856
  830MPD2     N12212   3.191   4.381  15.104 -0.0176 -0.6448  0.9711
  830MPD2    H512213   3.119   4.424  15.048  1.3379 -0.4930 -0.6520
  830MPD2    N112214   2.955   4.510  15.508  0.3334  0.3757 -0.1007
  830MPD2    H712215   2.962   4.521  15.608 -2.0125  0.2072  0.0886
  831MPD2     C12216   2.746   1.682  16.197 -0.3769 -0.1730  0.6155
  831MPD2    C112217   2.753   1.574  16.111  0.5953 -0.1037  0.6077
  831MPD2    C212218   2.684   1.461  16.159  0.3290 -0.1364 -0.5420
  831MPD2    C312219   2.591   1.463  16.265 -0.1821 -0.1004  0.4120
  831MPD2    C412220   2.596   1.568  16.347  0.1013 -0.6505 -0.8961
  831MPD2    C512221   2.675   1.674  16.311 -0.4528 -0.5058 -0.1262
  831MPD2     H12222   2.699   1.368  16.106  0.6228 -0.5066  0.1953
  831MPD2    H112223   2.550   1.567  16.446 -1.1641 -1.4094 -1.4859
  831MPD2    H212224   2.803   1.773  16.186  0.2940 -0.6753 -0.0638
  831MPD2    H312225   2.686   1.760  16.376  0.1286 -1.3686  0.9175
  831MPD2     N12226   2.506   1.349  16.296  0.4200  1.2918  0.2689
  831MPD2    H512227   2.479   1.344  16.394  1.8445 -1.3794  0.5174
  831MPD2    N112228   2.841   1.581  16.002 -0.2693 -0.1561  0.3022
  831MPD2    H712229   2.883   1.672  15.990  0.1675 -0.3006  0.7144
  832MPD2     C12230   1.414   2.256  17.162 -0.7476  0.5312  0.0669
  832MPD2    C112231   1.416   2.386  17.128  0.0426  0.2828 -1.0487
  832MPD2    C212232   1.340   2.426  17.023  0.1582 -0.2757 -0.4424
  832MPD2    C312233   1.269   2.336  16.946  0.8970  0.7105 -0.3172
  832MPD2    C412234   1.281   2.201  16.970  0.6736  0.0620 -0.3592
  832MPD2    C512235   1.347   2.163  17.083  0.3439  0.0382  0.2520
  832MPD2     H12236   1.331   2.532  17.000  0.3797 -0.1014  0.2708
  832MPD2    H112237   1.223   2.135  16.906  0.3338 -0.7967  0.8408
  832MPD2    H212238   1.476   2.213  17.239  0.2987  2.0086  0.0403
  832MPD2    H312239   1.341   2.057  17.105  1.4549  0.4576  2.5841
  832MPD2     N12240   1.173   2.374  16.849 -0.1252 -0.1431 -0.3956
  832MPD2    H512241   1.118   2.310  16.792 -2.4681  1.4849  0.0487
  832MPD2    N112242   1.499   2.481  17.198 -0.6251  0.1762  0.1222
  832MPD2    H712243   1.532   2.449  17.288  2.0919  2.2077 -0.1320
  833MPD2     C12244   3.256   4.524  12.253  0.4568  0.6585 -0.6407
  833MPD2    C112245   3.297   4.644  12.202  0.1009  0.0114 -0.1898
  833MPD2    C212246   3.427   4.644  12.153 -0.1978 -0.3772 -0.6647
  833MPD2    C312247   3.504   4.532  12.146  0.0429 -0.2304  0.8379
  833MPD2    C412248   3.453   4.415  12.180 -0.4412  0.3826 -0.1059
  833MPD2    C512249   3.336   4.409  12.248  0.8886 -0.1227 -0.5233
  833MPD2     H12250   3.452   0.007  12.098  0.4519 -0.2110 -0.0913
  833MPD2    H112251   3.508   4.322  12.180 -0.4229  0.3918  2.5974
  833MPD2    H212252   3.161   4.512  12.303  0.3573  0.9817 -0.7535
  833MPD2    H312253   3.304   4.318  12.297 -1.6644  0.8484 -0.4017
  833MPD2     N12254   3.629   4.528  12.088  0.0402 -0.1257 -0.2015
  833MPD2    H512255   3.669   4.436  12.082  0.5512  0.0177  0.9135
  833MPD2    N112256   3.209   0.028  12.195  0.2315  0.8914  0.5192
  833MPD2    H712257   3.115   4.723  12.212  0.2928  0.6382  0.3825
  834MPD2     C12258   3.722   3.721  11.956  0.5515  0.5092  0.3215
  834MPD2    C112259   3.698   3.764  11.825  0.2910  0.2847  0.4459
  834MPD2    C212260   3.708   3.899  11.791 -0.5654 -0.6358  0.0833
  834MPD2    C312261   3.738   3.995  11.888 -0.4328  0.3835  0.4953
  834MPD2    C412262   3.771   3.953  12.021 -0.0367 -0.4026 -0.2119
  834MPD2    C512263   3.752   3.818  12.050 -0.0163 -0.4250 -0.5130
  834MPD2     H12264   3.693   3.937  11.691  0.4256 -1.0359 -0.2191
  834MPD2    H112265   3.801   4.027  12.094  0.3886  0.8550 -1.6767
  834MPD2    H212266   3.725   3.616  11.982 -2.6781  0.2887 -0.2588
  834MPD2    H312267   3.760   3.788  12.154  1.3675 -0.9886 -0.7866
  834MPD2     N12268   3.751   4.131  11.852  0.3374 -0.1805 -0.4550
  834MPD2    H512269   3.729   4.147  11.754  2.1037  0.7870 -0.6986
  834MPD2    N112270   3.678   3.657  11.736  0.4219  0.9655  0.3783
  834MPD2    H712271   3.681   3.564  11.777 -1.5055 -0.6981 -3.2450
  835MPD2     C12272   3.422   2.109  10.683  0.3035 -0.6728  0.3933
  835MPD2    C112273   3.322   2.020  10.644  0.5949 -0.5487  0.0362
  835MPD2    C212274   3.249   1.955  10.741  0.8047  0.6577  0.4760
  835MPD2    C312275   3.264   1.994  10.873  0.5861  0.0081  0.1867
  835MPD2    C412276   3.357   2.086  10.905  0.7251  0.1020  0.1242
  835MPD2    C512277   3.441   2.142  10.818  0.7714 -0.2532  0.2085
  835MPD2     H12278   3.179   1.874  10.722  0.8685  0.2606  1.9894
  835MPD2    H112279   3.367   2.103  11.012  2.8214 -3.7251  0.5446
  835MPD2    H212280   3.482   2.171  10.617 -2.2967 -1.0577 -2.3174
  835MPD2    H312281   3.511   2.217  10.852  0.8817 -0.1042 -0.3374
  835MPD2     N12282   3.191   1.948  10.981  0.4408 -0.2009 -0.0783
  835MPD2    H512283   3.213   1.985  11.073  3.7684  0.1143 -0.9920
  835MPD2    N112284   3.316   2.002  10.505  0.2557  0.4273 -1.0150
  835MPD2    H712285   3.405   2.013  10.458  1.6188 -0.8210  1.2973
  836MPD2     C12286   2.477   2.184  11.196  0.2722 -0.0324  0.3019
  836MPD2    C112287   2.544   2.106  11.286 -0.2645 -0.5829 -0.0863
  836MPD2    C212288   2.488   2.089  11.412 -0.1009 -0.4887 -0.7864
  836MPD2    C312289   2.370   2.150  11.449 -0.3305 -0.0166  0.1221
  836MPD2    C412290   2.297   2.220  11.354  0.8092 -0.1138 -0.2526
  836MPD2    C512291   2.351   2.232  11.226 -0.0905 -0.4467 -0.0370
  836MPD2     H12292   2.550   2.039  11.485 -1.1026 -2.2016 -1.0968
  836MPD2    H112293   2.201   2.268  11.370  1.0652  0.4052 -0.2707
  836MPD2    H212294   2.518   2.204  11.098 -0.3345  0.1232  0.0779
  836MPD2    H312295   2.295   2.276  11.145 -0.3782 -0.5434  0.1104
  836MPD2     N12296   2.317   2.139  11.582 -0.6578 -0.8242 -0.1146
  836MPD2    H512297   2.233   2.193  11.598 -0.3512 -0.2396 -0.4705
  836MPD2    N112298   2.671   2.054  11.246 -0.0966 -0.5511 -0.4748
  836MPD2    H712299   2.688   2.048  11.147  0.7132 -0.5174 -0.3384
  837MPD2     C12300   1.388   1.642   9.944 -0.6077  0.0780 -0.5285
  837MPD2    C112301   1.252   1.644   9.903  0.1045 -0.5081  0.3710
  837MPD2    C212302   1.185   1.764   9.927  0.0318 -0.5185 -0.6428
  837MPD2    C312303   1.240   1.869  10.001 -0.5606  0.0144  0.5892
  837MPD2    C412304   1.367   1.859  10.054 -0.4899  0.4289  0.6415
  837MPD2    C512305   1.434   1.741  10.026 -0.4180  0.3363 -0.5249
  837MPD2     H12306   1.079   1.771   9.904 -0.2698  0.0343  0.8559
  837MPD2    H112307   1.405   1.929  10.128  0.0246  0.1734  0.6213
  837MPD2    H212308   1.441   1.548   9.937 -0.8747  0.0891 -2.8846
  837MPD2    H312309   1.523   1.713  10.082 -2.0336 -0.1063  1.8286
  837MPD2     N12310   1.156   1.981  10.026  0.2855 -0.2341  0.6589
  837MPD2    H512311   1.058   1.972  10.002  0.2909 -0.8621  0.8789
  837MPD2    N112312   1.200   1.551   9.815 -0.2828  0.4074  0.4621
  837MPD2    H712313   1.114   1.564   9.762 -1.2380 -0.0087  1.8845
  838MPD2     C12314   0.129   0.357  11.926  0.7852  0.1910  0.1091
  838MPD2    C112315   0.129   0.225  11.931  0.2445 -0.4605  0.8502
  838MPD2    C212316   0.045   0.164  12.027 -0.2846  0.0277 -0.1665
  838MPD2    C312317   4.679   0.231  12.099  0.5847  0.2258  0.5771
  838MPD2    C412318   4.672   0.367  12.083 -0.0459 -1.1983  0.0034
  838MPD2    C512319   0.040   0.427  11.998  0.8372 -0.2992 -0.0419
  838MPD2     H12320   0.057   0.058  12.044  0.1118  0.2080  0.7011
  838MPD2    H112321   4.595   0.426  12.132  0.9383  1.8350 -2.1308
  838MPD2    H212322   0.192   0.411  11.856  1.9672  0.4361  1.3665
  838MPD2    H312323   0.044   0.535  11.986 -2.8598 -0.1349  0.1449
  838MPD2     N12324   4.589   0.152  12.176 -0.2181  0.1377 -0.3514
  838MPD2    H512325   4.598   0.050  12.175  0.5017  0.1908  0.7664
  838MPD2    N112326   0.216   0.147  11.859  0.0247 -0.2390  0.3125
  838MPD2    H712327   0.212   0.048  11.880  0.1804  0.0077  1.5020
  839MPD2     C12328   4.701   4.143  11.886 -0.0423 -0.2650  0.5827
  839MPD2    C112329   4.692   4.193  11.757 -0.4601 -0.1733  0.8949
  839MPD2    C212330   0.067   4.272  11.709 -0.6779  0.5982 -0.9556
  839MPD2    C312331   0.163   4.319  11.796 -0.2932 -0.2962 -0.5493
  839MPD2    C412332   0.162   4.275  11.924 -0.0470  0.0425 -0.3894
  839MPD2    C512333   0.068   4.188  11.973  0.1187  0.4674  0.2320
  839MPD2     H12334   0.047   4.314  11.611  0.7111  2.4119 -0.4615
  839MPD2    H112335   0.234   4.318  11.994 -0.6052 -1.4969  1.1310
  839MPD2    H212336   4.621   4.085  11.932 -1.3330  0.5891 -0.5898
  839MPD2    H312337   0.074   4.152  12.075 -0.9682  0.6540  0.3669
  839MPD2     N12338   0.254   4.421  11.750  0.4667  0.0933  0.5514
  839MPD2    H512339   0.309   4.468  11.821 -0.8645  4.3106 -1.2312
  839MPD2    N112340   4.583   4.174  11.676  0.4700 -0.7941 -0.0079
  839MPD2    H712341   4.596   4.181  11.576 -1.1183 -2.9922 -0.3806
  840MPD2     C12342   0.254   2.270  10.492 -0.2723  0.6937  0.2281
  840MPD2    C112343   0.199   2.272  10.615  0.3051 -0.1981 -0.6570
  840MPD2    C212344   0.250   2.349  10.718  0.4148 -0.5445 -0.1676
  840MPD2    C312345   0.364   2.418  10.688  0.2854  0.2764 -0.6486
  840MPD2    C412346   0.409   2.435  10.556 -0.4898 -0.1300  0.0075
  840MPD2    C512347   0.357   2.352  10.459 -0.3134 -0.2161 -0.5270
  840MPD2     H12348   0.208   2.350  10.818  0.5246 -0.0261 -0.1289
  840MPD2    H112349   0.495   2.497  10.531 -1.6753  1.8483  0.8256
  840MPD2    H212350   0.207   2.220  10.408  0.2194 -0.3327  0.5666
  840MPD2    H312351   0.390   2.340  10.356 -0.5732  0.2645 -0.6706
  840MPD2     N12352   0.439   2.482  10.781 -0.2776  0.5047  0.5915
  840MPD2    H512353   0.525   2.529  10.756 -0.0432 -0.6682 -0.7857
  840MPD2    N112354   0.072   2.191  10.631  0.5614  0.5400  0.1663
  840MPD2    H712355   0.048   2.133  10.551  4.4332  0.1237 -0.7003
  841MPD2     C12356   4.585   1.643  14.349 -0.4379  0.2597 -0.0611
  841MPD2    C112357   4.527   1.519  14.367 -0.4975 -0.2451  0.2120
  841MPD2    C212358   4.573   1.434  14.463  0.2642 -0.8396  0.1437
  841MPD2    C312359   4.669   1.474  14.560 -0.3446  0.2222  0.1348
  841MPD2    C412360   4.725   1.597  14.541  0.5503  1.3663 -0.2494
  841MPD2    C512361   4.681   1.678  14.438 -0.2665 -0.1646 -0.3212
  841MPD2     H12362   4.522   1.339  14.474 -4.7508  2.0198  1.3670
  841MPD2    H112363   0.073   1.638  14.608  0.7198 -0.3064  0.5871
  841MPD2    H212364   4.552   1.714  14.274  0.8868  0.5117 -0.4182
  841MPD2    H312365   4.726   1.777  14.433 -0.1970 -0.3503 -3.4040
  841MPD2     N12366   4.702   1.391  14.671  0.5661  0.4589  0.3118
  841MPD2    H512367   4.634   1.316  14.682  1.2684 -0.1807  0.2991
  841MPD2    N112368   4.419   1.477  14.281 -0.2722  0.3764  0.5938
  841MPD2    H712369   4.378   1.388  14.307 -0.1439  0.1572  0.0498
  842MPD2     C12370   4.451   2.624  16.461  0.3217  0.2261  0.3829
  842MPD2    C112371   4.575   2.681  16.430  0.1379 -0.4411 -0.1787
  842MPD2    C212372   4.666   2.691  16.526 -0.5240  0.4690 -0.1364
  842MPD2    C312373   4.639   2.654  16.659 -0.2533  0.8542  0.4730
  842MPD2    C412374   4.520   2.598  16.693  0.4552  0.0297  0.5444
  842MPD2    C512375   4.437   2.572  16.588  0.0844 -0.9437 -0.1880
  842MPD2     H12376   0.024   2.756  16.509  0.0640 -0.2444  0.0425
  842MPD2    H112377   4.491   2.568  16.793 -0.6387  0.6509  0.4177
  842MPD2    H212378   4.377   2.602  16.385  0.9712 -0.7731  0.0425
  842MPD2    H312379   4.343   2.526  16.617 -0.6441  1.5372  1.4204
  842MPD2     N12380   4.721   2.667  16.777  0.3038  0.3729 -0.0888
  842MPD2    H512381   4.670   2.647  16.862 -0.5084  0.2670 -0.5982
  842MPD2    N112382   4.597   2.728  16.298 -0.9180  0.2875  0.7240
  842MPD2    H712383   4.534   2.694  16.225 -0.6894 -0.2947  0.8062
  843MPD2     C12384   2.473   3.304  17.373 -0.1097  0.1854  0.7102
  843MPD2    C112385   2.563   3.249  17.464  0.2754  0.8521 -0.8395
  843MPD2    C212386   2.635   3.335  17.543 -0.8510 -0.3424 -0.7394
  843MPD2    C312387   2.627   3.473  17.527 -0.3576 -0.8106 -0.5032
  843MPD2    C412388   2.530   3.521  17.440  0.2885 -0.7407 -0.4186
  843MPD2    C512389   2.444   3.436  17.372  0.0501 -0.7307  0.7528
  843MPD2     H12390   2.688   3.291  17.626  0.0334  0.9372 -0.6307
  843MPD2    H112391   2.529   3.629  17.434  2.4909 -0.7547 -0.8624
  843MPD2    H212392   2.412   3.236  17.316  1.5751  0.1896 -1.0959
  843MPD2    H312393   2.370   3.473  17.302  1.0219 -0.3845 -0.1058
  843MPD2     N12394   2.680   3.571  17.613 -0.1471 -0.0605  0.0655
  843MPD2    H512395   2.648   3.663  17.585 -0.2752 -0.6952 -1.8429
  843MPD2    N112396   2.546   3.115  17.488  0.0139 -0.1803  0.1742
  843MPD2    H712397   2.476   3.071  17.429 -1.5432 -0.5581  2.2765
  844MPD2     C12398   1.097   2.321  16.272  0.1471 -0.0633  0.4943
  844MPD2    C112399   1.165   2.204  16.284 -0.3738  0.4264  0.2346
  844MPD2    C212400   1.260   2.203  16.384  1.0310 -0.2507  0.6110
  844MPD2    C312401   1.287   2.313  16.467 -0.5742  0.2801 -0.5400
  844MPD2    C412402   1.208   2.430  16.446  0.0005  0.5816  0.1151
  844MPD2    C512403   1.121   2.434  16.344  0.0628 -0.0377 -1.4822
  844MPD2     H12404   1.317   2.111  16.394  0.3549 -0.5261  2.0317
  844MPD2    H112405   1.230   2.521  16.500  2.4260 -0.2220  0.4831
  844MPD2    H212406   1.030   2.333  16.187 -0.3165  1.5483  1.0774
  844MPD2    H312407   1.070   2.520  16.303  2.5641  1.8775 -0.5668
  844MPD2     N12408   1.389   2.311  16.564 -0.2733 -0.2458  0.3617
  844MPD2    H512409   1.452   2.231  16.572 -1.8398 -1.6128 -0.9445
  844MPD2    N112410   1.156   2.100  16.196 -0.0470  0.3370  0.2318
  844MPD2    H712411   1.210   2.017  16.217  0.9132  0.5155 -1.5443
  845MPD2     C12412   1.959   3.080  16.915  1.3276  0.0916 -0.8306
  845MPD2    C112413   1.831   3.085  16.866  0.3461  0.1451 -0.5215
  845MPD2    C212414   1.766   2.971  16.830  0.0690  0.4926  0.0362
  845MPD2    C312415   1.811   2.849  16.886 -0.2924  0.0176 -0.3137
  845MPD2    C412416   1.928   2.853  16.949  0.5134  0.1817  0.0916
  845MPD2    C512417   2.009   2.963  16.958 -0.2787 -0.6259 -0.2092
  845MPD2     H12418   1.666   2.974  16.790 -0.4805 -1.1283  1.3206
  845MPD2    H112419   1.967   2.759  16.989 -2.2429 -0.5746  1.0088
  845MPD2    H212420   2.015   3.172  16.932  2.5452 -0.4630 -1.9082
  845MPD2    H312421   2.102   2.955  17.014 -1.3580 -0.6703  1.5710
  845MPD2     N12422   1.740   2.728  16.860 -0.5226 -0.4017  0.5882
  845MPD2    H512423   1.645   2.731  16.825  0.3063 -2.1271 -1.8475
  845MPD2    N112424   1.767   3.209  16.856 -0.2501 -0.4501 -0.0782
  845MPD2    H712425   1.804   3.278  16.921  1.1676 -1.4051  0.1236
  846MPD2     C12426   3.021   3.720  13.569  0.3648 -0.2147 -0.9268
  846MPD2    C112427   2.927   3.820  13.578  0.8254 -0.3230  0.4294
  846MPD2    C212428   2.844   3.816  13.690  0.4290  0.3453 -0.1811
  846MPD2    C312429   2.851   3.708  13.781  0.1658 -0.7163  0.0307
  846MPD2    C412430   2.949   3.608  13.764 -0.4578  0.2998  0.9294
  846MPD2    C512431   3.031   3.623  13.661 -0.2060  0.0196  0.4057
  846MPD2     H12432   2.778   3.899  13.710 -2.5012 -1.9252 -0.3720
  846MPD2    H112433   2.961   3.523  13.830  3.6539 -1.2390 -1.8573
  846MPD2    H212434   3.112   3.739  13.513 -0.1341  2.8986 -0.7179
  846MPD2    H312435   3.115   3.555  13.659  2.0249  2.7421  1.7785
  846MPD2     N12436   2.764   3.705  13.898 -0.1879 -0.0981 -0.0789
  846MPD2    H512437   2.689   3.774  13.892 -1.6645 -1.7771 -0.9912
  846MPD2    N112438   2.909   3.928  13.483  0.0287 -0.0922  0.0869
  846MPD2    H712439   2.850   4.007  13.507  0.6418  1.1065 -2.3262
  847MPD2     C12440   2.580   4.188  14.251  0.2886  0.8322  0.5066
  847MPD2    C112441   2.661   4.306  14.231 -0.6304  0.3406 -0.4414
  847MPD2    C212442   2.797   4.290  14.207 -0.5691 -0.2738 -0.3593
  847MPD2    C312443   2.855   4.166  14.228 -0.6615  0.3625 -0.2977
  847MPD2    C412444   2.781   4.048  14.235  0.2845  0.0209 -0.2047
  847MPD2    C512445   2.645   4.064  14.252  0.2129 -0.3053 -0.3691
  847MPD2     H12446   2.860   4.374  14.181  0.3934 -1.1785 -0.9503
  847MPD2    H112447   2.825   3.952  14.261 -1.5986 -0.6347  0.5961
  847MPD2    H212448   2.477   4.205  14.280  0.2557  0.6111  0.5224
  847MPD2    H312449   2.585   3.979  14.284 -0.4659 -0.4240 -1.9675
  847MPD2     N12450   2.995   4.170  14.221  0.1527 -0.1065  0.1968
  847MPD2    H512451   3.029   4.265  14.221  0.9128 -0.3740  1.3702
  847MPD2    N112452   2.618   4.439  14.240  0.7191 -0.2207 -0.3589
  847MPD2    H712453   2.692   4.507  14.230  0.5395 -0.0356 -0.4367
  848MPD2     C12454   0.744   2.652  16.154 -0.2711  0.5105 -0.0556
  848MPD2    C112455   0.799   2.733  16.252  0.5740  0.0384 -0.2570
  848MPD2    C212456   0.838   2.861  16.224 -0.4885  0.6223  0.1735
  848MPD2    C312457   0.824   2.915  16.098  0.1349 -0.7027  0.7368
  848MPD2    C412458   0.779   2.828  16.003  0.7975  0.1828 -0.2611
  848MPD2    C512459   0.741   2.703  16.026  0.2933 -0.0308 -0.2114
  848MPD2     H12460   0.865   2.929  16.304  0.4657  0.4360  0.0187
  848MPD2    H112461   0.769   2.868  15.903 -1.9882  0.6840  0.2178
  848MPD2    H212462   0.706   2.553  16.178  1.6290  0.2636  2.0163
  848MPD2    H312463   0.700   2.633  15.953 -2.3762 -0.9400  2.1500
  848MPD2     N12464   0.834   3.051  16.054  0.4087  0.2981  0.1965
  848MPD2    H512465   0.794   3.069  15.963  1.9103  1.2020 -0.2809
  848MPD2    N112466   0.816   2.681  16.383  0.1692  0.1582 -0.1558
  848MPD2    H712467   0.767   2.595  16.406  2.3464 -0.6516  1.3621
  849MPD2     C12468   0.049   2.308  14.203  0.2251  0.3649 -0.6749
  849MPD2    C112469   0.184   2.337  14.195 -0.7867 -0.8949  0.5135
  849MPD2    C212470   0.244   2.395  14.301 -0.7305 -0.1089  0.5222
  849MPD2    C312471   0.175   2.419  14.416 -0.8843 -0.2421 -0.2668
  849MPD2    C412472   0.042   2.387  14.428  0.5482 -0.9341  1.0196
  849MPD2    C512473   4.711   2.328  14.323  0.4787  0.2043 -0.4104
  849MPD2     H12474   0.345   2.430  14.285 -0.5975  1.2101  4.3896
  849MPD2    H112475   4.711   2.392  14.520  3.2004  1.8751  2.5352
  849MPD2    H212476   4.717   2.265  14.123  1.0496 -0.4873 -0.8298
  849MPD2    H312477   4.609   2.292  14.329  0.9582 -0.9216  0.8726
  849MPD2     N12478   0.234   2.487  14.525 -0.2205 -0.2414  0.0492
  849MPD2    H512479   0.177   2.482  14.609 -0.6435 -1.7666 -0.3212
  849MPD2    N112480   0.269   2.317  14.089 -0.1775 -0.0147  0.5249
  849MPD2    H712481   0.367   2.330  14.113 -0.3197  1.8955  0.0038
  850MPD2     C12482   2.541   0.475  14.393 -0.1832 -0.0780 -0.0761
  850MPD2    C112483   2.497   0.524  14.517 -0.0509  0.3859 -0.4464
  850MPD2    C212484   2.583   0.601  14.590 -0.7071 -1.2098  0.0359
  850MPD2    C312485   2.699   0.648  14.532  0.2077 -0.0451 -0.2441
  850MPD2    C412486   2.741   0.598  14.409  0.1678 -0.2607 -0.2124
  850MPD2    C512487   2.670   0.506  14.349  0.4232 -0.1555 -0.4752
  850MPD2     H12488   2.543   0.642  14.681 -0.1439  0.9841 -0.7091
  850MPD2    H112489   2.839   0.625  14.372  1.3679 -2.7772  1.1976
  850MPD2    H212490   2.483   0.414  14.326 -1.8952 -0.4068  1.6963
  850MPD2    H312491   2.698   0.457  14.256 -0.6901 -0.4592 -0.6457
  850MPD2     N12492   2.796   0.727  14.593  0.2295 -0.3069 -0.1329
  850MPD2    H512493   2.865   0.765  14.529 -1.2072 -0.3705 -1.7057
  850MPD2    N112494   2.363   0.480  14.557 -0.0637 -0.2913  0.0874
  850MPD2    H712495   2.312   0.432  14.484 -1.1077 -0.7370  1.1141
  851MPD2     C12496   3.014   0.473  15.035 -0.4713 -0.3620  0.3147
  851MPD2    C112497   2.919   0.378  14.998 -0.0061  0.3868  0.3397
  851MPD2    C212498   2.964   0.253  14.958  0.1880  0.0991  0.7816
  851MPD2    C312499   3.105   0.230  14.944  0.1474  0.1515 -0.4652
  851MPD2    C412500   3.189   0.327  14.980 -0.6504  0.6402  0.1823
  851MPD2    C512501   3.145   0.445  15.027 -0.2951  0.5164 -0.1627
  851MPD2     H12502   2.899   0.170  14.935 -0.9108 -0.0102  4.3057
  851MPD2    H112503   3.297   0.314  14.983 -0.8088 -1.0796 -1.2974
  851MPD2    H212504   2.976   0.572  15.055 -1.0675 -0.1777 -1.6877
  851MPD2    H312505   3.214   0.523  15.060  1.4996 -2.1690  2.4251
  851MPD2     N12506   3.140   0.099  14.897 -0.1698  0.0512 -0.6743
  851MPD2    H512507   3.067   0.028  14.903 -2.1786  2.0051 -2.3675
  851MPD2    N112508   2.788   0.417  15.001  1.1553  0.0547  0.1435
  851MPD2    H712509   2.768   0.508  15.042 -0.0969 -0.7297  1.2476
  852MPD2     C12510   2.065   3.724   9.974 -0.7290 -0.7587 -0.1056
  852MPD2    C112511   2.010   3.666  10.093 -0.2253  0.1684 -0.2463
  852MPD2    C212512   2.081   3.684  10.210 -0.0682 -0.1697  0.4331
  852MPD2    C312513   2.204   3.746  10.208 -0.2748 -0.5378 -0.3924
  852MPD2    C412514   2.255   3.803  10.098 -0.3104  0.5209 -0.6990
  852MPD2    C512515   2.187   3.783   9.982 -0.1895 -0.4436 -0.1307
  852MPD2     H12516   2.038   3.630  10.294  0.9173 -0.1844  0.9280
  852MPD2    H112517   2.350   3.856  10.098 -0.2191  0.3625  1.3730
  852MPD2    H212518   2.026   3.710   9.874 -1.1743  2.1849 -0.3445
  852MPD2    H312519   2.225   3.826   9.890 -0.5587 -0.9562 -0.5315
  852MPD2     N12520   2.270   3.742  10.335 -0.3870  0.8035 -0.1249
  852MPD2    H512521   2.221   3.688  10.405  1.3463 -1.0816 -0.3770
  852MPD2    N112522   1.905   3.573  10.093 -0.1821 -0.4323 -0.1506
  852MPD2    H712523   1.875   3.537  10.184  1.7482 -2.0999 -0.1661
  853MPD2     C12524   4.509   3.063  12.387 -0.3852 -0.4833 -0.0122
  853MPD2    C112525   4.422   3.176  12.391 -0.1837 -0.1845 -0.5184
  853MPD2    C212526   4.384   3.229  12.268 -0.4285  0.4730 -0.0109
  853MPD2    C312527   4.436   3.179  12.148  0.1864 -0.2700  0.0685
  853MPD2    C412528   4.516   3.070  12.147 -0.1031 -0.1436  0.2767
  853MPD2    C512529   4.539   3.004  12.261  0.3064 -0.7503 -0.1895
  853MPD2     H12530   4.311   3.310  12.272 -0.6747  0.3027 -1.0409
  853MPD2    H112531   4.559   3.031  12.056  0.5353 -1.1001  0.9864
  853MPD2    H212532   4.542   3.011  12.476  0.0281 -0.5147 -0.1842
  853MPD2    H312533   4.581   2.904  12.255  2.2140  0.0598 -0.4164
  853MPD2     N12534   4.410   3.237  12.024 -0.1378  0.2762  0.1170
  853MPD2    H512535   4.456   3.189  11.947  0.1561  1.1195 -0.2335
  853MPD2    N112536   4.382   3.221  12.521 -0.5736 -0.4347  0.2784
  853MPD2    H712537   4.420   3.163  12.596 -0.0847 -0.1836  0.2217
  854MPD2     C12538   1.278   3.076  12.981 -0.2761  0.8176  0.0049
  854MPD2    C112539   1.397   3.133  12.935 -0.2966 -0.0693  0.2806
  854MPD2    C212540   1.498   3.061  12.876 -0.1726 -0.2800 -0.2432
  854MPD2    C312541   1.489   2.921  12.888  0.0688  0.6011  0.9131
  854MPD2    C412542   1.371   2.866  12.939 -0.2166 -0.2063 -0.4073
  854MPD2    C512543   1.269   2.944  12.978 -0.5506 -0.4288 -0.0782
  854MPD2     H12544   1.593   3.105  12.851 -0.1682 -0.0025  0.2475
  854MPD2    H112545   1.353   2.759  12.943  0.7551 -0.3478  0.2016
  854MPD2    H212546   1.199   3.137  13.023 -1.4407  0.3168 -1.4739
  854MPD2    H312547   1.181   2.893  13.015 -0.2221  0.1571  1.4959
  854MPD2     N12548   1.592   2.831  12.838 -0.9238  0.2626  0.6884
  854MPD2    H512549   1.577   2.731  12.846  0.1983  0.0791  0.4944
  854MPD2    N112550   1.402   3.277  12.942 -0.8184  0.5995  0.3886
  854MPD2    H712551   1.327   3.323  12.993  0.9428  1.7599  1.9709
  855MPD2     C12552   2.282   2.316  13.266  0.0745 -0.3695 -0.0810
  855MPD2    C112553   2.146   2.339  13.295  0.8215  0.3774  0.3090
  855MPD2    C212554   2.067   2.378  13.197 -0.0819 -0.3549  0.4431
  855MPD2    C312555   2.106   2.401  13.064 -0.0678  0.6840  0.4426
  855MPD2    C412556   2.234   2.366  13.037  0.1064  0.2030  0.0971
  855MPD2    C512557   2.317   2.325  13.138  0.6910 -0.4346  0.6193
  855MPD2     H12558   1.963   2.400  13.219  0.6938  2.3911  1.3682
  855MPD2    H112559   2.276   2.371  12.937  1.9646  1.2767  0.9173
  855MPD2    H212560   2.354   2.302  13.346 -0.9903  1.8429  1.2644
  855MPD2    H312561   2.421   2.312  13.110 -0.3803 -1.9719 -2.5835
  855MPD2     N12562   2.028   2.447  12.957  0.5379 -0.0205  0.2931
  855MPD2    H512563   2.067   2.445  12.863  0.8764 -0.8830  0.4495
  855MPD2    N112564   2.094   2.328  13.424 -0.1658  0.5129  0.1384
  855MPD2    H712565   1.997   2.348  13.449  0.6281  0.3179  3.2983
  856MPD2     C12566   4.342   3.868  13.562 -0.4179  0.1472  0.5280
  856MPD2    C112567   4.385   3.970  13.639  0.4733  0.5251 -0.3111
  856MPD2    C212568   4.299   4.081  13.652  0.3191 -0.7529  0.6015
  856MPD2    C312569   4.186   4.101  13.575  0.2297 -0.2200 -0.6350
  856MPD2    C412570   4.148   3.991  13.497  1.0071  0.6113  0.1355
  856MPD2    C512571   4.222   3.876  13.503  0.5603  0.4703 -0.4545
  856MPD2     H12572   4.336   4.163  13.713  2.3109 -0.0950 -1.4891
  856MPD2    H112573   4.060   3.990  13.433 -0.4997 -1.2736  2.2560
  856MPD2    H212574   4.383   3.769  13.546 -1.7596 -0.2499 -0.5243
  856MPD2    H312575   4.200   3.787  13.444  2.6430 -0.0882 -0.4124
  856MPD2     N12576   4.103   4.212  13.582  0.6247 -0.0548  0.0549
  856MPD2    H512577   4.014   4.200  13.534  0.9254  0.8507 -0.7194
  856MPD2    N112578   4.506   3.963  13.714 -0.3613 -0.2118 -0.4032
  856MPD2    H712579   4.523   4.038  13.780  1.1584  1.5026 -2.7573
  857MPD2     C12580   0.824   1.342  12.518  0.5718 -0.0562  0.1473
  857MPD2    C112581   0.794   1.285  12.640  0.0611  0.6039 -0.7002
  857MPD2    C212582   0.705   1.351  12.733 -0.1007  0.1831  1.1295
  857MPD2    C312583   0.676   1.488  12.708 -0.2194  0.1743 -0.0455
  857MPD2    C412584   0.714   1.542  12.587 -0.1030  0.0084  0.1208
  857MPD2    C512585   0.789   1.472  12.493  0.0064  0.6158  0.4638
  857MPD2     H12586   0.677   1.305  12.826 -0.9331  0.2457  0.9131
  857MPD2    H112587   0.685   1.641  12.552  0.9170  1.2042  2.6088
  857MPD2    H212588   0.873   1.280  12.444 -1.1549  0.1839 -1.2064
  857MPD2    H312589   0.836   1.518  12.406 -0.3371  1.4650  0.7242
  857MPD2     N12590   0.598   1.557  12.802  0.4646 -0.2504 -0.4760
  857MPD2    H512591   0.594   1.511  12.892  2.1126  0.1885 -0.1822
  857MPD2    N112592   0.840   1.150  12.662 -0.1571  0.2296  0.4374
  857MPD2    H712593   0.895   1.105  12.589 -2.7523 -1.5121 -0.4302
  858MPD2     C12594   1.026   0.561  16.164 -0.3144 -1.4224 -0.2463
  858MPD2    C112595   1.139   0.502  16.223  0.6824 -0.3006  0.8370
  858MPD2    C212596   1.170   0.509  16.360  0.3827 -0.0032 -0.1379
  858MPD2    C312597   1.079   0.571  16.442  0.0671 -0.6838 -0.4695
  858MPD2    C412598   0.961   0.626  16.382  1.0848  0.5464  0.8261
  858MPD2    C512599   0.938   0.628  16.247 -0.7583 -0.6684  0.1010
  858MPD2     H12600   1.257   0.465  16.408  0.0953 -0.3489  0.0647
  858MPD2    H112601   0.886   0.677  16.441 -2.0716 -1.7754 -1.1473
  858MPD2    H212602   0.999   0.549  16.059 -1.7603 -1.0014  0.0770
  858MPD2    H312603   0.849   0.682  16.218 -0.8549 -1.5464 -1.2253
  858MPD2     N12604   1.089   0.588  16.582 -0.4087 -0.3042 -0.0208
  858MPD2    H512605   1.023   0.653  16.624  0.8175  0.1299  1.2099
  858MPD2    N112606   1.224   0.418  16.135  0.3424 -0.0760  0.2210
  858MPD2    H712607   1.188   0.403  16.041 -0.4778  1.4909  0.2859
  859MPD2     C12608   0.352   2.298  15.046 -0.7300 -0.5963  0.4693
  859MPD2    C112609   0.284   2.409  15.073 -0.2547 -0.2389  0.1347
  859MPD2    C212610   0.175   2.390  15.156  0.1003 -0.3374 -0.4888
  859MPD2    C312611   0.141   2.268  15.213  0.1122 -0.5518  0.0668
  859MPD2    C412612   0.214   2.160  15.178  0.8108  0.4891  0.1248
  859MPD2    C512613   0.319   2.175  15.094 -0.4214 -0.6829 -0.1893
  859MPD2     H12614   0.110   2.472  15.186  0.2781 -0.6521  0.7829
  859MPD2    H112615   0.196   2.064  15.224 -0.4455  1.5285  1.8179
  859MPD2    H212616   0.445   2.304  14.989 -1.6003 -0.1332 -0.9129
  859MPD2    H312617   0.391   2.094  15.094 -0.7304 -0.9600  0.5811
  859MPD2     N12618   0.033   2.255  15.302  0.1244  0.2817 -0.3375
  859MPD2    H512619   0.006   2.161  15.328 -0.1230  0.9912  1.9896
  859MPD2    N112620   0.331   2.538  15.027  0.4549  0.2356 -0.6381
  859MPD2    H712621   0.430   2.557  15.027  0.5047 -0.1569  2.1300
  860MPD2     C12622   2.780   3.015  11.590  0.1020 -0.1849  0.0261
  860MPD2    C112623   2.712   3.060  11.703  0.4686 -0.5500 -0.4720
  860MPD2    C212624   2.572   3.058  11.709 -0.2051  0.1098 -0.3123
  860MPD2    C312625   2.501   3.011  11.603 -0.4137 -0.7448 -0.3954
  860MPD2    C412626   2.569   2.971  11.489 -0.7086 -0.0962  0.3697
  860MPD2    C512627   2.706   2.972  11.484  0.1027  0.1136  0.2691
  860MPD2     H12628   2.520   3.107  11.790  1.2443  1.3959 -0.1624
  860MPD2    H112629   2.518   2.941  11.398  0.2644  0.7942 -0.4742
  860MPD2    H212630   2.886   3.002  11.575 -0.2065 -2.6845 -0.0373
  860MPD2    H312631   2.757   2.936  11.396  3.6461  2.1793  1.4753
  860MPD2     N12632   2.361   3.020  11.612 -0.1588  0.2448 -0.6815
  860MPD2    H512633   2.320   3.077  11.686  0.0706 -0.5453  0.0469
  860MPD2    N112634   2.779   3.114  11.811 -0.2420  0.9703  0.5226
  860MPD2    H712635   2.731   3.120  11.900  0.9507  0.4476  1.2012
  861MPD2     C12636   0.637   1.033  11.228  0.3189  0.2524  0.3517
  861MPD2    C112637   0.693   1.159  11.211 -0.2733 -0.2102  0.1893
  861MPD2    C212638   0.624   1.255  11.144 -0.8285 -0.4247 -0.2327
  861MPD2    C312639   0.493   1.227  11.095 -0.1540 -0.0354  0.3974
  861MPD2    C412640   0.445   1.096  11.101 -0.2890  0.3800 -0.5529
  861MPD2    C512641   0.518   1.002  11.167  0.4941 -0.1526 -0.0671
  861MPD2     H12642   0.673   1.351  11.141 -0.9656 -0.4093 -2.1208
  861MPD2    H112643   0.365   1.051  11.043 -0.1486  1.5577 -1.6660
  861MPD2    H212644   0.689   0.950  11.275 -0.0659 -0.5243 -0.5928
  861MPD2    H312645   0.490   0.898  11.169 -1.7661  0.4175 -2.0858
  861MPD2     N12646   0.415   1.325  11.025  0.1111  0.2047  0.0221
  861MPD2    H512647   0.335   1.286  10.975 -0.1334  0.4105  0.2551
  861MPD2    N112648   0.822   1.196  11.252 -0.4748  0.5915 -0.7886
  861MPD2    H712649   0.859   1.285  11.221  1.8639  0.1367  0.6296
  862MPD2     C12650   0.321   1.556  10.319  0.2220  0.3157  0.6096
  862MPD2    C112651   0.342   1.457  10.411 -0.1540  0.6474  0.6776
  862MPD2    C212652   0.348   1.324  10.369 -0.3104  0.1827 -0.4533
  862MPD2    C312653   0.351   1.295  10.232 -0.2773 -0.3158 -1.0560
  862MPD2    C412654   0.347   1.397  10.142 -0.3459 -0.0527 -0.0556
  862MPD2    C512655   0.335   1.530  10.178  0.8641 -0.2218 -0.1259
  862MPD2     H12656   0.357   1.241  10.437 -1.3338 -0.2386 -0.8300
  862MPD2    H112657   0.359   1.379  10.035  0.4320  4.1650 -0.6612
  862MPD2    H212658   0.302   1.657  10.352 -0.8631  0.8534 -1.6472
  862MPD2    H312659   0.321   1.600  10.097  0.1727  0.9153  0.9632
  862MPD2     N12660   0.374   1.166  10.179 -0.8267 -0.0491 -0.2212
  862MPD2    H512661   0.412   1.155  10.086  1.5648 -0.1382  0.7578
  862MPD2    N112662   0.360   1.488  10.548 -0.5524 -0.4711 -0.3200
  862MPD2    H712663   0.365   1.409  10.611 -1.1836 -0.4313 -0.2265
  863MPD2     C12664   4.527   3.590  17.240  0.4641  0.2420 -0.0640
  863MPD2    C112665   4.547   3.606  17.105  0.2122 -0.0766  0.5358
  863MPD2    C212666   4.679   3.618  17.058  0.3485  0.0625  0.1330
  863MPD2    C312667   0.060   3.603  17.137  0.1215  0.0352 -0.0010
  863MPD2    C412668   0.037   3.571  17.266  0.2322 -0.3922  0.2622
  863MPD2    C512669   4.635   3.570  17.321  0.3205  0.1129 -0.7356
  863MPD2     H12670   4.691   3.655  16.957 -0.9754 -2.1419 -0.8123
  863MPD2    H112671   0.118   3.568  17.338 -0.5988 -0.7270  1.1933
  863MPD2    H212672   4.424   3.603  17.271 -0.4238 -2.4006 -1.9704
  863MPD2    H312673   4.622   3.555  17.427  0.8475  0.7946 -0.5680
  863MPD2     N12674   0.194   3.627  17.100 -0.1561 -0.2583 -0.1387
  863MPD2    H512675   0.265   3.586  17.160  1.4428  1.2415 -1.0158
  863MPD2    N112676   4.442   3.634  17.012 -0.0355  0.1293 -0.0666
  863MPD2    H712677   4.352   3.670  17.043 -1.0520 -1.4531 -1.1545
  864MPD2     C12678   4.342   0.339  16.927  0.1894 -0.2113 -0.5650
  864MPD2    C112679   4.435   0.266  16.860  0.2798  0.1541 -0.5475
  864MPD2    C212680   4.527   0.324  16.778  0.6899  0.1902 -0.8249
  864MPD2    C312681   4.546   0.459  16.770  0.2564  0.2393 -0.4340
  864MPD2    C412682   4.452   0.536  16.833 -0.4468  0.6453 -0.1984
  864MPD2    C512683   4.352   0.479  16.916  0.1292  0.7608 -0.3214
  864MPD2     H12684   4.589   0.259  16.717 -1.3810 -1.8609 -0.7308
  864MPD2    H112685   4.450   0.643  16.816  1.2847  0.7470  0.1724
  864MPD2    H212686   4.266   0.312  16.999  1.1326 -1.0414  0.1231
  864MPD2    H312687   4.274   0.542  16.959  0.1877  0.1391  0.6894
  864MPD2     N12688   4.661   0.518  16.708  0.2557  0.0080 -0.9417
  864MPD2    H512689   4.678   0.615  16.735 -0.0994 -0.4659  1.0310
  864MPD2    N112690   4.449   0.124  16.865 -0.1866  0.0642 -0.4628
  864MPD2    H712691   4.528   0.079  16.821 -0.0323  0.2925 -0.4165
  865MPD2     C12692   4.530   0.635  16.236  0.0704  0.2434  0.4210
  865MPD2    C112693   4.667   0.625  16.215 -0.0257 -0.6379  0.0416
  865MPD2    C212694   0.029   0.699  16.292 -0.2591  0.3986 -0.4858
  865MPD2    C312695   4.702   0.802  16.368 -0.0479  0.4572 -0.2563
  865MPD2    C412696   4.568   0.823  16.376 -0.3121  0.3489  0.0232
  865MPD2    C512697   4.483   0.725  16.332 -0.3937 -0.7360  0.8104
  865MPD2     H12698   0.134   0.673  16.280 -0.4524  0.5547 -2.5111
  865MPD2    H112699   4.529   0.906  16.433 -1.3077 -1.8594  2.5815
  865MPD2    H212700   4.464   0.568  16.183 -0.2022  1.2657 -0.5192
  865MPD2    H312701   4.377   0.731  16.353 -0.4206 -1.6530  0.9752
  865MPD2     N12702   0.064   0.886  16.440 -0.0081 -0.3396  0.2333
  865MPD2    H512703   0.027   0.966  16.490  0.4158 -1.9589  3.1226
  865MPD2    N112704   4.724   0.510  16.148  0.4340  0.0954 -0.1211
  865MPD2    H712705   0.098   0.508  16.139  0.3800 -0.8655 -0.5482
  866MPD2     C12706   1.657   1.774  11.223  0.4195 -0.9046 -0.5048
  866MPD2    C112707   1.603   1.755  11.104  0.5837 -0.2217  0.2652
  866MPD2    C212708   1.470   1.778  11.082 -0.6769 -0.4953  0.2888
  866MPD2    C312709   1.380   1.828  11.175 -0.5107  0.1535  0.2395
  866MPD2    C412710   1.447   1.853  11.294 -0.5444  0.3805 -0.2903
  866MPD2    C512711   1.578   1.830  11.322 -0.1080 -1.0336  0.3099
  866MPD2     H12712   1.437   1.755  10.981  0.3154 -0.5193 -0.0290
  866MPD2    H112713   1.382   1.902  11.366 -0.3783 -0.3504  0.3634
  866MPD2    H212714   1.762   1.755  11.245  0.5725  1.0654  0.5876
  866MPD2    H312715   1.610   1.861  11.421  0.6982  1.9345 -0.8741
  866MPD2     N12716   1.244   1.847  11.156  0.2317  0.0538  0.0462
  866MPD2    H512717   1.195   1.880  11.238 -1.4433  0.0290 -0.9571
  866MPD2    N112718   1.696   1.703  11.012  0.0033 -0.0738  0.0150
  866MPD2    H712719   1.793   1.700  11.039  0.4443  0.9138 -1.4862
  867MPD2     C12720   3.432   0.167  16.759  0.3871  0.7416 -0.1134
  867MPD2    C112721   3.556   0.152  16.810  0.0763 -0.0403  0.2696
  867MPD2    C212722   3.604   0.256  16.890 -0.3369 -0.0946  0.3032
  867MPD2    C312723   3.512   0.353  16.934  0.0989 -0.5544  0.5970
  867MPD2    C412724   3.386   0.361  16.889  0.5610  0.2285  0.2084
  867MPD2    C512725   3.341   0.260  16.807 -0.5519  0.5689 -0.5948
  867MPD2     H12726   3.710   0.268  16.905 -0.1677 -3.2846  1.5648
  867MPD2    H112727   3.318   0.440  16.920 -0.0507 -0.4259  0.5303
  867MPD2    H212728   3.397   0.087  16.693  0.5985  0.2013  0.4297
  867MPD2    H312729   3.237   0.258  16.777 -0.6235 -1.4689 -0.2596
  867MPD2     N12730   3.556   0.461  17.012  0.2286  0.5201 -1.0804
  867MPD2    H512731   3.488   0.532  17.038 -1.3514 -1.1130 -0.7377
  867MPD2    N112732   3.632   0.052  16.748 -0.5721 -0.4114  0.2118
  867MPD2    H712733   3.591   4.711  16.685 -2.0268 -0.1054  0.8214
  868MPD2     C12734   1.135   4.667  12.515 -0.3094 -0.2323 -0.1659
  868MPD2    C112735   1.108   4.549  12.590  1.2566  0.5119  0.6839
  868MPD2    C212736   1.038   4.565  12.706 -0.7662  0.8991  0.8181
  868MPD2    C312737   1.031   4.688  12.763  0.9171  0.5625  0.2771
  868MPD2    C412738   1.071   0.076  12.702 -0.0390  0.2893 -0.5109
  868MPD2    C512739   1.122   0.065  12.574  0.3485 -0.6867 -1.0079
  868MPD2     H12740   1.001   4.478  12.759 -1.0569  0.3265 -0.3264
  868MPD2    H112741   1.074   0.176  12.745  0.2927 -0.2211  0.6390
  868MPD2    H212742   1.183   4.664  12.418  2.2304  1.4060  1.0206
  868MPD2    H312743   1.152   0.158  12.526 -0.7403 -0.7500 -1.8101
  868MPD2     N12744   0.971   4.699  12.887  0.1460 -0.1079 -0.2266
  868MPD2    H512745   0.942   4.614  12.934 -0.2461  1.1986  1.8995
  868MPD2    N112746   1.152   4.428  12.536 -0.8147 -0.1777  0.6334
  868MPD2    H712747   1.195   4.437  12.444 -1.3802 -0.6603  0.3260
  869MPD2     C12748   2.751   2.280   1.642 -0.4421  0.6644 -0.3092
  869MPD2    C112749   2.633   2.285   1.572  0.2968 -0.1348  0.3725
  869MPD2    C212750   2.626   2.358   1.450 -0.6125  0.4629  0.0680
  869MPD2    C312751   2.741   2.421   1.406  0.2378  0.1743  0.3599
  869MPD2    C412752   2.857   2.406   1.476  0.6954  0.4057 -0.6411
  869MPD2    C512753   2.861   2.341   1.596 -0.3589  1.2044  0.0493
  869MPD2     H12754   2.534   2.366   1.395 -0.6688  0.6097  0.1839
  869MPD2    H112755   2.950   2.441   1.432  0.3981 -0.5938 -2.0771
  869MPD2    H212756   2.767   2.236   1.740 -0.3804 -0.2547 -0.7356
  869MPD2    H312757   2.957   2.342   1.646 -0.6494  3.1152  0.5684
  869MPD2     N12758   2.749   2.508   1.292  0.4741 -0.9898 -0.1655
  869MPD2    H512759   2.833   2.559   1.269 -0.4844  0.9153  0.5725
  869MPD2    N112760   2.531   2.224   1.642  0.0572  0.2650  0.8130
  869MPD2    H712761   2.548   2.171   1.727 -0.2808  0.4388  0.9875
  870MPD2     C12762   1.189   1.883   1.751 -0.1171  0.0453 -0.4230
  870MPD2    C112763   1.215   1.822   1.631  0.2540 -0.3248 -0.3916
  870MPD2    C212764   1.131   1.861   1.522  0.1116 -0.0906 -0.4376
  870MPD2    C312765   1.026   1.950   1.531 -0.5021 -0.2347  0.9872
  870MPD2    C412766   1.001   2.007   1.655 -0.3927 -0.9821 -0.2900
  870MPD2    C512767   1.077   1.968   1.764 -0.5472  0.2258  1.2600
  870MPD2     H12768   1.157   1.829   1.421 -2.4101  2.1559 -1.8016
  870MPD2    H112769   0.923   2.079   1.677 -0.2401  0.0709 -3.2787
  870MPD2    H212770   1.245   1.847   1.837 -2.2124  2.1577  1.8337
  870MPD2    H312771   1.049   1.999   1.864 -0.2959  0.6218  1.2067
  870MPD2     N12772   0.973   1.981   1.407 -0.1295 -0.0072  0.1866
  870MPD2    H512773   1.017   1.928   1.332  0.0313 -2.2799  1.8839
  870MPD2    N112774   1.322   1.727   1.620 -0.2352 -0.0598  0.1456
  870MPD2    H712775   1.375   1.715   1.706 -0.5024  1.3916  0.5128
  871MPD2     C12776   2.766   0.901  16.294  0.2215  0.6928  0.1777
  871MPD2    C112777   2.763   0.862  16.428 -0.4281 -0.0328 -0.0423
  871MPD2    C212778   2.759   0.725  16.446  0.2000 -0.5400  0.7671
  871MPD2    C312779   2.778   0.632  16.349  0.2461  0.0757  0.1394
  871MPD2    C412780   2.794   0.678  16.219 -0.5442 -0.2028 -0.4561
  871MPD2    C512781   2.778   0.813  16.194 -0.6499  0.2729  0.0354
  871MPD2     H12782   2.742   0.681  16.543 -2.3663  0.4165  0.7527
  871MPD2    H112783   2.798   0.614  16.132  0.2507 -0.5056 -0.1982
  871MPD2    H212784   2.767   1.007  16.269 -0.2262  0.6467 -0.0235
  871MPD2    H312785   2.782   0.839  16.089 -1.7467 -1.0547 -0.3390
  871MPD2     N12786   2.771   0.494  16.373  0.2113  0.6057  0.5912
  871MPD2    H512787   2.739   0.470  16.466  1.0856 -2.4878  0.0938
  871MPD2    N112788   2.746   0.958  16.529 -0.1373 -0.0806  0.1417
  871MPD2    H712789   2.755   1.056  16.504 -0.6618 -0.8232 -3.0242
  872MPD2     C12790   3.906   2.992  13.750 -0.2674 -0.1260  0.2146
  872MPD2    C112791   3.904   3.124  13.723  0.4003  1.0536 -0.0025
  872MPD2    C212792   3.789   3.187  13.681 -0.1656 -0.3673 -0.2564
  872MPD2    C312793   3.674   3.109  13.676  0.4448 -0.7298 -0.2397
  872MPD2    C412794   3.675   2.976  13.709 -0.4539 -0.0617  0.0451
  872MPD2    C512795   3.791   2.915  13.742 -0.5138 -0.9994 -0.1961
  872MPD2     H12796   3.793   3.291  13.651  0.2040  0.4008  2.4984
  872MPD2    H112797   3.587   2.913  13.708 -0.7739  0.3820  0.0894
  872MPD2    H212798   3.999   2.944  13.780 -0.3691 -0.6514 -0.3129
  872MPD2    H312799   3.798   2.812  13.776  4.4812 -0.0468  1.6502
  872MPD2     N12800   3.557   3.181  13.661  0.3726 -0.0167  0.4516
  872MPD2    H512801   3.564   3.276  13.627  0.0636 -0.1908 -0.1046
  872MPD2    N112802   4.020   3.202  13.733  0.1181  0.1813  0.2987
  872MPD2    H712803   4.011   3.295  13.695  0.9784  1.2635  2.7955
  873MPD2     C12804   1.272   3.479   0.748 -0.4237 -0.7114  0.7633
  873MPD2    C112805   1.246   3.473   0.884 -0.4958 -0.6850 -0.0927
  873MPD2    C212806   1.187   3.357   0.930 -0.8694 -0.2717 -0.1674
  873MPD2    C312807   1.153   3.250   0.847  0.1578  0.4286 -1.0926
  873MPD2    C412808   1.180   3.265   0.715 -0.4031  0.0942  0.6470
  873MPD2    C512809   1.254   3.368   0.677 -0.0720  0.1763 -0.0230
  873MPD2     H12810   1.176   3.350   1.038 -0.1396  0.8117 -0.0260
  873MPD2    H112811   1.162   3.187   0.641  0.7701 -0.6152  1.1070
  873MPD2    H212812   1.321   3.565   0.706 -0.8851 -1.4351 -1.2426
  873MPD2    H312813   1.296   3.373   0.577 -1.6732 -0.9118 -0.7509
  873MPD2     N12814   1.082   3.138   0.892 -0.7148 -0.7734  0.7324
  873MPD2    H512815   1.068   3.063   0.826 -1.3912 -0.9981  1.1367
  873MPD2    N112816   1.265   3.579   0.974  0.0384  0.4376 -0.4563
  873MPD2    H712817   1.202   3.579   1.053  2.7449 -1.6204  1.7238
  874MPD2     C12818   0.157   3.363  15.668 -0.3245  0.3348  0.4758
  874MPD2    C112819   0.202   3.265  15.761 -0.5425 -0.1357  0.3074
  874MPD2    C212820   0.337   3.259  15.796  0.1853  0.0418  0.1375
  874MPD2    C312821   0.428   3.352  15.749  0.4973 -0.0228  0.4588
  874MPD2    C412822   0.390   3.442  15.656  0.1006  0.2047 -0.0505
  874MPD2    C512823   0.256   3.447  15.614  0.7473 -0.2674  0.5508
  874MPD2     H12824   0.370   3.171  15.848 -2.1261 -0.8990  0.0134
  874MPD2    H112825   0.459   3.506  15.603 -0.4219  1.2721  0.5682
  874MPD2    H212826   0.055   3.379  15.638 -0.0654  3.1484  1.1240
  874MPD2    H312827   0.226   3.524  15.543  0.7590  0.2061  1.0619
  874MPD2     N12828   0.555   3.334  15.805 -0.1453  0.4726 -0.5049
  874MPD2    H512829   0.573   3.247  15.854  0.2534  1.0723  0.4147
  874MPD2    N112830   0.111   3.184  15.827 -0.2453 -0.0898 -0.3709
  874MPD2    H712831   0.016   3.176  15.790 -0.6755 -0.1576  0.7383
  875MPD2     C12832   1.286   1.439  14.734 -0.0206  0.0125 -0.6719
  875MPD2    C112833   1.284   1.579  14.741  0.6024 -1.0814  0.7113
  875MPD2    C212834   1.358   1.647  14.845  0.0195 -0.0711 -0.9703
  875MPD2    C312835   1.432   1.576  14.937 -0.1655 -0.3193  0.4170
  875MPD2    C412836   1.436   1.439  14.926 -0.3844  0.6004 -0.1980
  875MPD2    C512837   1.354   1.374  14.833  0.0011 -0.0864 -0.2098
  875MPD2     H12838   1.352   1.755  14.850  0.1571 -0.1032 -0.1105
  875MPD2    H112839   1.473   1.369  14.999  0.0223  1.4624  0.4192
  875MPD2    H212840   1.226   1.378  14.668 -0.5408 -0.5320  0.3056
  875MPD2    H312841   1.346   1.267  14.826 -0.8572  0.0157 -0.8742
  875MPD2     N12842   1.485   1.639  15.057 -0.6483 -0.6254 -0.2610
  875MPD2    H512843   1.479   1.740  15.058 -2.3938 -0.7236 -1.6196
  875MPD2    N112844   1.214   1.657  14.646 -0.7761 -0.7140  0.2555
  875MPD2    H712845   1.198   1.752  14.676  0.4879 -0.6571  0.7595
  876MPD2     C12846   4.708   2.757  15.661 -0.2224 -0.5864 -0.3951
  876MPD2    C112847   0.110   2.752  15.714 -0.2565 -0.1777  0.4451
  876MPD2    C212848   0.150   2.659  15.809  0.0724  0.2124 -0.3505
  876MPD2    C312849   0.062   2.562  15.848 -0.6362 -0.2738 -0.0709
  876MPD2    C412850   4.656   2.582  15.815 -0.0764 -0.4303  0.0245
  876MPD2    C512851   4.612   2.679  15.723 -0.4704 -0.3820 -0.5948
  876MPD2     H12852   0.252   2.659  15.847 -0.2252 -3.4452  0.4354
  876MPD2    H112853   4.580   2.510  15.846 -1.4513  0.1148 -2.0916
  876MPD2    H212854   4.663   2.830  15.594 -0.6091  0.3974  0.9212
  876MPD2    H312855   4.506   2.687  15.703 -0.4512  0.3300 -0.4419
  876MPD2     N12856   0.111   2.464  15.941  0.1643  0.2809 -0.0906
  876MPD2    H512857   0.208   2.461  15.970  0.2314 -0.9559 -0.4307
  876MPD2    N112858   0.212   2.840  15.659 -0.0293  0.7552 -0.4242
  876MPD2    H712859   0.180   2.895  15.580 -3.1753  0.0660  0.3755
  877MPD2     C12860   0.275   3.339  15.100 -0.0230  1.1495  0.0245
  877MPD2    C112861   0.401   3.336  15.159  0.8785  0.3057  0.1355
  877MPD2    C212862   0.511   3.386  15.089  0.0467  0.0096 -0.0340
  877MPD2    C312863   0.492   3.458  14.973 -0.9578  0.5310 -0.3823
  877MPD2    C412864   0.364   3.481  14.927 -0.0078 -0.8140 -0.8275
  877MPD2    C512865   0.257   3.414  14.987 -0.2400 -0.7941 -0.0586
  877MPD2     H12866   0.612   3.361  15.118  0.7259  2.0515 -0.6828
  877MPD2    H112867   0.346   3.525  14.830 -1.2351 -1.2470 -0.8013
  877MPD2    H212868   0.193   3.289  15.151  0.0962 -0.3425 -1.2267
  877MPD2    H312869   0.155   3.420  14.950 -0.5100 -1.8235  0.5445
  877MPD2     N12870   0.597   3.502  14.883 -0.2129  0.8602 -0.2149
  877MPD2    H512871   0.568   3.518  14.787  2.2932  1.2042 -0.9187
  877MPD2    N112872   0.434   3.267  15.280 -0.2322 -0.0054 -0.0920
  877MPD2    H712873   0.526   3.277  15.321 -0.0739  0.6603 -0.6050
  878MPD2     C12874   0.426   2.982  13.514  0.1319 -0.0518  0.3624
  878MPD2    C112875   0.359   2.879  13.443 -0.5225  0.4104  0.7768
  878MPD2    C212876   0.368   2.755  13.499 -0.6498  0.0527  0.1558
  878MPD2    C312877   0.439   2.740  13.622  0.1024 -0.3171 -0.6751
  878MPD2    C412878   0.517   2.837  13.684 -0.2022 -0.6676  0.7797
  878MPD2    C512879   0.494   2.963  13.632 -0.3047  0.2997 -0.2925
  878MPD2     H12880   0.305   2.673  13.467 -0.5452  0.2809 -0.6254
  878MPD2    H112881   0.572   2.834  13.777 -0.2437  2.1348  0.8949
  878MPD2    H212882   0.414   3.085  13.482 -0.3973 -0.1983  0.0894
  878MPD2    H312883   0.516   3.050  13.692 -2.0915  1.1618 -0.9077
  878MPD2     N12884   0.435   2.610  13.676 -0.5505 -0.2521  0.5657
  878MPD2    H512885   0.382   2.540  13.626 -0.0797 -0.1674 -0.0534
  878MPD2    N112886   0.292   2.911  13.319 -0.2370 -0.1857  0.6176
  878MPD2    H712887   0.298   3.003  13.278  1.0316 -0.3430  0.4469
  879MPD2     C12888   0.799   4.158  16.752  0.9495 -0.6230  0.3633
  879MPD2    C112889   0.861   4.106  16.861 -0.2976 -0.4683  0.0875
  879MPD2    C212890   0.929   3.980  16.847 -0.7735 -0.1088 -0.2205
  879MPD2    C312891   0.916   3.915  16.723 -0.8511  0.5612  0.2361
  879MPD2    C412892   0.831   3.967  16.624  0.3949  0.4177 -0.6154
  879MPD2    C512893   0.779   4.088  16.631  0.7869  0.1220  0.4328
  879MPD2     H12894   0.999   3.942  16.920  0.8334  2.0988 -0.6111
  879MPD2    H112895   0.819   3.907  16.534 -2.2230 -0.3170  0.2101
  879MPD2    H212896   0.751   4.254  16.770  0.3283 -0.7466 -0.5984
  879MPD2    H312897   0.721   4.126  16.548 -0.7331  0.1720  1.5309
  879MPD2     N12898   0.967   3.784  16.707  0.1646  0.0431 -0.0016
  879MPD2    H512899   0.958   3.751  16.611 -2.7202  0.2499  0.2010
  879MPD2    N112900   0.851   4.179  16.979 -1.0696 -0.3197 -0.5088
  879MPD2    H712901   0.810   4.271  16.965  0.9054  0.7003  0.3648
  880MPD2     C12902   1.994   1.249   0.515 -0.1197  0.5128  0.0932
  880MPD2    C112903   1.952   1.333   0.620  0.2502 -0.4458 -0.3550
  880MPD2    C212904   1.947   1.281   0.753 -0.6351 -0.5357  0.0149
  880MPD2    C312905   1.987   1.150   0.780 -0.0568  0.5408 -0.3486
  880MPD2    C412906   2.025   1.070   0.679  1.4327  0.2177 -0.1916
  880MPD2    C512907   2.032   1.121   0.549  0.3170 -0.6721  0.1356
  880MPD2     H12908   1.914   1.342   0.836  1.7865  1.4709 -0.5014
  880MPD2    H112909   2.066   0.974   0.706 -0.6226 -1.0153 -1.5366
  880MPD2    H212910   1.987   1.275   0.410 -1.8885 -1.0866 -0.1775
  880MPD2    H312911   2.054   1.053   0.467 -0.8631 -1.2611  0.3032
  880MPD2     N12912   1.977   1.113   0.920  0.8730 -0.0641 -0.2501
  880MPD2    H512913   1.959   1.193   0.981  1.4865  1.2842 -1.8216
  880MPD2    N112914   1.903   1.459   0.585  0.2167  0.0833 -0.2768
  880MPD2    H712915   1.920   1.489   0.490 -1.4344  0.2426 -0.5200
  881MPD2     C12916   1.974   2.088  17.609  0.3225  0.1276  0.0422
  881MPD2    C112917   1.964   1.950  17.615 -0.3000 -0.1218  0.1842
  881MPD2    C212918   1.902   1.894   0.016  0.2396 -0.1072 -0.1300
  881MPD2    C312919   1.844   1.980   0.114  0.5868 -0.3327 -0.5048
  881MPD2    C412920   1.862   2.119   0.105 -0.0252  1.1368  0.0184
  881MPD2    C512921   1.922   2.174  17.705 -0.3527 -0.2331  0.0985
  881MPD2     H12922   1.884   1.787   0.018 -1.8252  0.2840  1.6628
  881MPD2    H112923   1.835   2.196   0.176 -2.0959 -0.2795  0.7685
  881MPD2    H212924   2.000   2.125  17.511  1.1380 -2.0701 -0.5679
  881MPD2    H312925   1.945   2.280  17.706  0.9313 -0.5281  1.1684
  881MPD2     N12926   1.778   1.925   0.230  0.1472  0.0580 -0.1708
  881MPD2    H512927   1.736   1.995   0.289 -0.4686 -1.4656  1.1928
  881MPD2    N112928   1.993   1.887  17.497 -0.1096  0.1201  0.3999
  881MPD2    H712929   2.040   1.944  17.427 -0.0556 -2.2507 -1.5002
  882MPD2     C12930   0.876   3.170  14.235  0.5201 -0.0137 -0.2219
  882MPD2    C112931   0.796   3.257  14.314  0.3919  0.2580 -0.2614
  882MPD2    C212932   0.662   3.221  14.330  0.3366 -0.2220  0.7913
  882MPD2    C312933   0.603   3.114  14.279 -0.0481  0.0956 -0.1625
  882MPD2    C412934   0.676   3.036  14.200  0.3306  0.1548 -1.0263
  882MPD2    C512935   0.807   3.056  14.184 -0.9085  0.3509 -0.2556
  882MPD2     H12936   0.602   3.293  14.385  0.7329  0.3645  0.4652
  882MPD2    H112937   0.632   2.954  14.144 -1.6101 -0.1666  0.9946
  882MPD2    H212938   0.980   3.191  14.213  0.5985 -0.4281 -0.2449
  882MPD2    H312939   0.866   2.995  14.117  1.0092  1.1089  0.7345
  882MPD2     N12940   0.463   3.091  14.294  0.0008 -0.7102 -0.1610
  882MPD2    H512941   0.428   2.997  14.280  2.8135 -1.8353  0.2636
  882MPD2    N112942   0.856   3.366  14.379  0.7393  0.8242  0.7799
  882MPD2    H712943   0.958   3.371  14.384  0.4845  1.9873  4.5034
  883MPD2     C12944   2.320   3.285  16.062 -0.9254 -0.5301  0.2262
  883MPD2    C112945   2.391   3.319  15.945 -0.1828  0.5551  0.5967
  883MPD2    C212946   2.467   3.437  15.944 -0.1972 -0.3688  0.4142
  883MPD2    C312947   2.473   3.517  16.059  0.4533 -0.2376 -0.0295
  883MPD2    C412948   2.397   3.488  16.167 -0.2461  0.2954  1.4067
  883MPD2    C512949   2.319   3.373  16.172 -0.1853  0.3070  0.1959
  883MPD2     H12950   2.513   3.463  15.850 -3.1718  1.5219 -0.5332
  883MPD2    H112951   2.392   3.549  16.257 -0.5862  0.0450  1.5600
  883MPD2    H212952   2.259   3.195  16.057  0.1538 -1.1081 -2.6001
  883MPD2    H312953   2.258   3.347  16.258  0.3176 -1.4050  0.0189
  883MPD2     N12954   2.559   3.627  16.050  0.2117  0.0477  0.3204
  883MPD2    H512955   2.620   3.630  15.968  1.1308  0.0158  1.0099
  883MPD2    N112956   2.384   3.249  15.827 -0.0216 -0.5720 -0.1847
  883MPD2    H712957   2.438   3.291  15.751  1.1131  0.5155  1.2144
  884MPD2     C12958   4.328   3.888  15.388 -0.4808  0.6658  0.8143
  884MPD2    C112959   4.325   3.991  15.296 -0.1583  0.0457 -0.1711
  884MPD2    C212960   4.211   4.022  15.225 -0.7403  0.3561  0.2091
  884MPD2    C312961   4.088   3.960  15.254  0.2480  0.0200  0.1354
  884MPD2    C412962   4.092   3.863  15.358  0.0122 -0.7422 -0.8393
  884MPD2    C512963   4.212   3.828  15.419 -0.8894  0.0938 -0.3827
  884MPD2     H12964   4.217   4.088  15.140 -2.1103  0.6206  0.3115
  884MPD2    H112965   4.003   3.808  15.388  0.5686 -2.0900 -1.6790
  884MPD2    H212966   4.414   3.857  15.445 -1.1558 -0.3230  1.2750
  884MPD2    H312967   4.203   3.755  15.499 -0.9419  1.3654  0.7665
  884MPD2     N12968   3.974   3.983  15.172  0.3691  0.1584 -0.2609
  884MPD2    H512969   3.983   4.049  15.096 -2.6987  2.1782  1.1230
  884MPD2    N112970   4.448   4.057  15.262  0.2836  0.0740 -0.0569
  884MPD2    H712971   4.435   4.122  15.185 -1.0244  0.5793  0.6007
  885MPD2     C12972   2.015   4.455   0.152 -0.5454 -0.1620  0.3203
  885MPD2    C112973   2.121   4.377   0.117  0.4273  0.1652 -0.2164
  885MPD2    C212974   2.162   4.380  17.698 -0.7798 -0.2657 -0.1264
  885MPD2    C312975   2.108   4.469  17.605  0.1113 -0.1803  0.5230
  885MPD2    C412976   2.005   4.552  17.648  0.9764  0.2811  0.9038
  885MPD2    C512977   1.959   4.546   0.071 -0.1672  0.6913  0.8086
  885MPD2     H12978   2.256   4.333  17.673  0.5872  1.5511  1.5247
  885MPD2    H112979   1.964   4.633  17.588 -1.0515 -0.0511  1.8262
  885MPD2    H212980   1.972   4.444   0.252 -2.5100 -0.1846 -0.5238
  885MPD2    H312981   1.884   4.616   0.107 -0.4735  0.5921  0.3625
  885MPD2     N12982   2.175   4.485  17.481  0.1717  0.0750  0.1235
  885MPD2    H512983   2.248   4.417  17.460  1.2454  1.3304 -0.2141
  885MPD2    N112984   2.171   4.291   0.216  0.8739  0.3384 -0.4157
  885MPD2    H712985   2.129   4.302   0.307  0.5621 -1.0720 -0.3894
  886MPD2     C12986   3.741   2.409  14.574 -0.0078 -0.4742 -0.4898
  886MPD2    C112987   3.826   2.448  14.674 -1.2380 -0.2748 -0.7321
  886MPD2    C212988   3.878   2.572  14.675 -0.1970 -0.0198 -0.4152
  886MPD2    C312989   3.860   2.660  14.558  0.2001 -0.9400  0.7924
  886MPD2    C412990   3.787   2.612  14.453 -0.5543  0.4311  0.0284
  886MPD2    C512991   3.728   2.488  14.461  0.1820 -0.7959  0.2833
  886MPD2     H12992   3.936   2.600  14.762 -1.4917 -0.0980  0.4608
  886MPD2    H112993   3.773   2.671  14.363 -0.4145  0.3227 -0.0646
  886MPD2    H212994   3.704   2.307  14.572 -2.2674  0.3274 -0.0071
  886MPD2    H312995   3.663   2.456  14.381 -1.3721  1.4423  0.6610
  886MPD2     N12996   3.911   2.790  14.552 -0.3603  0.2782  0.3096
  886MPD2    H512997   3.901   2.836  14.462  0.6153 -2.8370 -1.4067
  886MPD2    N112998   3.863   2.364  14.782 -0.2965 -0.1736  0.0006
  886MPD2    H712999   3.929   2.407  14.846 -0.0905 -0.8197  0.2250
  887MPD2     C13000   4.464   2.368  15.065  0.4897  0.8788 -0.9657
  887MPD2    C113001   4.345   2.392  15.115  0.1041  0.0281 -0.3762
  887MPD2    C213002   4.321   2.513  15.171 -0.2775  0.2399  0.6008
  887MPD2    C313003   4.427   2.599  15.193  0.0214 -0.1691 -0.2009
  887MPD2    C413004   4.555   2.572  15.145  0.0232 -0.6272 -0.2829
  887MPD2    C513005   4.565   2.460  15.074  0.5755 -0.5407  0.6702
  887MPD2     H13006   4.223   2.554  15.193 -0.6392 -0.0716 -0.4198
  887MPD2    H113007   4.645   2.631  15.163 -0.5250  0.0856  0.1203
  887MPD2    H213008   4.485   2.283  15.000 -0.1109 -1.5052  1.9432
  887MPD2    H313009   4.664   2.426  15.046 -0.1149 -1.0161 -1.1815
  887MPD2     N13010   4.398   2.716  15.261  0.2359  0.0901 -0.2253
  887MPD2    H513011   4.305   2.736  15.295  1.6017  2.0632  2.3317
  887MPD2    N113012   4.230   2.310  15.094  0.0841  0.1095 -0.0783
  887MPD2    H713013   4.137   2.347  15.110  1.2534  2.8154  0.4831
  888MPD2     C13014   1.642   2.764  14.783 -0.6474  0.4067  0.7145
  888MPD2    C113015   1.667   2.833  14.899 -0.4817 -0.5848  0.4406
  888MPD2    C213016   1.690   2.972  14.880  0.3132 -0.2829  0.2878
  888MPD2    C313017   1.671   3.035  14.763  0.1972 -0.7888  1.0299
  888MPD2    C413018   1.657   2.961  14.650  0.6631  0.4951 -0.0986
  888MPD2    C513019   1.650   2.823  14.662  0.2966 -0.4924  0.3238
  888MPD2     H13020   1.718   3.039  14.961  3.9449  1.2751 -2.2759
  888MPD2    H113021   1.647   3.003  14.550 -1.2188  1.8529  0.6592
  888MPD2    H213022   1.639   2.656  14.786  2.2276  0.3063 -0.6444
  888MPD2    H313023   1.639   2.758  14.576  2.6978  2.5694 -2.2492
  888MPD2     N13024   1.677   3.178  14.764  0.2830 -0.5736 -0.1768
  888MPD2    H513025   1.689   3.233  14.849  0.5807 -3.0902  1.4158
  888MPD2    N113026   1.671   2.778  15.028  0.4857 -0.2613  0.0687
  888MPD2    H713027   1.724   2.830  15.097 -1.9391  0.1499  1.6350
  889MPD2     C13028   0.281   2.371  12.941  0.2426  0.4260  0.0453
  889MPD2    C113029   0.412   2.338  12.957  0.3425  0.4287 -0.2981
  889MPD2    C213030   0.488   2.436  13.022  0.2896  0.7907  0.5197
  889MPD2    C313031   0.460   2.570  13.007 -0.3574 -0.5764 -0.0504
  889MPD2    C413032   0.334   2.602  12.957 -0.2653 -0.0318  0.1429
  889MPD2    C513033   0.252   2.501  12.929 -0.2496 -0.0346 -0.0725
  889MPD2     H13034   0.589   2.409  13.051  0.3913 -0.4031 -0.9068
  889MPD2    H113035   0.304   2.706  12.950  1.3599  0.4111 -0.2573
  889MPD2    H213036   0.206   2.296  12.917  0.6271  0.5092 -1.4223
  889MPD2    H313037   0.155   2.526  12.888  0.6564  2.6640 -0.5850
  889MPD2     N13038   0.551   2.665  13.052 -0.3104  0.5416  0.1945
  889MPD2    H513039   0.634   2.638  13.104  1.4276  1.1040 -2.2881
  889MPD2    N113040   0.457   2.206  12.966  0.0277  0.4275  0.5775
  889MPD2    H713041   0.549   2.187  13.002  0.5696 -1.2530 -1.7327
  890MPD2     C13042   0.629   4.239  14.654 -0.3343  0.3046  0.0811
  890MPD2    C113043   0.539   4.269  14.754 -0.1419 -0.4624 -0.6109
  890MPD2    C213044   0.528   4.177  14.859 -0.6735 -0.1468  0.0093
  890MPD2    C313045   0.600   4.053  14.859 -0.1621  0.4414  0.5276
  890MPD2    C413046   0.690   4.024  14.754  0.9561  0.1828  0.2454
  890MPD2    C513047   0.711   4.128  14.661 -0.3086  0.5068 -0.2946
  890MPD2     H13048   0.473   4.195  14.951  1.3065  1.5621  0.8888
  890MPD2    H113049   0.758   3.940  14.749  0.2521 -0.3549 -0.1174
  890MPD2    H213050   0.644   4.301  14.567 -1.6669 -0.1557 -0.4857
  890MPD2    H313051   0.773   4.110  14.574 -0.9186  0.6670 -0.7637
  890MPD2     N13052   0.584   3.965  14.964  0.7916 -0.1683  0.2097
  890MPD2    H513053   0.513   3.989  15.033  0.1033  0.0640 -0.5873
  890MPD2    N113054   0.465   4.392  14.747 -0.2025  0.9587  0.1759
  890MPD2    H713055   0.475   4.436  14.656  0.6398  1.6066  0.5776
  891MPD2     C13056   3.061   3.301  16.473 -0.0429  0.6227 -0.1083
  891MPD2    C113057   3.050   3.164  16.474 -0.4933 -0.0333 -0.6626
  891MPD2    C213058   3.155   3.089  16.524  0.1020  0.4132  0.8369
  891MPD2    C313059   3.266   3.155  16.582 -0.4101  0.4530  0.8831
  891MPD2    C413060   3.279   3.291  16.568 -0.1131  0.9490 -0.1400
  891MPD2    C513061   3.172   3.355  16.520  0.7004  0.7837 -0.4704
  891MPD2     H13062   3.153   2.981  16.532 -1.5892  0.4457  0.9556
  891MPD2    H113063   3.373   3.336  16.597  0.3294 -0.0234 -0.0509
  891MPD2    H213064   2.981   3.358  16.427  0.7929  1.2382 -0.7873
  891MPD2    H313065   3.178   3.463  16.509 -1.4799  0.7728 -1.7121
  891MPD2     N13066   3.354   3.068  16.646  0.3389  0.8061 -0.4525
  891MPD2    H513067   3.332   2.970  16.658  1.1004  0.5977 -0.7459
  891MPD2    N113068   2.940   3.086  16.435 -0.0346 -0.3610 -0.4243
  891MPD2    H713069   2.946   2.987  16.455  2.0910 -0.1640 -0.0812
  892MPD2     C13070   4.401   3.715  14.127  0.2611  1.0528 -0.0094
  892MPD2    C113071   4.356   3.620  14.216 -0.1907  0.2557 -0.0149
  892MPD2    C213072   4.436   3.508  14.241  0.7336 -0.9062 -0.2263
  892MPD2    C313073   4.565   3.494  14.195 -0.4229 -0.0262 -0.2503
  892MPD2    C413074   4.613   3.594  14.106 -0.7839  0.5139  0.7270
  892MPD2    C513075   4.533   3.701  14.077 -0.4440  0.2814 -0.2577
  892MPD2     H13076   4.402   3.440  14.318 -0.3318 -1.7214 -1.4059
  892MPD2    H113077   4.706   3.575  14.054 -0.5584  0.1061  1.2862
  892MPD2    H213078   4.349   3.805  14.095  2.0671  1.2159 -2.5194
  892MPD2    H313079   4.579   3.767  14.005  0.1840  0.3537  0.2162
  892MPD2     N13080   4.654   3.387  14.226  0.0229  0.2666 -0.5867
  892MPD2    H513081   0.027   3.399  14.211 -0.3456  3.3879 -0.4903
  892MPD2    N113082   4.223   3.635  14.271 -0.4363 -0.0056 -0.1942
  892MPD2    H713083   4.170   3.714  14.235 -0.5302  1.4349  3.0993
  893MPD2     C13084   1.091   2.436   0.992 -0.6951 -0.6926  0.4881
  893MPD2    C113085   1.182   2.388   1.083  0.7071 -0.0853  0.3320
  893MPD2    C213086   1.151   2.403   1.221  0.1689  0.4684  0.5761
  893MPD2    C313087   1.025   2.443   1.261 -0.3764 -0.0586 -0.5266
  893MPD2    C413088   0.935   2.478   1.167  0.0608  0.7672 -0.2233
  893MPD2    C513089   0.975   2.488   1.039 -0.2603 -0.2216 -0.3508
  893MPD2     H13090   1.229   2.373   1.290  0.5637 -0.2001 -0.1671
  893MPD2    H113091   0.841   2.522   1.199 -0.8235 -0.9954 -0.4057
  893MPD2    H213092   1.110   2.445   0.886  0.4808  1.0976  0.8535
  893MPD2    H313093   0.900   2.520   0.968  2.3508 -0.2927 -3.1795
  893MPD2     N13094   0.991   2.451   1.398  0.3030 -0.0181 -0.1416
  893MPD2    H513095   0.898   2.476   1.431  0.8048  1.0828  0.4365
  893MPD2    N113096   1.303   2.318   1.047 -0.5769  0.3331 -0.2421
  893MPD2    H713097   1.370   2.292   1.119 -1.9703 -0.3370  0.8189
  894MPD2     C13098   3.750   4.703   0.880 -0.5744  0.2638 -0.4420
  894MPD2    C113099   3.827   4.632   0.967 -0.6246  0.0233 -0.6810
  894MPD2    C213100   3.956   4.601   0.933  0.3215 -0.4570  0.8328
  894MPD2    C313101   4.001   4.621   0.806  0.5630 -0.1508  0.4857
  894MPD2    C413102   3.930   4.681   0.710  0.9425  0.0380  0.5408
  894MPD2    C513103   3.808   0.006   0.761 -0.2763  0.6944  0.0859
  894MPD2     H13104   4.024   4.567   1.010 -0.8091 -1.2844  1.4696
  894MPD2    H113105   3.964   4.711   0.612 -3.0206 -1.0146 -1.1413
  894MPD2    H213106   3.658   0.026   0.908  0.8003  3.0878 -0.9654
  894MPD2    H313107   3.744   0.061   0.693 -0.0032 -1.2455 -1.7678
  894MPD2     N13108   4.137   4.582   0.782  0.2102  0.3369  0.7552
  894MPD2    H513109   4.179   4.544   0.867 -0.4860 -1.2657  0.3884
  894MPD2    N113110   3.780   4.601   1.097 -0.1730 -0.0766  0.3747
  894MPD2    H713111   3.850   4.568   1.163  0.1635  0.0039  0.0517
  895MPD2     C13112   3.371   2.755  13.490  0.2569  0.7148  0.0830
  895MPD2    C113113   3.272   2.684  13.425 -0.3232  0.2703 -0.8381
  895MPD2    C213114   3.310   2.562  13.379 -0.2893 -0.3718 -0.4047
  895MPD2    C313115   3.419   2.496  13.429  0.6837 -0.6850  0.2111
  895MPD2    C413116   3.517   2.565  13.491 -0.5491  0.0806 -0.8385
  895MPD2    C513117   3.491   2.694  13.526 -0.9370 -0.1311 -0.3428
  895MPD2     H13118   3.231   2.501  13.336 -0.1603 -1.9888  1.6302
  895MPD2    H113119   3.604   2.510  13.527 -1.1403  0.8410  1.7505
  895MPD2    H213120   3.359   2.857  13.524  1.3814  1.5568 -2.0361
  895MPD2    H313121   3.564   2.753  13.580  0.1654 -0.3486 -1.5874
  895MPD2     N13122   3.431   2.352  13.399 -0.2241  0.3097 -0.1977
  895MPD2    H513123   3.357   2.307  13.346 -2.5267  0.2170  3.0842
  895MPD2    N113124   3.145   2.744  13.390  0.0499  0.0902 -0.2218
  895MPD2    H713125   3.064   2.689  13.362 -0.5078 -0.7044  2.9377
  896MPD2     C13126   0.910   0.614   1.446  0.2372 -0.4767 -0.1640
  896MPD2    C113127   0.948   0.540   1.335 -0.0600  0.1680 -0.9880
  896MPD2    C213128   0.859   0.449   1.280 -0.6943  0.9158 -0.3535
  896MPD2    C313129   0.736   0.428   1.332 -0.0913 -0.1340 -0.7512
  896MPD2    C413130   0.696   0.508   1.442 -0.2773  0.3691  0.1784
  896MPD2    C513131   0.782   0.602   1.492  0.1181 -0.2871  0.1500
  896MPD2     H13132   0.886   0.386   1.196 -2.1128  0.0461 -0.1697
  896MPD2    H113133   0.598   0.488   1.486  0.4924  0.2690  1.8432
  896MPD2    H213134   0.964   0.700   1.482 -1.2490  0.2662  0.2798
  896MPD2    H313135   0.742   0.660   1.574 -0.6614  1.8847 -1.7598
  896MPD2     N13136   0.653   0.327   1.265 -0.2856  0.4713 -0.1024
  896MPD2    H513137   0.695   0.284   1.183 -1.8455 -0.0127 -0.6504
  896MPD2    N113138   1.077   0.570   1.279  0.0756 -0.0946 -0.3502
  896MPD2    H713139   1.122   0.652   1.317 -4.0848  1.9335  0.2804
  897MPD2     C13140   1.392   1.978  10.436  0.1192  0.4593 -0.6918
  897MPD2    C113141   1.477   2.059  10.506  0.4030 -0.5167 -0.3281
  897MPD2    C213142   1.424   2.113  10.627 -0.5999 -0.0349  0.0726
  897MPD2    C313143   1.299   2.080  10.677  0.6346 -0.1484 -0.7746
  897MPD2    C413144   1.220   1.991  10.608 -0.8759 -0.5690 -0.6664
  897MPD2    C513145   1.275   1.944  10.495  0.4634 -1.6813 -0.6289
  897MPD2     H13146   1.472   2.198  10.674 -1.7131 -0.1148  1.3314
  897MPD2    H113147   1.126   1.950  10.644 -0.4248 -1.0130 -0.0066
  897MPD2    H213148   1.412   1.943  10.335 -0.6916 -0.4524 -0.5451
  897MPD2    H313149   1.202   1.888  10.437 -0.6821  0.9719 -1.7653
  897MPD2     N13150   1.261   2.149  10.797  0.6487  0.3984 -0.7371
  897MPD2    H513151   1.319   2.220  10.840  1.7844 -0.4420 -0.8925
  897MPD2    N113152   1.571   2.123  10.427 -0.1976 -0.2301  0.0523
  897MPD2    H713153   1.575   2.103  10.327  2.4577 -0.7203  0.2742
  898MPD2     C13154   4.160   2.563  17.695  0.2517 -0.0091  0.6803
  898MPD2    C113155   4.200   2.668  17.616 -0.1285 -0.8613  0.1675
  898MPD2    C213156   4.100   2.750  17.564 -0.5654  0.4649  0.7843
  898MPD2    C313157   3.972   2.715  17.582  0.4017  0.1406 -0.8428
  898MPD2    C413158   3.935   2.605  17.660 -0.6958 -0.1870 -0.8510
  898MPD2    C513159   4.031   2.525   0.001  0.6890  0.0621  0.2305
  898MPD2     H13160   4.132   2.840  17.513  2.7009 -0.8236  0.5936
  898MPD2    H113161   3.832   2.571  17.671  0.0092 -2.0417  0.1236
  898MPD2    H213162   4.238   2.503   0.033  0.8202  0.8200  0.7985
  898MPD2    H313163   4.003   2.432   0.050  0.3425 -1.0626 -2.1019
  898MPD2     N13164   3.877   2.807  17.535 -0.4324 -0.0912 -0.1356
  898MPD2    H513165   3.915   2.897  17.507  2.5998 -1.1616  0.5586
  898MPD2    N113166   4.329   2.719  17.615 -0.0523  0.0099 -0.5126
  898MPD2    H713167   4.344   2.802  17.560 -0.4335  0.9597  0.8079
  899MPD2     C13168   0.813   3.602  17.498  0.7904 -0.2511 -0.2724
  899MPD2    C113169   0.688   3.582  17.450  0.2161 -0.8678 -1.3072
  899MPD2    C213170   0.592   3.555  17.545  0.2606  0.4449  0.0214
  899MPD2    C313171   0.627   3.560  17.681  0.0267  0.1679  0.4050
  899MPD2    C413172   0.758   3.596   0.012 -0.2500  0.2661 -0.0362
  899MPD2    C513173   0.851   3.600  17.627  0.4802 -0.0163  0.4827
  899MPD2     H13174   0.487   3.537  17.524  0.0299 -0.0869  1.6473
  899MPD2    H113175   0.775   3.598   0.119  1.5985 -0.5435 -0.3034
  899MPD2    H213176   0.890   3.632  17.428  2.0433  0.0488  1.2524
  899MPD2    H313177   0.956   3.614  17.650  0.6432 -0.0594 -0.2185
  899MPD2     N13178   0.530   3.533   0.078 -0.4603  0.4323 -0.4923
  899MPD2    H513179   0.559   3.547   0.175  0.5042 -0.4250 -0.6646
  899MPD2    N113180   0.668   3.602  17.311 -0.0466  0.3021 -0.2678
  899MPD2    H713181   0.750   3.623  17.254  0.6213 -2.2545 -0.2561
  900MPD2     C13182   4.364   0.836  12.411 -0.9171 -0.3560  0.1421
  900MPD2    C113183   4.316   0.706  12.384  0.0017 -0.5866  0.0827
  900MPD2    C213184   4.189   0.685  12.331  0.5992  0.3230 -0.0009
  900MPD2    C313185   4.102   0.792  12.317 -0.0675 -0.1310  0.1898
  900MPD2    C413186   4.144   0.914  12.361  0.0092  0.4868  0.9149
  900MPD2    C513187   4.274   0.940  12.401  0.4386 -0.1331 -0.0232
  900MPD2     H13188   4.162   0.584  12.301 -1.5268  0.4224  1.5409
  900MPD2    H113189   4.070   0.992  12.348  0.3379  0.7899  0.8700
  900MPD2    H213190   4.465   0.868  12.432 -1.3876  0.9860  0.3176
  900MPD2    H313191   4.314   1.039  12.419  0.1677 -0.2457  1.2316
  900MPD2     N13192   3.984   0.780  12.243  0.8397  0.4056 -0.4024
  900MPD2    H513193   3.955   0.687  12.213  2.6238  0.2458 -1.6757
  900MPD2    N113194   4.403   0.600  12.417  0.0773  0.9194 -0.1158
  900MPD2    H713195   4.497   0.630  12.437  0.7498 -1.1602 -0.1364
  901MPD2     C13196   4.605   4.481  13.087  0.1773 -0.8652  0.0342
  901MPD2    C113197   4.694   4.469  12.981 -0.1162  0.2244  0.1787
  901MPD2    C213198   4.673   4.566  12.884 -0.8531 -0.1129  0.5750
  901MPD2    C313199   4.583   4.669  12.886 -0.5290 -0.0597 -0.0812
  901MPD2    C413200   4.493   4.677  12.989  1.0818  0.4546 -0.0882
  901MPD2    C513201   4.499   4.572  13.083  0.3905 -0.0283  0.0220
  901MPD2     H13202   0.012   4.561  12.797 -0.0601 -0.4367  1.1967
  901MPD2    H113203   4.412   0.022  12.988  1.3545  0.7532 -0.6428
  901MPD2    H213204   4.607   4.398  13.157 -0.0684 -1.2475 -0.4141
  901MPD2    H313205   4.419   4.574  13.156 -0.6557  0.9893 -1.1615
  901MPD2     N13206   4.582   0.027  12.774  0.2801 -0.0684 -0.0863
  901MPD2    H513207   4.650   0.008  12.701 -0.7851 -0.2008 -1.0525
  901MPD2    N113208   0.066   4.368  12.971  0.1788  0.0913  0.1924
  901MPD2    H713209   0.096   4.317  13.054 -0.0639  0.7979  0.7236
  902MPD2     C13210   2.757   3.160  12.783  0.1999  0.3117 -0.2379
  902MPD2    C113211   2.883   3.175  12.736  0.5852 -0.1635  0.3968
  902MPD2    C213212   2.985   3.109  12.802  0.2164  0.4822 -0.2947
  902MPD2    C313213   2.965   3.021  12.910 -0.1004  0.6792  0.4554
  902MPD2    C413214   2.835   3.014  12.962  0.4568 -0.3504 -0.1342
  902MPD2    C513215   2.738   3.093  12.905 -0.1082  0.1248  0.5079
  902MPD2     H13216   3.083   3.139  12.767  0.8735 -1.0260  0.2609
  902MPD2    H113217   2.809   2.945  13.041  1.0658  0.5033  0.8069
  902MPD2    H213218   2.675   3.210  12.732 -0.4778 -0.1597  0.3942
  902MPD2    H313219   2.643   3.095  12.957 -0.4199 -1.8676  0.0002
  902MPD2     N13220   3.076   2.941  12.947  0.5937  0.4155  0.2571
  902MPD2    H513221   3.163   2.955  12.897  0.0971  1.3062 -0.3602
  902MPD2    N113222   2.919   3.265  12.630 -0.2117  0.1317  0.1326
  902MPD2    H713223   3.018   3.288  12.621  0.5266 -3.0350  0.1545
  903MPD2     C13224   3.528   2.793  12.441  0.6008 -0.3664  0.3346
  903MPD2    C113225   3.441   2.865  12.527 -0.2105 -0.1238  0.3011
  903MPD2    C213226   3.370   2.969  12.473  1.1887  0.5181 -0.1123
  903MPD2    C313227   3.382   2.998  12.335  0.4528  0.6498  0.1611
  903MPD2    C413228   3.454   2.915  12.249  0.2257  0.0896  0.2053
  903MPD2    C513229   3.540   2.820  12.305  0.2067 -0.2981  0.7333
  903MPD2     H13230   3.301   3.024  12.536 -1.2718 -0.9855 -1.4748
  903MPD2    H113231   3.452   2.928  12.142  1.2360 -0.3003  0.1378
  903MPD2    H213232   3.592   2.717  12.485 -0.4357 -1.4200  0.0265
  903MPD2    H313233   3.613   2.767  12.245 -1.1653  0.5844 -1.7302
  903MPD2     N13234   3.283   3.087  12.284  0.2668 -0.0906  0.1914
  903MPD2    H513235   3.222   3.127  12.354  1.0688  2.3279 -0.4839
  903MPD2    N113236   3.430   2.820  12.657  0.0207  0.1521 -0.0162
  903MPD2    H713237   3.486   2.741  12.687  2.4007  1.6927 -0.3905
  904MPD2     C13238   3.316   1.892  14.169 -0.3442  0.0306 -0.1251
  904MPD2    C113239   3.401   1.929  14.063  0.7446  0.4367 -0.2422
  904MPD2    C213240   3.540   1.909  14.079  0.5270 -0.3319  0.2215
  904MPD2    C313241   3.589   1.842  14.189  0.1777  0.3850 -0.1097
  904MPD2    C413242   3.503   1.794  14.283  0.7756  0.6103 -0.3483
  904MPD2    C513243   3.370   1.827  14.276 -0.1575  0.2551 -0.6064
  904MPD2     H13244   3.607   1.945  14.002  0.1885  0.4105  0.2748
  904MPD2    H113245   3.533   1.744  14.375 -1.1474  0.7480  0.3439
  904MPD2    H213246   3.209   1.911  14.160 -0.3310  1.0305  1.8034
  904MPD2    H313247   3.299   1.796  14.352  1.6085  0.1952  1.0133
  904MPD2     N13248   3.729   1.825  14.205 -0.1780 -0.3536 -0.2335
  904MPD2    H513249   3.788   1.889  14.153  0.5674 -0.8341  0.0247
  904MPD2    N113250   3.354   1.991  13.943 -0.0325  0.1686  0.1746
  904MPD2    H713251   3.426   2.025  13.879  0.0697 -1.6709 -0.7142
  905MPD2     C13252   2.838   1.927  13.354 -0.6364 -0.1378  0.4259
  905MPD2    C113253   2.944   2.027  13.376  0.2108 -0.1647  1.2433
  905MPD2    C213254   3.051   2.028  13.292  0.0903 -0.0088  0.5912
  905MPD2    C313255   3.060   1.952  13.182 -0.2407 -0.2762  0.7543
  905MPD2    C413256   2.961   1.856  13.157 -0.3630  0.0298 -0.4492
  905MPD2    C513257   2.850   1.850  13.239  0.4780  0.4537  0.1084
  905MPD2     H13258   3.122   2.109  13.305  0.6830 -0.1715 -1.6719
  905MPD2    H113259   2.969   1.787  13.073 -0.0702  0.2668 -0.6139
  905MPD2    H213260   2.746   1.934  13.411 -0.2674 -0.5761  1.0760
  905MPD2    H313261   2.771   1.783  13.208 -0.8967  0.6859  3.0676
  905MPD2     N13262   3.176   1.952  13.099 -0.3803  0.3263 -0.2925
  905MPD2    H513263   3.162   1.899  13.013 -0.0591 -0.9713  0.4509
  905MPD2    N113264   2.945   2.102  13.495  0.2031 -0.8289  0.0639
  905MPD2    H713265   2.882   2.069  13.567  0.9498 -0.5254  0.8595
  906MPD2     C13266   0.534   2.494  11.611 -1.6327 -0.3407 -0.6308
  906MPD2    C113267   0.482   2.445  11.497  0.1368  0.4337 -1.2223
  906MPD2    C213268   0.417   2.326  11.512  0.1688  0.4079  0.6427
  906MPD2    C313269   0.391   2.267  11.632  0.2477 -0.1721  0.2787
  906MPD2    C413270   0.446   2.322  11.741 -0.2962 -0.7723 -0.4078
  906MPD2    C513271   0.518   2.436  11.736  0.2760 -0.1410  0.3844
  906MPD2     H13272   0.358   2.288  11.429 -2.1195 -0.5597  2.6941
  906MPD2    H113273   0.443   2.268  11.836  0.5267  0.5606  0.3786
  906MPD2    H213274   0.589   2.587  11.615  0.3252 -1.5279 -0.2260
  906MPD2    H313275   0.571   2.472  11.824  3.3737  0.5788 -1.7532
  906MPD2     N13276   0.297   2.163  11.635 -0.0428 -0.2809 -0.1364
  906MPD2    H513277   0.245   2.134  11.553  0.4065  0.1371 -0.5670
  906MPD2    N113278   0.478   2.509  11.374 -0.2922 -0.0659 -0.2023
  906MPD2    H713279   0.417   2.470  11.303 -1.3530  1.1526  0.0392
  907MPD2     C13280   3.869   1.324  15.743  0.2362 -0.4041  0.6012
  907MPD2    C113281   3.895   1.196  15.711  0.1308 -0.6513 -0.0693
  907MPD2    C213282   3.931   1.110  15.808 -0.2902 -0.2363 -0.3644
  907MPD2    C313283   3.945   1.147  15.938  0.3047  0.0228 -0.3839
  907MPD2    C413284   3.938   1.281  15.971  0.0982 -0.0113 -1.0159
  907MPD2    C513285   3.903   1.369  15.868  0.2699  0.4907  0.3020
  907MPD2     H13286   3.938   1.004  15.789  2.4320 -0.1295  0.0709
  907MPD2    H113287   3.964   1.321  16.068  0.8072  0.0029 -1.2152
  907MPD2    H213288   3.838   1.396  15.668  1.6593 -0.9598 -0.5314
  907MPD2    H313289   3.877   1.474  15.883  1.5115  0.9597 -0.8715
  907MPD2     N13290   3.961   1.047  16.037 -0.2948  0.1970 -0.4555
  907MPD2    H513291   3.966   0.950  16.008  1.0632  0.4025 -0.9162
  907MPD2    N113292   3.863   1.133  15.588  0.0222  0.3846  0.0782
  907MPD2    H713293   3.888   1.036  15.572  3.0310  0.8705  1.9669
  908MPD2     C13294   1.365   2.105   9.665 -0.0608 -0.1330  0.3055
  908MPD2    C113295   1.458   2.035   9.738 -0.4401  0.2072  0.2873
  908MPD2    C213296   1.525   2.096   9.841 -0.0230  0.2000  0.7118
  908MPD2    C313297   1.498   2.223   9.879 -0.0511 -0.1414  0.2184
  908MPD2    C413298   1.397   2.290   9.811 -0.4860  0.6609 -0.1330
  908MPD2    C513299   1.322   2.225   9.711 -0.1903  0.1251 -0.7667
  908MPD2     H13300   1.601   2.034   9.887  0.8497 -0.0463 -1.0474
  908MPD2    H113301   1.360   2.387   9.843 -2.1149  0.5418 -1.6170
  908MPD2    H213302   1.319   2.063   9.577  1.3981  2.3408 -1.6182
  908MPD2    H313303   1.240   2.280   9.666  1.1427  3.0465  0.3528
  908MPD2     N13304   1.553   2.274   9.998  0.4205  0.6202  0.5138
  908MPD2    H513305   1.635   2.223  10.028 -0.1122 -1.5861 -1.7926
  908MPD2    N113306   1.509   1.912   9.699  0.1664  0.3899 -0.7569
  908MPD2    H713307   1.604   1.890   9.728  0.2602  1.9331  0.1112
  909MPD2     C13308   2.236   0.209  11.851  0.2618  0.0930 -0.3924
  909MPD2    C113309   2.161   0.291  11.762  0.1183  0.6867  0.1099
  909MPD2    C213310   2.047   0.362  11.802 -0.0985 -1.1659  0.2004
  909MPD2    C313311   2.011   0.349  11.939 -0.0194  0.5495  0.3075
  909MPD2    C413312   2.087   0.274  12.028  0.4968 -0.0996 -0.2002
  909MPD2    C513313   2.190   0.197  11.982 -0.0382  0.1641 -0.1524
  909MPD2     H13314   1.983   0.423  11.739  2.6681  0.1906 -1.2946
  909MPD2    H113315   2.058   0.274  12.133  0.7805 -2.4958 -0.1218
  909MPD2    H213316   2.328   0.156  11.828  0.3808  0.7113 -1.3555
  909MPD2    H313317   2.243   0.129  12.047  1.1743  1.0251 -0.2457
  909MPD2     N13318   1.901   0.426  11.981 -0.4513 -0.6296 -0.1008
  909MPD2    H513319   1.867   0.492  11.912 -1.9864 -0.2497  1.0203
  909MPD2    N113320   2.201   0.291  11.621  0.0416 -0.4027  0.6634
  909MPD2    H713321   2.148   0.353  11.561  3.2029  0.8137 -0.9183
  910MPD2     C13322   3.338   1.588  15.635 -0.2444 -0.0147 -0.6057
  910MPD2    C113323   3.428   1.505  15.579 -0.2298 -0.5513  0.5168
  910MPD2    C213324   3.445   1.494  15.444  0.5724  0.3710 -0.5342
  910MPD2    C313325   3.391   1.594  15.362  0.3139  1.0151  0.5824
  910MPD2    C413326   3.312   1.688  15.423  0.0408  0.6620  0.3642
  910MPD2    C513327   3.288   1.691  15.558 -0.4203 -0.4607 -0.7110
  910MPD2     H13328   3.509   1.413  15.411  1.1158  0.9962 -1.0319
  910MPD2    H113329   3.267   1.752  15.348  0.9810  2.3899  1.2791
  910MPD2    H213330   3.305   1.590  15.738  0.9871 -1.4071 -0.1892
  910MPD2    H313331   3.215   1.757  15.605 -0.2885  1.3889 -3.1385
  910MPD2     N13332   3.412   1.591  15.219  0.5249 -0.2589 -0.0799
  910MPD2    H513333   3.367   1.655  15.154  0.4227 -0.9753 -0.7152
  910MPD2    N113334   3.486   1.396  15.657 -0.7687 -0.5052 -0.6758
  910MPD2    H713335   3.516   1.316  15.602  2.7472  0.4256 -0.0909
  911MPD2     C13336   1.370   2.472  16.095  0.0397 -0.1843  0.0533
  911MPD2    C113337   1.365   2.604  16.124 -0.6455 -0.3933  0.5082
  911MPD2    C213338   1.284   2.686  16.041  0.3310 -0.0997  0.0133
  911MPD2    C313339   1.212   2.626  15.941 -0.0594 -0.3391  0.0159
  911MPD2    C413340   1.206   2.491  15.923 -0.3084  0.0901  0.1511
  911MPD2    C513341   1.294   2.419  15.993  0.6358  0.3402 -0.3453
  911MPD2     H13342   1.273   2.793  16.053  0.9153 -0.1686  1.1851
  911MPD2    H113343   1.134   2.443  15.858 -2.0424  0.4736  1.7643
  911MPD2    H213344   1.437   2.409  16.153  0.2300 -0.0399 -0.0109
  911MPD2    H313345   1.294   2.313  15.973  1.2250  0.3221 -0.2497
  911MPD2     N13346   1.118   2.689  15.857 -0.2154  0.5479  0.6099
  911MPD2    H513347   1.065   2.635  15.789  1.2043  0.4043 -0.3753
  911MPD2    N113348   1.449   2.648  16.227  0.0028  0.1310  1.4138
  911MPD2    H713349   1.509   2.573  16.261  2.9110  1.9120  0.2075
  912MPD2     C13350   1.017   2.290  15.311 -0.1316  0.3023  0.2699
  912MPD2    C113351   0.993   2.339  15.437  0.0594  0.1034 -0.3077
  912MPD2    C213352   1.025   2.250  15.544 -0.0339 -0.0122  0.7769
  912MPD2    C313353   1.066   2.122  15.532 -0.0018 -0.6362  0.2147
  912MPD2    C413354   1.075   2.076  15.405 -0.3654 -0.3302  0.6721
  912MPD2    C513355   1.057   2.161  15.299  0.1545 -0.5942  0.2043
  912MPD2     H13356   1.017   2.296  15.642 -0.7150  1.0070  0.2402
  912MPD2    H113357   1.102   1.975  15.377  0.0380  0.4333 -1.7758
  912MPD2    H213358   0.993   2.344  15.220 -0.8897 -0.0245  0.2757
  912MPD2    H313359   1.074   2.126  15.198 -0.9447 -1.2142  0.2314
  912MPD2     N13360   1.102   2.044  15.644 -0.3988  0.7259 -0.0911
  912MPD2    H513361   1.094   2.087  15.736  1.1800 -1.4746  1.0733
  912MPD2    N113362   0.952   2.471  15.458  0.0752  0.1431  0.6519
  912MPD2    H713363   0.941   2.530  15.376 -0.5107  0.3144  0.8520
  913MPD2     C13364   0.866   3.521  10.586 -0.7729 -0.1626  0.2452
  913MPD2    C113365   0.985   3.580  10.554 -0.0175  0.0669  0.5617
  913MPD2    C213366   1.015   3.637  10.429  0.0301  0.0238  0.8243
  913MPD2    C313367   0.914   3.631  10.329  0.2389  0.4018  0.0794
  913MPD2    C413368   0.798   3.572  10.361  0.6153  0.7540 -0.1347
  913MPD2    C513369   0.783   3.510  10.480 -0.7748  0.6336  0.1312
  913MPD2     H13370   1.110   3.684  10.410  0.4071 -0.1798  2.2259
  913MPD2    H113371   0.722   3.563  10.284 -0.1734 -1.1915  0.8601
  913MPD2    H213372   0.838   3.477  10.681 -0.0465  0.1817  0.6282
  913MPD2    H313373   0.689   3.459  10.500 -0.6852  0.3614 -0.1474
  913MPD2     N13374   0.924   3.678  10.199 -0.3824  0.8824 -0.6576
  913MPD2    H513375   0.845   3.676  10.135 -0.8812  0.4429 -0.0263
  913MPD2    N113376   1.067   3.602  10.665  0.3891  0.1775  0.0699
  913MPD2    H713377   1.031   3.574  10.756 -3.5325  1.3459 -1.1054
  914MPD2     C13378   4.529   4.119  12.217  0.8741  0.3230 -0.8424
  914MPD2    C113379   4.554   4.227  12.301  0.4095  0.2633 -0.1024
  914MPD2    C213380   4.649   4.217  12.400 -0.6652  0.6200 -0.5058
  914MPD2    C313381   4.719   4.096  12.415 -0.4281 -0.1765 -0.7721
  914MPD2    C413382   4.706   3.995  12.323  0.4034  0.2479  0.0717
  914MPD2    C513383   4.609   4.003  12.231  0.2135  0.3492 -0.2098
  914MPD2     H13384   4.685   4.299  12.461 -1.5731  1.6721 -1.3766
  914MPD2    H113385   0.028   3.898  12.322 -0.4793 -0.1963 -0.3096
  914MPD2    H213386   4.448   4.126  12.147  0.3933 -2.7781 -0.6046
  914MPD2    H313387   4.596   3.918  12.165 -0.4854 -1.2534  1.9544
  914MPD2     N13388   0.076   4.097  12.527 -0.3255  0.4068  0.7624
  914MPD2    H513389   0.076   4.181  12.583  1.3222  1.0151 -0.1473
  914MPD2    N113390   4.490   4.349  12.277 -0.2488 -0.0484 -0.5167
  914MPD2    H713391   4.431   4.348  12.194 -0.3248 -1.2892 -0.4412
  915MPD2     C13392   2.866   4.050  15.234 -1.0073 -0.0711  0.1275
  915MPD2    C113393   2.735   4.013  15.221  0.0804 -0.4406 -0.2052
  915MPD2    C213394   2.644   4.081  15.297  0.9067 -0.2946 -0.1148
  915MPD2    C313395   2.674   4.169  15.394  1.0283 -0.4457  0.2738
  915MPD2    C413396   2.802   4.187  15.421  0.2433  0.0632 -0.6084
  915MPD2    C513397   2.897   4.144  15.335 -0.2615  0.5179  0.4573
  915MPD2     H13398   2.539   4.060  15.280  0.7259  0.3065  0.2751
  915MPD2    H113399   2.834   4.247  15.505 -1.1216  0.6545 -0.5155
  915MPD2    H213400   2.940   4.009  15.165 -1.2901 -0.2803 -0.0504
  915MPD2    H313401   3.000   4.176  15.345  0.2578 -0.6166 -1.4187
  915MPD2     N13402   2.569   4.219  15.479  0.0256  0.9408 -0.5934
  915MPD2    H513403   2.476   4.201  15.443  1.0741 -0.8597 -2.4314
  915MPD2    N113404   2.705   3.908  15.136  0.4777  0.3393  0.0335
  915MPD2    H713405   2.783   3.868  15.085 -0.9852  0.1836 -2.1135
  916MPD2     C13406   0.625   2.206  15.757 -0.0944  0.4534 -0.2965
  916MPD2    C113407   0.570   2.099  15.822  0.0812  0.5674  0.0889
  916MPD2    C213408   0.605   1.972  15.777 -0.6868  0.0255 -0.4935
  916MPD2    C313409   0.698   1.946  15.673  0.0684 -0.2439  0.1899
  916MPD2    C413410   0.753   2.060  15.612  0.6385 -0.0849 -0.4497
  916MPD2    C513411   0.717   2.182  15.659 -0.4030 -0.1175  0.8147
  916MPD2     H13412   0.576   1.886  15.838 -0.8017 -0.0071 -0.5930
  916MPD2    H113413   0.824   2.048  15.530 -0.4571  0.9982 -1.5626
  916MPD2    H213414   0.612   2.308  15.790  2.1386  0.7552 -0.3894
  916MPD2    H313415   0.753   2.271  15.609  1.8729 -0.9712  0.9327
  916MPD2     N13416   0.743   1.817  15.647 -0.4136  0.1629 -0.3620
  916MPD2    H513417   0.718   1.740  15.709 -1.2668  1.3953  0.8176
  916MPD2    N113418   0.470   2.126  15.917 -0.3841  0.2482  0.6121
  916MPD2    H713419   0.450   2.222  15.942 -1.5687  0.5487 -1.4276
  917MPD2     C13420   0.878   4.631  10.864  0.5243 -0.3810 -0.2787
  917MPD2    C113421   0.951   4.684  10.969 -0.5789 -0.4356 -0.4032
  917MPD2    C213422   1.042   0.061  10.947 -0.3496 -0.3059  0.7406
  917MPD2    C313423   1.053   0.112  10.815 -0.0586  0.3671  0.3208
  917MPD2    C413424   0.980   0.054  10.715  0.6174  0.9608 -0.0028
  917MPD2    C513425   0.888   4.681  10.741 -0.2470  0.7146 -0.2896
  917MPD2     H13426   1.091   0.105  11.033  0.8401 -1.7958  0.8218
  917MPD2    H113427   0.974   0.099  10.616 -0.4554  1.0622  0.1136
  917MPD2    H213428   0.806   4.552  10.881 -0.2163 -0.1823 -2.4183
  917MPD2    H313429   0.825   4.638  10.664  1.5112 -0.1028 -1.3018
  917MPD2     N13430   1.126   0.222  10.787  0.1794 -0.1692  0.3353
  917MPD2    H513431   1.112   0.272  10.700  0.5188 -0.6838 -0.0165
  917MPD2    N113432   0.930   4.629  11.096 -0.1950 -0.2273 -0.3594
  917MPD2    H713433   0.846   4.574  11.104 -0.1087 -0.0774  1.5414
  918MPD2     C13434   1.277   0.282  11.839 -0.0384  0.2208 -0.3156
  918MPD2    C113435   1.330   0.154  11.810  0.1431 -0.2794 -0.1563
  918MPD2    C213436   1.251   0.055  11.762 -0.4426  0.7259  0.0149
  918MPD2    C313437   1.116   0.072  11.737  0.7775 -0.5634 -0.1730
  918MPD2    C413438   1.057   0.196  11.784  0.1676  0.1132 -0.1544
  918MPD2    C513439   1.141   0.288  11.834  0.2619  0.7009  0.0086
  918MPD2     H13440   1.302   4.688  11.742 -0.8066  0.1596  1.7087
  918MPD2    H113441   0.953   0.225  11.776 -0.9986 -3.9033  0.4340
  918MPD2    H213442   1.335   0.360  11.886 -0.8441  1.4593 -1.3916
  918MPD2    H313443   1.098   0.386  11.850 -0.6520  0.2451  0.3530
  918MPD2     N13444   1.040   4.693  11.681 -0.2547  0.5039  0.4569
  918MPD2    H513445   1.091   4.616  11.638  2.8354  3.0731 -0.4827
  918MPD2    N113446   1.468   0.130  11.820  0.5826  0.1152 -0.0505
  918MPD2    H713447   1.487   0.031  11.827 -1.8973 -0.2235  1.6294
  919MPD2     C13448   1.678   3.477  12.147  0.1834 -0.5036 -0.0179
  919MPD2    C113449   1.593   3.372  12.120  1.1323  0.3359 -0.0864
  919MPD2    C213450   1.494   3.382  12.025 -0.0990  0.0757  0.2444
  919MPD2    C313451   1.484   3.496  11.946  0.5984 -0.6349  0.3503
  919MPD2    C413452   1.575   3.600  11.974 -0.2847  0.4229 -0.8238
  919MPD2    C513453   1.663   3.596  12.075  0.0598 -0.4693  0.3347
  919MPD2     H13454   1.415   3.308  12.022  1.3504 -1.3773 -1.2041
  919MPD2    H113455   1.567   3.688  11.911  0.4001  2.2009  1.5385
  919MPD2    H213456   1.742   3.474  12.235 -0.8137 -0.8519  0.7027
  919MPD2    H313457   1.718   3.687  12.098 -1.0206  0.0966  0.6839
  919MPD2     N13458   1.394   3.507  11.838 -1.0976 -0.0762 -0.4876
  919MPD2    H513459   1.367   3.596  11.796 -1.3870  1.0386  2.0387
  919MPD2    N113460   1.595   3.256  12.202 -0.5643  0.1716 -0.1043
  919MPD2    H713461   1.546   3.180  12.157  0.5524  0.1254 -1.2247
  920MPD2     C13462   1.175   4.030  11.057 -0.2039  0.3990 -0.0978
  920MPD2    C113463   1.086   3.932  11.027  0.0491  0.2418  0.7105
  920MPD2    C213464   1.064   3.826  11.116 -0.4182  0.5262  0.6954
  920MPD2    C313465   1.139   3.812  11.231  0.6431 -0.9596  0.2241
  920MPD2    C413466   1.227   3.920  11.258  0.3175 -0.1158  0.2505
  920MPD2    C513467   1.236   4.031  11.179  0.4894  0.1094  0.2385
  920MPD2     H13468   0.997   3.747  11.085  0.8537 -0.2210 -0.1338
  920MPD2    H113469   1.291   3.927  11.345  1.5142  0.6736 -0.6915
  920MPD2    H213470   1.196   4.111  10.988 -1.2163  0.3709 -0.4295
  920MPD2    H313471   1.296   4.111  11.219  1.1264  0.2258 -0.9408
  920MPD2     N13472   1.139   3.696  11.309 -1.2542 -0.2113 -0.1845
  920MPD2    H513473   1.058   3.634  11.309 -0.7672 -0.8610 -2.1706
  920MPD2    N113474   1.016   3.925  10.903 -0.1576  0.5138 -0.3373
  920MPD2    H713475   0.948   3.852  10.883  1.3842 -0.9257 -0.3134
  921MPD2     C13476   2.186   3.312  16.518  0.8983  0.4086  1.3545
  921MPD2    C113477   2.211   3.179  16.481 -0.4090  0.0797  0.8268
  921MPD2    C213478   2.100   3.098  16.472  0.0740 -0.8650 -0.3197
  921MPD2    C313479   1.975   3.153  16.501 -0.5499  0.0147  0.4594
  921MPD2    C413480   1.952   3.283  16.547  0.5744  0.0291  0.3063
  921MPD2    C513481   2.065   3.358  16.561  0.3833 -0.1498 -0.5857
  921MPD2     H13482   2.114   2.995  16.441 -0.9618 -1.4254  1.0604
  921MPD2    H113483   1.860   3.328  16.581 -0.4770 -0.8874 -1.3112
  921MPD2    H213484   2.273   3.377  16.516  0.9193  0.3720  0.9401
  921MPD2    H313485   2.056   3.458  16.600  0.2543 -0.9010  1.3128
  921MPD2     N13486   1.857   3.075  16.496  0.1878 -0.5476  0.0459
  921MPD2    H513487   1.773   3.110  16.541  1.3070 -0.4908  2.1264
  921MPD2    N113488   2.342   3.129  16.461 -0.2705 -0.3846 -0.3914
  921MPD2    H713489   2.418   3.193  16.482  0.4262 -0.5163 -2.5456
  922MPD2     C13490   3.098   0.169   0.045  0.2117 -0.1702 -1.0620
  922MPD2    C113491   3.113   0.232  17.630 -0.0355  0.6761 -0.0810
  922MPD2    C213492   3.003   0.250  17.552 -0.5560 -0.3573 -0.6071
  922MPD2    C313493   2.883   0.189  17.584 -0.0192 -0.0141  0.6218
  922MPD2    C413494   2.876   0.113  17.694 -0.4299  0.4115  0.5364
  922MPD2    C513495   2.978   0.105   0.073 -0.0310 -0.0892  0.1011
  922MPD2     H13496   3.012   0.297  17.455  0.7682 -0.0035 -0.3118
  922MPD2    H113497   2.781   0.071   0.017 -1.1341 -0.2414 -2.3589
  922MPD2    H213498   3.176   0.178   0.120  1.2982 -1.1644 -2.0830
  922MPD2    H313499   2.961   0.048   0.163 -1.9730  1.8528  0.9618
  922MPD2     N13500   2.774   0.207  17.497  0.5190  0.1857 -0.0862
  922MPD2    H513501   2.776   0.277  17.424 -0.3554 -0.8699 -1.1194
  922MPD2    N113502   3.246   0.274  17.584 -0.3505  0.5130  0.2092
  922MPD2    H713503   3.240   0.312  17.490  1.6317  1.8731  0.6251
  923MPD2     C13504   4.518   2.325   9.199  0.3094 -0.0326  0.2511
  923MPD2    C113505   4.480   2.438   9.268 -0.4846 -0.4761 -0.0355
  923MPD2    C213506   4.539   2.464   9.393  0.3211 -0.4931 -0.1749
  923MPD2    C313507   4.619   2.368   9.453  0.4934  0.3898 -0.5647
  923MPD2    C413508   4.645   2.249   9.382  0.0296  0.0036 -1.0932
  923MPD2    C513509   4.593   2.229   9.262  0.7597 -0.1614  0.3687
  923MPD2     H13510   4.520   2.558   9.443  0.6615 -0.9802  0.8699
  923MPD2    H113511   4.718   2.183   9.427  0.8814  1.7580  0.1201
  923MPD2    H213512   4.482   2.301   9.099  0.3162 -2.1010  0.7335
  923MPD2    H313513   4.625   2.141   9.208  1.9198  0.5531 -0.1151
  923MPD2     N13514   4.674   2.382   9.586 -0.0268  0.3135 -0.4821
  923MPD2    H513515   4.722   2.303   9.627  0.0559 -0.3073 -1.7783
  923MPD2    N113516   4.389   2.536   9.208 -0.4111  0.4317 -0.0798
  923MPD2    H713517   4.348   2.506   9.120 -0.0019 -0.8433  0.1723
  924MPD2     C13518   3.868   0.231  15.976 -0.3089 -0.1108  0.0581
  924MPD2    C113519   3.826   0.267  16.108 -0.6116  1.2779  0.0908
  924MPD2    C213520   3.887   0.369  16.172  0.1469  0.4987 -0.3996
  924MPD2    C313521   3.983   0.442  16.106 -0.0110  0.6712 -0.2413
  924MPD2    C413522   4.031   0.410  15.977  0.2501  0.3434 -0.1923
  924MPD2    C513523   3.970   0.302  15.915 -0.8737 -0.1620  0.5748
  924MPD2     H13524   3.863   0.400  16.274 -0.1755  0.5663 -0.4948
  924MPD2    H113525   4.112   0.465  15.930  1.2378  1.0021  2.2646
  924MPD2    H213526   3.830   0.157  15.906 -2.8225  2.8802 -1.7280
  924MPD2    H313527   4.002   0.281  15.813 -1.4771  0.8158  0.1871
  924MPD2     N13528   4.025   0.549  16.179 -0.5804  0.2200 -0.2602
  924MPD2    H513529   3.976   0.569  16.265 -1.0672  2.9712 -1.1683
  924MPD2    N113530   3.719   0.193  16.167 -0.2010 -0.5182  0.2038
  924MPD2    H713531   3.651   0.143  16.111  0.4521  1.7603 -2.5977
  925MPD2     C13532   3.558   3.027  14.283 -0.6197 -0.0212  0.5503
  925MPD2    C113533   3.440   3.094  14.309 -0.5057  0.3125 -0.7482
  925MPD2    C213534   3.370   3.064  14.424 -0.1880  0.3509  0.9049
  925MPD2    C313535   3.417   2.976  14.521 -0.1248  0.2259 -0.3993
  925MPD2    C413536   3.543   2.923  14.503 -0.1481 -0.4762  0.0183
  925MPD2    C513537   3.610   2.946  14.384  0.2879  0.3241 -0.4396
  925MPD2     H13538   3.275   3.110  14.447 -0.8251 -0.5831  0.1173
  925MPD2    H113539   3.578   2.849  14.574  1.7605 -0.5051 -0.9725
  925MPD2    H213540   3.615   3.043  14.192 -1.3201 -3.0027 -0.3965
  925MPD2    H313541   3.707   2.899  14.370  0.4075  0.4263  0.0697
  925MPD2     N13542   3.355   2.941  14.645  0.4295  0.6575 -0.1059
  925MPD2    H513543   3.420   2.906  14.715 -0.5249 -0.5714  0.1598
  925MPD2    N113544   3.379   3.177  14.216 -0.6376  1.0689  0.3380
  925MPD2    H713545   3.284   3.203  14.242 -1.1029 -0.4312  0.1294
  926MPD2     C13546   1.779   1.438  13.189 -0.5458 -0.2618 -0.6128
  926MPD2    C113547   1.693   1.537  13.224  0.5372 -0.4472  0.2866
  926MPD2    C213548   1.706   1.653  13.155  0.3127 -0.3959 -0.0802
  926MPD2    C313549   1.799   1.673  13.053 -0.1259  0.4202  0.4208
  926MPD2    C413550   1.886   1.569  13.029 -0.1943  0.1541  0.4079
  926MPD2    C513551   1.878   1.457  13.097 -0.4300 -0.0885  0.0268
  926MPD2     H13552   1.638   1.732  13.186  0.2046 -1.1350  1.5390
  926MPD2    H113553   1.972   1.579  12.964  0.9247  3.3512  2.3833
  926MPD2    H213554   1.788   1.349  13.251  3.5195  0.7823  0.3015
  926MPD2    H313555   1.947   1.378  13.070  1.2224  1.8605 -1.3982
  926MPD2     N13556   1.821   1.790  12.977 -0.0773 -0.2928 -0.3621
  926MPD2    H513557   1.895   1.795  12.908 -0.9226 -0.3029 -1.2725
  926MPD2    N113558   1.601   1.523  13.331 -0.2448 -0.0272  0.7582
  926MPD2    H713559   1.538   1.601  13.350 -0.6821  0.1009 -1.1777
  927MPD2     C13560   1.861   4.269  17.332  0.2222  0.5699 -0.1380
  927MPD2    C113561   1.899   4.153  17.396 -0.1034  0.3288  0.7691
  927MPD2    C213562   1.948   4.050  17.331  0.2094 -0.0731  1.1083
  927MPD2    C313563   1.961   4.046  17.191 -0.1197 -0.3710 -0.6828
  927MPD2    C413564   1.919   4.158  17.124 -0.0671  0.4922 -0.1509
  927MPD2    C513565   1.860   4.265  17.198 -0.1043  0.3456  0.0210
  927MPD2     H13566   1.968   3.954  17.377  0.8244 -0.0550  0.8704
  927MPD2    H113567   1.910   4.165  17.017 -1.9353  1.7603  0.0962
  927MPD2    H213568   1.815   4.350  17.388  2.3721  0.4248  1.8448
  927MPD2    H313569   1.797   4.332  17.140  1.2988  0.4709 -1.3734
  927MPD2     N13570   2.022   3.932  17.124 -0.0723  0.4398  0.3673
  927MPD2    H513571   2.055   3.854  17.180  0.3585 -0.1002 -0.6472
  927MPD2    N113572   1.868   4.150  17.532 -0.2321 -0.5338 -0.0256
  927MPD2    H713573   1.802   4.217  17.572 -0.3982 -1.7018  1.6673
  928MPD2     C13574   4.394   3.055   0.775  0.5271  0.3627 -0.0548
  928MPD2    C113575   4.498   3.016   0.856 -0.2680 -0.0071 -0.6785
  928MPD2    C213576   4.614   2.954   0.799  0.3245  0.1050  0.4797
  928MPD2    C313577   4.617   2.934   0.664 -0.2010  0.0882 -0.1468
  928MPD2    C413578   4.510   2.968   0.590 -0.0141  0.2149 -0.6574
  928MPD2    C513579   4.395   3.025   0.641 -0.0514  0.2785  0.2609
  928MPD2     H13580   4.700   2.933   0.862 -0.8708 -1.7349  1.5135
  928MPD2    H113581   4.507   2.938   0.486  0.4841 -1.1746 -0.2714
  928MPD2    H213582   4.303   3.097   0.817  0.6822 -0.8296  1.4926
  928MPD2    H313583   4.313   3.033   0.571 -0.5967  0.2567  0.8983
  928MPD2     N13584   4.719   2.851   0.605 -0.1268 -0.3197  0.3673
  928MPD2    H513585   4.710   2.828   0.507 -0.3754 -1.3928  0.6382
  928MPD2    N113586   4.469   3.031   0.991 -0.0630 -0.0655  0.1122
  928MPD2    H713587   4.382   3.074   1.018  0.5938  0.9597  0.5916
  929MPD2     C13588   4.219   2.169  10.937  0.1625  0.0030 -0.6158
  929MPD2    C113589   4.103   2.093  10.904 -0.0406  0.4807 -0.4067
  929MPD2    C213590   4.068   2.076  10.770 -0.4986 -0.1203 -0.1503
  929MPD2    C313591   4.144   2.146  10.671  0.2250 -0.7215  0.1503
  929MPD2    C413592   4.257   2.213  10.714  0.1637 -0.6507 -0.7386
  929MPD2    C513593   4.296   2.217  10.842  0.1505 -0.5387  0.3067
  929MPD2     H13594   3.975   2.029  10.740 -1.0746  1.3780 -0.6887
  929MPD2    H113595   4.320   2.267  10.644  0.5422  2.0303  1.7022
  929MPD2    H213596   4.249   2.190  11.039 -1.1808  1.5468 -0.5310
  929MPD2    H313597   4.388   2.270  10.866  0.0256 -0.4965  0.6854
  929MPD2     N13598   4.098   2.173  10.536 -0.7040  0.3491  0.0239
  929MPD2    H513599   4.137   2.250  10.483 -0.7886 -1.2404 -2.3306
  929MPD2    N113600   4.026   2.041  11.014  0.7615  0.5242  0.0046
  929MPD2    H713601   4.070   2.058  11.104 -0.3785  0.3373  0.5968
  930MPD2     C13602   1.531   4.360  13.767 -0.3216 -0.4139  0.1695
  930MPD2    C113603   1.502   4.416  13.644  0.2394  0.1154  0.5992
  930MPD2    C213604   1.453   4.344  13.540  0.2997 -0.3529  0.3179
  930MPD2    C313605   1.424   4.207  13.557 -0.0899  0.1164  0.2568
  930MPD2    C413606   1.471   4.150  13.676 -0.4989 -0.2165 -0.2559
  930MPD2    C513607   1.516   4.224  13.779 -0.6076 -0.7100 -0.0307
  930MPD2     H13608   1.436   4.392  13.444  0.3131 -1.7796 -0.3982
  930MPD2    H113609   1.461   4.042  13.688  1.7993 -0.0270  3.2952
  930MPD2    H213610   1.558   4.427  13.848 -3.1576  1.7947 -0.6540
  930MPD2    H313611   1.528   4.166  13.870 -1.3724 -1.1083 -0.1809
  930MPD2     N13612   1.372   4.128  13.460  0.0647  0.0136 -0.0879
  930MPD2    H513613   1.367   4.029  13.484  3.1752  0.0933  0.9530
  930MPD2    N113614   1.541   4.553  13.633  0.5312 -0.5493  0.2076
  930MPD2    H713615   1.581   4.580  13.722 -1.5947 -1.6302  1.4658
  931MPD2     C13616   2.154   3.602   0.314 -0.1757 -0.2223 -0.3755
  931MPD2    C113617   2.097   3.702   0.390  0.3697 -0.5854 -0.3486
  931MPD2    C213618   2.132   3.722   0.520 -0.2650 -0.4637  0.4098
  931MPD2    C313619   2.231   3.646   0.573 -0.4298 -0.3790  0.4966
  931MPD2    C413620   2.298   3.555   0.501 -0.5230 -0.2786  0.3323
  931MPD2    C513621   2.254   3.531   0.374  0.3938 -0.2071  0.6524
  931MPD2     H13622   2.064   3.788   0.573 -1.6567 -1.1417 -0.5161
  931MPD2    H113623   2.377   3.487   0.532 -2.4060 -2.3666  0.5592
  931MPD2    H213624   2.124   3.587   0.211 -0.9728 -0.0843 -0.1651
  931MPD2    H313625   2.303   3.446   0.328 -0.7403  0.5519 -1.9719
  931MPD2     N13626   2.260   3.653   0.708 -0.7966 -0.2921 -0.0891
  931MPD2    H513627   2.338   3.595   0.737  0.5822  1.4556 -0.3281
  931MPD2    N113628   2.006   3.779   0.311 -0.4270 -0.0486  0.4570
  931MPD2    H713629   2.003   3.772   0.210 -0.6787  1.0619  0.3835
  932MPD2     C13630   3.662   2.923  11.801 -0.9846  0.7030  0.3293
  932MPD2    C113631   3.547   2.974  11.741 -0.9824 -0.3829 -0.5988
  932MPD2    C213632   3.422   2.918  11.758  0.0629 -0.1774 -0.2549
  932MPD2    C313633   3.407   2.823  11.851 -0.1905 -0.0756 -0.9990
  932MPD2    C413634   3.523   2.773  11.912 -0.2718 -0.4638 -0.1119
  932MPD2    C513635   3.650   2.814  11.881  0.0537 -0.2234  0.8100
  932MPD2     H13636   3.332   2.967  11.723 -0.4544 -1.7333 -1.0655
  932MPD2    H113637   3.521   2.688  11.979 -0.2132 -0.6554 -0.3554
  932MPD2    H213638   3.760   2.959  11.771 -0.8243 -1.3007 -1.5551
  932MPD2    H313639   3.738   2.771  11.926  0.3801 -0.1858  0.2155
  932MPD2     N13640   3.283   2.759  11.888 -0.4574 -0.5635 -0.4713
  932MPD2    H513641   3.285   2.702  11.972  1.8491  2.8306  1.7861
  932MPD2    N113642   3.551   3.095  11.664  0.6356 -0.5406 -1.0022
  932MPD2    H713643   3.460   3.125  11.631 -0.1697 -0.2119  1.5100
  933MPD2     C13644   4.137   3.445   1.679  0.6597  0.6601  0.9069
  933MPD2    C113645   4.157   3.418   1.547 -0.4858 -0.1427 -0.0815
  933MPD2    C213646   4.087   3.490   1.455  0.2660  0.0785  0.4068
  933MPD2    C313647   3.987   3.580   1.494 -0.1445 -0.1302 -0.4131
  933MPD2    C413648   3.966   3.604   1.625 -0.3645 -0.6719 -0.0811
  933MPD2    C513649   4.035   3.529   1.718  0.4604  0.1288  0.2796
  933MPD2     H13650   4.100   3.479   1.348  4.1450 -1.6445  1.0663
  933MPD2    H113651   3.885   3.664   1.665  1.4353  1.6878  0.0554
  933MPD2    H213652   4.194   3.393   1.755  1.8107 -0.8555 -0.9806
  933MPD2    H313653   4.021   3.557   1.822  1.0776 -0.8008  0.6158
  933MPD2     N13654   3.931   3.655   1.393  0.5700 -0.0261 -0.1633
  933MPD2    H513655   3.969   3.639   1.300  4.2955  2.2777  0.9684
  933MPD2    N113656   4.250   3.316   1.511 -0.1494  0.0235  0.3367
  933MPD2    H713657   4.301   3.268   1.585 -0.3911 -1.2923 -0.3402
  934MPD2     C13658   0.746   0.356   1.777 -0.2911  0.0455  0.1690
  934MPD2    C113659   0.858   0.337   1.700  0.0758  0.2789  0.0442
  934MPD2    C213660   0.860   0.233   1.604  0.4217  0.0253 -0.0369
  934MPD2    C313661   0.752   0.146   1.598 -1.0387 -0.1596  0.4885
  934MPD2    C413662   0.650   0.160   1.684  0.3624 -0.2529 -0.4899
  934MPD2    C513663   0.640   0.274   1.762 -0.2721 -0.0772 -0.3842
  934MPD2     H13664   0.940   0.213   1.535  0.3963  2.3063 -0.7164
  934MPD2    H113665   0.561   0.100   1.678  0.0345 -0.0254  2.3187
  934MPD2    H213666   0.745   0.442   1.842 -0.1311  1.5651 -1.8207
  934MPD2    H313667   0.546   0.297   1.812 -1.2438 -2.4945 -1.1110
  934MPD2     N13668   0.743   0.039   1.501  0.5694 -0.0511 -0.2181
  934MPD2    H513669   0.674   4.695   1.521 -0.6873  1.1334 -0.3929
  934MPD2    N113670   0.983   0.408   1.707 -0.1186 -0.1672 -0.4787
  934MPD2    H713671   1.052   0.365   1.646  0.3625 -0.7283  0.4693
  935MPD2     C13672   1.383   4.270   0.941 -0.8404  0.1492 -0.0180
  935MPD2    C113673   1.261   4.227   0.889 -0.0337  0.4465  0.3358
  935MPD2    C213674   1.145   4.288   0.941 -0.0453  0.3210 -0.0188
  935MPD2    C313675   1.153   4.395   1.029 -0.9861 -0.3804 -0.2414
  935MPD2    C413676   1.279   4.444   1.063  0.3425  0.1297  0.1672
  935MPD2    C513677   1.388   4.375   1.027 -0.8883  0.1226  0.1536
  935MPD2     H13678   1.049   4.250   0.908 -0.7570  0.8431  1.4395
  935MPD2    H113679   1.291   4.527   1.132 -2.4666  2.2250 -1.7904
  935MPD2    H213680   1.474   4.221   0.907  0.4872  1.0875  2.1961
  935MPD2    H313681   1.485   4.407   1.064 -1.6343  0.6329  1.6596
  935MPD2     N13682   1.041   4.459   1.082 -0.2928 -0.2988  0.4679
  935MPD2    H513683   1.058   4.527   1.156 -0.4374  0.9460 -0.6335
  935MPD2    N113684   1.241   4.134   0.794  0.6020 -0.6689 -0.0628
  935MPD2    H713685   1.146   4.116   0.762  0.3084  0.7975 -0.0141
  936MPD2     C13686   3.812   1.545  12.417 -0.1152 -0.0262  0.3566
  936MPD2    C113687   3.862   1.555  12.548  0.2832 -0.3551  0.4381
  936MPD2    C213688   3.926   1.671  12.581  0.1907  0.2199  0.2876
  936MPD2    C313689   3.947   1.770  12.489 -0.0763 -0.3985  0.3041
  936MPD2    C413690   3.896   1.764  12.360  0.3023  0.1652 -0.3382
  936MPD2    C513691   3.825   1.648  12.327 -0.3065 -0.7912  0.0650
  936MPD2     H13692   3.962   1.681  12.682  2.1760  1.3803 -0.5430
  936MPD2    H113693   3.909   1.849  12.294 -3.6871  0.8141 -0.2795
  936MPD2    H213694   3.746   1.465  12.386 -0.0272 -1.0074  2.7314
  936MPD2    H313695   3.777   1.646  12.230 -0.6221  0.3227  0.1952
  936MPD2     N13696   4.018   1.882  12.539  0.1443  0.0825  0.3309
  936MPD2    H513697   4.032   1.870  12.639  2.2123  1.3911  0.1918
  936MPD2    N113698   3.821   1.458  12.641 -0.2027  0.8040  0.1470
  936MPD2    H713699   3.747   1.398  12.607 -0.3152  1.2341 -0.3810
  937MPD2     C13700   1.496   2.559  12.143 -0.4503 -0.4241  0.1821
  937MPD2    C113701   1.524   2.689  12.107 -0.1588 -0.0437  0.0243
  937MPD2    C213702   1.564   2.713  11.976  0.1280 -0.6561  0.2417
  937MPD2    C313703   1.550   2.617  11.879 -0.5373  0.4441 -0.4819
  937MPD2    C413704   1.506   2.491  11.917 -0.1620 -0.4203 -0.5249
  937MPD2    C513705   1.479   2.464  12.047 -0.7081  0.2416  0.3000
  937MPD2     H13706   1.589   2.816  11.955  0.6300 -0.9516 -0.6077
  937MPD2    H113707   1.494   2.417  11.838  1.3035  0.5062 -1.6083
  937MPD2    H213708   1.481   2.533  12.247 -1.0164 -0.5972  0.0572
  937MPD2    H313709   1.460   2.361  12.074  0.9254  0.0231  0.6225
  937MPD2     N13710   1.577   2.660  11.745  0.3596  0.9023  0.8990
  937MPD2    H513711   1.609   2.756  11.743 -1.9114  1.6521  0.1853
  937MPD2    N113712   1.538   2.792  12.205  0.0326 -0.3675  0.0267
  937MPD2    H713713   1.562   2.884  12.171 -0.3442 -0.0026  0.7388
  938MPD2     C13714   4.099   4.229   0.812  0.4641 -0.1985  0.1672
  938MPD2    C113715   4.221   4.176   0.853 -0.4619  0.9966 -0.6691
  938MPD2    C213716   4.243   4.127   0.978 -0.2351  0.8871 -0.2009
  938MPD2    C313717   4.143   4.133   1.072 -0.3414  0.1124 -1.0442
  938MPD2    C413718   4.024   4.188   1.038 -0.3329 -0.0626 -0.1457
  938MPD2    C513719   3.998   4.231   0.904 -0.2315  0.2042 -0.8196
  938MPD2     H13720   4.342   4.086   0.994 -0.8207  0.1098  1.4564
  938MPD2    H113721   3.941   4.192   1.108  0.4215 -0.7928  0.7706
  938MPD2    H213722   4.084   4.264   0.711  2.2886 -2.7590 -0.9838
  938MPD2    H313723   3.900   4.263   0.870 -0.2344  1.1841  0.1106
  938MPD2     N13724   4.142   4.062   1.198  0.4705 -0.0522 -0.6424
  938MPD2    H513725   4.062   4.073   1.260  1.2325 -0.7282  0.4550
  938MPD2    N113726   4.330   4.175   0.767  0.2319 -0.1803 -0.0403
  938MPD2    H713727   4.417   4.145   0.810  0.8456  0.1181 -1.0701
  939MPD2     C13728   1.140   1.005   0.868  0.5382  0.3415  0.0471
  939MPD2    C113729   1.064   0.890   0.881  0.2316  0.4255 -0.2677
  939MPD2    C213730   1.097   0.780   0.796 -0.1928 -0.4627  0.2476
  939MPD2    C313731   1.184   0.795   0.696  0.2240 -0.6608  0.5968
  939MPD2    C413732   1.256   0.909   0.684 -0.1620 -0.3621 -0.5325
  939MPD2    C513733   1.230   1.018   0.767 -1.0842  0.0476 -0.1608
  939MPD2     H13734   1.057   0.684   0.826 -3.2226  0.8671  0.4566
  939MPD2    H113735   1.318   0.931   0.597  1.8919 -1.4742  0.6376
  939MPD2    H213736   1.123   1.095   0.926  0.5617 -1.3584  2.6818
  939MPD2    H313737   1.274   1.117   0.754  1.0643 -0.8216  0.5270
  939MPD2     N13738   1.191   0.684   0.603  0.0743  0.2718  0.0095
  939MPD2    H513739   1.129   0.605   0.620  1.2006 -0.1913  1.9796
  939MPD2    N113740   0.959   0.882   0.978  0.6843  0.4404  0.2610
  939MPD2    H713741   0.956   0.968   1.031 -0.8182  1.2593 -1.1281
  940MPD2     C13742   4.332   1.730  12.396  0.3119  0.7180 -0.0290
  940MPD2    C113743   4.363   1.624  12.478  0.4560 -0.2112  0.1424
  940MPD2    C213744   4.403   1.499  12.424 -0.5103  0.3434  0.1519
  940MPD2    C313745   4.392   1.484  12.287  0.1599 -0.3667  0.2130
  940MPD2    C413746   4.359   1.588  12.207 -0.1769 -0.4807 -0.6617
  940MPD2    C513747   4.329   1.711  12.258 -0.3601 -0.3317  0.2462
  940MPD2     H13748   4.428   1.416  12.489 -1.4783  0.5982  0.8415
  940MPD2    H113749   4.369   1.585  12.099 -2.4324 -2.1955 -0.8320
  940MPD2    H213750   4.298   1.823  12.441  0.6099 -0.7801  3.3027
  940MPD2    H313751   4.305   1.793  12.191  2.4268  0.4718  0.1957
  940MPD2     N13752   4.433   1.366  12.216  0.3986 -0.0599  0.0677
  940MPD2    H513753   4.443   1.380  12.116 -0.7973 -0.9144 -0.1737
  940MPD2    N113754   4.358   1.641  12.620 -0.0855 -0.1456  0.0405
  940MPD2    H713755   4.365   1.554  12.673 -3.7318 -0.7059 -0.4104
  941MPD2     C13756   4.085   0.695  10.154 -1.0522  0.0440 -0.9360
  941MPD2    C113757   4.177   0.653  10.239  0.6523 -0.0451 -0.3418
  941MPD2    C213758   4.139   0.591  10.351  0.5707  0.5339 -0.6481
  941MPD2    C313759   4.004   0.573  10.379  0.3326 -0.4226 -0.3117
  941MPD2    C413760   3.907   0.604  10.288 -0.0830  0.0428  0.1891
  941MPD2    C513761   3.953   0.654  10.171 -0.4169  0.3711  0.7549
  941MPD2     H13762   4.211   0.560  10.427 -1.1832  0.0158  0.7908
  941MPD2    H113763   3.802   0.582  10.305 -0.6817  1.6376 -1.5083
  941MPD2    H213764   4.113   0.767  10.077  2.3590  1.3083  1.4773
  941MPD2    H313765   3.878   0.683  10.099  0.3390  0.5478  0.0386
  941MPD2     N13766   3.957   0.510  10.497 -0.0401 -0.0430 -0.0499
  941MPD2    H513767   3.859   0.487  10.506  0.0226 -0.7445 -1.1115
  941MPD2    N113768   4.316   0.681  10.217 -0.5420 -0.1617  0.0338
  941MPD2    H713769   4.382   0.645  10.285  0.0270 -1.7220 -1.3218
  942MPD2     C13770   3.738   2.772   8.864  0.2065 -0.5520 -0.7402
  942MPD2    C113771   3.843   2.715   8.797 -0.0303  0.4401  0.3456
  942MPD2    C213772   3.901   2.599   8.847  0.0986 -0.2856 -0.0255
  942MPD2    C313773   3.848   2.538   8.969  0.6419  0.7659 -0.7447
  942MPD2    C413774   3.742   2.601   9.036 -0.4275  0.1584 -0.0783
  942MPD2    C513775   3.689   2.718   8.980  0.5776  0.3048  0.3171
  942MPD2     H13776   3.980   2.552   8.790  2.0409  0.4516  2.0118
  942MPD2    H113777   3.696   2.555   9.123  0.6103  0.5168  0.6568
  942MPD2    H213778   3.680   2.856   8.827  1.9194 -0.2444 -2.7718
  942MPD2    H313779   3.602   2.762   9.027  2.1702  1.5281  2.0945
  942MPD2     N13780   3.903   2.426   9.039  0.7294  0.3508  0.0392
  942MPD2    H513781   3.858   2.401   9.127 -0.3633  1.1924 -0.2755
  942MPD2    N113782   3.891   2.768   8.674 -0.1634 -0.0203  0.3652
  942MPD2    H713783   3.972   2.719   8.637 -1.5538 -0.2661 -2.3189
  943MPD2     C13784   2.025   0.093   9.080  0.3379 -0.3438 -0.3476
  943MPD2    C113785   1.983   0.093   9.214 -0.5698  0.1230 -0.8229
  943MPD2    C213786   2.070   0.138   9.313  0.3370  0.1274 -0.7686
  943MPD2    C313787   2.196   0.173   9.274 -0.8611 -0.0236  0.8384
  943MPD2    C413788   2.235   0.170   9.142 -0.2391  0.3381  0.2498
  943MPD2    C513789   2.145   0.136   9.044 -0.5051  0.4034 -0.0116
  943MPD2     H13790   2.042   0.132   9.418  1.0834 -1.0959 -0.6422
  943MPD2    H113791   2.332   0.210   9.116 -0.7751  1.3118 -0.2657
  943MPD2    H213792   1.968   0.049   8.999  1.3054 -3.8427  0.8523
  943MPD2    H313793   2.185   0.119   8.945  1.2568  0.8691  0.6268
  943MPD2     N13794   2.295   0.211   9.366  0.0701  0.1441 -0.1888
  943MPD2    H513795   2.388   0.218   9.327  1.2338  0.7382  2.7416
  943MPD2    N113796   1.854   0.033   9.242  0.1354  0.1714  0.2936
  943MPD2    H713797   1.798   0.006   9.162 -2.0233  0.3964  1.7416
  944MPD2     C13798   2.018   3.858  10.618  0.1241 -0.3502  0.3113
  944MPD2    C113799   2.081   3.966  10.562 -1.3254 -0.1507 -0.3918
  944MPD2    C213800   2.162   4.042  10.641 -0.3382  0.1930  0.4096
  944MPD2    C313801   2.185   4.008  10.776 -0.7139 -0.6182  0.4497
  944MPD2    C413802   2.126   3.893  10.825  0.2091 -0.3014  0.0402
  944MPD2    C513803   2.043   3.824  10.744  0.0800  0.9264 -0.1342
  944MPD2     H13804   2.218   4.129  10.607 -2.8833  0.8709 -1.9920
  944MPD2    H113805   2.135   3.861  10.928  0.8642  1.6484  0.5840
  944MPD2    H213806   1.950   3.801  10.557  1.3471 -1.6140  0.1321
  944MPD2    H313807   1.998   3.734  10.786 -0.3400 -0.0818 -2.7248
  944MPD2     N13808   2.261   4.091  10.858 -0.1906 -0.1744 -0.3993
  944MPD2    H513809   2.294   4.175  10.812 -0.7091  0.2889  0.0742
  944MPD2    N113810   2.046   4.000  10.429 -0.4863 -0.5221 -0.1664
  944MPD2    H713811   1.980   3.931  10.394 -0.0942 -0.7287 -0.5128
    1TCq1    O113812   4.165   0.460  14.130 -0.3306 -0.1450  0.0823
    1TCq1    C113813   4.248   0.443  14.239  0.0152 -0.2552 -0.0780
    1TCq1    O213814   4.213   0.390  14.341 -0.1511 -0.2193 -0.2765
    1TCq1    C213815   4.368   0.519  14.228  0.1898 -0.7801  0.7243
    1TCq1    C313816   4.439   0.508  14.106 -0.1849  0.1393  0.0603
    1TCq1    C413817   4.564   0.566  14.115 -0.1972 -0.3185  0.2246
    1TCq1    C513818   4.615   0.622  14.226  0.5367 -0.1408 -0.1737
    1TCq1    C613819   4.543   0.609  14.340 -0.5354 -0.2636 -0.0526
    1TCq1    C713820   4.416   0.558  14.346 -0.2179 -0.0539 -0.0425
    1TCq1    C813821   4.587   0.687  14.462  0.3134  1.0917  0.2181
    1TCq1    O413822   4.535   0.658  14.570  0.5111  0.7233 -0.3481
    1TCq1    C913823   4.645   0.553  13.996  0.8044 -0.2839 -0.1539
    1TCq1    O513824   0.042   0.541  14.011  0.1719 -0.6697  0.2997
    1TCq1    O613825   4.584   0.516  13.896 -0.3239  0.5443 -0.0612
    1TCq1    H113826   4.177   0.550  14.093 -1.2601  0.0277  0.2173
    1TCq1    H213827   4.392   0.461  14.020 -0.3722  0.2620  0.0939
    1TCq1    H313828   4.715   0.663  14.219  0.1479  0.9658  0.8133
    1TCq1    H413829   4.369   0.558  14.444 -0.9540 -0.4249 -0.3943
    2MPD2     C13830   0.179   1.048  14.606 -0.0416 -1.0061  0.4837
    2MPD2    C113831   0.124   1.090  14.493  0.3957 -0.6287  0.0778
    2MPD2    C213832   0.024   1.004  14.442  0.3693  0.1300 -0.0840
    2MPD2    C313833   4.715   0.889  14.505 -0.1705 -0.1037 -0.6378
    2MPD2    C413834   0.041   0.854  14.630 -0.2068 -0.0986 -0.2850
    2MPD2    C513835   0.133   0.943  14.686  0.3341  0.1958 -0.2154
    2MPD2     H13836   4.705   1.022  14.345 -0.7248  1.4697  0.6877
    2MPD2    H113837   0.024   0.763  14.686  1.1674  0.5955  1.2531
    2MPD2    H213838   0.264   1.098  14.649 -0.3523  0.5746 -0.7407
    2MPD2    H313839   0.181   0.923  14.781  0.3852 -0.8636 -0.4590
    2MPD2     N13840   4.635   0.807  14.425  0.2172  0.1037  0.1003
    2MPD2    H513841   4.624   0.829  14.327 -2.0336 -0.0760  0.2990
    2MPD2    N113842   0.173   1.200  14.419 -0.5860  0.5151 -0.6720
    2MPD2    H713843   0.251   1.250  14.461 -1.4594  0.2449  1.2881
    3TMC2    C113844   0.186   1.383  14.272  0.0706 -0.2341 -0.3103
    3TMC2    C213845   0.255   1.437  14.378 -0.0934  0.2580  0.3634
    3TMC2    C313846   0.353   1.532  14.349  0.9020 -0.0681  0.5485
    3TMC2    C413847   0.207   1.434  14.148  0.0449  0.1074 -1.0174
    3TMC2    C513848   0.298   1.536  14.131  0.7790  0.2996 -0.1404
    3TMC2    C613849   0.363   1.601  14.229 -0.7332  0.6980 -0.6884
    3TMC2     C13850   0.138   1.254  14.302 -0.8918  0.0254 -0.1941
    3TMC2     O13851   0.055   1.203  14.228 -0.1468  0.1706 -0.1654
    3TMC2     H13852   0.226   1.421  14.481  1.3910 -0.0499  0.7295
    3TMC2    H113853   0.140   1.388  14.075 -0.5435  0.4800 -0.7122
    3TMC2    H213854   0.426   1.687  14.207  2.1311 -0.6941  2.0211
    3TMC2    C713855   0.297   1.597  14.000 -0.3253  0.2248  0.3959
    3TMC2    C813856   0.393   1.609  14.462  0.2043  0.4111  0.1353
    3TMC2    O113857   0.335   1.715  13.991 -0.1507  0.0693 -0.3579
    3TMC2    O213858   0.373   1.728  14.461  0.2625 -0.7598  0.2182
    3TMC2    O513859   0.449   1.534  14.559  0.3745  0.3576  0.1532
    3TMC2    H513860   0.453   1.439  14.536  4.6251  0.0226  2.2406
    4MPD2     C13861   3.992   2.283  13.311 -0.1907  0.0024 -0.2514
    4MPD2    C113862   4.085   2.330  13.220 -0.0054  0.5030  1.0499
    4MPD2    C213863   4.219   2.316  13.239  0.0930  0.5837 -0.9089
    4MPD2    C313864   4.259   2.258  13.360 -0.8241 -0.0661  0.4852
    4MPD2    C413865   4.167   2.214  13.454  0.0718 -0.2640 -0.0442
    4MPD2    C513866   4.037   2.220  13.428  0.1122  0.3239 -0.4679
    4MPD2     H13867   4.295   2.340  13.165  0.6021  0.0684 -0.5565
    4MPD2    H113868   4.189   2.163  13.547 -1.5508  2.2343  1.6890
    4MPD2    H213869   3.885   2.279  13.299 -0.1951 -0.7843  0.0119
    4MPD2    H313870   3.968   2.190  13.506 -0.5384 -0.9488 -1.5463
    4MPD2     N13871   4.401   2.240  13.386  0.2236 -0.1386  0.6050
    4MPD2    H513872   4.458   2.269  13.307 -0.0394 -0.9909  0.1040
    4MPD2    N113873   4.034   2.390  13.102 -0.5644  0.4590 -0.2776
    4MPD2    H713874   3.933   2.400  13.091 -0.6162  1.6193  1.3545
    5TCq2    C113875   4.464   2.171  13.484  0.1449  1.0937 -0.2818
    5TCq2    O213876   4.414   2.082  13.551 -0.4808 -0.4164 -0.7882
    5TCq2    C213877   4.614   2.177  13.479  0.2357  0.2159 -0.5029
    5TCq2    C313878   4.673   2.300  13.484  0.0662 -0.0500  0.6137
    5TCq2    C413879   0.072   2.312  13.540  0.7050  0.4620 -0.9022
    5TCq2    C513880   0.134   2.199  13.581 -0.3156 -0.2308  0.4319
    5TCq2    C613881   0.075   2.075  13.572 -0.6269  0.1223 -0.1224
    5TCq2    C713882   4.674   2.072  13.538  0.2234  0.4092  0.2657
    5TCq2    C813883   0.129   1.960  13.643 -0.1732 -0.2906  0.4118
    5TCq2    O413884   0.197   1.989  13.744 -0.3828 -0.7867  0.1532
    5TCq2    C913885   0.135   2.444  13.543  0.0863 -0.0514 -0.0166
    5TCq2    O513886   0.261   2.453  13.533 -0.1051 -0.0143 -0.3462
    5TCq2    O613887   0.051   2.537  13.525  0.4414  0.0782  0.2738
    5TCq2    H213888   4.617   2.383  13.442  1.7662  1.8388  2.0681
    5TCq2    H313889   0.234   2.209  13.622  0.0349  1.5582 -0.8694
    5TCq2    H413890   4.630   1.974  13.529 -2.8933  1.6769  1.3360
    6MPD1     C13891   3.751   4.235  12.754  0.2967 -0.0078  0.0756
    6MPD1    C113892   3.669   4.166  12.838  0.3995  0.0928 -0.0383
    6MPD1    C213893   3.686   4.035  12.845  0.1850  0.3258 -0.2190
    6MPD1    C313894   3.788   3.965  12.781 -0.2989 -0.0883  0.1172
    6MPD1    C413895   3.877   4.038  12.703 -0.0829 -0.4165  0.0717
    6MPD1    C513896   3.858   4.173  12.701 -0.4529  0.1609 -1.4583
    6MPD1     H13897   3.602   3.986  12.892  1.0015  0.7340  1.6688
    6MPD1    H113898   3.958   3.990  12.649 -1.2116 -1.3912 -0.7458
    6MPD1    H213899   3.746   4.343  12.747 -0.9022 -0.0831 -0.1409
    6MPD1    H313900   3.927   4.242  12.654 -0.4316  0.9002 -0.3392
    6MPD1     N13901   3.798   3.823  12.778 -0.1974 -0.4998  0.7178
    6MPD1    H513902   3.866   3.774  12.720  0.4053  0.2196  0.8086
    6MPD1    N113903   3.554   4.224  12.896  0.3307  0.4762 -0.8574
    6MPD1    H613904   3.528   4.186  12.987  1.2272 -1.0571 -1.2524
    6MPD1    H713905   3.566   4.325  12.906  1.7354 -0.0119  2.3394
    7MPD2     C13906   3.636   3.028  13.196 -0.1969 -0.5873 -0.0895
    7MPD2    C113907   3.661   3.040  13.058  0.3696 -0.2117  0.2565
    7MPD2    C213908   3.664   2.926  12.983  0.4301  0.3223  0.2386
    7MPD2    C313909   3.652   2.801  13.042 -0.2359 -0.2036 -0.2277
    7MPD2    C413910   3.630   2.790  13.179  0.7547 -0.4649  0.0578
    7MPD2    C513911   3.621   2.902  13.253  0.4852  0.7691  0.4438
    7MPD2     H13912   3.687   2.940  12.878 -0.9634 -0.7462 -0.2041
    7MPD2    H113913   3.628   2.693  13.227 -0.6365  0.0073  0.9344
    7MPD2    H213914   3.629   3.116  13.259 -0.4076 -0.5886 -0.1109
    7MPD2    H313915   3.611   2.901  13.361  1.5478 -1.7361  0.5055
    7MPD2     N13916   3.695   2.685  12.977  0.0954 -0.5500  0.1471
    7MPD2    H513917   3.681   2.604  13.036 -1.9388 -0.3649 -0.1000
    7MPD2    N113918   3.688   3.160  12.994 -0.8725 -0.1966 -0.1157
    7MPD2    H713919   3.692   3.155  12.892  0.4897 -1.3019 -0.0038
    8TMC3    C113920   3.809   2.554  12.804 -0.5358 -0.1333 -0.6421
    8TMC3    C213921   3.882   2.505  12.910  0.0837  0.2596  0.3150
    8TMC3    C313922   4.012   2.472  12.882  0.7647  0.3282 -1.1292
    8TMC3    C413923   3.862   2.569  12.677  0.5040 -0.3558 -0.6503
    8TMC3    C513924   3.989   2.541  12.656  0.5766 -0.3271 -0.5997
    8TMC3    C613925   4.061   2.480  12.752  0.6919 -0.2399  0.1479
    8TMC3     C13926   3.722   2.667  12.838  0.1460  0.5609  0.6392
    8TMC3     O13927   3.713   2.750  12.750 -0.2124 -0.1963 -0.2134
    8TMC3     H13928   3.835   2.484  13.005 -1.6433 -1.3151 -0.8706
    8TMC3    H113929   3.801   2.611  12.598 -3.0844 -0.2458  2.1788
    8TMC3    H213930   4.164   2.458  12.727  0.9896  1.1758  0.1153
    8TMC3    C713931   4.058   2.642  12.576  0.3969  0.9922 -0.0539
    8TMC3    C813932   4.100   2.425  12.983  1.0202  0.0492  0.1046
    8TMC3    O113933   4.167   2.620  12.527 -0.5678 -0.3648 -0.2308
    8TMC3    O213934   4.214   2.397  12.953 -0.0298 -0.0159 -0.0072
    9TMC3    C113935   3.766   3.588  12.854 -0.5384 -0.2954 -0.4372
    9TMC3    C213936   3.814   3.540  12.738 -0.0700 -0.7392  0.0857
    9TMC3    C313937   3.852   3.406  12.732  0.3699 -0.3265  0.2269
    9TMC3    C413938   3.711   3.508  12.953 -0.1021 -0.5512 -0.4536
    9TMC3    C513939   3.745   3.377  12.938 -0.8645 -0.4156  0.4095
    9TMC3    C613940   3.819   3.327  12.835 -0.8997  0.1588 -0.9129
    9TMC3     C13941   3.729   3.729  12.861 -0.0028 -0.0235  0.1729
    9TMC3     O13942   3.664   3.766  12.955 -0.5511  0.3226 -0.5785
    9TMC3     H13943   3.839   3.606  12.655 -1.6361 -2.5687 -1.8291
    9TMC3    H113944   3.672   3.543  13.048  0.8007 -0.9151  0.0581
    9TMC3    H213945   3.855   3.225  12.839 -1.6426 -0.1341 -1.6713
    9TMC3    C713946   3.701   3.286  13.043  0.1211 -0.0079  0.2206
    9TMC3    C813947   3.923   3.348  12.616  0.3797  0.2580 -0.1912
    9TMC3    O113948   3.682   3.330  13.155  0.2824 -0.3030  0.7083
    9TMC3    O213949   3.997   3.413  12.545 -0.0100  0.4910 -0.2142
   10MPD2     C13950   4.112   2.901  12.439  1.4443  0.6749 -0.0773
   10MPD2    C113951   4.011   2.885  12.530 -0.0557 -0.0104 -0.1867
   10MPD2    C213952   3.929   2.994  12.568  0.4117 -0.3691 -0.3895
   10MPD2    C313953   3.954   3.120  12.527 -0.8274  0.3534 -0.3808
   10MPD2    C413954   4.058   3.136  12.440 -0.6746  0.1698 -0.3052
   10MPD2    C513955   4.130   3.029  12.396  0.0603 -0.1900  0.2659
   10MPD2     H13956   3.853   2.982  12.644 -0.0757  3.3563 -0.2926
   10MPD2    H113957   4.086   3.238  12.414  3.3591 -1.0210 -0.6060
   10MPD2    H213958   4.176   2.824  12.399 -0.4573 -0.6008 -0.6592
   10MPD2    H313959   4.204   3.049  12.319  0.9953  1.9309  1.7215
   10MPD2     N13960   3.895   3.220  12.611  0.0477  0.2801 -0.0793
   10MPD2    H513961   3.816   3.187  12.668 -0.7950  1.5524 -0.5194
   10MPD2    N113962   3.987   2.762  12.592  0.0750  0.5877 -0.7784
   10MPD2    H713963   3.904   2.755  12.650 -1.0056  0.4661 -2.3466
   11MPD2     C13964   0.207   1.449  13.676 -0.3715 -0.7333 -1.2479
   11MPD2    C113965   0.228   1.550  13.765  0.7254 -0.3295 -0.0724
   11MPD2    C213966   0.203   1.685  13.725  1.1714 -0.1655 -0.1226
   11MPD2    C313967   0.152   1.714  13.601 -0.2020  0.9343  0.0976
   11MPD2    C413968   0.130   1.613  13.508 -0.6667 -0.6709 -0.5825
   11MPD2    C513969   0.165   1.487  13.543  0.2375 -0.5242 -0.4522
   11MPD2     H13970   0.241   1.766  13.786 -1.4159  0.1954  0.9740
   11MPD2    H113971   0.080   1.638  13.415  0.0643  2.9284  0.0090
   11MPD2    H213972   0.219   1.344  13.702 -0.6251  0.2522  2.8187
   11MPD2    H313973   0.158   1.410  13.467 -0.4515  0.1662 -1.0923
   11MPD2     N13974   0.115   1.846  13.569 -0.1463 -0.4205  0.0971
   11MPD2    H513975   0.063   1.860  13.483 -0.2969 -1.3425  0.0387
   11MPD2    N113976   0.268   1.510  13.898 -0.5033  0.3293 -0.9055
   11MPD2    H713977   0.261   1.410  13.917  0.2692  0.9059  2.3395
    1MPD1     C13978   2.550   2.973  16.873 -0.2726  0.0555 -0.7365
    1MPD1    C113979   2.460   3.059  16.809 -0.7878  0.4708 -0.3583
    1MPD1    C213980   2.502   3.180  16.762  0.0425  0.5106  0.0729
    1MPD1    C313981   2.638   3.218  16.765  0.1330  0.1533 -0.6778
    1MPD1    C413982   2.726   3.133  16.830 -0.1966 -0.9158  0.4344
    1MPD1    C513983   2.677   3.012  16.880  0.2983  0.3294  0.3048
    1MPD1     H13984   2.439   3.254  16.713 -0.8999  1.2854  2.4721
    1MPD1    H113985   2.830   3.157  16.848 -0.6407 -0.4250  2.4149
    1MPD1    H213986   2.518   2.872  16.893  1.2071 -0.2215  0.2115
    1MPD1    H313987   2.737   2.940  16.934  2.9861  2.3848  0.0644
    1MPD1     N13988   2.690   3.343  16.705  0.3901  0.3900  0.2498
    1MPD1    H513989   2.785   3.368  16.730  0.3442  0.9866 -0.1871
    1MPD1    N113990   2.323   3.033  16.832  0.8585 -0.2240 -0.6178
    1MPD1    H613991   2.311   2.932  16.834 -3.0244  0.2614 -0.1039
    1MPD1    H713992   2.270   3.078  16.759  0.0769 -1.1578 -0.6180
    2MPD1     C13993   3.233   3.732  17.159 -0.0883 -0.3565 -0.1325
    2MPD1    C113994   3.189   3.604  17.135  0.2611 -0.4955 -0.0397
    2MPD1    C213995   3.123   3.577  17.015  0.1135 -0.5064 -0.0882
    2MPD1    C313996   3.092   3.673  16.923 -0.0634 -0.6813 -0.5624
    2MPD1    C413997   3.134   3.808  16.954 -0.1291  0.4079  0.9678
    2MPD1    C513998   3.202   3.822  17.073 -0.5842 -0.6209 -0.1769
    2MPD1     H13999   3.101   3.477  16.980  0.6662 -0.7769  0.3454
    2MPD1    H114000   3.118   3.894  16.889 -1.9529 -0.5643  0.1346
    2MPD1    H214001   3.291   3.750  17.249 -2.2943  1.4728  0.9121
    2MPD1    H314002   3.230   3.924  17.093 -1.5309 -0.8213  2.0950
    2MPD1     N14003   3.035   3.628  16.806  0.5569  0.5772  0.1752
    2MPD1    H514004   3.002   3.531  16.809  0.1202  0.6128 -3.0450
    2MPD1    N114005   3.220   3.504  17.229 -0.5155 -0.1943  0.0466
    2MPD1    H614006   3.150   3.429  17.225  0.4022 -1.1337  1.6249
    2MPD1    H714007   3.241   3.539  17.322  2.2069  0.9442 -1.0229
    3TMC3    C114008   2.926   3.632  16.604 -0.6688  0.3583 -0.7941
    3TMC3    C214009   2.946   3.658  16.468  0.5533 -0.4764  0.2776
    3TMC3    C314010   2.838   3.620  16.382 -0.0073 -0.2535 -0.0572
    3TMC3    C414011   2.822   3.558  16.651  0.0243  0.3093 -0.2441
    3TMC3    C514012   2.720   3.524  16.559 -0.0917  0.6129  0.1247
    3TMC3    C614013   2.731   3.543  16.424  0.1892 -1.0421  0.0115
    3TMC3     C14014   3.006   3.706  16.696  0.4540 -0.2560  0.5323
    3TMC3     O14015   3.046   3.815  16.654 -0.0290  0.4313 -0.0196
    3TMC3     H14016   3.028   3.726  16.446  1.3006 -1.4185  0.1204
    3TMC3    H114017   2.804   3.557  16.758  0.1452  0.6306 -0.2215
    3TMC3    H214018   2.652   3.510  16.357  0.2435  1.9653 -1.5448
    3TMC3    C714019   2.627   3.418  16.607 -0.0813 -0.2638 -0.4848
    3TMC3    C814020   2.881   3.610  16.249 -0.3761 -0.1297  1.0535
    3TMC3    O114021   2.539   3.367  16.538 -0.5333  0.4177  1.0020
    3TMC3    O214022   2.970   3.676  16.200 -0.1823 -0.4843  0.2964
    4MPD1     C14023   2.899   3.304  15.837  0.2442  0.3743  0.8160
    4MPD1    C114024   2.822   3.238  15.930  0.3869 -0.9375 -0.3643
    4MPD1    C214025   2.806   3.301  16.057 -0.5714  0.1778 -0.1266
    4MPD1    C314026   2.856   3.430  16.082  0.1655  0.0179  0.3790
    4MPD1    C414027   2.932   3.491  15.984  0.0707  0.4753  0.6896
    4MPD1    C514028   2.959   3.427  15.868  0.6251  0.6258  0.2036
    4MPD1     H14029   2.770   3.240  16.139  0.3563  0.3944  0.4489
    4MPD1    H114030   2.980   3.589  15.984  1.1315 -0.0335  0.0156
    4MPD1    H214031   2.937   3.267  15.743  0.1923 -0.8563  1.2732
    4MPD1    H314032   3.036   3.462  15.800  0.0952  2.5368  0.5954
    4MPD1     N14033   2.830   3.489  16.206 -0.6422  0.1158 -0.3197
    4MPD1    H514034   2.783   3.430  16.275 -0.9569  0.3357 -0.3497
    4MPD1    N114035   2.783   3.107  15.908 -0.3888  0.0325  0.5753
    4MPD1    H614036   2.707   3.072  15.966 -0.6906 -1.7130 -0.8627
    4MPD1    H714037   2.763   3.073  15.814  0.5865  1.5596 -0.1945
    1TCq1    O114038   4.310   2.268  11.674  0.7418 -0.1908  0.1653
    1TCq1    C114039   4.267   2.395  11.691  0.0388 -0.3577  1.1007
    1TCq1    O214040   4.324   2.474  11.763 -0.6388  0.3443  0.1523
    1TCq1    C214041   4.126   2.387  11.668  0.6563 -0.0149 -0.3800
    1TCq1    C314042   4.086   2.285  11.585  0.1779  0.5485 -0.2378
    1TCq1    C414043   3.950   2.253  11.589  0.3128  0.5691  0.5534
    1TCq1    C514044   3.870   2.299  11.694  0.8150  0.0706  0.5040
    1TCq1    C614045   3.922   2.394  11.782  0.1751  0.4417 -0.7769
    1TCq1    C714046   4.054   2.436  11.766 -0.9128 -1.0538 -0.2554
    1TCq1    C814047   3.862   2.417  11.910 -0.0346 -0.2183 -0.1668
    1TCq1    O414048   3.931   2.461  12.004  0.8682 -0.4110  0.5291
    1TCq1    C914049   3.915   2.125  11.533 -0.6343  0.1048 -0.1361
    1TCq1    O514050   4.007   2.054  11.483 -0.2747 -0.1028  0.7892
    1TCq1    O614051   3.793   2.095  11.523 -0.6804 -0.6163  0.3180
    1TCq1    H114052   4.250   2.205  11.629  2.1544 -0.6482 -1.0771
    1TCq1    H214053   4.148   2.263  11.499  0.8214  0.7625  0.1684
    1TCq1    H314054   3.788   2.232  11.715  0.3602 -0.4407 -3.0092
    1TCq1    H414055   4.098   2.506  11.835 -1.8580 -0.1519 -0.5643
    2MPD1     C14056   3.423   2.501  12.180 -0.1276  0.2728 -0.9046
    2MPD1    C114057   3.396   2.473  12.048  0.4169 -0.1983 -0.0012
    2MPD1    C214058   3.496   2.456  11.959  0.4342 -0.1531 -0.0159
    2MPD1    C314059   3.627   2.449  11.995  0.2736  0.1622  0.8383
    2MPD1    C414060   3.659   2.467  12.128  0.5307 -0.7653 -0.1603
    2MPD1    C514061   3.556   2.488  12.218  0.4422  0.0177 -0.4561
    2MPD1     H14062   3.478   2.451  11.852 -0.7735 -0.6372  0.2097
    2MPD1    H114063   3.760   2.458  12.165  0.4934  1.4558  0.4369
    2MPD1    H214064   3.354   2.532  12.258  0.7939  1.6381 -0.6217
    2MPD1    H314065   3.580   2.506  12.322  0.4354 -1.3224 -0.2196
    2MPD1     N14066   3.724   2.410  11.897  0.0778 -0.3463 -0.1945
    2MPD1    H514067   3.685   2.406  11.804 -1.2830  0.0516  0.3704
    2MPD1    N114068   3.266   2.471  11.999  0.3229 -0.1323  0.0838
    2MPD1    H614069   3.200   2.447  12.073  0.2709  2.0400  0.7381
    2MPD1    H714070   3.249   2.403  11.926  1.5016  0.3097 -0.5937
    1TCq1    O114071   3.412   3.227   0.292 -0.1531  0.1626  0.3905
    1TCq1    C114072   3.362   3.097   0.305 -0.4753  0.7703  0.8349
    1TCq1    O214073   3.278   3.046   0.228 -0.1149  0.0057 -0.6361
    1TCq1    C214074   3.412   3.029   0.413  0.6769 -0.4633  0.0745
    1TCq1    C314075   3.341   2.926   0.478  0.2528  0.4404 -0.4950
    1TCq1    C414076   3.386   2.869   0.592  0.0377  0.3396 -0.2059
    1TCq1    C514077   3.518   2.882   0.630 -0.2869  0.1959  0.2582
    1TCq1    C614078   3.590   2.983   0.559  0.4659  0.3676  0.5530
    1TCq1    C714079   3.543   3.051   0.451  0.1032  0.4637 -0.2983
    1TCq1    C814080   3.738   2.989   0.580  0.2015 -0.7267 -0.2821
    1TCq1    O414081   3.808   3.040   0.491  0.1739 -0.1717  0.3621
    1TCq1    C914082   3.328   2.744   0.625 -0.3676 -0.2437 -0.0955
    1TCq1    O514083   3.257   2.685   0.541  0.3086  0.1490 -0.2882
    1TCq1    O614084   3.345   2.712   0.748 -0.6482  0.6144 -0.0001
    1TCq1    H114085   3.457   3.258   0.374  1.0071  1.9718 -0.9334
    1TCq1    H214086   3.241   2.913   0.440 -0.2049  1.6769  0.2821
    1TCq1    H314087   3.558   2.814   0.704  1.7571  0.4652 -0.6031
    1TCq1    H414088   3.612   3.116   0.399  0.1860  0.6609  0.0591
    2MPD1     C14089   4.116   2.768   0.842  0.3387  0.0280 -0.7089
    2MPD1    C114090   4.005   2.783   0.924  0.0334  0.6620 -0.1951
    2MPD1    C214091   3.884   2.834   0.877  0.4529 -0.3309 -0.4705
    2MPD1    C314092   3.888   2.885   0.748  0.2645  0.0136  0.7935
    2MPD1    C414093   4.005   2.884   0.673 -0.7894  0.0185 -0.0893
    2MPD1    C514094   4.117   2.829   0.719  0.2890 -0.6010  0.3571
    2MPD1     H14095   3.795   2.844   0.939  0.4055 -1.2065 -0.4080
    2MPD1    H114096   4.001   2.918   0.570  1.4869  0.9762  0.1399
    2MPD1    H214097   4.208   2.721   0.874  0.9382 -0.0994 -2.6065
    2MPD1    H314098   4.202   2.823   0.651  0.3281  0.7812  0.2938
    2MPD1     N14099   3.763   2.928   0.700  0.9080  0.1131  0.7925
    2MPD1    H514100   3.687   2.900   0.761 -1.7149  0.6245 -2.2683
    2MPD1    N114101   4.002   2.726   1.053  0.2885  0.3967 -0.7327
    2MPD1    H614102   3.936   2.764   1.121  1.9514 -1.2322  1.7606
    2MPD1    H714103   4.090   2.713   1.102  0.8187  0.6678 -1.6115
    1MPD1     C14104   0.708   1.874  11.679  0.0857  0.6507  0.7101
    1MPD1    C114105   0.842   1.872  11.720 -0.3953 -0.1138 -0.6061
    1MPD1    C214106   0.880   1.939  11.834 -0.1920  0.2637 -0.3614
    1MPD1    C314107   0.801   2.033  11.894 -0.1895  0.2171  0.4595
    1MPD1    C414108   0.665   2.048  11.851  0.2106  0.1769  0.7049
    1MPD1    C514109   0.625   1.964  11.747 -0.7047  0.1296 -0.3081
    1MPD1     H14110   0.983   1.925  11.865 -0.8072 -0.0759  1.5466
    1MPD1    H114111   0.602   2.131  11.879  1.6627  1.4485  0.1980
    1MPD1    H214112   0.660   1.825  11.596  1.2704 -2.0393  1.6110
    1MPD1    H314113   0.524   1.977  11.712 -0.0422  1.4359 -1.7282
    1MPD1     N14114   0.850   2.126  11.987  0.5033 -0.1875  1.0578
    1MPD1    H514115   0.950   2.127  12.003  0.7494  0.2223 -0.5162
    1MPD1    N114116   0.937   1.791  11.664 -0.5455 -0.5915  0.6751
    1MPD1    H614117   0.928   1.766  11.566  1.2284 -2.2548  0.9377
    1MPD1    H714118   1.033   1.824  11.672 -1.1093  1.0660  0.6924
    2MPD1     C14119   0.035   2.538  10.858  0.2422  0.3962 -0.2201
    2MPD1    C114120   0.022   2.523  10.995  0.0957 -0.3280  0.4858
    2MPD1    C214121   0.071   2.620  11.078  0.3668 -0.7599 -0.1587
    2MPD1    C314122   0.148   2.724  11.028 -0.2938 -0.1562  0.0124
    2MPD1    C414123   0.171   2.733  10.895 -0.5855 -0.3538 -0.4900
    2MPD1    C514124   0.107   2.645  10.814 -0.1904 -0.0903  0.1757
    2MPD1     H14125   0.057   2.610  11.185  0.2271  1.0392  0.0005
    2MPD1    H114126   0.239   2.806  10.853  0.6550 -0.6123  1.0654
    2MPD1    H214127   4.715   2.473  10.785  0.8399 -1.2111  0.8277
    2MPD1    H314128   0.107   2.656  10.706  1.0431  0.3641  0.2254
    2MPD1     N14129   0.211   2.826  11.110 -0.5950  0.4738  0.0718
    2MPD1    H514130   0.255   2.901  11.057  0.7610 -0.0430  0.4467
    2MPD1    N114131   4.674   2.420  11.044  0.0822 -0.5578  0.3441
    2MPD1    H614132   4.691   2.335  10.990  1.3641  0.3823 -0.7506
    2MPD1    H714133   4.689   2.404  11.143 -0.3314 -0.7506  0.3728
    3MPD1     C14134   0.469   3.781  11.070  0.8748 -0.5852  0.4243
    3MPD1    C114135   0.487   3.762  11.204 -0.8675  0.7011  0.5127
    3MPD1    C214136   0.446   3.638  11.254  0.0255  0.0612  0.5335
    3MPD1    C314137   0.373   3.547  11.178 -0.1769  0.2125  0.0192
    3MPD1    C414138   0.339   3.573  11.048 -0.1892  0.6081 -1.0918
    3MPD1    C514139   0.382   3.695  10.997 -0.8289 -0.0370  0.5402
    3MPD1     H14140   0.468   3.615  11.357  0.9218  1.6766  0.7098
    3MPD1    H114141   0.286   3.507  10.981  0.3240  0.6142 -1.5022
    3MPD1    H214142   0.518   3.869  11.029 -0.2769 -0.3088 -0.3434
    3MPD1    H314143   0.359   3.713  10.893 -1.6176  3.5094  1.3152
    3MPD1     N14144   0.332   3.425  11.239  0.2098 -0.2038  0.4938
    3MPD1    H514145   0.368   3.407  11.332  0.5485 -1.9321  0.0213
    3MPD1    N114146   0.579   3.833  11.287  0.3340 -0.0402  0.0981
    3MPD1    H614147   0.559   3.836  11.386 -0.1189  1.9004 -0.0449
    3MPD1    H714148   0.593   3.928  11.252 -1.8398  0.4802  0.6474
    4MPD2     C14149   0.636   2.597  12.635  0.3590  0.1349  0.1619
    4MPD2    C114150   0.732   2.615  12.539  0.6914  0.3487  0.0557
    4MPD2    C214151   0.750   2.736  12.476  0.4691 -0.6907 -0.0448
    4MPD2    C314152   0.667   2.840  12.509 -0.8387  0.0389 -0.0692
    4MPD2    C414153   0.568   2.826  12.607  0.0025 -0.1485  0.7151
    4MPD2    C514154   0.554   2.698  12.671  0.9881 -0.2938 -0.1103
    4MPD2     H14155   0.836   2.744  12.411  1.1101 -0.0885  0.8694
    4MPD2    H114156   0.509   2.907  12.648  0.1152 -0.1307  0.8403
    4MPD2    H214157   0.636   2.496  12.673  0.6977 -0.0434 -0.3071
    4MPD2    H314158   0.469   2.694  12.739 -0.2905  0.7731 -1.6269
    4MPD2     N14159   0.678   2.973  12.460  0.5167  0.2741 -0.5978
    4MPD2    H514160   0.610   3.043  12.489 -0.3492 -0.4420 -0.9098
    4MPD2    N114161   0.813   2.511  12.484 -0.6300 -0.3308 -0.1926
    4MPD2    H714162   0.892   2.532  12.424 -0.6064  0.1052 -0.0066
    5TMC3    C114163   0.875   2.312  12.401  0.0995  0.0724 -0.4547
    5TMC3    C214164   0.805   2.254  12.300 -0.1051  0.0589 -0.2387
    5TMC3    C314165   0.860   2.259  12.177  0.2530 -0.7852  1.0968
    5TMC3    C414166   0.985   2.387  12.379 -0.0103  0.0501  0.0831
    5TMC3    C514167   1.030   2.401  12.251 -0.8856  0.3623 -0.2896
    5TMC3    C614168   0.978   2.322  12.146 -0.1234 -0.1578 -0.3889
    5TMC3     C14169   0.776   2.379  12.483 -0.5904  0.2030  0.3439
    5TMC3     O14170   0.667   2.326  12.504  0.6998 -0.5029  0.4861
    5TMC3     H14171   0.711   2.203  12.320 -0.3159 -0.1109 -1.6492
    5TMC3    H114172   1.044   2.424  12.462  1.4223  1.6887 -1.6610
    5TMC3    H214173   1.006   2.343  12.043  1.5368 -1.6682 -0.2529
    5TMC3    C714174   1.057   2.538  12.214  0.1432  0.1276  0.5459
    5TMC3    C814175   0.774   2.206  12.071  0.0139 -0.4506 -0.8107
    5TMC3    O114176   1.021   2.613  12.306  0.0029 -0.4733 -0.3268
    5TMC3    O214177   0.654   2.237  12.069 -0.1291 -0.7905  0.0065
    6TMC3    C114178   0.243   2.975  11.290 -0.1335  0.3707  1.3120
    6TMC3    C214179   0.245   3.083  11.204  0.2101  0.0911 -0.7369
    6TMC3    C314180   0.229   3.211  11.249  0.4664 -0.1977  0.2094
    6TMC3    C414181   0.214   2.992  11.421 -0.6512 -0.2031  0.1004
    6TMC3    C514182   0.191   3.120  11.461 -0.6932  0.1065 -0.1123
    6TMC3    C614183   0.201   3.227  11.383  0.3132  0.0122 -0.4454
    6TMC3     C14184   0.218   2.839  11.245 -0.1641 -0.0349 -1.1973
    6TMC3     O14185   0.199   2.765  11.340  0.2665  0.0548  0.3913
    6TMC3     H14186   0.238   3.082  11.096 -2.8814 -1.2605 -0.4991
    6TMC3    H114187   0.213   2.906  11.487 -0.9472 -0.4750 -0.2624
    6TMC3    H214188   0.171   3.324  11.422  0.4098 -0.0850 -0.1251
    6TMC3    C714189   0.211   3.147  11.604  0.1523  0.3759  0.3487
    6TMC3    C814190   0.281   3.319  11.173  0.3883 -0.2505  0.3633
    6TMC3    O114191   0.288   3.235  11.637  0.3768 -0.3249 -0.1658
    6TMC3    O214192   0.280   3.293  11.052  0.1002 -0.4193  0.7003
    7MPD2     C14193   1.141   2.945  11.923 -0.1190  0.6174 -0.3132
    7MPD2    C114194   1.058   2.920  12.030  0.1317 -0.6114 -0.1418
    7MPD2    C214195   1.045   2.792  12.080 -0.0707  0.2337  0.3804
    7MPD2    C314196   1.130   2.687  12.032  0.7609  0.7753  0.3397
    7MPD2    C414197   1.206   2.712  11.919 -0.1065 -0.1882 -0.4105
    7MPD2    C514198   1.217   2.842  11.871 -0.9671  0.4861 -0.9078
    7MPD2     H14199   0.985   2.770  12.167 -0.4181  1.0316  0.3453
    7MPD2    H114200   1.272   2.637  11.878 -2.0662 -1.6780 -0.8804
    7MPD2    H214201   1.149   3.042  11.876 -1.5117  1.5232  1.3363
    7MPD2    H314202   1.289   2.854  11.790  2.6063  0.2549  2.2626
    7MPD2     N14203   1.133   2.561  12.100  0.1976 -0.9503  0.5289
    7MPD2    H514204   1.175   2.480  12.056  0.6448 -0.5563  0.2263
    7MPD2    N114205   0.986   3.022  12.090 -0.1689 -0.1082  0.0063
    7MPD2    H714206   0.936   2.993  12.173  0.2370 -1.4065 -0.1899
    8TMC3    C114207   0.852   3.217  12.114  0.0076  0.3388  0.2594
    8TMC3    C214208   0.726   3.234  12.058  0.2870  0.4837 -0.4471
    8TMC3    C314209   0.612   3.187  12.120 -0.2526  0.2489 -0.0039
    8TMC3    C414210   0.865   3.177  12.247 -0.2133  0.2366  0.0963
    8TMC3    C514211   0.747   3.127  12.308 -0.4215 -0.5511 -0.4832
    8TMC3    C614212   0.624   3.120  12.243 -0.3477  0.5134  0.2808
    8TMC3     C14213   0.945   3.140  12.027  0.4954 -0.8211 -0.3863
    8TMC3     O14214   0.959   3.180  11.913  0.3618  0.1347  0.2106
    8TMC3     H14215   0.722   3.252  11.951 -1.1648  2.1089 -0.1285
    8TMC3    H114216   0.962   3.175  12.295  0.0861  1.9198 -0.4419
    8TMC3    H214217   0.538   3.084  12.298 -0.3187 -0.3947 -0.2668
    8TMC3    C714218   0.773   3.002  12.372 -0.2812 -0.4371 -0.0511
    8TMC3    C814219   0.491   3.188  12.037  0.4236 -0.8556  0.5032
    8TMC3    O114220   0.861   2.938  12.320 -0.4339  0.6210 -0.0444
    8TMC3    O214221   0.495   3.257  11.937  0.4971  0.2916 -0.2557
    9MPD2     C14222   0.213   2.960  12.075 -0.1949  0.0791 -0.6649
    9MPD2    C114223   0.300   3.038  12.010  0.4313 -0.6279 -0.6941
    9MPD2    C214224   0.278   3.065  11.881 -0.2534 -0.2270  0.0549
    9MPD2    C314225   0.161   3.028  11.818 -0.4762  0.5874 -0.2477
    9MPD2    C414226   0.078   2.944  11.883  0.1033 -0.6238 -0.1967
    9MPD2    C514227   0.099   2.917  12.017  0.5661 -0.5596 -0.1375
    9MPD2     H14228   0.358   3.104  11.820  0.3368  0.5122  1.3056
    9MPD2    H114229   4.714   2.907  11.837 -1.6504  2.2132  1.0167
    9MPD2    H214230   0.223   2.938  12.180  0.1313 -0.4490 -0.8120
    9MPD2    H314231   0.023   2.868  12.076 -1.2695  1.6505 -0.6676
    9MPD2     N14232   0.146   3.050  11.679  0.1305 -0.4689 -0.0986
    9MPD2    H514233   0.085   2.982  11.635 -0.6211 -1.0578  1.8409
    9MPD2    N114234   0.412   3.081  12.075 -0.1798  0.3884 -0.2775
    9MPD2    H714235   0.432   3.053  12.171  1.6340 -1.8607 -1.3188
    1MPD1     C14236   0.477   2.174  16.398 -0.4973  0.1169  0.7193
    1MPD1    C114237   0.348   2.230  16.399  0.0488  0.2165 -0.0062
    1MPD1    C214238   0.250   2.167  16.473  0.0717 -0.1213 -0.4081
    1MPD1    C314239   0.269   2.034  16.509 -0.1285  0.9215 -0.0626
    1MPD1    C414240   0.386   1.967  16.489 -0.5640 -0.2052  0.7860
    1MPD1    C514241   0.489   2.044  16.436  0.4373 -0.6546  0.1407
    1MPD1     H14242   0.155   2.214  16.492  0.8579  1.8687 -1.4253
    1MPD1    H114243   0.398   1.866  16.527 -1.3746 -1.2810 -1.7896
    1MPD1    H214244   0.556   2.221  16.340 -0.5603  0.9673  1.3270
    1MPD1    H314245   0.585   2.000  16.413  1.0635  0.9171 -0.2139
    1MPD1     N14246   0.168   1.953  16.561  0.1161  0.6296 -0.0624
    1MPD1    H514247   0.197   1.864  16.599  1.6018  0.6267 -1.2409
    1MPD1    N114248   0.330   2.367  16.364  0.3278 -0.2608 -0.1597
    1MPD1    H614249   0.230   2.386  16.372  0.0570 -1.6535 -0.2719
    1MPD1    H714250   0.365   2.387  16.271  1.4211 -0.0229  0.2971
    2MPD1     C14251   3.951   2.177  16.531  0.6085  0.6383 -0.7884
    2MPD1    C114252   4.077   2.231  16.503  0.1278  0.5298 -0.2119
    2MPD1    C214253   4.188   2.141  16.530 -0.6912  0.2102 -0.4089
    2MPD1    C314254   4.178   2.014  16.575 -0.4667  0.9586 -0.4938
    2MPD1    C414255   4.050   1.972  16.607  0.0727 -0.2888 -0.0862
    2MPD1    C514256   3.938   2.051  16.588 -0.1609 -0.8114 -0.1577
    2MPD1     H14257   4.289   2.173  16.508  0.0888 -2.0317 -0.0163
    2MPD1    H114258   4.034   1.877  16.656 -0.2733 -1.1094 -1.7843
    2MPD1    H214259   3.870   2.247  16.517  0.5886  0.8397  0.2688
    2MPD1    H314260   3.837   2.015  16.603 -0.1440 -0.8225 -0.0740
    2MPD1     N14261   4.300   1.943  16.599 -0.2938  0.0990  0.1105
    2MPD1    H514262   4.385   1.998  16.587  0.0520 -0.2196  1.1275
    2MPD1    N114263   4.090   2.369  16.459 -0.5051 -0.4448 -0.0491
    2MPD1    H614264   4.176   2.400  16.414 -0.7775  0.2415 -0.1081
    2MPD1    H714265   4.022   2.387  16.385  0.9508 -1.5201 -1.6447
    3TCq2    C114266   4.318   1.826  16.660  0.2719  0.7229 -0.0271
    3TCq2    O214267   4.240   1.742  16.699 -0.0533  0.3584 -0.2334
    3TCq2    C214268   4.461   1.811  16.678  0.3643 -0.2565 -0.1695
    3TCq2    C314269   4.502   1.679  16.695 -0.2115  0.2526  0.2586
    3TCq2    C414270   4.633   1.654  16.669  0.0928  0.1258 -0.5378
    3TCq2    C514271   4.720   1.746  16.624 -0.0708  0.0146  0.4253
    3TCq2    C614272   4.673   1.878  16.610  0.0450 -0.2587 -0.8801
    3TCq2    C714273   4.545   1.913  16.639  0.2783  0.2684  0.2594
    3TCq2    C814274   0.035   1.981  16.564 -0.1715 -0.1922 -0.3089
    3TCq2    O414275   4.704   2.080  16.524  0.0865 -0.0912  0.1092
    3TCq2    C914276   4.684   1.522  16.706  0.5325  0.6961 -0.2759
    3TCq2    O514277   4.596   1.451  16.761 -0.8041  0.2857  0.2276
    3TCq2    O614278   0.075   1.488  16.673  0.0538 -0.5718 -0.3469
    3TCq2    H214279   4.431   1.606  16.733 -1.8883  1.3221 -0.7955
    3TCq2    H314280   0.096   1.720  16.601  0.1977  1.5498 -0.1548
    3TCq2    H414281   4.515   2.017  16.627  0.2870  0.1281 -1.0481
    1TCq1    O114282   2.796   0.526  12.737  0.5467 -0.2339 -0.0680
    1TCq1    C114283   2.799   0.629  12.648 -0.0215  0.3807 -0.2121
    1TCq1    O214284   2.810   0.612  12.527  0.1540 -0.5122  0.0191
    1TCq1    C214285   2.841   0.749  12.731  0.2151  0.4106  0.2618
    1TCq1    C314286   2.761   0.787  12.834  0.2474 -0.5087  0.8864
    1TCq1    C414287   2.820   0.865  12.932 -0.0632  0.0862 -0.1446
    1TCq1    C514288   2.949   0.895  12.937  0.5298  0.4875  0.1702
    1TCq1    C614289   3.030   0.842  12.844  0.5901 -0.5045  0.8134
    1TCq1    C714290   2.974   0.774  12.738  0.5516  0.1368  0.1239
    1TCq1    C814291   3.161   0.905  12.835  0.0849 -0.3267 -0.0769
    1TCq1    O414292   3.202   0.932  12.721 -0.1170 -0.4223  0.0155
    1TCq1    C914293   2.734   0.912  13.037 -0.5076  0.5369 -0.2275
    1TCq1    O514294   2.780   0.976  13.136 -0.0868 -0.3434 -0.2046
    1TCq1    O614295   2.609   0.915  13.016  0.3748 -0.4011 -0.0195
    1TCq1    H114296   2.819   0.548  12.829  1.7625  2.1526 -0.9436
    1TCq1    H214297   2.653   0.778  12.837  0.1617  0.5383  1.0600
    1TCq1    H314298   2.982   0.956  13.021  1.4337  1.2898 -0.7766
    1TCq1    H414299   3.044   0.742  12.662  0.4387  0.1693  0.0083
    2MPD2     C14300   3.443   1.001  12.883 -0.2564 -0.0745 -0.2174
    2MPD2    C114301   3.360   0.954  12.987 -0.0044 -0.7288  0.3560
    2MPD2    C214302   3.415   0.935  13.112 -0.4917 -0.1485  0.8433
    2MPD2    C314303   3.553   0.947  13.132  0.3560 -0.0785  0.3229
    2MPD2    C414304   3.638   0.982  13.025  0.0577 -0.0322  0.7695
    2MPD2    C514305   3.578   1.006  12.905  0.7236 -0.4248  0.0359
    2MPD2     H14306   3.346   0.901  13.188 -0.2024 -1.1176  0.6656
    2MPD2    H114307   3.740   1.013  13.043  0.0479  1.5484 -1.8975
    2MPD2    H214308   3.411   1.041  12.787  1.4713  2.2686  0.2050
    2MPD2    H314309   3.644   1.053  12.832  1.9086 -1.6554  0.3087
    2MPD2     N14310   3.610   0.918  13.253 -0.1932  0.2771 -0.4916
    2MPD2    H514311   3.548   0.893  13.329 -1.7298 -1.3168 -2.2458
    2MPD2    N114312   3.226   0.916  12.959  0.0718 -0.6231  0.3769
    2MPD2    H714313   3.182   0.884  13.045 -0.9395  0.5238  0.2766
    3TCq1    O114314   4.020   0.589  13.696 -0.0874 -0.3513 -0.1687
    3TCq1    C114315   3.959   0.593  13.570  0.0752 -1.2690  0.6743
    3TCq1    O214316   3.964   0.515  13.480  0.4869  0.2459  0.4523
    3TCq1    C214317   3.867   0.703  13.554  0.4319  0.6447 -0.1087
    3TCq1    C314318   3.806   0.758  13.666 -0.1637  0.3982  0.1664
    3TCq1    C414319   3.727   0.864  13.644  0.3378 -0.3667 -0.2707
    3TCq1    C514320   3.700   0.909  13.519 -0.5639 -0.5853  0.2898
    3TCq1    C614321   3.769   0.855  13.414 -0.1036 -0.1611 -0.4991
    3TCq1    C714322   3.854   0.753  13.427  0.3237  0.1703  0.2830
    3TCq1    C814323   3.747   0.899  13.278 -0.0552 -0.0423  0.0657
    3TCq1    O414324   3.845   0.894  13.210  0.1228  0.3363 -0.5358
    3TCq1    C914325   3.654   0.926  13.755  1.0817 -0.3932  0.4690
    3TCq1    O514326   3.712   0.904  13.863 -0.2044  0.6888 -0.5177
    3TCq1    O614327   3.589   1.027  13.717  1.3451 -0.8034  0.1732
    3TCq1    H114328   4.003   0.675  13.741  0.3585  0.8620 -2.3080
    3TCq1    H214329   3.820   0.712  13.763  1.5303  0.0259 -0.2499
    3TCq1    H314330   3.634   0.994  13.510  0.2288  0.0065  0.0805
    3TCq1    H414331   3.898   0.706  13.340 -1.0698 -0.7146  0.0464
    1MPD2     C14332   2.472   1.137  14.830  0.3231 -0.6266  0.0444
    1MPD2    C114333   2.361   1.106  14.904  0.3601  0.3949  0.6217
    1MPD2    C214334   2.277   1.007  14.853  0.5832 -0.2139  0.1010
    1MPD2    C314335   2.299   0.945  14.730 -0.0581  0.6178  0.6181
    1MPD2    C414336   2.410   0.977  14.657  0.3880  0.0879  0.6310
    1MPD2    C514337   2.499   1.068  14.711 -0.2052  0.1443 -0.0265
    1MPD2     H14338   2.204   0.974  14.926  0.4202 -0.8401 -0.3458
    1MPD2    H114339   2.425   0.933  14.559  2.2883  1.5197  0.2847
    1MPD2    H214340   2.537   1.220  14.856 -1.5820  1.3768 -1.7024
    1MPD2    H314341   2.583   1.102  14.651 -0.9227 -0.4948 -1.3876
    1MPD2     N14342   2.211   0.853  14.665 -0.0972 -0.3631 -1.0404
    1MPD2    H514343   2.235   0.843  14.567 -2.1239  1.4366 -1.7266
    1MPD2    N114344   2.328   1.185  15.014 -0.4189  0.9475  1.0101
    1MPD2    H714345   2.392   1.261  15.031 -0.4550  1.0529  0.6930
    2TMC3    C114346   2.207   1.291  15.193 -0.6272  0.2563 -0.1025
    2TMC3    C214347   2.094   1.257  15.270  1.0069 -0.1401 -0.4487
    2TMC3    C314348   1.989   1.341  15.278 -0.0968 -0.2357  0.1426
    2TMC3    C414349   2.212   1.407  15.123  0.4067 -0.4420  0.2471
    2TMC3    C514350   2.103   1.492  15.139 -0.1457  0.7450 -0.1636
    2TMC3    C614351   1.995   1.458  15.217  0.7236  0.2661 -0.0921
    2TMC3     C14352   2.225   1.181  15.102  0.6777 -0.7434  0.2028
    2TMC3     O14353   2.128   1.106  15.099 -0.4009  0.5371 -0.0147
    2TMC3     H14354   2.089   1.164  15.325  0.1145  0.7632  1.0253
    2TMC3    H114355   2.300   1.429  15.064  0.0403  0.2638 -0.0300
    2TMC3    H214356   1.909   1.522  15.235  0.7057 -0.1578  1.3731
    2TMC3    C714357   2.088   1.601  15.045  0.0781  0.5987  0.3451
    2TMC3    C814358   1.858   1.282  15.258  0.2697 -0.3830 -0.0862
    2TMC3    O114359   1.971   1.628  15.020 -0.4394  0.7015 -0.1296
    2TMC3    O214360   1.763   1.355  15.281  0.1780 -0.0235 -0.4621
    3TCq1    O114361   2.817   2.460  14.616  0.1204  0.1568  0.0450
    3TCq1    C114362   2.865   2.441  14.741  0.8487  0.0021 -0.5603
    3TCq1    O214363   2.984   2.463  14.774  0.2265  0.8551 -0.1403
    3TCq1    C214364   2.815   2.306  14.768  0.0782  0.0066 -0.1453
    3TCq1    C314365   2.899   2.200  14.772  0.1567  0.0479 -0.4945
    3TCq1    C414366   2.849   2.074  14.779  0.3670  0.0242 -0.2686
    3TCq1    C514367   2.714   2.050  14.761  0.5483 -0.7612  0.2293
    3TCq1    C614368   2.630   2.160  14.752  0.0330 -0.5021  0.4723
    3TCq1    C714369   2.677   2.292  14.752  0.0493  0.0943  0.4762
    3TCq1    C814370   2.490   2.137  14.738  0.1682 -0.6761 -1.0534
    3TCq1    O414371   2.423   2.219  14.679 -0.3223  0.8694  0.8955
    3TCq1    C914372   2.934   1.957  14.785  0.1372  0.5625 -0.1116
    3TCq1    O514373   2.888   1.854  14.732 -0.6137  0.6172  0.0884
    3TCq1    O614374   3.048   1.978  14.835 -0.5505  0.3729  0.4334
    3TCq1    H114375   2.726   2.433  14.593  0.0242  1.5569 -1.2158
    3TCq1    H214376   3.007   2.208  14.770  0.0113  1.8882 -1.4394
    3TCq1    H314377   2.680   1.947  14.768 -2.9622  0.3602 -0.4395
    3TCq1    H414378   2.605   2.372  14.753 -1.0898 -0.9369  1.3822
    4MPD2     C14379   2.224   1.985  14.729  0.4690  0.4149  0.2191
    4MPD2    C114380   2.334   1.951  14.808  0.9283  0.0026  0.0856
    4MPD2    C214381   2.322   1.846  14.902 -0.6870  0.3809 -0.1755
    4MPD2    C314382   2.201   1.780  14.914  0.1035  0.1547 -0.7905
    4MPD2    C414383   2.090   1.819  14.836 -0.4539 -0.6362 -0.2961
    4MPD2    C514384   2.104   1.922  14.745  0.0756  0.0446  0.6883
    4MPD2     H14385   2.410   1.811  14.954 -0.4208  1.4268  0.0697
    4MPD2    H114386   1.997   1.767  14.854  0.1043 -1.7457 -0.6326
    4MPD2    H214387   2.227   2.077  14.671 -0.6556  1.3372  1.5955
    4MPD2    H314388   2.013   1.965  14.705  0.0830 -0.9194 -0.3241
    4MPD2     N14389   2.206   1.672  15.010 -0.4737  0.4455  0.0700
    4MPD2    H514390   2.288   1.652  15.066  0.8403  0.3116 -1.8930
    4MPD2    N114391   2.459   2.012  14.793  0.6122  0.1546  0.1581
    4MPD2    H714392   2.531   1.964  14.846  2.0680  1.3520 -0.7324
    5TMC2    C114393   1.783   0.718  14.662  0.3532 -0.0864 -0.3444
    5TMC2    C214394   1.768   0.758  14.532 -0.1155  0.1311  0.6167
    5TMC2    C314395   1.878   0.794  14.458 -0.6173  0.1759  0.3691
    5TMC2    C414396   1.904   0.691  14.714  0.8188  0.0498  0.0038
    5TMC2    C514397   2.010   0.727  14.638 -0.4301 -0.6082 -0.1249
    5TMC2    C614398   2.003   0.790  14.511  0.4007 -0.3998 -0.4731
    5TMC2     C14399   1.697   0.789  14.749 -0.1868  0.0775  0.1129
    5TMC2     O14400   1.584   0.806  14.708  0.5845  0.3082 -0.0977
    5TMC2     H14401   1.669   0.765  14.490 -0.3009 -0.4410  0.9563
    5TMC2    H114402   1.912   0.651  14.815  1.1989 -0.4202 -0.2113
    5TMC2    H214403   2.088   0.823  14.453 -0.9153  0.9502 -1.6180
    5TMC2    C714404   2.102   0.795  14.725 -0.0548  0.4701  0.1354
    5TMC2    C814405   1.859   0.838  14.318 -0.5137 -0.6209  0.0827
    5TMC2    O114406   2.064   0.814  14.839  0.4949 -0.5120 -0.1988
    5TMC2    O214407   1.922   0.799  14.226 -0.0649  0.3820 -0.2061
    5TMC2    O514408   1.740   0.905  14.319  0.1501 -0.5357 -0.7631
    5TMC2    H514409   1.731   0.953  14.404  0.8812 -0.6873 -0.6049
    6MPD2     C14410   1.644   1.160  15.078 -0.1319  0.1317  0.6530
    6MPD2    C114411   1.772   1.109  15.097 -0.4226  0.3531  0.4193
    6MPD2    C214412   1.807   1.001  15.014  0.5834 -0.1896 -0.5140
    6MPD2    C314413   1.724   0.954  14.924 -0.8247  0.4655 -0.2652
    6MPD2    C414414   1.597   1.004  14.921  0.3416 -0.2185  0.1376
    6MPD2    C514415   1.549   1.110  14.993  0.3536  1.4199  0.3283
    6MPD2     H14416   1.906   0.960  15.033  1.1198  0.2392 -2.3637
    6MPD2    H114417   1.523   0.965  14.853  0.8238 -0.6412 -0.1465
    6MPD2    H214418   1.615   1.250  15.131  0.1593 -0.4856  1.8444
    6MPD2    H314419   1.454   1.160  14.983 -0.2481  0.2083 -0.0153
    6MPD2     N14420   1.772   0.851  14.843 -0.0074  0.4816 -0.0479
    6MPD2    H514421   1.872   0.838  14.855  0.1624  2.3029  0.4976
    6MPD2    N114422   1.869   1.169  15.180  0.1694 -0.4304  0.1109
    6MPD2    H714423   1.964   1.136  15.173  0.5641  0.2086  2.6165
  945NH3     N114424   0.116   0.952  13.159 -0.4731  0.3030 -0.4660
  945NH3     H214425   0.186   1.023  13.177 -0.0247 -0.2924  0.1302
  945NH3     H314426   0.037   1.011  13.136  0.0956  1.0044 -0.6276
  945NH3     H414427   0.154   0.900  13.081  0.9920  1.6430 -0.6506
  946SOD     NA14428   1.290   4.067  14.504 -0.3983  0.0436  0.0052
  947SOD     NA14429   3.535   2.101  14.702  0.5171 -0.0100 -0.1666
  948SOD     NA14430   4.624   1.026   8.730  0.0291 -0.2958 -0.2750
  949SOD     NA14431   2.872   0.889   0.853 -0.2566 -0.0963  0.5414
  950SOD     NA14432   2.387   1.596  10.645 -0.4473  0.4804  0.0738
  951SOD     NA14433   3.876   3.682   7.506 -0.3423 -0.1498 -0.3476
  952SOD     NA14434   3.251   0.908  14.079  0.4052  0.2638 -0.1239
  953SOD     NA14435   0.477   1.114   4.029 -0.2163 -0.1317 -0.4388
  954SOD     NA14436   0.060   4.327  13.711 -0.2546  0.2850 -0.0911
  955SOD     NA14437   0.222   1.467  16.515 -0.0781  0.2500  0.4404
  956SOD     NA14438   1.131   1.541   2.705  0.3069  0.1196 -0.0629
  957SOD     NA14439   3.104   0.948  11.323 -0.4553  0.4081 -0.6384
  958SOD     NA14440   0.734   2.086  16.836 -0.2443 -0.3729 -0.3484
  959SOD     NA14441   1.069   4.229  14.273 -0.0460 -0.4397  0.2114
  960SOD     NA14442   0.220   2.553  11.817 -0.1860  0.4514  0.2171
  961SOD     NA14443   3.567   0.233  12.040 -0.1622 -0.3484  0.1709
  962SOD     NA14444   4.558   2.004  12.541  0.0523  0.2277 -0.2372
  963SOD     NA14445   3.279   0.160   8.744  0.4183 -0.1272 -0.1760
  964SOD     NA14446   4.305   1.380  11.767 -0.1607  0.0978 -0.0158
  965SOD     NA14447   2.630   1.934   9.482 -0.2581  0.5613 -0.6900
  966SOD     NA14448   2.232   2.959  13.531 -0.3325  0.3484  0.3401
  967SOD     NA14449   0.038   3.817  16.736 -0.1390  0.2035 -0.5797
  968SOD     NA14450   1.151   1.563   1.307  0.1149 -0.1134 -0.0492
  969SOD     NA14451   3.387   0.813  11.106 -0.5215  0.2840 -0.6188
  970SOD     NA14452   1.577   1.061   2.176 -0.7307  0.5672 -0.4474
  971SOD     NA14453   4.377   0.323  12.985 -0.4926 -0.0188 -0.6580
  972SOD     NA14454   3.924   0.620  11.223  0.3739  0.0266  0.0138
  973SOD     NA14455   3.586   0.385  11.199  0.4902  0.0735  0.4544
  974SOD     NA14456   3.118   0.464  13.000 -0.2399  0.6172  0.1155
  975SOD     NA14457   3.083   0.664  11.114 -0.2422  0.2151  0.5149
  976SOD     NA14458   2.738   2.130  11.661  0.1887  0.4055  1.0799
  977SOD     NA14459   1.632   3.657   0.787 -0.5613  0.0516  0.1642
  978SOD     NA14460   2.474   4.232   9.990 -0.0899  0.1377  0.0439
  979SOD     NA14461   1.464   0.636  13.158  0.1559  0.2992 -0.3808
  980SOD     NA14462   3.889   0.907  13.985  0.0284 -0.7728 -0.0552
  981SOD     NA14463   1.567   1.015  10.853  0.0777  0.8644  0.0182
  982SOD     NA14464   1.881   4.058   8.986  0.0573 -0.3584  0.4797
  983SOD     NA14465   2.397   3.190   0.947 -0.0071 -0.1353  0.2240
  984SOD     NA14466   3.062   1.815  14.607  0.3084  0.2291 -0.1728
  985SOD     NA14467   3.651   0.618  10.998  0.3288 -0.1312 -0.1622
  986SOD     NA14468   3.884   0.186  17.077 -0.3286 -0.2328  0.6986
  987SOD     NA14469   1.867   3.713   3.463  0.4439  0.3510  0.1944
  988SOD     NA14470   0.755   0.242   0.745  0.1946 -0.5026 -0.1970
  989SOD     NA14471   4.148   4.587   0.312 -0.3483  0.0222  0.2586
  990SOD     NA14472   2.818   4.664   9.543 -0.0680 -0.1697 -0.1486
  991SOD     NA14473   3.051   1.799  14.982  0.3562 -0.2055  0.2085
  992SOD     NA14474   0.464   3.484  14.470  0.0597  0.1726  0.1479
  993SOD     NA14475   4.225   2.602   5.135  0.1695  0.5067  0.0249
  994SOD     NA14476   4.029   0.370  12.395  0.3878 -0.4446  0.0037
  995SOD     NA14477   3.928   1.031  14.352  0.3737  0.2865  0.0204
  996SOD     NA14478   3.726   4.157   7.168  0.2690  0.1352  0.4105
  997SOD     NA14479   4.700   2.626  13.350 -0.4445 -0.2913  0.2020
  998SOD     NA14480   0.585   3.957   3.708  0.0879 -0.3988  0.0685
  999SOD     NA14481   2.737   3.006   0.596 -0.2356  0.0688 -0.6158
 1000SOD     NA14482   0.869   4.339   9.178 -0.5554  0.0068  0.3528
 1001SOD     NA14483   0.349   1.687  12.512 -0.5847 -0.3518 -0.3131
 1002SOD     NA14484   0.506   1.471  14.804 -0.4200  0.3859 -0.0747
 1003SOD     NA14485   3.299   1.092  12.263 -0.0650 -0.2094  0.2064
 1004SOD     NA14486   1.138   0.139   2.049 -0.0090 -0.0884  0.1437
 1005SOD     NA14487   2.600   1.078  13.180 -0.1202 -0.2328 -0.0464
 1006SOD     NA14488   1.357   3.093  16.268 -0.2221 -0.6310 -0.0120
 1007SOD     NA14489   2.756   0.740  10.042  0.4665 -0.2272 -0.4424
 1008SOD     NA14490   4.088   2.629  15.606  0.1493 -0.0242  0.5231
 1009SOD     NA14491   2.053   0.013   9.631 -0.5240  0.0073 -0.0771
 1010SOD     NA14492   0.924   2.719   8.643  0.0483 -0.3984 -0.8777
 1011SOD     NA14493   4.205   4.676  11.342 -0.3684 -0.2899 -0.4790
 1012SOL     OW14494   2.467   2.583  12.130  0.9717 -0.2936  0.2350
 1012SOL    HW114495   2.476   2.639  12.207  1.8415 -1.2903  0.8586
 1012SOL    HW214496   2.526   2.627  12.068  0.0843  1.4245  0.6090
 1013SOL     OW14497   4.464   0.491   1.094 -0.0783 -0.1988 -0.4592
 1013SOL    HW114498   4.464   0.396   1.085  0.0641 -0.1887 -0.5696
 1013SOL    HW214499   4.372   0.505   1.115  0.1382 -1.4783  1.3598
 1014SOL     OW14500   4.659   2.334   1.220  0.0152  0.3328 -0.1211
 1014SOL    HW114501   4.585   2.368   1.270  0.6968 -0.1168  1.2079
 1014SOL    HW214502   4.692   2.271   1.284  1.6393  0.8347 -0.4539
 1015SOL     OW14503   2.240   1.339   5.091  1.3916  0.0817  0.2990
 1015SOL    HW114504   2.230   1.377   5.178 -0.1101 -0.9101  0.5561
 1015SOL    HW214505   2.334   1.349   5.073  1.2800 -2.2995 -1.6262
 1016SOL     OW14506   4.424   0.350  13.430  0.1408  0.0446  0.2713
 1016SOL    HW114507   4.351   0.386  13.480 -0.4342  0.5931 -0.9955
 1016SOL    HW214508   4.482   0.419  13.399  0.4106 -0.5153 -0.4771
 1017SOL     OW14509   3.254   1.649   5.720  0.3224  0.2879 -0.0188
 1017SOL    HW114510   3.162   1.646   5.695  0.0094  1.2978  1.0786
 1017SOL    HW214511   3.286   1.573   5.670  0.2747  0.9754 -1.0935
 1018SOL     OW14512   2.256   4.325   9.226 -0.0368 -0.6559  0.3914
 1018SOL    HW114513   2.265   4.232   9.248 -2.3462 -1.3860 -1.6582
 1018SOL    HW214514   2.343   4.349   9.193  0.1640 -1.6659  0.1832
 1019SOL     OW14515   2.393   3.081   2.210 -0.2155 -0.0322  0.0136
 1019SOL    HW114516   2.349   3.146   2.263 -2.4697 -0.1597 -1.6874
 1019SOL    HW214517   2.332   3.066   2.138  0.1557 -1.2305 -0.0679
 1020SOL     OW14518   0.917   0.801  11.166 -0.3190  0.3156  0.1920
 1020SOL    HW114519   0.849   0.760  11.113 -0.8306 -1.3359  2.1324
 1020SOL    HW214520   0.963   0.849  11.097 -1.1096  1.6882  0.6116
 1021SOL     OW14521   1.428   2.456  12.547 -0.2597  0.6385  0.2802
 1021SOL    HW114522   1.446   2.538  12.500  1.4598  1.4426  2.3346
 1021SOL    HW214523   1.467   2.390  12.489 -1.0787  0.3343  0.0733
 1022SOL     OW14524   3.107   0.909   4.494  0.3909  0.4217 -0.0464
 1022SOL    HW114525   3.148   0.824   4.512 -1.8219 -0.5479  0.4324
 1022SOL    HW214526   3.188   0.958   4.481 -0.3784  1.9196  0.8277
 1023SOL     OW14527   1.789   3.144   6.336  0.7983  0.0763  0.2043
 1023SOL    HW114528   1.705   3.168   6.373  0.7111 -1.3701  0.9173
 1023SOL    HW214529   1.769   3.051   6.332  0.8637  0.1806 -2.8402
 1024SOL     OW14530   2.635   1.315   7.740  0.3567  0.3163 -0.1599
 1024SOL    HW114531   2.563   1.318   7.677  2.1556 -0.6400 -2.2236
 1024SOL    HW214532   2.670   1.404   7.741 -0.8381  0.7929  0.3182
 1025SOL     OW14533   2.614   2.032  10.937 -0.5009  0.9369  0.2583
 1025SOL    HW114534   2.657   2.068  10.859 -1.6035  2.0116  0.1364
 1025SOL    HW214535   2.523   2.054  10.918 -0.7576  1.5810  2.2635
 1026SOL     OW14536   1.762   0.427  16.255  0.8315 -0.2656  0.2363
 1026SOL    HW114537   1.718   0.478  16.324  0.1324 -0.4229 -0.0998
 1026SOL    HW214538   1.852   0.425  16.288  0.9901 -0.4816 -0.2219
 1027SOL     OW14539   4.038   0.932  13.039 -1.2478 -0.1933 -0.0294
 1027SOL    HW114540   3.962   0.911  13.094 -1.6863  3.0958  0.6073
 1027SOL    HW214541   3.993   0.921  12.955  2.1040 -2.4285 -1.5623
 1028SOL     OW14542   2.284   2.922  13.313 -0.1754  0.2783  0.0411
 1028SOL    HW114543   2.259   2.939  13.222  0.2008 -0.5505 -0.2167
 1028SOL    HW214544   2.362   2.871  13.290 -0.7769 -0.6378  0.0398
 1029SOL     OW14545   2.050   2.808  13.490 -0.4227  0.1295  0.0062
 1029SOL    HW114546   2.047   2.788  13.397  2.3350  0.9022 -0.2612
 1029SOL    HW214547   1.964   2.850  13.487 -0.6288 -0.3553 -0.8037
 1030SOL     OW14548   1.125   4.001   7.271 -0.7289  0.0331 -0.1508
 1030SOL    HW114549   1.073   4.079   7.253  2.5767  2.1306 -0.4750
 1030SOL    HW214550   1.187   4.004   7.198  0.9651 -1.8980  1.1823
 1031SOL     OW14551   1.632   0.900   9.023  0.0604  0.1222 -0.2356
 1031SOL    HW114552   1.591   0.982   8.997  2.5792  1.9559  1.5341
 1031SOL    HW214553   1.724   0.928   9.030  0.5932 -1.6802  0.0766
 1032SOL     OW14554   1.414   1.067   9.590 -0.0740 -0.1505  0.2813
 1032SOL    HW114555   1.455   1.135   9.537 -2.1390  0.4567 -0.5379
 1032SOL    HW214556   1.468   0.989   9.576 -1.9366 -1.7401  1.8649
 1033SOL     OW14557   3.002   1.968   6.073  0.0972  0.0989  0.1290
 1033SOL    HW114558   3.064   1.911   6.119 -0.1331 -0.1409  0.1425
 1033SOL    HW214559   2.925   1.912   6.072  1.2702 -1.4948 -0.9532
 1034SOL     OW14560   2.215   2.640   4.575 -0.4885  0.0164  0.2395
 1034SOL    HW114561   2.293   2.664   4.626 -0.5684  5.4354 -2.2981
 1034SOL    HW214562   2.257   2.618   4.492 -1.0367  0.4441 -0.1495
 1035SOL     OW14563   1.690   3.188   2.590  0.0265  0.2933  0.2389
 1035SOL    HW114564   1.748   3.127   2.635  1.1911  1.8459  0.8174
 1035SOL    HW214565   1.662   3.123   2.526  0.2622  1.2222 -0.8143
 1036SOL     OW14566   4.205   4.106  10.571 -0.3577  0.0093 -0.0892
 1036SOL    HW114567   4.190   4.058  10.490  1.1670  0.9794 -0.9524
 1036SOL    HW214568   4.231   4.036  10.631  0.8796  1.0901  0.6263
 1037SOL     OW14569   1.384   1.996  13.081  0.1922  0.1210  0.2832
 1037SOL    HW114570   1.472   1.959  13.088 -0.3648 -0.6982  2.8499
 1037SOL    HW214571   1.345   1.940  13.013  0.6180  0.8975 -0.6105
 1038SOL     OW14572   4.220   0.869   5.094  0.3141  0.6475  0.3078
 1038SOL    HW114573   4.157   0.845   5.162  0.3167 -1.6323 -0.5006
 1038SOL    HW214574   4.213   0.965   5.101 -0.9764  0.5027  1.1561
 1039SOL     OW14575   0.750   3.699   7.253 -0.4300 -0.0796  0.1068
 1039SOL    HW114576   0.836   3.736   7.271 -0.1987 -0.4682 -0.1890
 1039SOL    HW214577   0.723   3.722   7.164 -0.7556 -1.1338 -0.0692
 1040SOL     OW14578   3.358   1.838  11.889  0.4267  0.3748  0.2510
 1040SOL    HW114579   3.264   1.840  11.867  0.4195  0.3209  0.2782
 1040SOL    HW214580   3.377   1.889  11.810 -0.7740  0.8542  0.2644
 1041SOL     OW14581   0.806   3.634   5.864  0.0728  0.0244  0.8903
 1041SOL    HW114582   0.713   3.639   5.839  0.3199  1.9155  0.3608
 1041SOL    HW214583   0.841   3.712   5.821 -0.2658 -0.8769 -1.0664
 1042SOL     OW14584   2.224   2.216   7.759 -0.5968 -0.1197  0.2758
 1042SOL    HW114585   2.180   2.298   7.778 -0.2414 -0.0807  0.9378
 1042SOL    HW214586   2.286   2.258   7.699 -1.1214 -0.5696 -0.5762
 1043SOL     OW14587   1.805   4.642   4.160 -0.9619  0.1027  0.2127
 1043SOL    HW114588   1.728   4.620   4.212  1.3496 -1.6497  2.9243
 1043SOL    HW214589   1.848   4.560   4.183  1.5249  1.1042 -0.8022
 1044SOL     OW14590   4.720   3.286  17.610 -0.4009  0.8771  0.2537
 1044SOL    HW114591   4.646   3.289  17.549 -0.0243 -2.5106 -0.3666
 1044SOL    HW214592   4.695   3.367  17.656  0.2317  0.7062  0.8911
 1045SOL     OW14593   2.259   3.671   9.626 -0.0047  0.5279  0.7295
 1045SOL    HW114594   2.207   3.605   9.672  1.2313 -0.7455  0.2919
 1045SOL    HW214595   2.207   3.750   9.639  0.5725  0.5439  2.9738
 1046SOL     OW14596   4.573   0.608   1.374 -0.1624  0.1884  0.2219
 1046SOL    HW114597   4.590   0.597   1.280  0.5824 -2.0049  0.6023
 1046SOL    HW214598   4.610   0.525   1.402  0.4305  1.0023  1.8239
 1047SOL     OW14599   4.007   0.050   0.270  0.4593 -1.2261 -0.2471
 1047SOL    HW114600   3.988   0.086   0.183 -1.8909 -2.8927 -0.4261
 1047SOL    HW214601   3.940   4.709   0.275  0.1066 -0.8475  0.2231
 1048SOL     OW14602   4.508   1.517   6.197  0.3563 -0.0290  0.3353
 1048SOL    HW114603   4.432   1.507   6.140 -0.5743  1.3964  1.3270
 1048SOL    HW214604   4.564   1.451   6.157 -1.3728 -0.7117 -0.9143
 1049SOL     OW14605   2.799   2.791  14.738  0.0914 -0.0210 -0.0217
 1049SOL    HW114606   2.777   2.873  14.693 -1.2289 -0.5636 -0.3657
 1049SOL    HW214607   2.832   2.741  14.664  0.3947 -0.6177  0.5245
 1050SOL     OW14608   2.905   0.577   4.658 -0.3505  0.4891  0.0086
 1050SOL    HW114609   2.840   0.644   4.642 -2.6368 -2.0925 -1.5343
 1050SOL    HW214610   2.974   0.636   4.690 -0.2193 -0.3172  1.2115
 1051SOL     OW14611   1.474   2.123  15.918 -0.3058 -0.0577  0.3600
 1051SOL    HW114612   1.517   2.182  15.857  0.7391 -0.6158  0.5536
 1051SOL    HW214613   1.466   2.052  15.853  1.1140  0.5433 -0.4777
 1052SOL     OW14614   3.843   2.044   3.797 -0.5721 -0.5497  0.5159
 1052SOL    HW114615   3.871   2.135   3.794  0.2295 -0.8048  0.1547
 1052SOL    HW214616   3.879   2.014   3.880  1.3124  1.5198  0.4313
 1053SOL     OW14617   1.841   2.433  11.258  0.1511 -0.4068  0.1914
 1053SOL    HW114618   1.849   2.338  11.256  3.0285 -0.1991  1.0968
 1053SOL    HW214619   1.875   2.452  11.346  0.1650  2.5224 -0.4300
 1054SOL     OW14620   0.109   4.060  16.730  0.2490  0.2889  0.3563
 1054SOL    HW114621   0.069   4.140  16.763 -1.0185 -0.4078  0.4969
 1054SOL    HW214622   0.161   4.093  16.657 -0.5227  1.8218  0.4906
 1055SOL     OW14623   4.418   4.128   8.608  0.1015 -0.1315 -0.1161
 1055SOL    HW114624   4.345   4.074   8.637  0.0954 -0.4969 -0.8371
 1055SOL    HW214625   4.410   4.207   8.662 -0.7362  1.4608 -2.5662
 1056SOL     OW14626   3.318   3.266   7.038  0.4210  0.2184  0.1186
 1056SOL    HW114627   3.257   3.252   7.111  0.4620  0.9036  0.2859
 1056SOL    HW214628   3.324   3.361   7.029  2.3182  0.1831  0.9683
 1057SOL     OW14629   1.859   4.560   7.168 -0.8417  0.4502 -0.0885
 1057SOL    HW114630   1.868   4.468   7.141  1.7319  1.1498 -1.6371
 1057SOL    HW214631   1.828   4.593   7.083  3.4594  2.1766 -1.0297
 1058SOL     OW14632   0.775   1.535   4.002 -0.3849  0.1829 -0.4178
 1058SOL    HW114633   0.806   1.455   3.960 -0.0033  0.2427 -0.2454
 1058SOL    HW214634   0.717   1.564   3.931 -2.0307  0.6914  1.1193
 1059SOL     OW14635   1.365   4.458   1.566 -0.3225 -0.5354  0.5775
 1059SOL    HW114636   1.370   4.387   1.630  1.2397 -0.6455  0.3441
 1059SOL    HW214637   1.453   4.454   1.528  0.6593 -0.9689  2.8578
 1060SOL     OW14638   3.269   0.728  17.351 -0.2030  0.5859  0.4403
 1060SOL    HW114639   3.245   0.819  17.337  1.9210  0.8805 -1.2595
 1060SOL    HW214640   3.354   0.737  17.395 -0.0010 -0.0106  0.1846
 1061SOL     OW14641   2.772   1.320   8.953 -0.1881  0.6145 -0.3540
 1061SOL    HW114642   2.790   1.332   9.046 -1.5911  1.0532 -0.1361
 1061SOL    HW214643   2.731   1.233   8.946 -1.4900  1.2824 -1.0993
 1062SOL     OW14644   2.119   4.122   4.024  0.5803 -0.2559 -0.3535
 1062SOL    HW114645   2.174   4.087   4.094 -0.5198  0.9713  1.1195
 1062SOL    HW214646   2.035   4.134   4.068  0.5437  0.2568 -0.5714
 1063SOL     OW14647   2.638   3.484   8.067  0.3138  0.4517 -0.0890
 1063SOL    HW114648   2.626   3.551   8.000  1.7629  2.0149  1.2228
 1063SOL    HW214649   2.567   3.513   8.123  0.0925 -3.2944  1.5844
 1064SOL     OW14650   3.127   1.278   0.411  0.3921  0.5650  0.3664
 1064SOL    HW114651   3.216   1.279   0.376 -0.0215 -0.2448 -0.6956
 1064SOL    HW214652   3.069   1.318   0.346 -1.7010 -1.1925  1.1459
 1065SOL     OW14653   2.706   2.300   9.995 -0.7292  0.9144 -0.0268
 1065SOL    HW114654   2.698   2.364  10.065 -0.2212  1.2085 -0.2350
 1065SOL    HW214655   2.648   2.332   9.926  0.6320  1.0028 -1.1300
 1066SOL     OW14656   2.967   3.060   9.600  0.3120 -0.1578  0.3642
 1066SOL    HW114657   2.959   3.132   9.537 -0.4164 -0.2109  0.3995
 1066SOL    HW214658   3.014   3.105   9.670 -0.5742  1.0883  0.1388
 1067SOL     OW14659   3.235   3.340   9.557 -0.2283  0.8780  0.3410
 1067SOL    HW114660   3.330   3.335   9.568 -0.5067  1.9986  3.2194
 1067SOL    HW214661   3.207   3.271   9.618 -1.7459  1.3604  0.2019
 1068SOL     OW14662   0.519   0.915   3.011  0.2802  0.0095 -0.1607
 1068SOL    HW114663   0.525   0.858   2.935  0.2806 -0.1682 -0.0296
 1068SOL    HW214664   0.582   0.872   3.070 -1.3764 -0.2246  1.4507
 1069SOL     OW14665   0.160   3.651  17.572 -0.6244 -0.6132 -0.1541
 1069SOL    HW114666   0.221   3.707  17.524  0.6507  1.9145  4.3626
 1069SOL    HW214667   0.213   3.573  17.587  1.1974  0.3152 -1.8469
 1070SOL     OW14668   3.841   0.241  11.430 -0.3431 -0.5077 -0.0696
 1070SOL    HW114669   3.799   0.155  11.443  3.1127 -2.2780 -0.5654
 1070SOL    HW214670   3.762   0.294  11.426  0.0955  0.3046  2.1633
 1071SOL     OW14671   3.067   2.763   7.948  0.6211 -0.0683  0.1999
 1071SOL    HW114672   3.130   2.818   7.995  2.1064 -0.7790 -0.9731
 1071SOL    HW214673   3.110   2.744   7.864  0.3691  1.1356 -0.2002
 1072SOL     OW14674   1.594   0.595   7.262  0.4478 -0.3804  0.3446
 1072SOL    HW114675   1.645   0.585   7.182 -0.5410 -0.3891 -0.2911
 1072SOL    HW214676   1.588   0.690   7.263  1.2730 -0.2936 -3.0129
 1073SOL     OW14677   1.875   3.766   8.472 -0.7546 -0.0459 -0.0779
 1073SOL    HW114678   1.792   3.782   8.516 -1.5561 -1.6574 -1.0316
 1073SOL    HW214679   1.869   3.676   8.439 -1.6474 -0.0268  0.0478
 1074SOL     OW14680   3.788   2.754  10.939  0.1620  0.0425 -0.6725
 1074SOL    HW114681   3.850   2.755  11.012 -2.1223  0.4881  1.2854
 1074SOL    HW214682   3.748   2.667  10.933  4.2514 -1.8663  0.1462
 1075SOL     OW14683   1.880   1.366   8.819 -0.2745 -0.2114 -0.3369
 1075SOL    HW114684   1.801   1.420   8.823  0.9711  1.4642  1.7804
 1075SOL    HW214685   1.848   1.276   8.814 -1.7388  0.3531 -1.1712
 1076SOL     OW14686   1.651   3.074   3.500 -0.3987  0.4078  0.3018
 1076SOL    HW114687   1.670   3.132   3.426  0.2501 -0.7735 -0.4645
 1076SOL    HW214688   1.599   3.004   3.462  1.2178 -1.5400  1.6485
 1077SOL     OW14689   0.077   4.517   2.229 -0.0837 -0.2218  0.2308
 1077SOL    HW114690   0.164   4.502   2.193 -1.0770  0.7342 -2.6178
 1077SOL    HW214691   0.086   4.607   2.260 -1.7141  0.6127 -1.6750
 1078SOL     OW14692   0.093   2.640   1.360 -0.4046 -0.3523  0.6490
 1078SOL    HW114693   0.029   2.631   1.290  0.2493  1.2152 -0.1684
 1078SOL    HW214694   0.036   2.620   1.434  0.6500 -0.0823  1.5471
 1079SOL     OW14695   1.248   2.485   5.856 -0.0424 -0.8752  0.1574
 1079SOL    HW114696   1.328   2.481   5.909  0.1637  0.4345 -0.0507
 1079SOL    HW214697   1.192   2.532   5.919  0.7242  0.2896 -0.0155
 1080SOL     OW14698   2.337   2.800   7.909 -0.0036 -0.4765  0.0382
 1080SOL    HW114699   2.394   2.805   7.832  0.6510  2.9390  0.7654
 1080SOL    HW214700   2.383   2.731   7.956 -0.6798 -1.9390 -1.4639
 1081SOL     OW14701   3.130   0.865   2.463 -0.1921  0.1520  0.1624
 1081SOL    HW114702   3.076   0.932   2.422 -0.1782 -1.1387 -1.9760
 1081SOL    HW214703   3.179   0.838   2.385 -1.8449 -3.3048  0.3195
 1082SOL     OW14704   3.260   4.691   4.786 -0.4711  0.2068 -0.0907
 1082SOL    HW114705   3.296   4.602   4.780 -2.8945 -0.7998  0.2645
 1082SOL    HW214706   3.172   4.663   4.814 -0.2972 -1.6400 -1.4086
 1083SOL     OW14707   3.317   1.536  14.448  0.4564  0.5426  0.1956
 1083SOL    HW114708   3.303   1.608  14.510  0.6857 -0.2053  1.1106
 1083SOL    HW214709   3.328   1.579  14.364 -1.0143 -2.0731 -1.3306
 1084SOL     OW14710   2.559   3.275   7.481  0.0573 -0.3814  0.0968
 1084SOL    HW114711   2.468   3.296   7.462 -0.1021  0.1595  1.4069
 1084SOL    HW214712   2.558   3.208   7.550 -0.9466  1.0036  1.4621
 1085SOL     OW14713   3.374   0.784  11.322 -0.4501  0.4161 -0.6217
 1085SOL    HW114714   3.402   0.830  11.401 -1.5744  2.9086 -1.6766
 1085SOL    HW214715   3.344   0.700  11.358 -2.0693 -0.0341 -3.0312
 1086SOL     OW14716   1.492   3.064  17.001 -0.1075 -0.1767 -0.5791
 1086SOL    HW114717   1.572   3.082  17.049  0.7370  0.4783 -2.2535
 1086SOL    HW214718   1.534   3.017  16.929 -1.5401 -3.0999  0.4705
 1087SOL     OW14719   0.278   4.396   1.704  0.2030 -0.3091  0.3662
 1087SOL    HW114720   0.347   4.459   1.724  0.7073 -0.9056  0.4948
 1087SOL    HW214721   0.340   4.332   1.669  0.1077 -0.6719  0.8638
 1088SOL     OW14722   1.936   2.547   3.314  0.1066  0.0425 -0.3515
 1088SOL    HW114723   1.969   2.564   3.226 -1.7390  0.6874 -0.9374
 1088SOL    HW214724   1.880   2.624   3.321 -1.5956 -1.2775  0.6123
 1089SOL     OW14725   4.565   4.289   2.760  0.5492  0.6381 -0.5369
 1089SOL    HW114726   4.585   4.369   2.712 -0.4436  1.1974 -0.0019
 1089SOL    HW214727   4.473   4.275   2.737  0.0270  2.1318  0.6435
 1090SOL     OW14728   3.932   2.889  14.262 -0.1741  0.7146  0.5231
 1090SOL    HW114729   4.022   2.922  14.259 -0.9076  2.5862 -1.0697
 1090SOL    HW214730   3.894   2.917  14.178 -1.4770 -1.6533  0.3211
 1091SOL     OW14731   2.952   0.828  17.405 -0.3954  0.3849  0.3050
 1091SOL    HW114732   2.993   0.744  17.425 -0.1888  0.3885 -0.1110
 1091SOL    HW214733   2.931   0.854  17.495  0.9295 -1.4435  1.1450
 1092SOL     OW14734   0.614   0.332   6.578 -0.1634 -0.3804 -0.0463
 1092SOL    HW114735   0.556   0.401   6.546 -0.7815  0.2161  2.3644
 1092SOL    HW214736   0.557   0.276   6.630 -2.4967  0.6909 -1.4180
 1093SOL     OW14737   4.028   1.047   5.537 -0.0658  0.0946  0.5048
 1093SOL    HW114738   3.960   0.981   5.524  0.3294 -0.4660  1.3210
 1093SOL    HW214739   4.094   0.980   5.550  0.6653  1.1230  2.1255
 1094SOL     OW14740   0.041   3.910   8.949  0.4679 -1.2099 -0.1281
 1094SOL    HW114741   4.709   3.914   8.874  0.3872  1.0459  0.0562
 1094SOL    HW214742   0.082   3.995   8.963 -0.4973 -0.4655 -1.8231
 1095SOL     OW14743   3.761   0.015   5.611 -0.5567  0.3026 -0.6582
 1095SOL    HW114744   3.788   0.010   5.520  1.4370  1.5701 -0.1400
 1095SOL    HW214745   3.785   0.105   5.632  2.0809 -0.8324  1.2131
 1096SOL     OW14746   0.110   1.512   6.813 -0.0841  0.1928  0.5568
 1096SOL    HW114747   0.134   1.580   6.877 -1.7427  0.3218  1.0509
 1096SOL    HW214748   0.166   1.442   6.845  0.6943  0.2004 -0.7675
 1097SOL     OW14749   3.567   2.302   4.663 -0.8872  0.0431  0.4536
 1097SOL    HW114750   3.591   2.262   4.579  1.3289  1.9045  0.2110
 1097SOL    HW214751   3.612   2.249   4.729  1.1427  0.5686 -0.4911
 1098SOL     OW14752   0.131   3.458  11.644  0.2593  0.3056 -0.8465
 1098SOL    HW114753   0.205   3.397  11.651 -0.6884 -0.7188  0.1547
 1098SOL    HW214754   0.068   3.407  11.695  0.1874  0.3284 -0.9137
 1099SOL     OW14755   1.027   3.533   7.493  0.6756 -0.2912  0.1126
 1099SOL    HW114756   1.106   3.480   7.486  0.4092 -0.6824  0.0628
 1099SOL    HW214757   1.059   3.609   7.446  1.1914 -0.1958  0.6110
 1100SOL     OW14758   4.128   1.097   6.150  0.1820 -0.6492 -0.4634
 1100SOL    HW114759   4.115   1.010   6.188  0.4938 -0.4351  0.1366
 1100SOL    HW214760   4.039   1.115   6.119  0.7907  1.2295 -1.0944
 1101SOL     OW14761   2.537   4.718   4.575 -0.0032 -0.0359  0.2020
 1101SOL    HW114762   2.507   4.678   4.493  0.4274  0.1642 -0.0549
 1101SOL    HW214763   2.546   4.633   4.617  0.2105 -0.0778  0.0697
 1102SOL     OW14764   2.077   3.280  14.387 -0.5270  0.7371 -0.0960
 1102SOL    HW114765   2.124   3.359  14.414  0.0631  0.2650  0.2576
 1102SOL    HW214766   2.141   3.250  14.322 -1.8966 -1.5209 -0.3901
 1103SOL     OW14767   3.266   1.075  10.564 -0.1803  0.1554  0.0821
 1103SOL    HW114768   3.246   1.145  10.502 -1.4669  0.3652  0.7466
 1103SOL    HW214769   3.341   1.111  10.612  0.7741 -0.9533 -0.5778
 1104SOL     OW14770   2.380   0.968  15.606  0.1488 -0.1555  0.2684
 1104SOL    HW114771   2.441   0.909  15.561  2.1653  1.9450  0.2794
 1104SOL    HW214772   2.347   0.905  15.671  0.3806 -0.9988 -0.4421
 1105SOL     OW14773   0.015   1.435   6.363  0.0064 -0.2434  0.4624
 1105SOL    HW114774   4.658   1.390   6.370  0.6725 -1.6338 -0.5254
 1105SOL    HW214775   4.715   1.518   6.404 -1.4283  0.0393 -1.0922
 1106SOL     OW14776   2.911   4.381  15.801 -0.3804 -0.1204 -0.5355
 1106SOL    HW114777   2.876   4.375  15.890  1.0082  2.7486  0.2210
 1106SOL    HW214778   2.830   4.385  15.751 -0.9675  1.7909  0.5426
 1107SOL     OW14779   2.173   3.813   5.724  0.5497  0.3008  0.7939
 1107SOL    HW114780   2.263   3.817   5.692  0.4738 -0.2330  0.5040
 1107SOL    HW214781   2.179   3.754   5.800 -2.6688  0.2831  1.0107
 1108SOL     OW14782   2.961   1.131   4.512 -0.2553  0.3037  0.1476
 1108SOL    HW114783   3.035   1.191   4.520  0.3791 -0.5062  0.3809
 1108SOL    HW214784   3.007   1.048   4.512  2.4146  1.7841  2.4077
 1109SOL     OW14785   4.270   3.856   8.148  0.3120 -0.0210 -0.0094
 1109SOL    HW114786   4.281   3.949   8.129 -1.4342  0.2871  0.4400
 1109SOL    HW214787   4.273   3.817   8.060  1.2334 -3.6456  1.6357
 1110SOL     OW14788   2.544   3.298   3.089  0.5195  0.5657  0.0394
 1110SOL    HW114789   2.492   3.217   3.093  1.6412 -0.1879 -0.5832
 1110SOL    HW214790   2.493   3.348   3.025 -0.3002 -0.7864 -0.3725
 1111SOL     OW14791   1.887   1.791  10.019 -0.7395  0.2290 -0.6071
 1111SOL    HW114792   1.873   1.704   9.983 -0.1656 -0.2405  0.3301
 1111SOL    HW214793   1.977   1.783  10.051 -0.8288  1.5644  0.0073
 1112SOL     OW14794   3.968   0.972   1.278 -0.4235 -0.5324  0.3058
 1112SOL    HW114795   3.910   1.039   1.242  0.2044 -0.2276 -0.1433
 1112SOL    HW214796   3.977   0.917   1.199  1.0284 -2.0596  1.5208
 1113SOL     OW14797   2.497   2.437  13.479 -0.2562  0.3822  0.6669
 1113SOL    HW114798   2.443   2.497  13.427 -1.0059 -1.2519 -0.4226
 1113SOL    HW214799   2.430   2.385  13.523  0.1262 -1.4380 -0.9050
 1114SOL     OW14800   0.460   1.169   4.948 -0.7159  0.5987 -0.1795
 1114SOL    HW114801   0.389   1.180   5.012 -1.5531  0.7344 -1.1322
 1114SOL    HW214802   0.471   1.261   4.924 -1.1030  0.7362  0.1739
 1115SOL     OW14803   2.815   4.252   6.357 -0.1737  0.1856  0.3095
 1115SOL    HW114804   2.760   4.191   6.308 -1.0095  0.4227  0.9547
 1115SOL    HW214805   2.814   4.331   6.303 -2.7197  0.3369  0.5647
 1116SOL     OW14806   2.389   4.152   1.475 -0.0488  0.1054 -0.2757
 1116SOL    HW114807   2.452   4.207   1.429  0.9022 -0.1880  0.6907
 1116SOL    HW214808   2.383   4.082   1.409 -2.2006 -0.9039  0.9918
 1117SOL     OW14809   0.267   4.089   7.546  0.1765  0.2998 -0.3089
 1117SOL    HW114810   0.231   4.002   7.563  3.0472 -0.6713  0.7607
 1117SOL    HW214811   0.228   4.143   7.615 -0.9993  0.4352 -1.0798
 1118SOL     OW14812   0.850   3.348   1.278  0.6256  0.2119  0.8120
 1118SOL    HW114813   0.814   3.427   1.238  2.2984  0.7770  0.4365
 1118SOL    HW214814   0.904   3.308   1.210  1.0212 -1.5327  2.1419
 1119SOL     OW14815   0.383   4.321   8.172 -0.5303  0.3432  0.4232
 1119SOL    HW114816   0.465   4.272   8.180  0.5434  2.2320  0.8173
 1119SOL    HW214817   0.408   4.413   8.164  0.4154 -0.0209 -0.9236
 1120SOL     OW14818   2.366   4.512   6.415 -0.7161  0.1502 -0.5643
 1120SOL    HW114819   2.365   4.607   6.411 -0.9823  0.1893  0.5946
 1120SOL    HW214820   2.356   4.502   6.509 -3.5412 -3.1146 -1.2106
 1121SOL     OW14821   2.749   1.348   3.891 -0.1288  0.1512  0.3629
 1121SOL    HW114822   2.726   1.254   3.889  0.5731  0.0252 -1.5645
 1121SOL    HW214823   2.842   1.343   3.912 -0.1877  1.2497  0.8528
 1122SOL     OW14824   0.565   1.646   5.733 -0.3207 -0.3720  0.2680
 1122SOL    HW114825   0.621   1.600   5.671  1.6536 -0.1805  1.9330
 1122SOL    HW214826   0.509   1.576   5.767 -0.5314 -0.0371  0.6064
 1123SOL     OW14827   0.668   1.216   7.630 -0.2529 -0.0105  0.0954
 1123SOL    HW114828   0.654   1.207   7.724 -0.5956  1.8720  0.2282
 1123SOL    HW214829   0.660   1.311   7.631  1.0540  0.1594 -3.2364
 1124SOL     OW14830   2.715   3.693   0.887  0.5145 -0.0529  0.0020
 1124SOL    HW114831   2.672   3.779   0.890  0.8335  0.1657 -1.5835
 1124SOL    HW214832   2.663   3.656   0.816  1.6110 -0.6998 -0.4662
 1125SOL     OW14833   2.582   3.695   6.245  0.1411 -0.3875  0.3017
 1125SOL    HW114834   2.522   3.745   6.189 -0.4818 -1.1679  0.2818
 1125SOL    HW214835   2.633   3.770   6.276 -0.0583 -0.2381  0.2662
 1126SOL     OW14836   0.049   4.152   8.218 -0.9368  0.1152 -0.0905
 1126SOL    HW114837   0.094   4.190   8.294 -1.7854  0.0555  0.4520
 1126SOL    HW214838   4.708   4.104   8.266 -2.8510 -1.8920 -4.8569
 1127SOL     OW14839   0.117   2.718   8.489 -0.3248 -0.4802  0.1903
 1127SOL    HW114840   0.170   2.639   8.490 -1.1907 -1.0392  1.6800
 1127SOL    HW214841   0.117   2.756   8.577  0.0306 -0.7925  0.3219
 1128SOL     OW14842   3.133   1.870  16.212  0.4872 -0.3362  0.0026
 1128SOL    HW114843   3.062   1.840  16.156  0.5852 -0.8101  0.1336
 1128SOL    HW214844   3.214   1.837  16.174 -1.3416 -2.5892 -1.9214
 1129SOL     OW14845   1.462   4.386   4.757 -0.3781 -0.2468 -0.1255
 1129SOL    HW114846   1.434   4.343   4.676 -2.2406 -0.3327  0.5876
 1129SOL    HW214847   1.382   4.435   4.771  0.4863  1.0139  0.4387
 1130SOL     OW14848   4.308   0.980   0.077 -0.0238 -0.0431 -0.5283
 1130SOL    HW114849   4.246   0.921   0.034 -1.4940  1.5623 -0.6239
 1130SOL    HW214850   4.383   0.926   0.102 -0.6690  0.2989  2.1795
 1131SOL     OW14851   3.267   3.942   9.387  0.5670 -0.2462  0.0266
 1131SOL    HW114852   3.338   3.914   9.444 -0.3431  0.4356  1.5132
 1131SOL    HW214853   3.198   3.952   9.452  0.4556 -0.6061 -0.0351
 1132SOL     OW14854   0.523   0.702  11.454 -0.1789  0.0064  0.5626
 1132SOL    HW114855   0.578   0.637  11.498 -0.7124  1.5275  3.4908
 1132SOL    HW214856   0.554   0.779  11.503 -0.2071 -0.2126  0.9189
 1133SOL     OW14857   0.307   2.211   2.247 -0.2234 -0.7747 -0.0528
 1133SOL    HW114858   0.381   2.270   2.262 -0.8594 -0.0456  0.1960
 1133SOL    HW214859   0.246   2.237   2.316  0.6256 -2.6554  1.4095
 1134SOL     OW14860   4.144   0.751   9.773  0.1518 -0.3381 -0.0199
 1134SOL    HW114861   4.120   0.658   9.775  0.3718 -0.4257 -1.4787
 1134SOL    HW214862   4.194   0.754   9.855 -1.2974  0.2463  0.8402
 1135SOL     OW14863   3.490   0.504   3.236 -0.1251 -0.2542 -0.0584
 1135SOL    HW114864   3.541   0.527   3.314  0.7966  1.1626 -1.1026
 1135SOL    HW214865   3.411   0.553   3.259  1.0312  2.4589 -1.9297
 1136SOL     OW14866   1.701   3.233   4.815  0.1810  0.1115 -0.5523
 1136SOL    HW114867   1.625   3.285   4.788  2.2841  3.6481  0.3370
 1136SOL    HW214868   1.741   3.303   4.867  2.6329 -1.2649 -0.6078
 1137SOL     OW14869   3.100   4.298   9.391 -0.0450 -0.1140 -0.1256
 1137SOL    HW114870   3.048   4.222   9.370  2.3769 -1.3084 -1.8418
 1137SOL    HW214871   3.058   4.369   9.342 -1.9788 -1.2046 -0.0225
 1138SOL     OW14872   0.705   1.442   7.804  0.1700  0.0877 -0.2036
 1138SOL    HW114873   0.611   1.451   7.786  0.1004  2.0084  1.0434
 1138SOL    HW214874   0.700   1.405   7.891 -3.0846  0.6850 -0.1138
 1139SOL     OW14875   3.694   4.188   9.350  0.0179  0.3354  0.4399
 1139SOL    HW114876   3.609   4.183   9.395  0.4801  0.2365  1.2901
 1139SOL    HW214877   3.725   4.266   9.396  1.3370  1.2164 -1.9776
 1140SOL     OW14878   2.638   3.396   3.407  0.1351 -0.4647 -0.4779
 1140SOL    HW114879   2.672   3.307   3.404  0.6248 -0.2678 -0.6582
 1140SOL    HW214880   2.574   3.389   3.335 -0.7459 -3.2169  0.5771
 1141SOL     OW14881   4.700   1.794  12.560 -0.6093 -0.1118 -0.3082
 1141SOL    HW114882   4.674   1.702  12.568  0.2708 -0.4333 -1.1462
 1141SOL    HW214883   4.726   1.817  12.650  2.0631 -1.4808 -0.7432
 1142SOL     OW14884   4.465   1.000  16.839 -0.0199  0.4977 -0.1451
 1142SOL    HW114885   4.433   1.064  16.903  2.2694 -0.2277  1.7115
 1142SOL    HW214886   4.540   1.050  16.806  0.0258  0.4472 -0.1163
 1143SOL     OW14887   2.111   3.454   7.525 -0.2523 -0.1846 -0.6386
 1143SOL    HW114888   2.063   3.417   7.451  1.3032 -0.9637 -1.2379
 1143SOL    HW214889   2.081   3.399   7.598  1.5211 -0.8512 -0.4198
 1144SOL     OW14890   1.767   1.945   6.688  0.2876 -0.7993  0.2444
 1144SOL    HW114891   1.836   1.945   6.754 -0.9846  0.2181  1.5738
 1144SOL    HW214892   1.714   2.024   6.699  0.1704 -0.7967 -0.3455
 1145SOL     OW14893   2.002   2.339  10.110 -0.0332 -0.2203  0.6309
 1145SOL    HW114894   2.013   2.323  10.203 -0.5733 -0.7268  0.6025
 1145SOL    HW214895   2.087   2.318  10.072 -0.2487 -0.7903  0.4640
 1146SOL     OW14896   2.478   1.652   8.939 -0.4512  0.4156  0.0426
 1146SOL    HW114897   2.542   1.677   9.006  1.2558  0.4258 -1.5995
 1146SOL    HW214898   2.517   1.702   8.868  2.4644  1.9269  2.7156
 1147SOL     OW14899   0.260   4.422   8.840  0.1062  0.2793  0.2534
 1147SOL    HW114900   0.302   4.344   8.802  1.9160  1.1261  0.4981
 1147SOL    HW214901   0.260   4.480   8.764 -1.4649  0.3463  0.3194
 1148SOL     OW14902   2.642   1.187   0.777 -0.8087  0.1135  0.4949
 1148SOL    HW114903   2.707   1.256   0.794 -0.7317 -0.1673  1.3602
 1148SOL    HW214904   2.573   1.218   0.836 -0.1479 -1.1595  1.9351
 1149SOL     OW14905   1.088   1.472   1.578  0.1407  0.1644 -0.0093
 1149SOL    HW114906   1.081   1.512   1.664 -0.6044  0.1972 -0.0833
 1149SOL    HW214907   1.012   1.521   1.546  0.1624 -0.1736 -0.5814
 1150SOL     OW14908   1.568   1.211   9.814  0.6844 -0.4348 -0.0496
 1150SOL    HW114909   1.576   1.116   9.816  1.1724 -0.3766  0.6379
 1150SOL    HW214910   1.484   1.224   9.771  2.2326 -1.3480 -3.3470
 1151SOL     OW14911   2.363   0.946   1.530 -0.3377 -0.3618  0.8158
 1151SOL    HW114912   2.356   0.919   1.438  0.5432 -4.0362  1.8210
 1151SOL    HW214913   2.272   0.964   1.553 -0.4448  1.5217 -1.0330
 1152SOL     OW14914   4.139   3.338   4.523 -0.2264  0.2682  0.3076
 1152SOL    HW114915   4.050   3.365   4.544 -0.1978  0.2279  0.4833
 1152SOL    HW214916   4.132   3.261   4.466 -2.8567  0.4206  0.4542
 1153SOL     OW14917   1.108   4.341   6.985 -0.3332 -0.3299 -0.5601
 1153SOL    HW114918   1.190   4.349   7.033 -0.0001 -1.6956 -0.8991
 1153SOL    HW214919   1.096   4.246   6.988 -2.8875  0.0243  0.2906
 1154SOL     OW14920   1.701   2.335  12.954 -0.3109 -0.0283 -0.0838
 1154SOL    HW114921   1.736   2.323  13.043  1.5170  0.8678 -0.6984
 1154SOL    HW214922   1.615   2.294  12.958 -0.1702 -0.4365 -1.2024
 1155SOL     OW14923   3.966   2.487  15.094  0.0403  0.2136  0.2170
 1155SOL    HW114924   3.930   2.566  15.055 -1.8521 -0.8100 -0.1035
 1155SOL    HW214925   3.929   2.485  15.183 -0.7031 -0.6564 -0.1071
 1156SOL     OW14926   4.130   0.614   6.567 -0.4110  0.2825 -0.2725
 1156SOL    HW114927   4.049   0.574   6.536 -1.0617  1.0694  0.4249
 1156SOL    HW214928   4.149   0.563   6.645  1.0039 -0.7185 -1.2684
 1157SOL     OW14929   1.007   3.426   6.301 -0.0721 -0.3441 -0.0254
 1157SOL    HW114930   0.933   3.369   6.281 -1.1184  1.2658 -0.7084
 1157SOL    HW214931   1.025   3.451   6.210 -0.6011 -0.7852 -0.2529
 1158SOL     OW14932   1.936   0.747   3.238 -0.3852 -0.0431  0.3830
 1158SOL    HW114933   1.957   0.813   3.173 -0.0784  0.3756  0.9044
 1158SOL    HW214934   1.976   0.799   3.307 -0.1702 -0.4825  0.5953
 1159SOL     OW14935   4.472   4.541  13.818 -0.4344 -0.1582  0.2873
 1159SOL    HW114936   4.502   4.555  13.728  1.0970 -1.5266  0.5852
 1159SOL    HW214937   4.462   4.634  13.841 -0.4289  0.0698 -0.6260
 1160SOL     OW14938   2.814   2.888   6.880 -0.2209  0.0595 -0.7252
 1160SOL    HW114939   2.835   2.798   6.905 -0.7229  0.2771  0.4613
 1160SOL    HW214940   2.896   2.914   6.837 -0.6106 -1.4581 -2.4008
 1161SOL     OW14941   3.792   3.822  13.231  0.2833  0.2594 -0.3431
 1161SOL    HW114942   3.771   3.915  13.233  2.9428  0.8251  0.4531
 1161SOL    HW214943   3.744   3.792  13.154  0.4285 -0.0006 -0.3307
 1162SOL     OW14944   0.976   3.875  12.685  0.3134 -0.7284 -0.0655
 1162SOL    HW114945   0.952   3.812  12.753 -1.5584 -0.8017 -0.7667
 1162SOL    HW214946   1.033   3.822  12.630 -0.5516 -1.2215 -0.4991
 1163SOL     OW14947   1.639   2.199  16.427 -0.0211 -0.2541  1.4916
 1163SOL    HW114948   1.613   2.216  16.337  0.5110  1.6786  1.7025
 1163SOL    HW214949   1.676   2.283  16.451 -1.8563  0.3441  2.2520
 1164SOL     OW14950   3.353   3.119  13.261 -0.1362 -0.3836 -0.2217
 1164SOL    HW114951   3.404   3.044  13.231 -2.5644 -1.3017 -2.0347
 1164SOL    HW214952   3.286   3.074  13.313  0.5551 -0.3651  0.6730
 1165SOL     OW14953   4.213   1.943   6.527  0.2665 -0.2339  0.2294
 1165SOL    HW114954   4.164   1.863   6.506  1.3850 -0.3397 -1.9292
 1165SOL    HW214955   4.246   1.932   6.617  0.8016 -1.8249 -0.1477
 1166SOL     OW14956   3.186   0.189   2.784  0.4812  0.0339 -0.0102
 1166SOL    HW114957   3.217   0.111   2.831 -0.7245 -0.2846  0.2649
 1166SOL    HW214958   3.125   0.146   2.724  0.5992  1.9368 -1.4661
 1167SOL     OW14959   0.015   2.257   6.261 -0.7789  0.7730 -0.0440
 1167SOL    HW114960   0.081   2.210   6.310 -1.4939  0.3841  0.5439
 1167SOL    HW214961   0.018   2.207   6.180 -1.4208  0.7562 -0.0564
 1168SOL     OW14962   4.162   2.078  11.944 -0.1907  0.2661 -0.5268
 1168SOL    HW114963   4.165   2.171  11.966 -0.8464  0.3129 -0.6413
 1168SOL    HW214964   4.069   2.059  11.959  0.4478 -0.6398  2.2629
 1169SOL     OW14965   4.167   3.609   8.428  0.1385  0.5118  0.1710
 1169SOL    HW114966   4.170   3.617   8.332 -0.1919  0.2396  0.1361
 1169SOL    HW214967   4.234   3.543   8.443  0.1212  0.7026  1.0867
 1170SOL     OW14968   2.749   2.836  10.382  0.0979 -0.3515 -0.6994
 1170SOL    HW114969   2.742   2.860  10.475  1.4698  0.1274 -0.7214
 1170SOL    HW214970   2.840   2.805  10.377  0.2532 -0.1689  0.8293
 1171SOL     OW14971   3.323   2.866   6.236  0.3012 -0.1823 -0.0593
 1171SOL    HW114972   3.403   2.852   6.185 -0.3338  0.6382 -1.3049
 1171SOL    HW214973   3.360   2.915   6.309  0.2596 -1.8347  1.0732
 1172SOL     OW14974   1.581   2.991   7.926 -0.8645 -0.0705 -0.5357
 1172SOL    HW114975   1.625   2.913   7.960  0.0922  0.3009 -0.9177
 1172SOL    HW214976   1.524   3.013   8.000  1.7539 -0.6542  1.6263
 1173SOL     OW14977   1.740   0.374  17.162 -0.1717 -0.0473  0.4667
 1173SOL    HW114978   1.740   0.334  17.249  0.9824 -2.9526 -0.9022
 1173SOL    HW214979   1.646   0.385  17.147  0.2796  1.9622 -0.8878
 1174SOL     OW14980   0.105   1.674   9.141  0.1491 -0.3029 -0.2683
 1174SOL    HW114981   0.024   1.724   9.137 -0.3947 -1.0482  1.8825
 1174SOL    HW214982   0.132   1.696   9.230 -0.3406 -0.9220  0.0368
 1175SOL     OW14983   2.232   1.522   9.000  0.2227 -0.7266 -0.0913
 1175SOL    HW114984   2.304   1.483   9.049  0.9848  2.0208  1.0022
 1175SOL    HW214985   2.238   1.463   8.925 -1.5719 -0.5565 -0.3707
 1176SOL     OW14986   0.058   3.543   9.597  0.2304  0.0240 -0.3192
 1176SOL    HW114987   0.002   3.600   9.649  0.6297  1.0553 -1.0171
 1176SOL    HW214988   0.126   3.601   9.562 -0.8555 -0.1348 -2.7515
 1177SOL     OW14989   2.040   1.970   6.646 -0.1240  0.1465 -0.0761
 1177SOL    HW114990   1.946   1.976   6.627  0.5406 -0.2207 -3.4189
 1177SOL    HW214991   2.065   1.909   6.577  1.2698  0.1392  0.4395
 1178SOL     OW14992   3.784   2.678   4.243 -0.2726  0.3501 -0.1199
 1178SOL    HW114993   3.810   2.654   4.154  2.1173  2.8531 -0.1072
 1178SOL    HW214994   3.802   2.598   4.292 -0.6814 -0.1772 -0.8283
 1179SOL     OW14995   0.645   1.280   8.638  0.0137 -0.2013 -0.1135
 1179SOL    HW114996   0.556   1.257   8.666  0.3030  1.2831  2.0028
 1179SOL    HW214997   0.684   1.194   8.654  1.0724  0.4610  0.8731
 1180SOL     OW14998   2.005   2.405   4.176  0.2015 -0.5040 -0.1717
 1180SOL    HW114999   1.979   2.446   4.258  0.1054  0.3584 -0.6329
 1180SOL    HW215000   2.068   2.473   4.152 -0.4583  0.2456  0.2211
 1181SOL     OW15001   4.197   3.803   8.996  0.0778 -0.1095  0.1882
 1181SOL    HW115002   4.108   3.792   9.027 -0.1497  0.3012 -0.3053
 1181SOL    HW215003   4.251   3.771   9.068 -0.4979  1.0940  1.1548
 1182SOL     OW15004   3.278   0.797   0.356  0.4549 -0.1783 -0.2920
 1182SOL    HW115005   3.256   0.711   0.392  1.2581 -0.2535  0.0200
 1182SOL    HW215006   3.299   0.768   0.267  0.8969 -0.6571 -0.0311
 1183SOL     OW15007   2.398   4.567   4.367  0.1197 -0.7289 -0.0123
 1183SOL    HW115008   2.302   4.564   4.374  0.0697  0.7673  0.0773
 1183SOL    HW215009   2.418   4.550   4.275 -3.4384 -0.5879 -0.8161
 1184SOL     OW15010   2.428   0.405   3.053  0.1394 -0.2289  0.2445
 1184SOL    HW115011   2.433   0.310   3.044  2.5014  0.0406 -1.2865
 1184SOL    HW215012   2.485   0.434   2.982  0.5345  0.9986  1.0522
 1185SOL     OW15013   1.725   0.462   5.321  0.3757  0.1374 -0.0664
 1185SOL    HW115014   1.797   0.418   5.276  1.6376  0.7453  1.3622
 1185SOL    HW215015   1.652   0.428   5.270  0.2633  1.0508 -0.5071
 1186SOL     OW15016   1.437   1.681   1.871 -0.3249  0.0210  0.0492
 1186SOL    HW115017   1.507   1.712   1.930 -0.5893  2.0611 -0.7118
 1186SOL    HW215018   1.365   1.670   1.933 -0.0983  0.3227  0.3715
 1187SOL     OW15019   3.127   4.500   4.088  0.7951 -0.2137 -0.4399
 1187SOL    HW115020   3.165   4.458   4.011  1.5208  1.5156 -1.0239
 1187SOL    HW215021   3.060   4.556   4.048  1.2946 -0.0981 -1.1312
 1188SOL     OW15022   2.013   2.031   7.802 -0.4008  0.6568 -0.0526
 1188SOL    HW115023   2.081   2.095   7.779  2.0447 -1.4332  1.3337
 1188SOL    HW215024   1.996   2.034   7.896  2.3634 -1.9878  0.5512
 1189SOL     OW15025   3.319   0.052   8.957 -0.4605 -0.0604  0.1774
 1189SOL    HW115026   3.362   4.694   8.950  0.4973  0.1568  3.5470
 1189SOL    HW215027   3.343   0.081   9.045  0.5481  1.4710 -0.6048
 1190SOL     OW15028   2.560   2.492   6.051 -0.2347  0.1597  0.1633
 1190SOL    HW115029   2.494   2.520   6.114 -0.6660 -0.4368 -0.0254
 1190SOL    HW215030   2.638   2.491   6.108 -0.0343 -2.0881 -0.1591
 1191SOL     OW15031   0.168   3.903   6.507 -0.2980 -0.1407  0.0474
 1191SOL    HW115032   0.160   3.826   6.451 -1.0239  0.2584 -0.3956
 1191SOL    HW215033   0.263   3.917   6.508 -0.2543 -0.5181  1.2197
 1192SOL     OW15034   2.396   0.244   2.622  0.3455 -0.0058  0.0530
 1192SOL    HW115035   2.351   0.221   2.703  0.0723  0.4571  0.0342
 1192SOL    HW215036   2.424   0.156   2.596  0.4464  0.7773 -2.5218
 1193SOL     OW15037   4.193   0.838  13.365 -0.5629  0.4796 -0.2312
 1193SOL    HW115038   4.233   0.908  13.417  3.1575 -1.7227 -0.0825
 1193SOL    HW215039   4.205   0.765  13.426 -0.1248 -0.3994 -1.3641
 1194SOL     OW15040   2.309   2.098   9.183 -0.2446  0.2068 -0.2208
 1194SOL    HW115041   2.272   2.073   9.267  0.5460 -4.1503 -1.1289
 1194SOL    HW215042   2.366   2.021   9.172 -0.4730 -0.6039  4.4089
 1195SOL     OW15043   3.670   3.559   8.088 -0.7097 -0.1770 -0.7727
 1195SOL    HW115044   3.707   3.541   8.174  0.4045  3.0175 -0.5613
 1195SOL    HW215045   3.618   3.633   8.119 -0.1609 -0.1752  0.1281
 1196SOL     OW15046   2.455   0.117   3.033  0.1770 -0.5247  0.7229
 1196SOL    HW115047   2.493   0.052   2.974 -0.1492  1.0224 -1.1953
 1196SOL    HW215048   2.379   0.064   3.056 -0.0047 -0.7419 -0.3918
 1197SOL     OW15049   0.727   3.434   6.714  0.1052  0.5937  0.3711
 1197SOL    HW115050   0.802   3.491   6.698 -0.0450 -0.1944 -2.9765
 1197SOL    HW215051   0.657   3.495   6.690  0.9083  0.8065 -1.3673
 1198SOL     OW15052   3.222   4.680   5.756  0.3063  0.4367  0.0747
 1198SOL    HW115053   3.220   4.594   5.714 -0.9063  0.5833 -0.1778
 1198SOL    HW215054   3.296   4.723   5.713  1.3367 -1.1009  0.3023
 1199SOL     OW15055   1.450   0.745   4.768  0.0723  0.1176  0.2933
 1199SOL    HW115056   1.506   0.746   4.846 -0.9033 -1.1094  1.0214
 1199SOL    HW215057   1.519   0.782   4.712 -0.6203  0.0036 -0.6255
 1200SOL     OW15058   2.869   0.011   6.041 -0.2725 -0.3042 -0.3471
 1200SOL    HW115059   2.864   4.649   6.076  0.4483  0.4660  1.6812
 1200SOL    HW215060   2.960   0.040   6.048 -0.6828  1.8802 -4.0693
 1201SOL     OW15061   1.439   0.827   8.559 -0.4374  0.2207 -0.3317
 1201SOL    HW115062   1.360   0.773   8.565  0.4159 -0.8794  1.2089
 1201SOL    HW215063   1.424   0.874   8.641 -0.8576  0.8470 -0.7697
 1202SOL     OW15064   4.256   2.436  12.359  0.0991 -0.5562 -0.0176
 1202SOL    HW115065   4.237   2.494  12.433  0.4018 -0.6208  0.1115
 1202SOL    HW215066   4.177   2.457  12.310  1.3507  1.3786 -1.1876
 1203SOL     OW15067   2.717   0.176   9.045 -0.1850  0.6973 -0.0310
 1203SOL    HW115068   2.792   0.138   9.001 -2.6223 -2.4327 -1.5351
 1203SOL    HW215069   2.691   0.241   8.979 -0.0428  0.5754 -0.2064
 1204SOL     OW15070   3.966   2.630   3.199 -0.1828  0.0422 -0.0620
 1204SOL    HW115071   3.906   2.704   3.192 -1.2424 -0.7698  0.4396
 1204SOL    HW215072   3.949   2.582   3.119  0.8131 -0.9741  0.3308
 1205SOL     OW15073   2.969   4.626  17.159 -0.3005  0.3219  0.2918
 1205SOL    HW115074   2.897   4.629  17.097 -0.8481 -2.9203  0.7559
 1205SOL    HW215075   2.921   4.592  17.235 -0.9608  2.8917  1.0137
 1206SOL     OW15076   2.106   3.396   6.702  0.1047  0.6032  0.4476
 1206SOL    HW115077   2.110   3.445   6.620  0.6062  1.0407  0.7283
 1206SOL    HW215078   2.055   3.319   6.678 -1.5747  1.1016  2.4808
 1207SOL     OW15079   3.089   0.231  12.976  0.5934  0.1709 -0.4688
 1207SOL    HW115080   3.154   0.189  12.919 -0.4703 -2.0819  0.0032
 1207SOL    HW215081   3.082   0.156  13.034 -2.4979  0.0435 -1.0024
 1208SOL     OW15082   4.081   1.810   1.660  0.4392  0.1654  0.2838
 1208SOL    HW115083   4.024   1.880   1.627  2.1205  1.0421 -0.8160
 1208SOL    HW215084   4.040   1.735   1.616  2.2894 -0.6816 -0.0129
 1209SOL     OW15085   4.036   1.350   7.094 -0.5304  0.5195  0.0692
 1209SOL    HW115086   3.953   1.311   7.120  0.8540 -3.0149 -0.8796
 1209SOL    HW215087   4.025   1.368   7.001  0.7447  1.1532  0.0351
 1210SOL     OW15088   4.027   1.481   4.604  0.0832 -0.6344 -0.4775
 1210SOL    HW115089   4.090   1.523   4.545  0.8971 -0.7742  0.2926
 1210SOL    HW215090   3.958   1.454   4.543  1.0564 -1.8219 -1.0420
 1211SOL     OW15091   0.888   1.132  15.288 -0.1650  0.0897  0.8908
 1211SOL    HW115092   0.915   1.109  15.199 -1.2919 -1.8104  1.0592
 1211SOL    HW215093   0.952   1.201  15.305  0.9064 -0.9430  1.0165
 1212SOL     OW15094   2.248   3.492  11.766  0.5053  0.2506 -0.4102
 1212SOL    HW115095   2.285   3.494  11.678  0.8271  0.5741 -0.2639
 1212SOL    HW215096   2.259   3.399  11.787 -0.8508 -0.0490 -0.9838
 1213SOL     OW15097   4.693   0.715   7.611 -0.1532 -0.3499  0.2262
 1213SOL    HW115098   4.611   0.758   7.587  0.2782 -0.9352 -2.4014
 1213SOL    HW215099   0.036   0.780   7.602  0.0241 -0.6472 -0.6350
 1214SOL     OW15100   4.075   1.570  15.506  0.2393  0.2517  0.1238
 1214SOL    HW115101   4.079   1.486  15.460  0.3645  1.0060 -1.2179
 1214SOL    HW215102   3.987   1.556  15.542 -0.0798  2.7609  0.2734
 1215SOL     OW15103   3.113   2.137  17.062  0.4449 -0.1365  0.2294
 1215SOL    HW115104   3.180   2.133  16.994 -0.6600 -1.4475 -0.8063
 1215SOL    HW215105   3.157   2.129  17.147  2.4586 -0.6882 -0.8728
 1216SOL     OW15106   4.127   4.485   4.851 -0.0245  0.2548 -0.1041
 1216SOL    HW115107   4.156   4.561   4.802  0.0557 -0.1307 -0.6559
 1216SOL    HW215108   4.035   4.506   4.871  0.7840  1.8007  2.0103
 1217SOL     OW15109   3.703   2.257  17.690 -0.7748 -0.1007  0.9161
 1217SOL    HW115110   3.622   2.223   0.019 -2.2808  0.7478 -1.5562
 1217SOL    HW215111   3.775   2.211   0.024 -0.3871 -0.2931  0.0517
 1218SOL     OW15112   2.402   3.748   6.656  0.0659  0.5566 -0.3318
 1218SOL    HW115113   2.375   3.684   6.722  1.0306  1.3062  0.7809
 1218SOL    HW215114   2.388   3.693   6.578  1.1521 -0.9766  0.5602
 1219SOL     OW15115   4.452   1.361   1.624 -0.7796  0.0835 -0.0047
 1219SOL    HW115116   4.494   1.429   1.677  0.2140 -1.6305  1.3887
 1219SOL    HW215117   4.448   1.296   1.695  1.4682  1.3358  1.2757
 1220SOL     OW15118   0.384   2.690   5.284  0.1142 -0.2868  0.5015
 1220SOL    HW115119   0.450   2.621   5.288 -0.3500 -0.6781  1.2007
 1220SOL    HW215120   0.439   2.758   5.244  0.0096  0.3223  1.3903
 1221SOL     OW15121   2.398   1.767   3.412  0.2835 -0.6289 -0.3437
 1221SOL    HW115122   2.453   1.692   3.437 -0.6253 -0.7393  1.3034
 1221SOL    HW215123   2.459   1.840   3.414  0.4552 -0.7819  0.0270
 1222SOL     OW15124   3.778   1.193  13.992  0.1139 -0.2979  0.2614
 1222SOL    HW115125   3.859   1.146  14.010  0.6595 -0.0085 -1.5134
 1222SOL    HW215126   3.769   1.206  13.898  1.5342  1.4987  0.3789
 1223SOL     OW15127   0.973   0.088   0.466 -0.0257 -0.2115 -0.4185
 1223SOL    HW115128   0.888   0.122   0.437 -0.0025 -1.2323 -1.6576
 1223SOL    HW215129   0.954   0.082   0.560 -1.9024 -2.0849 -0.9191
 1224SOL     OW15130   2.772   0.890   6.587 -0.1275  0.4325 -0.1502
 1224SOL    HW115131   2.699   0.835   6.615  2.2713 -1.7177  1.8961
 1224SOL    HW215132   2.755   0.882   6.493  1.3463 -0.5028 -0.3434
 1225SOL     OW15133   3.440   0.644   2.288 -0.3802  0.0366  0.1614
 1225SOL    HW115134   3.452   0.715   2.224 -1.1755 -0.6680 -0.7775
 1225SOL    HW215135   3.345   0.632   2.279 -0.1845 -0.5924 -1.1237
 1226SOL     OW15136   4.695   2.854   8.953 -0.1208 -0.1536  0.5241
 1226SOL    HW115137   4.726   2.882   8.867  1.5194 -0.5195  0.9987
 1226SOL    HW215138   0.050   2.818   8.987 -1.0443 -1.7200  1.1249
 1227SOL     OW15139   3.225   3.889   5.825  0.2520  0.4179 -0.1421
 1227SOL    HW115140   3.202   3.862   5.914  0.4013 -1.6079 -0.7091
 1227SOL    HW215141   3.254   3.980   5.829  1.0949  0.1884 -1.2578
 1228SOL     OW15142   1.818   3.278   3.349 -0.1617  0.1946  0.3279
 1228SOL    HW115143   1.855   3.230   3.275 -1.8781 -1.7481  0.7219
 1228SOL    HW215144   1.896   3.284   3.404  0.3855 -1.2169 -0.3060
 1229SOL     OW15145   4.329   0.103   2.218 -0.6604  0.0539  0.3857
 1229SOL    HW115146   4.306   0.025   2.269 -1.6728 -0.4160 -0.8019
 1229SOL    HW215147   4.289   0.079   2.135  2.3549  0.6181 -1.2295
 1230SOL     OW15148   4.478   4.353   1.459 -0.4328 -0.2607  0.7229
 1230SOL    HW115149   4.385   4.353   1.480 -0.4472 -0.8087  0.6683
 1230SOL    HW215150   4.509   4.427   1.510 -1.9012  0.2679  0.8332
 1231SOL     OW15151   0.168   0.689   9.961  0.1922  0.3701  0.4190
 1231SOL    HW115152   0.104   0.741   9.913  1.6228  1.6851 -0.0653
 1231SOL    HW215153   0.241   0.675   9.900 -0.2261  1.8722 -0.4080
 1232SOL     OW15154   2.109   0.510  16.513  0.2412 -0.1133  0.5867
 1232SOL    HW115155   2.021   0.548  16.514 -0.1235 -0.9205 -2.3036
 1232SOL    HW215156   2.105   0.451  16.437  2.9706 -2.2455  2.1047
 1233SOL     OW15157   1.987   2.443   2.610 -0.5393 -0.0889 -0.1458
 1233SOL    HW115158   1.950   2.516   2.561  3.9538  2.9314  0.9381
 1233SOL    HW215159   2.032   2.393   2.542 -2.1237  0.5196 -1.6339
 1234SOL     OW15160   1.287   0.516  13.081  0.1288 -0.1045 -0.0912
 1234SOL    HW115161   1.234   0.473  13.014 -1.4213  0.9688  0.4331
 1234SOL    HW215162   1.249   0.473  13.158 -2.0237 -0.4629 -1.3622
 1235SOL     OW15163   3.386   2.805   7.486  0.0437 -0.8182 -0.3102
 1235SOL    HW115164   3.419   2.733   7.432  1.3714  2.1226 -3.4199
 1235SOL    HW215165   3.403   2.873   7.421 -1.7099 -0.4061 -0.3402
 1236SOL     OW15166   4.246   2.132   7.804  0.2580 -0.1754  0.3367
 1236SOL    HW115167   4.297   2.146   7.725  2.0465 -2.0015  1.1537
 1236SOL    HW215168   4.156   2.107   7.788  0.0100 -0.1410  1.6496
 1237SOL     OW15169   3.596   0.023   3.655 -0.2460  0.4371  0.4084
 1237SOL    HW115170   3.603   4.690   3.581  0.1664 -0.9980  1.6038
 1237SOL    HW215171   3.689   0.032   3.676  0.0020 -2.4362  0.5229
 1238SOL     OW15172   2.141   4.497  13.530  0.6483 -0.3812  0.0374
 1238SOL    HW115173   2.127   4.454  13.614  1.9590  1.8150  1.3935
 1238SOL    HW215174   2.136   4.418  13.477 -0.3629 -0.1144 -0.2625
 1239SOL     OW15175   4.638   2.599   3.374 -0.2414  0.2129 -0.1951
 1239SOL    HW115176   4.722   2.644   3.368 -0.4148 -0.2633 -5.6807
 1239SOL    HW215177   4.656   2.512   3.340  0.9000  0.3383  0.1007
 1240SOL     OW15178   1.207   2.634  12.609 -0.2872 -0.2801 -0.0443
 1240SOL    HW115179   1.282   2.574  12.616 -0.5104 -0.4448  0.9200
 1240SOL    HW215180   1.134   2.598  12.659  0.3459  0.2866  1.2829
 1241SOL     OW15181   3.197   3.832  11.106 -0.4378  0.5083  0.5446
 1241SOL    HW115182   3.102   3.822  11.092 -0.4225  1.7121 -0.4164
 1241SOL    HW215183   3.222   3.917  11.070  0.8785 -0.1917 -0.1939
 1242SOL     OW15184   3.259   2.898  14.044 -0.4344  0.1846 -0.1532
 1242SOL    HW115185   3.253   2.918  13.951 -1.0317  3.5545  0.5925
 1242SOL    HW215186   3.264   2.803  14.058 -5.2712 -0.2522 -1.4900
 1243SOL     OW15187   2.799   3.985  16.917 -0.6015  0.2855 -0.3137
 1243SOL    HW115188   2.814   4.001  16.823  1.2221  1.3003  0.1440
 1243SOL    HW215189   2.872   4.037  16.952 -0.3536  0.4627 -1.0963
 1244SOL     OW15190   3.859   0.933   3.363 -0.1296  0.1943 -0.3654
 1244SOL    HW115191   3.823   0.844   3.358 -2.3134  1.0125  0.9562
 1244SOL    HW215192   3.850   0.948   3.457 -0.7016  0.0698 -0.4021
 1245SOL     OW15193   1.383   0.325   5.768 -0.0408  0.2459  0.0103
 1245SOL    HW115194   1.408   0.285   5.852 -2.4673 -2.7467 -0.7078
 1245SOL    HW215195   1.439   0.403   5.763 -1.2983  1.2176  1.2783
 1246SOL     OW15196   0.374   3.640   3.029 -0.1982  0.1306 -0.4938
 1246SOL    HW115197   0.319   3.564   3.050 -1.5125  0.4157 -2.8989
 1246SOL    HW215198   0.319   3.677   2.960 -0.4763  0.1603 -0.2520
 1247SOL     OW15199   1.231   0.577  13.925  0.0284  0.0539  0.2951
 1247SOL    HW115200   1.211   0.579  14.019  1.1866 -1.2918  0.5779
 1247SOL    HW215201   1.172   0.640  13.884 -0.1800 -1.9616 -2.4942
 1248SOL     OW15202   0.030   3.851   9.252 -0.0236  0.2175 -0.3751
 1248SOL    HW115203   4.727   3.940   9.269 -0.4459  0.3452 -1.8220
 1248SOL    HW215204   0.099   3.846   9.185 -1.7565  0.9519 -2.2201
 1249SOL     OW15205   2.732   1.581   7.728  0.0962 -0.0438  0.1290
 1249SOL    HW115206   2.686   1.571   7.811 -0.5733  1.2542 -0.0883
 1249SOL    HW215207   2.747   1.675   7.730  0.1159 -0.0207 -1.1715
 1250SOL     OW15208   3.846   0.829   3.629  0.3365  0.3197 -0.1957
 1250SOL    HW115209   3.930   0.805   3.668  0.3245  2.0534  0.8753
 1250SOL    HW215210   3.793   0.823   3.708 -0.7079 -3.3797 -1.1544
 1251SOL     OW15211   2.991   0.460  11.172 -0.0159  0.0644 -0.0702
 1251SOL    HW115212   2.927   0.442  11.240  0.1075  0.8382  0.2564
 1251SOL    HW215213   3.039   0.377  11.172 -1.7357 -0.9165 -0.8700
 1252SOL     OW15214   0.047   3.567   8.701 -0.0440 -0.4538 -0.2386
 1252SOL    HW115215   4.689   3.573   8.744 -0.4270  0.2698 -1.0771
 1252SOL    HW215216   0.100   3.611   8.768 -0.7996  0.0741  0.0123
 1253SOL     OW15217   3.883   1.049  16.670 -0.2073 -0.2366  0.0849
 1253SOL    HW115218   3.856   1.140  16.681  0.8358  0.1268 -0.3184
 1253SOL    HW215219   3.976   1.058  16.691  0.3438 -0.0967 -2.3730
 1254SOL     OW15220   3.290   3.098   8.692 -0.6711  0.0902 -0.6134
 1254SOL    HW115221   3.196   3.096   8.674 -0.7166 -0.8873 -0.2405
 1254SOL    HW215222   3.297   3.070   8.783 -2.0905  2.1466  0.1441
 1255SOL     OW15223   2.510   2.106  15.867  0.1622  0.1180  0.8168
 1255SOL    HW115224   2.443   2.155  15.915  0.6540  1.4669  0.1217
 1255SOL    HW215225   2.522   2.166  15.793  1.1731 -0.7225  0.2977
 1256SOL     OW15226   2.510   1.434   6.654 -0.0876 -0.0595  0.5381
 1256SOL    HW115227   2.564   1.511   6.635 -1.9342  1.3756  1.0650
 1256SOL    HW215228   2.533   1.395   6.570 -0.9190  0.3595  0.1121
 1257SOL     OW15229   4.611   1.192   6.190  0.3329 -0.3623  0.2689
 1257SOL    HW115230   4.640   1.115   6.240 -0.5269 -0.8921 -0.0575
 1257SOL    HW215231   4.599   1.143   6.110 -0.8344  2.5809 -1.3607
 1258SOL     OW15232   4.224   0.789  14.973 -0.1633 -0.2953 -0.3131
 1258SOL    HW115233   4.154   0.806  14.911  0.2163  1.0787 -0.3567
 1258SOL    HW215234   4.182   0.718  15.022 -0.1191 -1.2267 -1.6208
 1259SOL     OW15235   3.906   1.944  17.582  0.2842 -0.2395  0.3305
 1259SOL    HW115236   3.935   1.883  17.514  0.5821 -0.4226  0.6245
 1259SOL    HW215237   3.894   2.027  17.535  1.4348 -0.0922  0.2994
 1260SOL     OW15238   4.291   0.954  15.852 -0.3085 -0.2632  0.0780
 1260SOL    HW115239   4.302   1.049  15.856  0.8145 -0.3632 -0.5753
 1260SOL    HW215240   4.361   0.930  15.914 -0.5128  0.3802  0.5547
 1261SOL     OW15241   3.785   0.758   8.020 -0.1410 -0.7171  0.2216
 1261SOL    HW115242   3.830   0.719   8.095 -0.1267  0.4915  0.8457
 1261SOL    HW215243   3.749   0.679   7.980  0.8323 -1.4554  0.8201
 1262SOL     OW15244   2.958   0.131   3.611  0.0775  0.4569  0.1097
 1262SOL    HW115245   2.981   0.105   3.522  1.4613  1.4891  0.1742
 1262SOL    HW215246   2.928   0.046   3.644  0.7416  0.0125 -0.4423
 1263SOL     OW15247   4.709   4.141  14.172  0.2491 -0.4464  0.0707
 1263SOL    HW115248   4.700   4.105  14.261  0.7822 -0.7263  0.0095
 1263SOL    HW215249   0.063   4.192  14.179  2.3055 -3.3879 -2.3638
 1264SOL     OW15250   0.988   2.429   6.607  0.2512 -0.2553 -0.1732
 1264SOL    HW115251   1.027   2.498   6.553  0.5958 -0.8135 -0.6377
 1264SOL    HW215252   1.033   2.437   6.690  2.6157  2.9524 -1.7762
 1265SOL     OW15253   0.253   4.192   0.189  0.3415  0.2328  0.1691
 1265SOL    HW115254   0.183   4.131   0.211  1.2330 -0.7301  0.3030
 1265SOL    HW215255   0.207   4.276   0.200  1.0541  0.5836  0.5158
 1266SOL     OW15256   0.488   0.572   6.098 -0.0671  0.5248  0.2507
 1266SOL    HW115257   0.476   0.498   6.158 -1.5969  0.8977  0.3952
 1266SOL    HW215258   0.456   0.540   6.014  2.0856 -1.5352  0.2050
 1267SOL     OW15259   2.470   0.766   1.925 -0.0485 -0.3214 -0.0877
 1267SOL    HW115260   2.424   0.843   1.892  0.0517 -2.2133 -4.7034
 1267SOL    HW215261   2.504   0.800   2.007  1.8963  0.0454 -1.0518
 1268SOL     OW15262   2.164   3.161   5.838  0.0793  0.1811  0.6943
 1268SOL    HW115263   2.252   3.152   5.800  0.4083  2.4531  0.9660
 1268SOL    HW215264   2.117   3.081   5.814  1.6634 -1.0430  1.6721
 1269SOL     OW15265   0.164   3.777  14.394  0.6773  0.2210  0.3215
 1269SOL    HW115266   0.146   3.709  14.329 -0.7614  1.8093 -0.9251
 1269SOL    HW215267   0.194   3.731  14.473 -0.2759 -1.9001 -0.5243
 1270SOL     OW15268   1.547   3.576  11.319  0.7941  0.0766  0.0356
 1270SOL    HW115269   1.569   3.516  11.390 -1.6786  1.7467  2.2347
 1270SOL    HW215270   1.481   3.626  11.367 -0.5840 -1.6628 -0.0661
 1271SOL     OW15271   1.313   3.425   5.575  0.2506  0.0774 -0.0713
 1271SOL    HW115272   1.345   3.459   5.491  0.0297  2.1506  0.6766
 1271SOL    HW215273   1.395   3.425   5.624  0.9993  1.1857 -1.3390
 1272SOL     OW15274   1.181   3.179   3.130  0.2557  0.0502  0.3242
 1272SOL    HW115275   1.239   3.150   3.200  0.3468 -1.0268 -0.1932
 1272SOL    HW215276   1.110   3.115   3.134 -0.0423  0.3132 -0.7124
 1273SOL     OW15277   1.014   1.945  17.706  1.1244 -0.0892  0.3385
 1273SOL    HW115278   0.976   2.032   0.006 -0.1406 -0.5941 -0.0430
 1273SOL    HW215279   1.108   1.954   0.012  1.1915 -2.5832  1.4205
 1274SOL     OW15280   0.029   3.693   2.024  0.2444 -0.1302 -0.0519
 1274SOL    HW115281   4.683   3.753   2.008 -2.7071 -3.1778  1.8172
 1274SOL    HW215282   0.095   3.748   1.983 -0.4573  1.1388  0.5257
 1275SOL     OW15283   1.288   1.020   4.714 -0.0613 -0.4319 -0.4880
 1275SOL    HW115284   1.352   0.968   4.762  0.1630  2.3988  2.2679
 1275SOL    HW215285   1.298   0.985   4.626 -0.2913 -0.3311 -0.5539
 1276SOL     OW15286   2.115   0.152  17.513 -0.2823 -0.6541 -0.2308
 1276SOL    HW115287   2.091   0.059  17.514 -1.9063 -0.2270  1.0750
 1276SOL    HW215288   2.033   0.189  17.481 -0.1147  1.5221  1.8546
 1277SOL     OW15289   3.424   1.351   4.214 -0.3325  0.3049  0.2959
 1277SOL    HW115290   3.472   1.353   4.131 -0.0058  1.2511  0.5104
 1277SOL    HW215291   3.360   1.422   4.203  1.2563  1.5947 -0.5723
 1278SOL     OW15292   4.634   0.788   3.398  0.0007  0.4191 -0.1754
 1278SOL    HW115293   4.640   0.824   3.309 -0.6468  1.5735  0.2447
 1278SOL    HW215294   4.718   0.818   3.431 -0.8554  0.7836  1.6820
 1279SOL     OW15295   0.266   0.799  16.036 -0.3129  0.2726  0.7745
 1279SOL    HW115296   0.260   0.894  16.050  0.0158  0.2790  0.8559
 1279SOL    HW215297   0.360   0.795  16.051 -0.5436  0.8089  2.3309
 1280SOL     OW15298   1.006   3.559   8.173 -0.4331 -0.2292  0.4476
 1280SOL    HW115299   0.961   3.601   8.246  1.3575  0.8153  0.9192
 1280SOL    HW215300   0.934   3.583   8.115  0.2513  1.4828  0.3109
 1281SOL     OW15301   4.058   3.371  16.613 -0.0892 -0.2878  0.0439
 1281SOL    HW115302   4.025   3.304  16.553  0.4071 -0.9101  0.4650
 1281SOL    HW215303   4.123   3.315  16.655  0.6159 -0.6334 -1.5231
 1282SOL     OW15304   2.297   3.889   8.971 -0.3953 -0.2513  0.1514
 1282SOL    HW115305   2.291   3.887   9.066 -2.7048  2.4983  0.0737
 1282SOL    HW215306   2.271   3.799   8.953 -0.5788 -0.0861 -0.4091
 1283SOL     OW15307   0.404   0.225   5.214 -0.1717  0.0073  0.0412
 1283SOL    HW115308   0.433   0.316   5.209  1.2108 -0.5330 -1.7818
 1283SOL    HW215309   0.366   0.212   5.127  1.5010  0.9382 -0.8366
 1284SOL     OW15310   3.100   4.042  11.785  0.1398 -0.4222  0.5664
 1284SOL    HW115311   3.101   4.009  11.875 -0.2671  0.4101  0.8766
 1284SOL    HW215312   3.193   4.062  11.782 -0.2542  1.4826  1.1292
 1285SOL     OW15313   0.678   4.504   7.237  1.1035  0.0829  0.1314
 1285SOL    HW115314   0.603   4.475   7.288  2.0112 -0.7548  0.9974
 1285SOL    HW215315   0.650   4.487   7.147 -1.7175  0.4938  0.9536
 1286SOL     OW15316   1.987   3.223   8.370 -0.2118 -0.1705  0.3032
 1286SOL    HW115317   2.071   3.179   8.382  0.0797  0.2537 -0.2104
 1286SOL    HW215318   2.009   3.298   8.425 -4.7811  2.2774 -1.2021
 1287SOL     OW15319   3.470   4.091   3.461  0.0446  0.4270  0.0068
 1287SOL    HW115320   3.404   4.028   3.433  0.3563  0.0227  0.1743
 1287SOL    HW215321   3.521   4.045   3.529  2.4661  3.5716  0.3120
 1288SOL     OW15322   0.217   1.549   0.564  0.0280  0.0414 -0.6265
 1288SOL    HW115323   0.309   1.573   0.556 -0.2213  0.2913 -2.8255
 1288SOL    HW215324   0.217   1.487   0.637  1.8597  1.8963  0.9574
 1289SOL     OW15325   0.466   0.359   6.264  0.3983  0.8395 -0.1319
 1289SOL    HW115326   0.486   0.285   6.208 -2.0544 -0.2605  0.4347
 1289SOL    HW215327   0.403   0.312   6.319  0.5488  0.3881 -0.3498
 1290SOL     OW15328   1.085   0.929   6.463  0.5528  0.2007  0.3780
 1290SOL    HW115329   1.155   0.921   6.398  0.3121 -1.7455  0.3484
 1290SOL    HW215330   1.001   0.929   6.417 -0.5042  2.9962  2.3299
 1291SOL     OW15331   2.657   0.228  14.175 -0.6923  0.2316  0.7639
 1291SOL    HW115332   2.663   0.204  14.083  0.1056  1.9016  0.3747
 1291SOL    HW215333   2.732   0.185  14.217 -0.3278 -0.6171 -0.7331
 1292SOL     OW15334   4.544   4.370   5.792 -0.3914  0.3847  0.5054
 1292SOL    HW115335   4.618   4.400   5.740 -0.2922  1.4329  1.2603
 1292SOL    HW215336   4.520   4.446   5.845  2.1666  0.3508  1.6994
 1293SOL     OW15337   0.124   1.933   7.819  0.2146 -0.7245 -0.0218
 1293SOL    HW115338   0.118   1.883   7.737  1.7511 -0.2588 -0.4205
 1293SOL    HW215339   0.133   2.026   7.801  2.9589 -0.9766 -0.0121
 1294SOL     OW15340   4.674   1.039   5.202  0.4036 -0.0175 -0.1345
 1294SOL    HW115341   4.659   1.133   5.213 -0.7368 -0.0553 -1.3586
 1294SOL    HW215342   4.629   1.008   5.281  0.4389  0.3949  0.0487
 1295SOL     OW15343   3.209   2.788  16.721 -0.4498  0.0633 -0.3046
 1295SOL    HW115344   3.142   2.799  16.789 -1.5005  0.3815 -1.3815
 1295SOL    HW215345   3.150   2.788  16.646 -1.0119 -3.2864  0.1547
 1296SOL     OW15346   4.389   3.881  12.542  0.3401 -0.6584 -0.1702
 1296SOL    HW115347   4.398   3.864  12.636  0.0074 -1.4676 -0.2913
 1296SOL    HW215348   4.471   3.852  12.503  0.8763 -2.0556  1.9883
 1297SOL     OW15349   3.569   0.590   6.147  0.6497 -0.9518  0.2201
 1297SOL    HW115350   3.606   0.672   6.114  1.6343 -2.1888 -1.7442
 1297SOL    HW215351   3.560   0.538   6.068 -2.9195 -1.2729  0.8598
 1298SOL     OW15352   1.457   1.464   2.661  0.0725  0.0468 -0.7109
 1298SOL    HW115353   1.413   1.423   2.586 -0.0944 -0.7210 -0.1916
 1298SOL    HW215354   1.504   1.539   2.623  0.0909  0.2221 -0.3468
 1299SOL     OW15355   0.040   0.464   4.767  0.4210  0.1497  0.1727
 1299SOL    HW115356   0.021   0.495   4.855  2.9892  0.4459  0.6130
 1299SOL    HW215357   4.706   0.517   4.716 -0.1687 -2.7333 -2.1205
 1300SOL     OW15358   0.061   0.837   3.757 -0.0604  0.1961 -0.1464
 1300SOL    HW115359   0.132   0.778   3.785  1.8404  0.8009 -3.6942
 1300SOL    HW215360   0.093   0.924   3.781  1.1870  0.0331 -1.2044
 1301SOL     OW15361   0.909   2.287   5.187  0.0353 -0.2037  0.3905
 1301SOL    HW115362   0.900   2.360   5.127 -0.1124 -0.2033  0.4125
 1301SOL    HW215363   0.973   2.321   5.249  1.2152 -1.1052 -0.3495
 1302SOL     OW15364   1.172   1.111   0.061  0.1484 -0.5405  0.1381
 1302SOL    HW115365   1.160   1.082   0.151 -0.2647  2.0530  0.9103
 1302SOL    HW215366   1.140   1.038   0.007  2.2647 -1.6541  0.3795
 1303SOL     OW15367   2.475   1.454   6.061  0.1687 -0.1267  0.3507
 1303SOL    HW115368   2.398   1.442   6.004  0.9195 -4.2967  0.2712
 1303SOL    HW215369   2.442   1.392   6.125 -2.0531  0.2104 -0.4406
 1304SOL     OW15370   4.525   2.116   1.920  0.0184 -0.4265 -0.1732
 1304SOL    HW115371   4.443   2.066   1.919 -0.1999 -0.0547 -0.5408
 1304SOL    HW215372   4.584   2.058   1.969  0.1314  0.5042  0.7903
 1305SOL     OW15373   3.973   0.255   1.166  0.2219  0.2414 -0.0913
 1305SOL    HW115374   3.916   0.328   1.142 -0.1399  0.4965  1.6039
 1305SOL    HW215375   3.930   0.172   1.146 -1.4770  1.0733  0.1269
 1306SOL     OW15376   3.634   3.242  12.286  0.3206 -0.8090 -0.3704
 1306SOL    HW115377   3.664   3.155  12.313 -1.1540 -0.7777  1.3582
 1306SOL    HW215378   3.718   3.287  12.272  0.3129 -1.3148 -1.9926
 1307SOL     OW15379   1.447   4.366   2.502 -0.6656 -0.4560  0.6436
 1307SOL    HW115380   1.479   4.450   2.537 -1.6552  0.1121  0.1762
 1307SOL    HW215381   1.450   4.322   2.587  2.3678  0.1365  0.8666
 1308SOL     OW15382   4.126   1.159  16.733  0.4518 -0.0247  0.4046
 1308SOL    HW115383   4.200   1.217  16.753  1.9120 -1.6677 -0.2478
 1308SOL    HW215384   4.153   1.130  16.646  0.9443 -0.9025  0.8444
 1309SOL     OW15385   4.111   0.123  11.186  0.4650  0.1302 -0.2847
 1309SOL    HW115386   4.132   0.197  11.130  2.0219  0.9507  1.4008
 1309SOL    HW215387   4.026   0.090  11.157 -0.2321  0.6064  1.2565
 1310SOL     OW15388   4.702   3.361   2.667  0.1761  0.7536  0.0483
 1310SOL    HW115389   4.641   3.406   2.608 -1.7124 -1.5788  0.2169
 1310SOL    HW215390   4.660   3.361   2.753 -0.5499 -0.5893 -0.3111
 1311SOL     OW15391   4.232   2.337   6.067 -0.2109  0.7786 -0.2283
 1311SOL    HW115392   4.190   2.330   6.153 -0.2914 -0.2750 -0.3544
 1311SOL    HW215393   4.219   2.430   6.052  1.0336  0.9986  0.0945
 1312SOL     OW15394   2.342   4.682   0.173 -0.3031  0.3905  0.2261
 1312SOL    HW115395   2.256   4.722   0.190 -0.5768 -0.7138  1.4782
 1312SOL    HW215396   2.346   4.715   0.084  2.0667 -2.2705 -0.6389
 1313SOL     OW15397   3.007   1.795   4.163 -0.0552 -0.1665  0.1829
 1313SOL    HW115398   3.008   1.717   4.107 -1.7682 -0.7438  0.9610
 1313SOL    HW215399   2.940   1.842   4.113  1.1144  0.8591 -0.4190
 1314SOL     OW15400   0.224   1.328   3.908  0.4168 -0.5986 -0.0809
 1314SOL    HW115401   0.217   1.419   3.881  0.5987 -0.2918  0.8938
 1314SOL    HW215402   0.319   1.333   3.919  0.3839 -0.9963  0.3924
 1315SOL     OW15403   3.790   3.262  16.868  0.0272  0.6352  0.2378
 1315SOL    HW115404   3.751   3.210  16.798  1.4685 -2.2699  1.5880
 1315SOL    HW215405   3.880   3.233  16.856 -0.8927 -1.9782 -0.4529
 1316SOL     OW15406   4.171   1.680   4.128 -0.2568 -0.2894 -0.0316
 1316SOL    HW115407   4.150   1.773   4.127  0.6793 -0.0562  1.9012
 1316SOL    HW215408   4.201   1.659   4.039 -0.4408  0.8430 -0.3622
 1317SOL     OW15409   4.129   4.688   3.251 -0.4017 -0.3745  0.0904
 1317SOL    HW115410   4.191   4.674   3.322  0.7372  0.6419 -0.6983
 1317SOL    HW215411   4.070   4.616   3.273  0.3987 -1.2477 -0.6266
 1318SOL     OW15412   4.517   0.194   5.970 -0.3268 -0.0584 -0.3499
 1318SOL    HW115413   4.556   0.114   6.005  0.9532  0.8362  0.2834
 1318SOL    HW215414   4.580   0.218   5.902  0.2207  0.4222  0.3236
 1319SOL     OW15415   1.038   2.883   2.107 -0.0582 -0.4934 -0.2303
 1319SOL    HW115416   1.096   2.899   2.033  1.4904  1.8965  1.5227
 1319SOL    HW215417   1.101   2.892   2.178 -2.2783  1.4800  1.4696
 1320SOL     OW15418   3.690   0.345  10.323  0.3966 -0.5106 -0.0959
 1320SOL    HW115419   3.733   0.308  10.245  0.5615  0.9969 -0.7244
 1320SOL    HW215420   3.603   0.367  10.290  0.7403  0.3680 -0.4060
 1321SOL     OW15421   2.539   2.265   9.223  0.0839  0.6787 -0.6584
 1321SOL    HW115422   2.478   2.338   9.239 -0.3642 -0.0400  0.9329
 1321SOL    HW215423   2.482   2.189   9.232  2.0822 -0.6582  0.8316
 1322SOL     OW15424   1.237   4.537   3.111  0.3484 -0.3926  0.6152
 1322SOL    HW115425   1.170   4.476   3.142  1.3663 -1.9333 -0.2526
 1322SOL    HW215426   1.222   4.618   3.161  1.4863  0.7602 -0.8912
 1323SOL     OW15427   3.933   4.307   0.114  0.5016 -0.4974 -0.2035
 1323SOL    HW115428   3.967   4.360   0.186  0.4895  0.7469 -1.1179
 1323SOL    HW215429   3.838   4.318   0.121  0.6316 -1.3510  3.4013
 1324SOL     OW15430   4.028   0.705   4.427  0.1281 -0.4652  0.8294
 1324SOL    HW115431   4.111   0.695   4.380  0.9851  2.1814  1.7481
 1324SOL    HW215432   3.973   0.639   4.386 -0.4730 -0.0666  1.0005
 1325SOL     OW15433   2.172   0.236   0.861 -0.5477 -0.2994  0.6937
 1325SOL    HW115434   2.095   0.212   0.810 -2.0648  0.8340  2.4650
 1325SOL    HW215435   2.147   0.225   0.953  1.2969 -0.2621  1.1991
 1326SOL     OW15436   4.233   1.589   5.750  0.0109 -0.7714 -0.0255
 1326SOL    HW115437   4.196   1.558   5.668  0.0242 -0.5850 -0.1027
 1326SOL    HW215438   4.155   1.614   5.798  0.7817 -1.1815  1.4606
 1327SOL     OW15439   2.135   4.381   3.290 -0.5519 -0.0204  0.0289
 1327SOL    HW115440   2.052   4.416   3.256 -0.1119  0.3770 -0.6452
 1327SOL    HW215441   2.100   4.295   3.311 -0.7767 -0.1364 -0.8388
 1328SOL     OW15442   2.170   1.126   1.832 -0.1699 -0.3391  0.1346
 1328SOL    HW115443   2.171   1.221   1.847 -2.3236  0.1740 -2.9448
 1328SOL    HW215444   2.150   1.125   1.738 -0.4061  0.3513  0.1769
 1329SOL     OW15445   4.522   3.899   6.070 -0.3194  0.2805  0.6541
 1329SOL    HW115446   4.608   3.861   6.050 -0.5542  0.2617 -0.3483
 1329SOL    HW215447   4.546   3.990   6.056  0.0288  0.4165  2.2102
 1330SOL     OW15448   4.662   1.729  14.859  0.2390 -0.1994 -0.4827
 1330SOL    HW115449   4.573   1.695  14.857  0.8856 -1.9375  0.7609
 1330SOL    HW215450   4.648   1.798  14.794 -1.2429  0.9491  1.0660
 1331SOL     OW15451   4.467   0.021   8.431  0.4028 -0.4778  0.5398
 1331SOL    HW115452   4.486   4.709   8.516  0.2467  0.0157  0.7976
 1331SOL    HW215453   4.397   0.081   8.456 -0.8419 -1.4837 -0.4397
 1332SOL     OW15454   4.161   0.892  15.262 -0.0699  0.0356 -0.1780
 1332SOL    HW115455   4.112   0.836  15.203  0.2329  1.0558 -1.3954
 1332SOL    HW215456   4.227   0.832  15.297 -0.5800 -0.5204 -0.1686
 1333SOL     OW15457   3.248   4.551   2.265 -0.1631  0.5044  0.3414
 1333SOL    HW115458   3.169   4.499   2.245  1.6562 -1.7685 -0.9342
 1333SOL    HW215459   3.313   4.482   2.269 -2.1004 -1.3872 -0.4742
 1334SOL     OW15460   1.704   4.676   9.798 -0.1149  0.2438 -0.6189
 1334SOL    HW115461   1.673   0.033   9.765 -1.1080  0.6737  1.3715
 1334SOL    HW215462   1.798   4.688   9.804 -0.2436  1.8265 -1.7082
 1335SOL     OW15463   3.172   0.614   3.704  0.4154 -0.0642 -0.2686
 1335SOL    HW115464   3.182   0.532   3.656 -1.2646 -1.1141  1.2071
 1335SOL    HW215465   3.115   0.664   3.646  1.0631  0.4620 -0.4633
 1336SOL     OW15466   4.182   3.940   4.734 -0.7528 -0.4887 -0.3173
 1336SOL    HW115467   4.248   3.995   4.776 -0.9937 -1.0074  0.7379
 1336SOL    HW215468   4.240   3.875   4.695  0.6792  0.9709 -0.6527
 1337SOL     OW15469   1.222   1.082   7.223  0.1647  0.1953  0.4818
 1337SOL    HW115470   1.137   1.124   7.211  0.2551  0.1991 -0.1451
 1337SOL    HW215471   1.209   1.052   7.313 -0.5920 -0.4588  0.1570
 1338SOL     OW15472   4.490   1.443  11.943 -0.3768  0.2948  0.3880
 1338SOL    HW115473   4.510   1.536  11.955  2.0809 -0.1666 -0.1439
 1338SOL    HW215474   4.496   1.435  11.848 -1.4036 -3.0282  0.6295
 1339SOL     OW15475   2.866   3.525   4.626  0.2552  0.1333  0.7136
 1339SOL    HW115476   2.928   3.582   4.580  0.0900  0.1573  0.5201
 1339SOL    HW215477   2.913   3.444   4.642 -0.8668 -0.6026  0.2703
 1340SOL     OW15478   1.350   2.449   0.081 -0.2214  0.3377  0.0090
 1340SOL    HW115479   1.432   2.497   0.092  0.4810 -0.5380 -1.3613
 1340SOL    HW215480   1.280   2.511   0.102 -0.3827 -0.1400  0.8703
 1341SOL     OW15481   1.073   3.785   5.077 -0.4678 -0.3295  0.0336
 1341SOL    HW115482   1.005   3.727   5.111 -0.3748  0.8110  2.1628
 1341SOL    HW215483   1.140   3.759   5.140  0.4794  1.8223 -0.0673
 1342SOL     OW15484   1.062   2.203  16.634 -0.5511 -0.2474  0.8440
 1342SOL    HW115485   1.077   2.244  16.549 -2.5129  0.8122  1.0014
 1342SOL    HW215486   1.144   2.157  16.651 -0.4756  0.1807  1.6376
 1343SOL     OW15487   1.403   0.095   7.848 -0.2254  0.5462 -0.3302
 1343SOL    HW115488   1.379   0.182   7.881 -0.5073  1.4302 -2.8498
 1343SOL    HW215489   1.356   0.088   7.765 -1.0504 -0.7213  0.2450
 1344SOL     OW15490   0.455   3.621  16.556  0.4314 -0.1732 -0.1222
 1344SOL    HW115491   0.524   3.650  16.496 -0.4919 -1.6577 -1.9450
 1344SOL    HW215492   0.393   3.572  16.501  0.9008 -0.2920 -0.5446
 1345SOL     OW15493   0.321   0.759   4.078  0.0329  0.5298  0.0650
 1345SOL    HW115494   0.360   0.807   4.005  0.1931  0.9171  0.4065
 1345SOL    HW215495   0.385   0.758   4.149 -0.8284 -1.9929  0.7710
 1346SOL     OW15496   1.920   4.011   0.742 -0.0097 -0.0361  0.0351
 1346SOL    HW115497   2.004   3.972   0.768  1.4408  1.6901 -2.1064
 1346SOL    HW215498   1.900   3.948   0.672 -1.4593 -0.1002  0.5048
 1347SOL     OW15499   3.583   2.565   7.702 -0.0522 -0.1964  0.0461
 1347SOL    HW115500   3.569   2.518   7.620 -2.0433  0.4024  0.0543
 1347SOL    HW215501   3.666   2.607   7.681 -0.5787  0.9787  0.3197
 1348SOL     OW15502   3.322   4.229  15.937 -0.1223 -0.4344  0.2173
 1348SOL    HW115503   3.323   4.309  15.884  2.5004 -1.6527 -1.5593
 1348SOL    HW215504   3.280   4.167  15.878 -0.0285  1.3982 -1.8001
 1349SOL     OW15505   3.513   2.716   4.673  0.0507 -0.3817  0.0091
 1349SOL    HW115506   3.548   2.758   4.594 -1.0513  2.4172  0.9968
 1349SOL    HW215507   3.454   2.652   4.634  0.3075 -0.3185 -0.4872
 1350SOL     OW15508   4.091   4.485   1.784  0.7609 -0.3531  0.5122
 1350SOL    HW115509   4.170   4.530   1.813  0.3268  0.6880  0.0902
 1350SOL    HW215510   4.030   4.508   1.854 -0.5463  1.5288 -1.2095
 1351SOL     OW15511   0.098   0.611   8.727  0.4657 -0.3498  0.0728
 1351SOL    HW115512   0.132   0.578   8.810  1.8498 -1.5145 -0.9474
 1351SOL    HW215513   0.161   0.573   8.666  2.3396  1.2702  1.0382
 1352SOL     OW15514   1.255   1.424   2.006 -0.0411 -0.0843  0.0797
 1352SOL    HW115515   1.187   1.485   1.977 -0.2961  0.5258  1.9474
 1352SOL    HW215516   1.235   1.360   1.938  1.2883  1.0066 -1.3511
 1353SOL     OW15517   4.568   1.895   2.109 -0.1759 -0.1407 -0.1110
 1353SOL    HW115518   4.571   1.812   2.157 -3.1428  0.1678  0.5713
 1353SOL    HW215519   4.488   1.929   2.148  1.2562  2.3842  0.6357
 1354SOL     OW15520   2.355   2.239  17.426 -0.0557 -0.8286 -0.1512
 1354SOL    HW115521   2.312   2.293  17.492 -0.0300 -0.4980 -0.4021
 1354SOL    HW215522   2.448   2.255  17.441 -0.6653  1.9012  0.7887
 1355SOL     OW15523   0.756   0.683   8.325  0.4829  0.6700 -0.2857
 1355SOL    HW115524   0.785   0.617   8.389 -0.4660  1.0643  0.5564
 1355SOL    HW215525   0.801   0.655   8.245  0.8512 -0.4705  0.3150
 1356SOL     OW15526   1.597   3.483   7.272  0.0119 -0.4783  0.6403
 1356SOL    HW115527   1.648   3.468   7.193 -1.3474 -1.6817 -0.0244
 1356SOL    HW215528   1.655   3.446   7.339  0.4107 -1.4354 -0.2393
 1357SOL     OW15529   2.342   2.041   6.379 -0.5123  0.0324  0.7634
 1357SOL    HW115530   2.320   2.119   6.327  1.4379  1.0204  1.3964
 1357SOL    HW215531   2.346   1.971   6.313  0.8513 -1.4311  2.4135
 1358SOL     OW15532   3.689   0.098  17.186 -0.2724  0.1921 -0.3308
 1358SOL    HW115533   3.720   0.016  17.225 -0.3379  0.6195  0.6458
 1358SOL    HW215534   3.595   0.090  17.199 -0.4736  1.7244 -0.7953
 1359SOL     OW15535   3.582   2.561   3.288 -0.1036  0.2022 -0.2681
 1359SOL    HW115536   3.525   2.575   3.365  1.9221  0.0938  1.2415
 1359SOL    HW215537   3.527   2.605   3.224 -0.2331 -1.3472 -1.2196
 1360SOL     OW15538   0.362   3.668   8.307  0.2839 -0.0662  0.0544
 1360SOL    HW115539   0.338   3.709   8.390 -0.0647 -0.3718  0.1045
 1360SOL    HW215540   0.403   3.737   8.254  1.9285 -0.9625  0.1893
 1361SOL     OW15541   0.688   3.925   7.801 -0.1319  0.4611  0.5340
 1361SOL    HW115542   0.640   4.005   7.778 -0.2220  0.1239 -0.4485
 1361SOL    HW215543   0.632   3.865   7.752 -1.4094 -1.3166  4.1872
 1362SOL     OW15544   0.568   2.015   1.735  0.1328 -0.0793 -0.2298
 1362SOL    HW115545   0.491   2.011   1.791  0.7861 -2.9667  0.4664
 1362SOL    HW215546   0.638   1.980   1.791  0.8454 -0.2505 -1.2288
 1363SOL     OW15547   3.799   3.426   4.156 -0.0152  0.5320 -0.2519
 1363SOL    HW115548   3.735   3.379   4.103  0.1643 -1.6347  1.4641
 1363SOL    HW215549   3.871   3.365   4.144 -0.7827 -0.3339 -0.3998
 1364SOL     OW15550   4.297   2.970   6.542  0.4091 -0.3660  0.3518
 1364SOL    HW115551   4.319   3.010   6.626 -3.2323 -0.4147  1.2938
 1364SOL    HW215552   4.384   2.970   6.501 -0.0007  1.5590 -0.5255
 1365SOL     OW15553   1.787   3.025  13.504  0.1586 -0.2561  0.2121
 1365SOL    HW115554   1.784   2.981  13.419 -0.8260  1.8362 -0.8099
 1365SOL    HW215555   1.728   3.099  13.492  1.6543  0.5133 -2.3096
 1366SOL     OW15556   0.783   3.394   1.547  0.3585  0.3129 -0.2446
 1366SOL    HW115557   0.700   3.442   1.545 -0.2533 -0.6359  1.3331
 1366SOL    HW215558   0.803   3.376   1.456  0.9701  0.0043 -0.0478
 1367SOL     OW15559   2.540   0.795   9.942  0.0020 -0.2859  0.6641
 1367SOL    HW115560   2.599   0.848   9.887 -1.0771 -3.8165 -3.8875
 1367SOL    HW215561   2.470   0.860   9.944  1.8631  1.7351  1.2212
 1368SOL     OW15562   1.044   0.076  15.425 -0.6795 -0.2524 -0.1620
 1368SOL    HW115563   1.129   0.062  15.466  0.6233 -3.3405 -3.9395
 1368SOL    HW215564   1.011   4.717  15.400  1.3970 -0.8871 -0.7373
 1369SOL     OW15565   2.466   4.086   7.130 -0.8928 -0.7954  0.0244
 1369SOL    HW115566   2.405   4.069   7.202  0.7542 -2.1733  1.0684
 1369SOL    HW215567   2.473   4.182   7.133  2.4660 -1.1173  1.9251
 1370SOL     OW15568   0.995   4.592   3.267 -0.2876  0.3265 -0.2648
 1370SOL    HW115569   1.016   4.674   3.223  0.6867 -0.3463 -1.0490
 1370SOL    HW215570   0.902   4.606   3.285 -0.2202 -3.1958  2.8737
 1371SOL     OW15571   2.281   2.591   0.883  0.2667  0.5794 -0.4156
 1371SOL    HW115572   2.221   2.556   0.949  1.3404 -0.4577  0.0109
 1371SOL    HW215573   2.357   2.534   0.891 -0.3188 -0.2751 -0.9247
 1372SOL     OW15574   2.989   0.113   2.612 -0.3172 -0.4720 -0.0296
 1372SOL    HW115575   3.015   0.041   2.554 -0.8438 -1.0746  0.4860
 1372SOL    HW215576   3.020   0.184   2.556  2.5672 -0.7222  1.2264
 1373SOL     OW15577   3.693   0.524  11.369  0.3191  0.0312  0.0925
 1373SOL    HW115578   3.704   0.492  11.459  1.7011  1.3244  0.3961
 1373SOL    HW215579   3.671   0.616  11.383 -0.0953  0.0116 -0.4467
 1374SOL     OW15580   0.032   2.102   5.996 -0.2724 -0.1301 -0.0184
 1374SOL    HW115581   4.715   2.018   5.988  1.6976 -1.2856  1.2188
 1374SOL    HW215582   4.698   2.158   5.947 -0.6161 -1.7989 -1.4975
 1375SOL     OW15583   0.264   0.507  13.872 -0.4608  0.1122 -0.2149
 1375SOL    HW115584   0.175   0.522  13.904  0.2252  4.1597 -0.2849
 1375SOL    HW215585   0.303   0.584  13.914  1.3442 -1.1541  0.4117
 1376SOL     OW15586   0.503   0.736   3.571  0.4616 -0.2622  0.5948
 1376SOL    HW115587   0.419   0.704   3.603  0.2513 -0.1431  0.1589
 1376SOL    HW215588   0.566   0.674   3.608 -0.4048 -1.0133  0.8020
 1377SOL     OW15589   4.579   0.591   9.306  0.0838  0.0985  0.5355
 1377SOL    HW115590   4.633   0.579   9.384  3.3450  1.7401 -1.4655
 1377SOL    HW215591   4.597   0.512   9.257 -1.3021  0.7870 -1.0481
 1378SOL     OW15592   4.324   2.780   5.245 -0.2410 -0.5404  0.3538
 1378SOL    HW115593   4.323   2.874   5.265  1.3233 -0.5537  0.5072
 1378SOL    HW215594   4.400   2.750   5.295  0.3252 -1.4475 -1.0422
 1379SOL     OW15595   0.026   0.658  13.125  0.6870  0.2799  0.1114
 1379SOL    HW115596   0.027   0.741  13.173  2.3988  1.3153 -1.7025
 1379SOL    HW215597   0.108   0.620  13.157  0.4568  0.9847  1.5378
 1380SOL     OW15598   0.952   1.898   3.103 -0.5055 -0.4721  0.2932
 1380SOL    HW115599   0.983   1.964   3.165  2.6124 -0.4796 -1.2241
 1380SOL    HW215600   0.895   1.947   3.044  1.1903 -1.1970 -1.9726
 1381SOL     OW15601   2.322   3.969   7.962 -0.4724 -0.2032 -0.4696
 1381SOL    HW115602   2.331   4.021   8.041  0.4438 -1.9679  0.5912
 1381SOL    HW215603   2.254   4.025   7.924 -0.3985  1.1272  1.3498
 1382SOL     OW15604   3.133   3.903   4.641 -0.3308  0.1087 -0.3335
 1382SOL    HW115605   3.183   3.976   4.604 -1.2674  0.2819 -1.2565
 1382SOL    HW215606   3.048   3.945   4.648 -1.6957 -2.4258 -1.8766
 1383SOL     OW15607   3.142   4.411   8.625  0.2392 -0.0841  0.7173
 1383SOL    HW115608   3.105   4.357   8.554  2.5000  1.4272 -1.6122
 1383SOL    HW215609   3.229   4.437   8.596 -0.3833 -0.5811 -1.6632
 1384SOL     OW15610   3.026   2.680   4.782  0.0684  0.4944  0.5842
 1384SOL    HW115611   2.984   2.654   4.699  1.1667  2.1437 -0.4793
 1384SOL    HW215612   3.114   2.703   4.754 -0.5076  2.6396  0.5218
 1385SOL     OW15613   2.590   4.374   5.624  0.6471 -0.4687 -0.6765
 1385SOL    HW115614   2.651   4.301   5.621  0.9132 -0.3015  0.5198
 1385SOL    HW215615   2.648   4.448   5.645 -0.2345 -0.4632  1.7974
 1386SOL     OW15616   4.433   0.435   5.261 -1.0400 -0.3642 -0.3965
 1386SOL    HW115617   4.377   0.404   5.190 -1.1446  1.6008 -1.1752
 1386SOL    HW215618   4.519   0.445   5.219 -1.0931 -1.9730 -0.8964
 1387SOL     OW15619   4.501   2.455   7.318  0.3869  0.1251  0.3555
 1387SOL    HW115620   4.466   2.368   7.335 -1.1267  1.0841  2.2915
 1387SOL    HW215621   4.549   2.464   7.401  2.1458 -2.6988 -0.3817
 1388SOL     OW15622   1.031   1.335   2.648 -0.0122  0.4641 -0.4779
 1388SOL    HW115623   0.999   1.266   2.707  0.1125  0.5317 -0.3309
 1388SOL    HW215624   1.012   1.294   2.564 -0.5208 -2.1604  0.8989
 1389SOL     OW15625   2.433   3.269   3.989  0.1548  0.0213  0.3169
 1389SOL    HW115626   2.363   3.315   4.035 -0.3462 -0.7454  0.3270
 1389SOL    HW215627   2.453   3.326   3.916 -0.9368 -0.4403 -0.3477
 1390SOL     OW15628   2.058   2.321   8.601  0.3003 -0.6645 -0.5768
 1390SOL    HW115629   1.989   2.261   8.630  0.2864 -0.4467 -0.1597
 1390SOL    HW215630   2.012   2.401   8.575 -0.2972 -0.0890  2.1904
 1391SOL     OW15631   2.178   2.479   2.120  0.4242  0.2526  0.1517
 1391SOL    HW115632   2.107   2.449   2.177 -0.3235  0.8647 -0.4622
 1391SOL    HW215633   2.254   2.432   2.156  1.3834  0.4002 -1.7066
 1392SOL     OW15634   3.258   2.892   1.973 -0.3107  0.4722  0.8941
 1392SOL    HW115635   3.202   2.865   2.045 -0.2087  0.4033  0.9483
 1392SOL    HW215636   3.310   2.967   2.003 -0.6113  1.1714 -0.3307
 1393SOL     OW15637   0.355   4.397  12.332  0.0230  0.4706 -0.1224
 1393SOL    HW115638   0.386   4.321  12.282  0.1628  0.5771 -0.1968
 1393SOL    HW215639   0.441   4.432  12.353  0.2182 -1.0615  1.6369
 1394SOL     OW15640   4.668   2.622   1.129 -0.3670  0.2736  0.1268
 1394SOL    HW115641   4.706   2.573   1.057  2.5529  2.3223  0.2539
 1394SOL    HW215642   4.686   2.709   1.093 -0.7290  0.0230 -0.6522
 1395SOL     OW15643   3.431   0.329  11.347 -0.4784  0.3516  0.0975
 1395SOL    HW115644   3.415   0.245  11.391 -2.8676  1.9278  2.2379
 1395SOL    HW215645   3.373   0.379  11.405 -0.6742 -1.1144  1.1537
 1396SOL     OW15646   3.032   4.213   9.726  0.2791 -0.1775 -0.2737
 1396SOL    HW115647   3.015   4.278   9.794  1.4913 -1.6901  1.4385
 1396SOL    HW215648   2.942   4.193   9.698 -0.4927  1.1889  1.2601
 1397SOL     OW15649   3.005   0.062   4.252 -0.3370  0.6738 -0.0821
 1397SOL    HW115650   2.959   0.028   4.328  0.7732 -0.7619 -0.0609
 1397SOL    HW215651   3.098   0.068   4.276 -0.2922 -3.0890  0.6725
 1398SOL     OW15652   0.954   1.301   7.951 -0.5495  0.4750  0.2634
 1398SOL    HW115653   0.972   1.241   7.879 -2.2580 -0.1955  0.3999
 1398SOL    HW215654   0.887   1.360   7.917  0.0898  1.3490  0.5183
 1399SOL     OW15655   3.689   1.864  11.843  0.2295 -0.0624 -0.2874
 1399SOL    HW115656   3.660   1.924  11.774 -2.5628  0.6646  1.5123
 1399SOL    HW215657   3.633   1.892  11.916 -0.4636  1.6355 -1.4605
 1400SOL     OW15658   1.872   0.793  10.703  0.5800  0.5259  0.4165
 1400SOL    HW115659   1.862   0.840  10.621  1.5024 -1.1795 -0.6654
 1400SOL    HW215660   1.793   0.738  10.701 -0.4573  1.9095  2.3420
 1401SOL     OW15661   0.222   1.119  17.653 -0.0723 -0.5160 -0.2372
 1401SOL    HW115662   0.268   1.203  17.646 -0.0868 -0.4015  1.0014
 1401SOL    HW215663   0.159   1.150   0.010  0.1325 -1.2363  0.2978
 1402SOL     OW15664   2.654   4.244   6.568 -0.1087 -0.3272  0.3151
 1402SOL    HW115665   2.710   4.222   6.493  0.4335 -0.0969  0.6477
 1402SOL    HW215666   2.638   4.160   6.612 -1.4814 -0.5411 -0.6250
 1403SOL     OW15667   2.791   4.332   9.882  0.3151 -0.4024  0.1439
 1403SOL    HW115668   2.867   4.390   9.887  0.5758 -0.7641  0.3711
 1403SOL    HW215669   2.726   4.385   9.927 -0.7459 -0.2768 -1.5587
 1404SOL     OW15670   2.734   1.372  11.758  0.0553  0.2202  0.4513
 1404SOL    HW115671   2.745   1.388  11.852  2.1342 -1.6928  0.5278
 1404SOL    HW215672   2.695   1.284  11.756 -0.6365  0.5902 -1.9291
 1405SOL     OW15673   2.508   1.365   8.082 -0.1241 -0.2703  0.0885
 1405SOL    HW115674   2.569   1.388   8.152 -1.0060 -0.2760  0.8617
 1405SOL    HW215675   2.493   1.270   8.090 -0.8304 -0.1953 -0.3675
 1406SOL     OW15676   1.421   4.187  14.654 -0.2486 -0.0226 -0.0568
 1406SOL    HW115677   1.514   4.210  14.657 -0.6759  1.6651 -0.0207
 1406SOL    HW215678   1.384   4.186  14.743 -0.7634 -1.3596 -0.2761
 1407SOL     OW15679   3.316   2.334  12.436 -0.5281  0.2816 -0.0552
 1407SOL    HW115680   3.260   2.325  12.359 -2.2601 -0.0663  1.2387
 1407SOL    HW215681   3.255   2.312  12.507  1.3942 -0.9230  1.2053
 1408SOL     OW15682   4.390   2.975   5.626  0.6821 -0.2012  0.8659
 1408SOL    HW115683   4.475   2.954   5.588  0.6392 -0.1184  0.7221
 1408SOL    HW215684   4.354   2.886   5.627  0.9138 -0.3512 -2.8159
 1409SOL     OW15685   1.318   2.237   8.868  0.1741 -0.2635  0.6494
 1409SOL    HW115686   1.258   2.187   8.924  0.3216  0.7671  1.7292
 1409SOL    HW215687   1.255   2.292   8.823 -1.6957 -2.3811  0.6266
 1410SOL     OW15688   2.634   2.412  14.053  0.0737 -0.5488  0.1831
 1410SOL    HW115689   2.605   2.374  14.136  0.7345 -0.1577  0.6012
 1410SOL    HW215690   2.606   2.501  14.076 -0.6264 -0.7225 -0.0256
 1411SOL     OW15691   4.528   3.104   5.137 -0.0569  0.0585 -0.4061
 1411SOL    HW115692   4.455   3.051   5.170 -0.0174  0.1380 -0.1883
 1411SOL    HW215693   4.577   3.104   5.219 -0.9914 -0.0338  0.1546
 1412SOL     OW15694   0.444   2.788   1.068 -0.0771 -0.2840 -0.0067
 1412SOL    HW115695   0.357   2.820   1.092  0.7253  0.7040  1.5550
 1412SOL    HW215696   0.442   2.707   1.119 -0.0120  0.3777  1.0458
 1413SOL     OW15697   0.599   4.605   8.450  0.3527 -0.3252 -0.2033
 1413SOL    HW115698   0.592   4.683   8.395  1.4126  0.1601  0.3380
 1413SOL    HW215699   0.678   4.626   8.500  0.0622  1.0114 -0.3072
 1414SOL     OW15700   2.439   4.102  17.622  0.6244 -0.5459 -0.3493
 1414SOL    HW115701   2.371   4.090  17.688  0.0771 -3.0575 -1.3544
 1414SOL    HW215702   2.517   4.094  17.677  0.8773  0.9391 -0.4992
 1415SOL     OW15703   2.236   2.407   6.954 -0.1802  0.2630  0.4563
 1415SOL    HW115704   2.316   2.398   6.903 -1.9584  0.0968 -2.3183
 1415SOL    HW215705   2.193   2.330   6.917  1.4519 -0.8491  0.8979
 1416SOL     OW15706   0.955   2.006   7.621 -0.2545 -0.0629  0.8204
 1416SOL    HW115707   0.977   1.989   7.529 -2.3816 -0.6994  0.4234
 1416SOL    HW215708   0.935   2.100   7.618  0.9805  0.1862  0.4429
 1417SOL     OW15709   2.228   3.635   8.643  0.0196 -0.1735 -0.1530
 1417SOL    HW115710   2.289   3.570   8.676  1.3667  1.7779  1.1515
 1417SOL    HW215711   2.216   3.602   8.554 -0.5321 -0.6884  0.1095
 1418SOL     OW15712   3.817   3.029  10.963  0.1499 -0.2036 -0.1058
 1418SOL    HW115713   3.746   3.051  11.023  2.3733  0.3941  2.3146
 1418SOL    HW215714   3.791   2.939  10.943  1.7963 -1.1617  2.0339
 1419SOL     OW15715   1.977   1.551   9.117 -0.0849  0.0860  0.5928
 1419SOL    HW115716   2.064   1.563   9.079 -0.1229 -1.2749  0.0853
 1419SOL    HW215717   1.914   1.597   9.062  1.4690  1.2721 -0.2213
 1420SOL     OW15718   0.823   1.091   6.586  0.4967 -0.3884  0.2915
 1420SOL    HW115719   0.764   1.052   6.522  0.4408 -0.4399  0.3752
 1420SOL    HW215720   0.756   1.144   6.628  1.0323  1.0195 -0.6124
 1421SOL     OW15721   1.072   0.997   8.448  0.0222 -0.4740 -0.0573
 1421SOL    HW115722   1.078   1.047   8.529 -1.8488  1.5825 -1.1821
 1421SOL    HW215723   1.058   0.908   8.481  3.2766 -1.3553 -1.0818
 1422SOL     OW15724   0.703   4.171   5.052 -0.3935  0.2566  0.1113
 1422SOL    HW115725   0.688   4.213   5.137 -3.3139 -0.4646 -0.0445
 1422SOL    HW215726   0.723   4.082   5.082 -0.6241  0.2404  0.2197
 1423SOL     OW15727   4.204   0.776  15.679  0.7534 -0.1085 -0.4142
 1423SOL    HW115728   4.238   0.841  15.741  0.4003  1.7579 -2.1802
 1423SOL    HW215729   4.221   0.689  15.714 -0.3292 -0.9730 -2.0499
 1424SOL     OW15730   3.194   1.610   6.367 -0.5937  0.0528 -0.4247
 1424SOL    HW115731   3.110   1.585   6.406 -1.3708  2.5177 -0.4511
 1424SOL    HW215732   3.246   1.614   6.447  0.5716  2.6728 -1.3077
 1425SOL     OW15733   4.110   0.516   3.827 -0.1185 -0.8261 -0.7777
 1425SOL    HW115734   4.174   0.565   3.880 -1.5522 -1.7500  1.8264
 1425SOL    HW215735   4.026   0.551   3.856  2.5077  3.1491  2.0570
 1426SOL     OW15736   1.306   4.044   8.163 -0.4397  0.0709 -0.0511
 1426SOL    HW115737   1.375   4.033   8.099 -0.5813 -0.8360 -0.0447
 1426SOL    HW215738   1.239   3.987   8.124 -1.1772  2.8541 -2.8555
 1427SOL     OW15739   0.075   1.198   0.155  0.1712  0.2182  0.2135
 1427SOL    HW115740   0.086   1.121   0.212  0.2193 -1.4654 -2.0588
 1427SOL    HW215741   0.065   1.266   0.221 -2.9437  0.1644 -0.2178
 1428SOL     OW15742   2.428   0.073   5.037  0.3264  0.0628 -0.2575
 1428SOL    HW115743   2.447   0.026   5.118 -0.8485 -2.6008 -1.5006
 1428SOL    HW215744   2.393   0.005   4.979 -0.1819 -0.3704  0.5491
 1429SOL     OW15745   3.236   3.232  13.022  0.0707 -0.6800 -0.3887
 1429SOL    HW115746   3.159   3.256  13.074  0.6407 -2.7583  1.3983
 1429SOL    HW215747   3.298   3.222  13.094 -0.8850  1.0764  0.6697
 1430SOL     OW15748   3.228   0.414  14.375  0.1129 -1.4801  0.5471
 1430SOL    HW115749   3.253   0.495  14.420  2.7110 -2.3320  0.6508
 1430SOL    HW215750   3.311   0.366  14.376  1.1758  0.4026  2.0101
 1431SOL     OW15751   4.523   1.463  11.107  0.3529  0.0851 -0.1932
 1431SOL    HW115752   4.482   1.410  11.176 -0.3380 -1.7873 -2.0542
 1431SOL    HW215753   4.497   1.554  11.124 -0.5896  0.2813 -2.6889
 1432SOL     OW15754   4.223   1.106  17.280  1.2148 -0.1976 -0.1403
 1432SOL    HW115755   4.157   1.146  17.223  1.1736  2.7103  1.9705
 1432SOL    HW215756   4.197   1.015  17.262  0.3624  0.3303 -1.6066
 1433SOL     OW15757   3.976   4.688   7.841  0.2310 -0.2198  0.3354
 1433SOL    HW115758   3.939   4.670   7.927 -0.7797  3.4921  0.6986
 1433SOL    HW215759   3.997   4.601   7.809 -0.6716  1.0551 -3.7225
 1434SOL     OW15760   0.250   4.247   6.773  0.2603 -0.0408  0.3452
 1434SOL    HW115761   0.336   4.226   6.738 -0.7147  2.0899 -3.2962
 1434SOL    HW215762   0.281   4.303   6.844  2.1855  0.7841 -1.1538
 1435SOL     OW15763   1.688   4.187   4.619  0.3051  0.1075 -0.3298
 1435SOL    HW115764   1.614   4.126   4.629  0.1122  0.7811  2.4320
 1435SOL    HW215765   1.731   4.150   4.542 -1.1767  2.3581 -2.2228
 1436SOL     OW15766   2.399   1.022  10.518  0.0799 -0.6189 -0.3654
 1436SOL    HW115767   2.342   1.097  10.501 -0.5140 -0.7081  1.2017
 1436SOL    HW215768   2.464   1.031  10.448 -0.9388  0.9054 -1.1284
 1437SOL     OW15769   1.003   1.525  11.721  0.9791 -0.0149 -0.2002
 1437SOL    HW115770   1.067   1.561  11.658 -0.4290 -0.8633 -2.1252
 1437SOL    HW215771   0.947   1.602  11.714 -2.4663 -2.5171  0.2911
 1438SOL     OW15772   0.646   4.163   3.339  0.0434  0.0543  0.3198
 1438SOL    HW115773   0.609   4.089   3.388 -0.0451 -0.4058 -0.4561
 1438SOL    HW215774   0.731   4.162   3.381  1.0563  3.6367 -1.6625
 1439SOL     OW15775   0.360   0.163   2.052 -0.2749  0.2440  0.1123
 1439SOL    HW115776   0.314   0.168   2.135  0.8196 -2.0030  0.8544
 1439SOL    HW215777   0.378   0.070   2.040  0.7599  0.6461 -1.4462
 1440SOL     OW15778   0.922   0.598   8.131 -0.5167 -0.0395  0.8187
 1440SOL    HW115779   0.952   0.645   8.053 -0.6444  0.0212  0.8064
 1440SOL    HW215780   0.911   0.513   8.088  0.0965  0.2478  0.0796
 1441SOL     OW15781   0.572   0.353   4.830  0.1148 -0.8105  0.6431
 1441SOL    HW115782   0.497   0.377   4.775  0.6232  0.5211  0.5217
 1441SOL    HW215783   0.649   0.393   4.789 -0.2084  0.2079  1.0393
 1442SOL     OW15784   3.492   2.358   2.319 -0.1541  0.0901  0.3001
 1442SOL    HW115785   3.468   2.416   2.391 -0.5741  1.1217 -0.6560
 1442SOL    HW215786   3.436   2.402   2.255  0.2920  1.0990  0.6073
 1443SOL     OW15787   0.328   1.042   9.763 -0.5392  0.4654  0.3153
 1443SOL    HW115788   0.354   1.069   9.675 -0.6699  2.8818  1.0226
 1443SOL    HW215789   0.253   0.987   9.741 -0.4333  0.3174  0.3234
 1444SOL     OW15790   0.985   4.499   7.968  0.3764  0.6743 -0.0525
 1444SOL    HW115791   1.040   4.471   7.894  0.5653 -0.3305  0.4623
 1444SOL    HW215792   0.965   4.589   7.942  0.8889  0.6218 -0.6390
 1445SOL     OW15793   3.716   4.489   6.620 -0.5542  0.3118 -0.2180
 1445SOL    HW115794   3.700   4.550   6.548  1.5846 -0.4009 -1.2882
 1445SOL    HW215795   3.693   4.550   6.690 -0.4747  0.7637 -0.5839
 1446SOL     OW15796   3.965   2.469   2.931 -0.3582 -0.2121 -0.6350
 1446SOL    HW115797   4.025   2.427   2.869  0.0801  0.3281 -0.5740
 1446SOL    HW215798   3.914   2.515   2.864  0.0817  2.2741  0.7090
 1447SOL     OW15799   4.075   0.589   2.963 -0.3534 -0.4950  0.6826
 1447SOL    HW115800   4.108   0.563   3.049 -0.4090 -1.4576  0.4110
 1447SOL    HW215801   3.985   0.611   2.989  0.7447  2.9714  1.6305
 1448SOL     OW15802   2.557   4.348   4.841 -0.1514 -0.6612 -0.4001
 1448SOL    HW115803   2.594   4.362   4.753 -1.8637  0.5108 -0.9267
 1448SOL    HW215804   2.479   4.402   4.833  1.7442  1.8881 -1.8933
 1449SOL     OW15805   3.147   1.049   2.682 -0.2731  0.1032 -0.1502
 1449SOL    HW115806   3.155   0.988   2.608 -0.1958  0.3520 -0.3473
 1449SOL    HW215807   3.216   1.112   2.663  0.4593 -0.4776  0.6044
 1450SOL     OW15808   1.340   2.583   3.824 -0.4177 -0.1983  0.6266
 1450SOL    HW115809   1.244   2.583   3.817 -0.3218  2.5061 -0.6483
 1450SOL    HW215810   1.350   2.494   3.858  0.2014 -0.3398  0.0534
 1451SOL     OW15811   3.119   2.664   7.199 -0.0248 -0.3607 -0.1487
 1451SOL    HW115812   3.170   2.729   7.248 -0.1022  0.0043 -0.5555
 1451SOL    HW215813   3.129   2.583   7.249 -2.7237 -0.2405  0.5945
 1452SOL     OW15814   1.426   2.387   1.650 -0.2578  0.1565 -0.3545
 1452SOL    HW115815   1.362   2.389   1.580  0.2426 -0.0660 -0.8218
 1452SOL    HW215816   1.424   2.477   1.683  0.5712 -1.0045  2.9450
 1453SOL     OW15817   4.599   3.935  16.306 -0.2832 -0.3884  0.6361
 1453SOL    HW115818   4.619   3.889  16.224 -1.6801 -1.8564  1.1481
 1453SOL    HW215819   4.537   4.001  16.275  0.6440  1.2994  2.3901
 1454SOL     OW15820   4.317   3.401  17.403  0.1451 -0.1499  0.4482
 1454SOL    HW115821   4.307   3.382  17.497 -1.1233  1.0841  0.5714
 1454SOL    HW215822   4.403   3.359  17.396  0.1429 -0.1708  0.5424
 1455SOL     OW15823   1.711   1.837   6.221 -0.4657  0.3851 -0.6804
 1455SOL    HW115824   1.721   1.827   6.127  0.7495  1.5623 -0.6861
 1455SOL    HW215825   1.617   1.825   6.229 -0.4459  1.4342  1.1855
 1456SOL     OW15826   1.693   4.366   1.601  0.1864 -0.0891 -0.2135
 1456SOL    HW115827   1.663   4.279   1.628  0.9500 -0.2521  0.0910
 1456SOL    HW215828   1.656   4.372   1.513 -1.3440 -1.6442  0.3364
 1457SOL     OW15829   1.211   2.387   2.570  0.3621 -0.4947  0.0898
 1457SOL    HW115830   1.191   2.388   2.477 -0.1756  0.7683  0.2238
 1457SOL    HW215831   1.147   2.323   2.599 -0.1515 -0.0646 -0.1082
 1458SOL     OW15832   4.695   3.494   8.194 -0.5838  0.7446  0.5139
 1458SOL    HW115833   4.699   3.584   8.227  0.4056  1.0371 -0.3736
 1458SOL    HW215834   4.651   3.457   8.270 -0.8290  1.2978  0.6412
 1459SOL     OW15835   4.495   0.306   5.497  0.2475  0.1550  0.0773
 1459SOL    HW115836   4.482   0.343   5.409 -0.0418  0.5025  0.2706
 1459SOL    HW215837   4.549   0.376   5.532  0.3462 -0.3307  0.8929
 1460SOL     OW15838   3.238   3.535   8.086 -0.0208 -0.3447  0.7166
 1460SOL    HW115839   3.278   3.498   8.007 -0.8193 -1.2645  0.7485
 1460SOL    HW215840   3.257   3.628   8.075  1.4939 -0.8623 -1.1055
 1461SOL     OW15841   3.188   3.240   4.953 -0.2703 -0.1489  0.3481
 1461SOL    HW115842   3.281   3.244   4.931  0.2399 -1.4802  2.2428
 1461SOL    HW215843   3.197   3.203   5.041 -1.5609 -0.7336  0.2391
 1462SOL     OW15844   0.664   3.264   3.670 -1.2631  0.0916  0.0005
 1462SOL    HW115845   0.625   3.343   3.630  1.1817  2.2490  1.9090
 1462SOL    HW215846   0.751   3.295   3.692 -0.7397  0.5289 -2.6367
 1463SOL     OW15847   2.363   0.921  12.971 -0.4469  0.0017  0.0421
 1463SOL    HW115848   2.347   0.895  12.881  1.4739 -0.5424 -0.1506
 1463SOL    HW215849   2.457   0.901  12.970 -0.1595  1.2645  0.6146
 1464SOL     OW15850   2.189   4.624   9.510 -0.1013  0.5149  0.7748
 1464SOL    HW115851   2.256   4.622   9.442 -0.0013  0.4289  0.8748
 1464SOL    HW215852   2.197   4.537   9.550 -0.2089  0.0251 -0.2654
 1465SOL     OW15853   1.734   0.258   2.224 -0.4009  0.0706  0.4390
 1465SOL    HW115854   1.685   0.295   2.151  0.2948  0.7383  0.3048
 1465SOL    HW215855   1.819   0.256   2.180 -1.8145  1.7552 -2.3431
 1466SOL     OW15856   0.686   0.646   9.303 -0.9187  0.2319 -0.4590
 1466SOL    HW115857   0.765   0.617   9.259 -1.4490  0.2273 -1.4140
 1466SOL    HW215858   0.702   0.735   9.333  1.1560 -0.6731  1.0556
 1467SOL     OW15859   1.148   4.717   4.317  0.2522 -0.5104 -0.0944
 1467SOL    HW115860   1.150   4.681   4.406 -0.8644 -1.7318 -0.5606
 1467SOL    HW215861   1.061   0.030   4.324  0.6230  0.6300 -2.0679
 1468SOL     OW15862   1.604   0.067   5.426  0.3103  0.3467 -0.0447
 1468SOL    HW115863   1.601   0.105   5.338  3.8062  2.1596  0.6362
 1468SOL    HW215864   1.613   0.147   5.477 -2.0026  0.5002  0.1163
 1469SOL     OW15865   2.367   0.578   0.216 -0.5620  0.0579 -0.1102
 1469SOL    HW115866   2.396   0.508   0.274 -0.4072 -1.6525 -2.2459
 1469SOL    HW215867   2.292   0.622   0.256  0.3552  1.6176 -0.0961
 1470SOL     OW15868   1.868   3.696   4.253 -0.1243  0.0421  0.5224
 1470SOL    HW115869   1.832   3.705   4.342  0.3506  0.8065  0.6400
 1470SOL    HW215870   1.802   3.660   4.194  0.8482  0.5076 -0.8241
 1471SOL     OW15871   3.124   2.890   5.054 -0.3290 -0.2493  0.3437
 1471SOL    HW115872   3.189   2.891   4.983 -0.4107  1.3457  0.2997
 1471SOL    HW215873   3.102   2.797   5.062  1.8583 -0.6855  1.4933
 1472SOL     OW15874   4.473   3.323   0.508 -0.3798 -0.2969  0.6813
 1472SOL    HW115875   4.537   3.252   0.521 -0.4095 -0.6674 -1.1459
 1472SOL    HW215876   4.500   3.338   0.417  0.2294  0.1134  0.9278
 1473SOL     OW15877   4.453   4.570   5.981  0.1417  0.0946  0.2510
 1473SOL    HW115878   4.503   4.634   6.033  1.3834 -0.5481 -0.1507
 1473SOL    HW215879   4.452   4.618   5.899 -1.3369 -0.2695  0.0498
 1474SOL     OW15880   1.503   2.594   0.734 -0.1862  0.8262 -0.7324
 1474SOL    HW115881   1.597   2.576   0.732 -0.3797 -0.2781 -0.1693
 1474SOL    HW215882   1.493   2.664   0.669 -1.8425  2.0198  0.8353
 1475SOL     OW15883   0.420   0.586  10.608 -0.0927  0.0417  0.2919
 1475SOL    HW115884   0.364   0.663  10.603 -1.1173 -0.6559  0.9630
 1475SOL    HW215885   0.442   0.572  10.516  0.6795  1.6564  0.2447
 1476SOL     OW15886   0.177   1.807   2.316 -0.0499  0.2452  0.0764
 1476SOL    HW115887   0.106   1.744   2.304  1.9340 -1.9061 -0.3430
 1476SOL    HW215888   0.235   1.760   2.376  0.1906  0.5801  0.1051
 1477SOL     OW15889   0.332   0.768  10.868  0.0536 -0.0471  0.4251
 1477SOL    HW115890   0.354   0.679  10.897 -0.4789 -0.6295 -0.9991
 1477SOL    HW215891   0.239   0.757  10.849  0.4238 -0.4204 -1.1032
 1478SOL     OW15892   3.119   1.828  11.797 -0.2821  0.2998  0.5386
 1478SOL    HW115893   3.114   1.814  11.703  2.7220 -0.5890  0.5198
 1478SOL    HW215894   3.029   1.805  11.822 -0.9440  2.5551  0.1772
 1479SOL     OW15895   1.545   0.792   0.737 -0.3889  0.1049 -0.0966
 1479SOL    HW115896   1.505   0.779   0.651 -1.7114  0.7754  0.4148
 1479SOL    HW215897   1.603   0.716   0.731  1.7580  1.6742  0.7213
 1480SOL     OW15898   0.988   2.751   0.554  0.2803  0.3952 -0.3208
 1480SOL    HW115899   1.059   2.797   0.599 -0.3365 -0.5533  1.6416
 1480SOL    HW215900   0.918   2.760   0.619  0.4849 -1.2449  0.1295
 1481SOL     OW15901   0.071   1.870   4.596 -0.2000  0.0063 -0.0232
 1481SOL    HW115902   0.102   1.803   4.535 -1.0527 -0.8312  0.4699
 1481SOL    HW215903   0.147   1.929   4.586  0.6532 -1.3172 -1.3049
 1482SOL     OW15904   4.630   1.467   7.066  0.2551 -0.4048  0.6901
 1482SOL    HW115905   4.706   1.525   7.069  0.7455 -0.9404 -1.5509
 1482SOL    HW215906   4.593   1.454   7.154 -1.4628 -1.4318 -0.2009
 1483SOL     OW15907   2.780   2.014   0.042  0.4137  0.2625  0.0043
 1483SOL    HW115908   2.721   2.079   0.080  1.8827  0.8948  1.2248
 1483SOL    HW215909   2.777   1.950   0.113  2.0841 -0.3921 -0.5001
 1484SOL     OW15910   3.896   0.270  13.489  0.3368  0.4795  0.3534
 1484SOL    HW115911   3.916   0.239  13.578  1.9417  0.9063  0.1298
 1484SOL    HW215912   3.924   0.361  13.485  1.5383  0.2174  2.5855
 1485SOL     OW15913   2.347   3.347  15.146 -0.1684 -0.3076 -0.1671
 1485SOL    HW115914   2.354   3.305  15.060 -0.4112  0.2561 -0.4616
 1485SOL    HW215915   2.270   3.401  15.126  1.6100  1.9129 -1.0335
 1486SOL     OW15916   1.895   0.332   8.391  0.9670  0.6016  0.5519
 1486SOL    HW115917   1.862   0.421   8.374  3.2844  1.7162  1.8948
 1486SOL    HW215918   1.869   0.283   8.313 -0.7730  0.9867  0.8883
 1487SOL     OW15919   1.514   0.430   2.701  0.3013 -0.5422 -0.1176
 1487SOL    HW115920   1.429   0.469   2.682  0.9619  1.0782  0.2817
 1487SOL    HW215921   1.557   0.427   2.616  0.3475  0.4218 -0.1321
 1488SOL     OW15922   2.751   4.001   7.222  0.1887 -0.2044 -0.2580
 1488SOL    HW115923   2.702   4.062   7.167 -0.6503 -0.8885 -0.2581
 1488SOL    HW215924   2.719   4.019   7.310 -0.5480 -0.2299 -0.5234
 1489SOL     OW15925   2.030   4.482   9.253  0.2173  0.3046  0.2030
 1489SOL    HW115926   2.056   4.555   9.309  1.0608  1.0498 -1.1494
 1489SOL    HW215927   2.107   4.426   9.259  0.8722  1.1245 -0.6305
 1490SOL     OW15928   4.190   4.216   8.931 -0.9925  0.2417 -0.1325
 1490SOL    HW115929   4.154   4.209   9.020 -1.9115  1.7484 -0.3767
 1490SOL    HW215930   4.121   4.268   8.890 -1.0031  1.2609  1.1708
 1491SOL     OW15931   2.491   1.647  11.146  0.6617  0.1771  0.5248
 1491SOL    HW115932   2.559   1.683  11.089  0.5436  0.1808  0.3868
 1491SOL    HW215933   2.475   1.563  11.103  4.0567  0.9808 -2.2892
 1492SOL     OW15934   3.167   2.988   7.279  0.3335 -0.0620  0.7555
 1492SOL    HW115935   3.137   3.055   7.340  0.0776  0.5664 -0.0502
 1492SOL    HW215936   3.258   2.980   7.305  0.6222  0.3342 -0.1128
 1493SOL     OW15937   0.319   0.523   9.794 -0.2548  0.1347  0.3220
 1493SOL    HW115938   0.229   0.491   9.792 -0.3660  0.4091  1.1158
 1493SOL    HW215939   0.354   0.483   9.714  1.7039  1.6754  0.4034
 1494SOL     OW15940   0.643   1.832  17.618  0.1042  0.3573 -0.2186
 1494SOL    HW115941   0.625   1.757  17.563 -0.1837  0.1357  0.1756
 1494SOL    HW215942   0.698   1.894  17.570 -0.5402  0.1964 -1.1630
 1495SOL     OW15943   2.757   0.662  15.148 -0.4173 -0.4100  0.6687
 1495SOL    HW115944   2.786   0.662  15.239  2.8893 -2.3867 -0.4203
 1495SOL    HW215945   2.692   0.733  15.146 -0.7904 -0.7351  1.2448
 1496SOL     OW15946   4.387   0.075  13.361  0.2751  0.3136 -0.3925
 1496SOL    HW115947   4.297   0.056  13.389  0.8177 -2.9451 -0.8832
 1496SOL    HW215948   4.388   0.167  13.387 -2.6555  0.6929 -1.5111
 1497SOL     OW15949   2.994   4.567   8.798  0.0081 -0.3473  0.7122
 1497SOL    HW115950   3.050   4.513   8.744 -0.8941 -3.0109  2.4658
 1497SOL    HW215951   2.917   4.558   8.742  0.4911  0.0828 -0.0282
 1498SOL     OW15952   4.339   4.716   0.242 -0.8177  0.4550 -0.1590
 1498SOL    HW115953   4.360   4.717   0.148 -1.4897 -0.8724 -0.3208
 1498SOL    HW215954   4.331   0.081   0.267  0.4082  0.5289 -0.0338
 1499SOL     OW15955   3.584   2.477   0.102 -0.6508 -0.6647 -0.4675
 1499SOL    HW115956   3.627   2.425   0.034  1.3348  1.2202 -0.6568
 1499SOL    HW215957   3.590   2.421   0.179  0.8384 -1.4349 -1.1429
 1500SOL     OW15958   3.902   3.980   7.903  0.2686 -0.0745 -0.5504
 1500SOL    HW115959   3.957   3.906   7.879  2.1058  0.4106  2.2037
 1500SOL    HW215960   3.971   4.045   7.911  1.4070 -1.0501 -2.5642
 1501SOL     OW15961   0.640   0.105   5.682  0.6268  0.5448  0.1095
 1501SOL    HW115962   0.552   0.102   5.646  0.3549  1.0044  0.7385
 1501SOL    HW215963   0.679   0.035   5.631 -1.3095 -0.9253  0.6359
 1502SOL     OW15964   3.629   0.767   1.830  0.4580  0.0673  0.7710
 1502SOL    HW115965   3.590   0.725   1.906 -1.3801 -0.6439 -0.5558
 1502SOL    HW215966   3.698   0.824   1.863  0.4315  2.5462 -3.3808
 1503SOL     OW15967   0.220   1.421   9.064  0.4475 -0.7525  0.5593
 1503SOL    HW115968   0.192   1.503   9.105  1.1766  0.3424 -1.1546
 1503SOL    HW215969   0.315   1.428   9.074  0.5589 -0.5912 -0.6320
 1504SOL     OW15970   1.885   2.189   9.725  0.4236  0.0983  1.1334
 1504SOL    HW115971   1.851   2.149   9.805 -1.7653  1.9151  1.1029
 1504SOL    HW215972   1.896   2.112   9.669 -0.3296  0.9140 -0.1286
 1505SOL     OW15973   2.335   4.312   5.213  0.1026  0.5072  1.0137
 1505SOL    HW115974   2.346   4.335   5.306  1.1302  0.9896  0.7692
 1505SOL    HW215975   2.426   4.289   5.193 -0.6837 -2.4227  0.8117
 1506SOL     OW15976   4.389   2.647   0.536 -0.1362 -0.5385 -0.2658
 1506SOL    HW115977   4.467   2.595   0.516 -0.8547 -1.9483  0.5731
 1506SOL    HW215978   4.374   2.678   0.447 -1.2014  0.5999  0.3190
 1507SOL     OW15979   3.673   1.417  10.166  0.3213  0.2306  0.0248
 1507SOL    HW115980   3.749   1.468  10.195  0.2693  1.0526 -1.2958
 1507SOL    HW215981   3.608   1.487  10.165 -1.4290 -1.3882  0.4472
 1508SOL     OW15982   0.117   4.508  17.106 -0.5789  0.6978  0.4480
 1508SOL    HW115983   0.165   4.457  17.041 -1.5872  1.5722 -0.9618
 1508SOL    HW215984   0.094   4.585  17.055 -0.5688  2.3652  2.9697
 1509SOL     OW15985   0.195   2.849   8.729  0.5842  0.1908  0.3857
 1509SOL    HW115986   0.280   2.890   8.741  0.5345 -0.5818  3.1675
 1509SOL    HW215987   0.137   2.924   8.713  1.7880  0.8750 -0.8816
 1510SOL     OW15988   2.879   0.286   1.098  0.3851 -0.5006  0.8477
 1510SOL    HW115989   2.853   0.271   1.008  0.8608 -1.1624  0.8196
 1510SOL    HW215990   2.907   0.378   1.092  1.5252 -0.8937  0.1435
 1511SOL     OW15991   1.858   0.508   6.331  0.1915  0.1447  0.1954
 1511SOL    HW115992   1.897   0.421   6.324  0.0163  0.2967 -2.4055
 1511SOL    HW215993   1.864   0.535   6.240 -2.3656  1.1787  0.3395
 1512SOL     OW15994   1.197   1.441   7.373 -0.1418 -0.7474  0.3812
 1512SOL    HW115995   1.289   1.465   7.380  0.2250 -0.9744 -3.2826
 1512SOL    HW215996   1.209   1.357   7.418  0.8389 -0.5066  0.5669
 1513SOL     OW15997   0.560   2.626   7.254  0.0522  0.2766  0.3859
 1513SOL    HW115998   0.519   2.685   7.317 -1.2393 -0.2373  0.0185
 1513SOL    HW215999   0.650   2.605   7.280 -0.1663  0.3888  1.2171
 1514SOL     OW16000   3.146   2.032  15.919 -0.6858  0.1757 -0.3624
 1514SOL    HW116001   3.203   2.102  15.949  0.9166 -1.5974  0.6884
 1514SOL    HW216002   3.162   2.018  15.826 -2.4329  1.2232 -0.8281
 1515SOL     OW16003   4.364   0.653   1.637 -0.0649  0.0269 -0.2494
 1515SOL    HW116004   4.367   0.574   1.583  2.4865 -1.5579  2.2625
 1515SOL    HW216005   4.455   0.680   1.647  0.3116 -2.0848  1.7690
 1516SOL     OW16006   2.626   4.285   8.969  0.0373 -0.2644  0.3949
 1516SOL    HW116007   2.662   4.264   8.883 -3.2234 -0.2632 -0.9949
 1516SOL    HW216008   2.569   4.211   8.989  0.0512 -0.9752 -2.2794
 1517SOL     OW16009   4.674   2.589   4.916  0.5457  0.1652  0.3864
 1517SOL    HW116010   4.684   2.523   4.984  0.9935 -1.1306 -0.9394
 1517SOL    HW216011   4.578   2.594   4.917  0.4456 -2.0822  1.3280
 1518SOL     OW16012   4.291   4.546   3.435  0.2767 -0.2343  0.0602
 1518SOL    HW116013   4.384   4.556   3.457  1.1456 -2.7161 -2.5821
 1518SOL    HW216014   4.277   4.475   3.498  2.7309  2.1186  3.2492
 1519SOL     OW16015   0.044   4.577   6.920 -0.1775  0.8000  0.2032
 1519SOL    HW116016   4.685   4.581   6.963  0.3265  0.9473  1.2073
 1519SOL    HW216017   0.023   4.583   6.827  0.1793 -0.6589  0.0382
 1520SOL     OW16018   0.976   3.244   2.269  0.1743 -0.3786  0.0022
 1520SOL    HW116019   1.031   3.316   2.238  0.5202 -0.3641  0.6540
 1520SOL    HW216020   0.912   3.246   2.198  0.2980  0.0030 -0.0969
 1521SOL     OW16021   0.163   1.797   3.181 -0.5320  0.4931 -0.3070
 1521SOL    HW116022   0.072   1.783   3.155 -0.1812 -0.9520 -0.7622
 1521SOL    HW216023   0.197   1.824   3.096  0.2955  2.2126  0.5687
 1522SOL     OW16024   0.169   2.347   7.923  0.8379  0.1812 -0.9378
 1522SOL    HW116025   0.260   2.375   7.928  0.9641 -0.7152  1.7396
 1522SOL    HW216026   0.169   2.296   7.842 -0.7547 -0.6201 -0.4421
 1523SOL     OW16027   2.205   1.456   4.396  0.4990 -0.1745  0.2740
 1523SOL    HW116028   2.188   1.375   4.349  2.0192 -1.4385  1.9031
 1523SOL    HW216029   2.112   1.469   4.414 -0.0773 -2.6265 -1.0197
 1524SOL     OW16030   3.702   2.504   9.642  0.0403 -0.0209  0.0068
 1524SOL    HW116031   3.719   2.426   9.694  1.6406  0.7007  0.5984
 1524SOL    HW216032   3.790   2.536   9.663 -0.1192 -0.7066  1.7386
 1525SOL     OW16033   4.405   4.071   9.175  1.1157 -0.0616 -0.0991
 1525SOL    HW116034   4.316   4.102   9.194  1.1627 -1.1262  1.9357
 1525SOL    HW216035   4.389   3.977   9.165  0.5021  0.2582 -2.0931
 1526SOL     OW16036   4.073   3.811   6.150  0.3291 -0.2259 -0.6765
 1526SOL    HW116037   4.138   3.879   6.171 -1.9156  1.1649  1.7436
 1526SOL    HW216038   3.990   3.859   6.151  1.5835  2.0274 -3.1896
 1527SOL     OW16039   2.981   0.652   7.438  0.1440  0.3074  0.2475
 1527SOL    HW116040   2.999   0.711   7.365  0.0439  0.2628  0.1862
 1527SOL    HW216041   2.955   0.716   7.504 -0.0805 -0.5034  0.9421
 1528SOL     OW16042   0.259   1.751   0.948  0.4151 -0.1733  0.7908
 1528SOL    HW116043   0.179   1.783   0.905 -0.1911 -1.9823  0.6039
 1528SOL    HW216044   0.321   1.778   0.880  1.4740  0.1295  1.8737
 1529SOL     OW16045   2.512   1.886   9.268 -0.4816  0.3192  0.1988
 1529SOL    HW116046   2.562   1.852   9.194  0.6861 -0.2195  1.2492
 1529SOL    HW216047   2.429   1.838   9.264 -0.4804  0.3204  0.1576
 1530SOL     OW16048   3.157   3.324  14.338 -0.1099 -0.3129  0.1480
 1530SOL    HW116049   3.070   3.300  14.369  0.1063 -1.5302 -0.1766
 1530SOL    HW216050   3.147   3.416  14.314  3.0464 -0.4171 -1.5641
 1531SOL     OW16051   3.376   3.842  17.491 -0.6115  0.0241 -0.2910
 1531SOL    HW116052   3.388   3.750  17.469 -0.1790  0.5542 -2.3105
 1531SOL    HW216053   3.408   3.874  17.407  0.2181  0.5053  0.2152
 1532SOL     OW16054   4.365   0.521   4.478 -0.5953 -0.1843 -0.2885
 1532SOL    HW116055   4.435   0.482   4.530 -0.5927 -1.1559 -1.0303
 1532SOL    HW216056   4.281   0.499   4.520  0.8298 -1.2338  2.0200
 1533SOL     OW16057   1.828   2.295   3.344  0.1244 -0.2058  0.4436
 1533SOL    HW116058   1.841   2.267   3.253  1.0438 -0.0349  0.5270
 1533SOL    HW216059   1.837   2.390   3.333 -2.3379 -0.3100 -2.3564
 1534SOL     OW16060   3.500   0.718   4.464  0.3035 -0.0664  0.0051
 1534SOL    HW116061   3.445   0.652   4.507 -3.0658  1.3732 -2.0245
 1534SOL    HW216062   3.444   0.794   4.481  2.1180  1.5032 -1.0479
 1535SOL     OW16063   4.679   3.281  17.141  0.3700  0.1036 -0.0563
 1535SOL    HW116064   4.702   3.201  17.093 -0.0382 -1.6725  2.6988
 1535SOL    HW216065   0.019   3.345  17.115  0.6429  0.8016  2.3599
 1536SOL     OW16066   2.853   4.001   3.298  0.2218 -0.0137  0.3504
 1536SOL    HW116067   2.770   4.039   3.328  0.7945 -1.2597  3.4950
 1536SOL    HW216068   2.828   3.955   3.217 -1.3705  2.6784 -0.6762
 1537SOL     OW16069   4.345   4.062  14.818 -0.5125 -0.3073  0.0106
 1537SOL    HW116070   4.364   4.143  14.867  0.1279  1.0909 -2.5435
 1537SOL    HW216071   4.394   3.999  14.871 -0.1248  0.1425  0.1951
 1538SOL     OW16072   4.073   3.412   1.035 -0.4567 -0.9692 -0.8366
 1538SOL    HW116073   4.098   3.505   1.037  2.2723 -1.7606  2.1436
 1538SOL    HW216074   4.138   3.376   1.095 -0.6057  1.3605  0.7364
 1539SOL     OW16075   1.731   0.091   0.745 -0.0059 -0.7875 -0.4251
 1539SOL    HW116076   1.648   0.098   0.792  1.0529  4.0633  0.6480
 1539SOL    HW216077   1.744   4.723   0.744 -1.2979 -0.9747 -0.6742
 1540SOL     OW16078   2.741   2.504   8.725 -0.1165 -0.1387 -0.0374
 1540SOL    HW116079   2.788   2.579   8.688  0.0710  0.3010  1.0698
 1540SOL    HW216080   2.704   2.556   8.797 -0.4657 -0.5116  0.0512
 1541SOL     OW16081   1.176   0.076   3.210 -0.0284 -0.7069 -0.2298
 1541SOL    HW116082   1.255   0.059   3.261 -0.7235  0.1912  1.1643
 1541SOL    HW216083   1.208   0.131   3.139 -0.0966  1.6945  1.5680
 1542SOL     OW16084   2.019   3.384  17.424  0.5239  0.3020 -0.1336
 1542SOL    HW116085   2.065   3.440  17.487 -1.4650  0.0466  1.5640
 1542SOL    HW216086   1.951   3.447  17.399 -0.3095 -0.3218  0.5709
 1543SOL     OW16087   4.100   0.886   8.677 -0.2816  0.1310 -0.1155
 1543SOL    HW116088   4.061   0.904   8.762  1.5204 -3.4807  1.4910
 1543SOL    HW216089   4.194   0.893   8.697 -0.5387  1.8758  0.4528
 1544SOL     OW16090   2.754   4.653   6.435  0.8943  0.1432 -0.1968
 1544SOL    HW116091   2.786   4.684   6.520 -2.0517 -0.9125  1.3077
 1544SOL    HW216092   2.710   0.004   6.403 -0.2141 -0.5662 -0.4064
 1545SOL     OW16093   1.791   0.142   2.882 -0.1130 -0.2018 -0.3063
 1545SOL    HW116094   1.792   0.215   2.820 -1.3829 -0.2991 -0.4403
 1545SOL    HW216095   1.698   0.124   2.895 -0.0637 -0.6259 -0.5291
 1546SOL     OW16096   3.850   2.688   5.665  0.3417  0.2450  0.3486
 1546SOL    HW116097   3.932   2.736   5.676  0.6025 -0.1677  0.1665
 1546SOL    HW216098   3.790   2.758   5.639 -0.6257 -0.8285 -0.3103
 1547SOL     OW16099   3.725   0.368   7.537  0.1663  0.2806 -0.1842
 1547SOL    HW116100   3.673   0.445   7.513  0.2242 -0.1416 -1.6800
 1547SOL    HW216101   3.766   0.405   7.615  0.5795  0.4504 -0.4845
 1548SOL     OW16102   4.530   2.886  14.165 -0.1735  1.0141  0.4309
 1548SOL    HW116103   4.549   2.934  14.085  1.1780  0.9700  0.7330
 1548SOL    HW216104   4.557   2.800  14.134  2.1192  1.7334  0.4520
 1549SOL     OW16105   4.144   2.970   7.025  0.4429 -0.0500 -0.1133
 1549SOL    HW116106   4.108   2.887   7.055  0.1022 -0.6646 -2.2565
 1549SOL    HW216107   4.238   2.949   7.030  0.0285 -1.5791  1.0183
 1550SOL     OW16108   1.424   0.538   5.250 -0.2129  0.2199  0.4197
 1550SOL    HW116109   1.425   0.630   5.277  1.8147 -0.1985  1.7636
 1550SOL    HW216110   1.475   0.541   5.169 -0.6549  1.1785  0.1778
 1551SOL     OW16111   3.121   3.764   5.008  0.1401  0.8307  0.4129
 1551SOL    HW116112   3.206   3.770   5.053  0.2357 -0.2391  0.3738
 1551SOL    HW216113   3.143   3.710   4.932  0.8001 -0.8550  1.7966
 1552SOL     OW16114   3.345   3.711   3.507  0.1791 -0.1073  0.8320
 1552SOL    HW116115   3.368   3.630   3.553 -1.9745 -0.3066  1.5802
 1552SOL    HW216116   3.354   3.775   3.578  2.7554 -0.2130  0.6204
 1553SOL     OW16117   2.925   1.244   1.486 -0.1456 -0.2273 -0.4842
 1553SOL    HW116118   2.994   1.180   1.502  0.3765 -0.1103 -2.2749
 1553SOL    HW216119   2.973   1.314   1.443 -1.2313  1.9856  1.9061
 1554SOL     OW16120   0.917   1.895   8.758 -0.4940 -0.1649  0.0748
 1554SOL    HW116121   0.833   1.898   8.803 -1.4005 -3.1221 -1.3940
 1554SOL    HW216122   0.951   1.983   8.772 -0.0082 -0.4438  0.6308
 1555SOL     OW16123   2.309   2.569  10.244 -0.3852 -0.0999  0.6315
 1555SOL    HW116124   2.284   2.580  10.336  1.1349 -1.1539  1.1788
 1555SOL    HW216125   2.252   2.638  10.213  0.3980 -0.9825 -2.7531
 1556SOL     OW16126   0.392   0.790   6.739 -1.0791 -0.3127 -0.0652
 1556SOL    HW116127   0.378   0.877   6.776  0.5803 -1.0030  2.1877
 1556SOL    HW216128   0.310   0.745   6.758 -0.6043 -1.2079 -0.1602
 1557SOL     OW16129   2.212   2.910   6.603  0.4302  0.3804 -0.4133
 1557SOL    HW116130   2.131   2.937   6.560  0.2852  1.4972  0.5727
 1557SOL    HW216131   2.250   2.991   6.637  0.6705 -0.6533  1.7905
 1558SOL     OW16132   3.781   0.102   3.268 -0.2683 -0.3672 -0.4333
 1558SOL    HW116133   3.699   0.125   3.224  0.0601  0.8037 -0.4274
 1558SOL    HW216134   3.837   0.108   3.190 -0.1356  1.4358 -0.1896
 1559SOL     OW16135   4.596   3.540   3.572  0.3209 -0.2916  0.9276
 1559SOL    HW116136   4.599   3.582   3.486  0.3661 -0.6492  0.7586
 1559SOL    HW216137   4.520   3.589   3.605  1.2636  2.2289 -0.6265
 1560SOL     OW16138   2.913   4.106   3.562  0.0007  0.4440 -0.1858
 1560SOL    HW116139   2.944   4.084   3.474 -1.8150  0.5405 -0.8327
 1560SOL    HW216140   2.822   4.124   3.542  0.0123  0.6035 -0.1020
 1561SOL     OW16141   0.758   1.946  16.144 -0.2211  0.2556 -0.1342
 1561SOL    HW116142   0.750   2.024  16.090 -2.8425  0.6137  0.7264
 1561SOL    HW216143   0.694   1.880  16.116  0.0350 -0.1663  0.2636
 1562SOL     OW16144   1.670   3.771   0.582  0.0663  0.0365 -0.2333
 1562SOL    HW116145   1.611   3.773   0.508 -0.4025 -1.5475  0.1031
 1562SOL    HW216146   1.752   3.777   0.533  2.4456  0.2618  3.7127
 1563SOL     OW16147   2.347   4.725   3.915 -0.2623 -0.0443 -0.1956
 1563SOL    HW116148   2.347   0.077   3.969 -0.3758  1.0775 -1.8391
 1563SOL    HW216149   2.255   4.699   3.907 -0.0640 -0.6002 -0.6748
 1564SOL     OW16150   2.020   0.271   6.949 -0.5492  0.4592  0.5284
 1564SOL    HW116151   1.956   0.227   6.894  0.9223 -0.8906 -0.1193
 1564SOL    HW216152   2.072   0.316   6.883 -1.7359  0.2029 -0.5668
 1565SOL     OW16153   2.821   4.443   1.863  0.1869 -0.6193  0.0480
 1565SOL    HW116154   2.735   4.423   1.826 -0.9214  0.5327  1.9670
 1565SOL    HW216155   2.849   4.353   1.881 -2.1688 -1.7275 -1.9172
 1566SOL     OW16156   4.489   2.185   8.503  0.5744 -0.5643 -0.1879
 1566SOL    HW116157   4.447   2.233   8.432 -0.2741  2.1491  2.1563
 1566SOL    HW216158   4.570   2.235   8.514 -0.3155  1.2616 -2.0225
 1567SOL     OW16159   1.273   2.407   8.300 -0.1568  0.1351  0.4410
 1567SOL    HW116160   1.342   2.464   8.269 -1.5499  1.4032 -0.3043
 1567SOL    HW216161   1.317   2.374   8.379 -0.5725 -0.8054  0.2837
 1568SOL     OW16162   3.444   2.807  10.988  0.3002  0.3522  0.0386
 1568SOL    HW116163   3.481   2.895  10.997  0.7054  0.0817  0.9887
 1568SOL    HW216164   3.393   2.816  10.907 -0.6244 -0.4657  0.5336
 1569SOL     OW16165   0.293   0.254  13.975  0.1790  0.0463 -0.3414
 1569SOL    HW116166   0.333   0.272  14.060 -1.5850 -0.1021  0.5286
 1569SOL    HW216167   0.283   0.340  13.934  0.4983  0.5091  0.5688
 1570SOL     OW16168   3.386   2.077  10.154  0.1282  0.2993 -0.0930
 1570SOL    HW116169   3.380   2.172  10.158  1.8127  0.3904  0.2120
 1570SOL    HW216170   3.313   2.058  10.212 -0.2627 -1.0882 -1.0383
 1571SOL     OW16171   3.014   2.199   9.093 -0.0936 -0.0600  0.2836
 1571SOL    HW116172   2.978   2.240   9.171  1.9021  1.3001  0.4990
 1571SOL    HW216173   2.969   2.242   9.021 -1.4855  0.9352  1.7592
 1572SOL     OW16174   0.502   2.788   7.058  0.2349 -0.4031 -0.4235
 1572SOL    HW116175   0.592   2.799   7.028 -0.1894  2.1953 -0.7710
 1572SOL    HW216176   0.523   2.708   7.106 -0.8562 -0.3547  0.1330
 1573SOL     OW16177   1.354   2.234  11.704 -0.5503  0.1311 -0.0431
 1573SOL    HW116178   1.441   2.204  11.733 -0.4410  1.1257  0.6342
 1573SOL    HW216179   1.368   2.326  11.682  0.5160 -0.3663 -1.4939
 1574SOL     OW16180   4.185   4.174   5.334 -0.1628  0.2299 -1.0017
 1574SOL    HW116181   4.237   4.253   5.317  2.6688 -1.2330  0.7363
 1574SOL    HW216182   4.242   4.119   5.388 -0.4937  1.5881  0.7320
 1575SOL     OW16183   0.422   2.800   0.044  0.2848  0.0850 -1.0104
 1575SOL    HW116184   0.455   2.884   0.012  0.6404 -0.0698 -1.0434
 1575SOL    HW216185   0.492   2.737   0.023  2.2428  1.7642  0.5965
 1576SOL     OW16186   0.070   3.960   4.126 -0.1155 -0.0577 -0.4457
 1576SOL    HW116187   0.023   3.990   4.204  0.7935  1.6223 -0.5280
 1576SOL    HW216188   0.009   3.990   4.059 -0.4363 -0.4120 -0.3127
 1577SOL     OW16189   0.240   2.377  11.240  0.4242  0.9779 -0.0306
 1577SOL    HW116190   0.267   2.377  11.148 -2.0561 -0.6895 -0.7764
 1577SOL    HW216191   0.144   2.375  11.236  0.4334 -0.0843  0.1808
 1578SOL     OW16192   3.439   3.642  12.258 -0.2608 -0.6819  0.4109
 1578SOL    HW116193   3.348   3.671  12.271  1.0180  3.0098  1.0932
 1578SOL    HW216194   3.493   3.707  12.303 -0.3336 -0.0879 -0.3467
 1579SOL     OW16195   1.769   2.487   0.753 -0.0492  0.0740 -0.3813
 1579SOL    HW116196   1.844   2.546   0.758  1.2942 -1.6144 -0.6974
 1579SOL    HW216197   1.800   2.410   0.800  1.4469  0.4488 -0.7747
 1580SOL     OW16198   2.190   2.023  17.361  0.4011  0.0241  0.0816
 1580SOL    HW116199   2.206   2.117  17.374 -1.0756  0.3374 -0.3479
 1580SOL    HW216200   2.274   1.981  17.376 -0.1640 -0.6058  1.5144
 1581SOL     OW16201   3.959   0.553  16.783  0.6210 -0.0476  0.1086
 1581SOL    HW116202   4.040   0.601  16.765 -0.6885  2.2034  0.1586
 1581SOL    HW216203   3.892   0.608  16.743  1.5645 -0.3192 -1.8367
 1582SOL     OW16204   1.239   4.589   6.409  0.3004  0.2330  0.2743
 1582SOL    HW116205   1.297   4.614   6.336  1.4261  1.5608  1.6185
 1582SOL    HW216206   1.303   4.543   6.464  0.2786 -0.0978  0.0243
 1583SOL     OW16207   0.499   3.814   2.108  0.1091 -0.0436  0.0841
 1583SOL    HW116208   0.430   3.827   2.173  0.6907  0.0707  0.6872
 1583SOL    HW216209   0.469   3.748   2.046  2.5381 -0.9826 -0.0962
 1584SOL     OW16210   0.922   1.654  14.766 -0.1296  0.5219 -0.3668
 1584SOL    HW116211   0.962   1.741  14.775 -1.7102  1.1457  0.6647
 1584SOL    HW216212   0.946   1.615  14.849  2.0446 -0.1562 -1.3253
 1585SOL     OW16213   2.037   3.241   4.983  0.0327 -0.3404 -0.6355
 1585SOL    HW116214   2.083   3.310   5.030  0.4942 -2.2075  1.7010
 1585SOL    HW216215   1.949   3.278   4.981 -0.2038 -0.9289 -1.2621
 1586SOL     OW16216   1.037   2.473   8.177  0.4006 -0.4291  0.4356
 1586SOL    HW116217   1.037   2.566   8.201 -0.6415 -0.8538  2.0844
 1586SOL    HW216218   1.120   2.444   8.213  0.3929 -1.7033 -0.5869
 1587SOL     OW16219   3.696   4.249  16.019 -0.3443  0.3853  0.7541
 1587SOL    HW116220   3.653   4.253  16.105 -0.4054 -1.1687  0.8049
 1587SOL    HW216221   3.710   4.342  16.002  0.2424  0.5459  2.0610
 1588SOL     OW16222   3.955   2.502   0.735  0.0801  0.4182  0.3434
 1588SOL    HW116223   4.017   2.567   0.768 -0.6835  1.1421  0.3567
 1588SOL    HW216224   4.007   2.422   0.740 -0.4291  0.1044  0.5334
 1589SOL     OW16225   3.745   4.489   7.774  0.2123 -0.3522  0.6049
 1589SOL    HW116226   3.702   4.571   7.797 -0.0792 -0.1566 -0.6782
 1589SOL    HW216227   3.661   4.453   7.746  0.6106  1.8577 -3.3656
 1590SOL     OW16228   0.553   3.451   3.178 -0.1220 -0.1792  0.6851
 1590SOL    HW116229   0.551   3.385   3.247 -0.5685 -0.1033  0.7430
 1590SOL    HW216230   0.461   3.456   3.151 -0.3375  0.9365  1.6406
 1591SOL     OW16231   2.073   0.162  17.193  0.0742  0.2538  0.5335
 1591SOL    HW116232   2.097   0.247  17.228 -0.2055  0.7316 -0.4448
 1591SOL    HW216233   2.008   0.137  17.259  0.8710  0.8543  1.5490
 1592SOL     OW16234   4.065   0.231   8.057 -0.2145 -0.0443 -0.4659
 1592SOL    HW116235   4.127   0.176   8.010 -0.4746 -0.6581 -0.0954
 1592SOL    HW216236   4.031   0.174   8.127 -1.9317  1.0745 -0.3752
 1593SOL     OW16237   4.379   0.465   9.577  0.1365 -0.3341  0.4809
 1593SOL    HW116238   4.435   0.532   9.616  0.5350 -1.0065  1.0674
 1593SOL    HW216239   4.293   0.480   9.617 -0.3984  0.7772 -1.0757
 1594SOL     OW16240   3.446   0.271   5.713  1.2583 -0.2774  1.1057
 1594SOL    HW116241   3.491   0.295   5.632 -2.7391  0.4208 -0.9069
 1594SOL    HW216242   3.361   0.309   5.693  1.2818 -1.3054 -1.0004
 1595SOL     OW16243   0.782   3.453  12.989  0.5965  0.8713 -0.1448
 1595SOL    HW116244   0.762   3.371  12.945  3.1382  0.0127  0.3274
 1595SOL    HW216245   0.698   3.483  13.024  0.7682  0.5926  0.5025
 1596SOL     OW16246   4.286   0.600   7.367 -0.0085  0.1284 -0.2184
 1596SOL    HW116247   4.309   0.604   7.274  0.4795 -3.4430 -0.2313
 1596SOL    HW216248   4.235   0.520   7.374 -0.1702  0.1939 -0.5992
 1597SOL     OW16249   3.546   3.874   2.472  0.6762 -0.2389 -0.2634
 1597SOL    HW116250   3.573   3.957   2.512 -0.5024 -0.3706  0.7908
 1597SOL    HW216251   3.452   3.875   2.485  0.6634  0.5444 -0.4254
 1598SOL     OW16252   0.605   0.895  16.259  0.0582 -0.1377  0.5108
 1598SOL    HW116253   0.624   0.815  16.211 -0.6988 -0.1539  0.2352
 1598SOL    HW216254   0.643   0.874  16.344  0.0417 -2.5475 -0.0868
 1599SOL     OW16255   1.154   2.861   7.972  0.1101 -0.0416 -0.4425
 1599SOL    HW116256   1.062   2.881   7.986  0.5767  1.4242  0.4912
 1599SOL    HW216257   1.183   2.940   7.928  0.5502  0.0421 -0.0023
 1600SOL     OW16258   2.824   3.578   7.400  0.4900 -0.1039 -0.0918
 1600SOL    HW116259   2.815   3.656   7.456  0.7558 -0.1613  0.0294
 1600SOL    HW216260   2.738   3.569   7.359 -0.2747 -0.6316  1.6133
 1601SOL     OW16261   2.389   2.667   5.919 -0.1002 -0.2134  0.4154
 1601SOL    HW116262   2.442   2.606   5.971 -0.8727 -2.6861 -1.6738
 1601SOL    HW216263   2.414   2.641   5.831 -2.1511 -2.1147  0.4080
 1602SOL     OW16264   0.523   1.895   1.344 -0.2732 -0.1559  0.4715
 1602SOL    HW116265   0.507   1.984   1.376 -0.3752  0.4667 -1.3105
 1602SOL    HW216266   0.450   1.877   1.284  0.3468  0.0337 -0.3272
 1603SOL     OW16267   2.182   0.556   5.556 -0.1006 -0.0978 -0.1488
 1603SOL    HW116268   2.224   0.631   5.515 -1.2062  1.6457  1.8876
 1603SOL    HW216269   2.100   0.539   5.510 -0.5824  0.5894  0.4634
 1604SOL     OW16270   1.004   3.153   8.017 -0.2560  0.5165 -0.0879
 1604SOL    HW116271   0.955   3.071   8.018  0.6796 -0.0299  0.5036
 1604SOL    HW216272   0.975   3.194   8.099 -1.5547 -1.0265  0.2238
 1605SOL     OW16273   4.188   2.629   6.080  0.3059 -0.3524  0.1036
 1605SOL    HW116274   4.098   2.624   6.111 -0.4766  0.8888 -2.0391
 1605SOL    HW216275   4.235   2.679   6.147  0.1433 -0.1454  0.0621
 1606SOL     OW16276   2.074   4.026  16.163  0.5762 -0.3666 -0.5980
 1606SOL    HW116277   2.114   3.941  16.184  2.7763  0.4994 -1.2696
 1606SOL    HW216278   1.983   4.023  16.192  0.7563 -2.4507 -0.2665
 1607SOL     OW16279   2.961   3.374   2.995  0.3801 -0.5732 -0.3313
 1607SOL    HW116280   3.043   3.418   3.014  0.6063 -1.0969 -0.1118
 1607SOL    HW216281   2.917   3.443   2.944  2.1060  0.6934 -0.1204
 1608SOL     OW16282   3.283   2.024  16.421 -0.1493  0.5217  0.2389
 1608SOL    HW116283   3.202   2.012  16.372 -0.5557  1.6624  0.6265
 1608SOL    HW216284   3.333   1.955  16.378  0.0171  0.2172  0.9100
 1609SOL     OW16285   1.911   4.366  12.721 -0.1064  0.3457  0.4318
 1609SOL    HW116286   1.832   4.416  12.739 -0.2277  0.5911 -0.8340
 1609SOL    HW216287   1.874   4.278  12.717  0.4475  0.1131  0.4654
 1610SOL     OW16288   4.212   4.386   5.093  0.4813 -0.1894 -0.3555
 1610SOL    HW116289   4.146   4.405   5.160  0.3449  0.6363 -0.7187
 1610SOL    HW216290   4.182   4.442   5.022  0.9859  0.4309 -0.0826
 1611SOL     OW16291   4.565   0.690   7.945  0.4324  0.2132 -0.3857
 1611SOL    HW116292   4.607   0.771   7.974  1.4199 -0.2343 -0.5685
 1611SOL    HW216293   4.481   0.724   7.914  0.3692  0.6604  0.2718
 1612SOL     OW16294   4.137   1.123   4.690 -0.2757 -0.3397 -0.2468
 1612SOL    HW116295   4.042   1.121   4.699 -0.1922  2.3228  1.3730
 1612SOL    HW216296   4.149   1.182   4.616  0.9415  1.2494  1.2237
 1613SOL     OW16297   2.767   2.544  13.601 -0.0520 -0.1373 -0.1527
 1613SOL    HW116298   2.699   2.527  13.536  0.5074 -1.4223 -0.4030
 1613SOL    HW216299   2.743   2.476  13.665  0.2772  0.5013  0.6516
 1614SOL     OW16300   1.768   3.989   1.700  1.0703  0.1621 -0.3351
 1614SOL    HW116301   1.686   4.033   1.678  1.2008  0.6707  0.1988
 1614SOL    HW216302   1.836   4.046   1.664  1.2005  0.6500  0.6702
 1615SOL     OW16303   1.256   3.850   7.594 -0.4449 -0.1944  0.0236
 1615SOL    HW116304   1.221   3.933   7.564 -0.4437  0.3960  1.6624
 1615SOL    HW216305   1.345   3.858   7.560 -0.5868 -0.8760 -0.5011
 1616SOL     OW16306   4.111   0.096   2.581 -0.5232 -0.3189 -0.0580
 1616SOL    HW116307   4.047   0.025   2.588 -0.6755 -0.2174 -0.4251
 1616SOL    HW216308   4.154   0.088   2.666 -0.2599  0.6887 -0.0923
 1617SOL     OW16309   2.433   2.845   3.757  0.0903  0.4752  0.1962
 1617SOL    HW116310   2.414   2.752   3.746 -0.7355  0.4966  1.5254
 1617SOL    HW216311   2.525   2.827   3.775 -0.0780 -0.6933 -0.1036
 1618SOL     OW16312   4.591   4.719  15.452  0.3205 -0.4270  0.3846
 1618SOL    HW116313   4.584   4.636  15.500  1.0947 -0.1403  0.9994
 1618SOL    HW216314   4.638   4.686  15.375 -0.1738 -0.6113  0.1632
 1619SOL     OW16315   0.852   0.896   3.992 -0.1244 -0.2462  0.1075
 1619SOL    HW116316   0.934   0.849   4.001  0.6761  1.4683  1.7009
 1619SOL    HW216317   0.812   0.846   3.920 -0.4638 -0.8798  0.7328
 1620SOL     OW16318   1.564   0.427  15.420  0.4872  0.4908 -0.2891
 1620SOL    HW116319   1.605   0.441  15.334 -0.0573  0.1500 -0.6117
 1620SOL    HW216320   1.622   0.359  15.454 -0.2785 -0.3095 -0.5436
 1621SOL     OW16321   1.623   0.924   6.020 -0.3556  0.1656  0.0907
 1621SOL    HW116322   1.717   0.906   6.014 -0.0632  1.7603 -0.0038
 1621SOL    HW216323   1.614   0.946   6.113 -1.7413 -0.1584  0.0343
 1622SOL     OW16324   0.506   4.474   5.048  0.2876 -0.6531 -0.0462
 1622SOL    HW116325   0.592   4.452   5.014  0.6958  0.4714  0.2712
 1622SOL    HW216326   0.469   4.394   5.085  0.6008 -0.3180  0.9857
 1623SOL     OW16327   3.675   3.734   3.609  0.0957  0.4510  0.5074
 1623SOL    HW116328   3.769   3.738   3.589  0.1211 -0.6841  0.3951
 1623SOL    HW216329   3.663   3.681   3.688  2.3033  0.1265  0.6236
 1624SOL     OW16330   1.173   0.458   8.928  0.2519  0.6565  0.5015
 1624SOL    HW116331   1.088   0.466   8.885 -0.5846 -2.4882  1.5778
 1624SOL    HW216332   1.198   0.550   8.938  1.8803  0.6062 -2.8797
 1625SOL     OW16333   3.276   3.683   5.400 -0.2415  0.0229 -0.2259
 1625SOL    HW116334   3.359   3.639   5.420  0.2022  1.6219  1.4186
 1625SOL    HW216335   3.239   3.705   5.486  1.7806 -1.0635  0.9282
 1626SOL     OW16336   1.750   3.474   9.567  0.3636 -0.0247 -0.3155
 1626SOL    HW116337   1.677   3.501   9.622 -0.0603  1.2317 -1.5069
 1626SOL    HW216338   1.709   3.487   9.482  0.6816  3.1078  0.0193
 1627SOL     OW16339   1.973   3.147   8.983  0.2494  0.0594  0.0173
 1627SOL    HW116340   1.923   3.118   9.059  0.8433  0.6105  0.6294
 1627SOL    HW216341   1.911   3.136   8.911  0.4605 -0.9379 -0.0134
 1628SOL     OW16342   1.457   3.281   1.622 -0.3359 -0.6929 -0.0672
 1628SOL    HW116343   1.504   3.340   1.563 -0.0192  0.8401  1.7679
 1628SOL    HW216344   1.425   3.205   1.572 -3.1680 -0.1072  0.8468
 1629SOL     OW16345   4.403   0.222   9.711  0.0131  0.7245 -0.2452
 1629SOL    HW116346   4.494   0.193   9.717 -0.0292  0.3760 -1.3483
 1629SOL    HW216347   4.415   0.313   9.683  0.5427  0.7676  0.1163
 1630SOL     OW16348   3.330   1.270   2.920  0.1498  0.0662  0.2072
 1630SOL    HW116349   3.269   1.223   2.863  0.9648 -2.2869  1.2980
 1630SOL    HW216350   3.306   1.246   3.009 -0.7429  0.0354 -0.0361
 1631SOL     OW16351   3.274   4.532   4.346 -0.3421  0.0828 -0.2366
 1631SOL    HW116352   3.290   4.625   4.330 -2.4321  0.5964  0.5617
 1631SOL    HW216353   3.255   4.501   4.258  0.0304  1.5698 -0.8333
 1632SOL     OW16354   1.848   4.060   7.704 -0.0634 -0.3230 -0.2599
 1632SOL    HW116355   1.763   4.016   7.705 -0.1412 -0.1401  0.8187
 1632SOL    HW216356   1.830   4.139   7.653 -2.3464  0.5103  1.8284
 1633SOL     OW16357   0.351   4.556   8.608 -0.1759  0.1429 -0.1525
 1633SOL    HW116358   0.432   4.510   8.585  0.8630  1.3163  1.2398
 1633SOL    HW216359   0.383   4.646   8.613 -1.2489  0.4699  0.8336
 1634SOL     OW16360   2.860   0.498   2.188  0.0840 -0.1537 -0.4648
 1634SOL    HW116361   2.862   0.416   2.139 -0.6750 -0.2729 -0.2941
 1634SOL    HW216362   2.899   0.479   2.273  0.7131  0.6465 -0.5681
 1635SOL     OW16363   0.704   0.807   5.234 -0.0459  0.1635  0.2247
 1635SOL    HW116364   0.689   0.729   5.287 -2.0763 -1.6947 -3.1330
 1635SOL    HW216365   0.614   0.822   5.205 -0.5935  0.2766  1.9885
 1636SOL     OW16366   3.468   0.089   1.507 -0.3654  0.0615 -0.9260
 1636SOL    HW116367   3.493   0.176   1.476  0.1276  0.2741  0.0789
 1636SOL    HW216368   3.500   0.098   1.596  0.4637 -1.0504 -1.1240
 1637SOL     OW16369   3.666   2.406   3.039  0.1276  0.2248  0.2321
 1637SOL    HW116370   3.758   2.390   3.058  0.3455  2.2721  0.9391
 1637SOL    HW216371   3.631   2.424   3.127 -0.5377  1.1738 -0.2273
 1638SOL     OW16372   4.661   1.861   9.613 -0.3085 -0.4175  0.3908
 1638SOL    HW116373   4.701   1.802   9.677  0.3607 -1.1024 -0.6643
 1638SOL    HW216374   4.581   1.875   9.664 -0.2361  1.1334  0.0630
 1639SOL     OW16375   1.441   2.424   7.165  0.0195  0.2825 -0.1194
 1639SOL    HW116376   1.370   2.433   7.228  0.7842 -2.5725  1.1399
 1639SOL    HW216377   1.484   2.340   7.180  0.8615  0.7989  0.3966
 1640SOL     OW16378   4.682   3.589  12.064  0.3418  0.5802  0.0756
 1640SOL    HW116379   4.727   3.508  12.039 -0.3864  0.1646  0.1069
 1640SOL    HW216380   4.647   3.567  12.151  1.1300  1.1144  0.5265
 1641SOL     OW16381   2.199   4.312   7.608  0.4868 -0.6417 -0.2427
 1641SOL    HW116382   2.110   4.345   7.620  0.9466  0.2191  0.7698
 1641SOL    HW216383   2.253   4.345   7.680 -0.6219  1.5398 -0.4116
 1642SOL     OW16384   3.042   0.381   6.759 -0.0873 -0.5422 -0.6131
 1642SOL    HW116385   3.054   0.414   6.849  0.3078 -0.4870 -0.6874
 1642SOL    HW216386   2.961   0.430   6.744  0.6747  0.9365  0.0763
 1643SOL     OW16387   3.108   1.799   8.693  0.3850  0.2575 -0.1494
 1643SOL    HW116388   3.146   1.795   8.606 -0.2392 -1.9093 -0.3310
 1643SOL    HW216389   3.169   1.863   8.729  0.7858  0.4602 -1.2044
 1644SOL     OW16390   4.670   1.469  15.478  0.6023  0.3284  0.2935
 1644SOL    HW116391   4.641   1.550  15.519  1.3125  1.0194 -0.5654
 1644SOL    HW216392   4.684   1.493  15.386  0.1233  2.7688  0.8444
 1645SOL     OW16393   1.263   2.067   6.409  0.5399  0.3931 -0.1898
 1645SOL    HW116394   1.340   2.103   6.366  1.0917  0.2835  0.7152
 1645SOL    HW216395   1.193   2.093   6.349 -0.3166 -0.3421  0.4833
 1646SOL     OW16396   2.348   2.896  16.040 -0.0540 -0.8036 -0.1010
 1646SOL    HW116397   2.288   2.941  15.981 -0.6448 -1.0555  0.3139
 1646SOL    HW216398   2.277   2.876  16.101 -0.2503 -1.4836 -0.5568
 1647SOL     OW16399   0.243   0.737   0.781 -0.3643  0.4237  0.4687
 1647SOL    HW116400   0.162   0.686   0.791  0.3011 -0.8058 -0.4004
 1647SOL    HW216401   0.250   0.748   0.686 -1.0272 -1.4229  0.1902
 1648SOL     OW16402   3.080   1.896  16.873 -0.3835 -0.2863  0.8770
 1648SOL    HW116403   3.131   1.893  16.792 -0.1366  2.3193  0.9325
 1648SOL    HW216404   3.002   1.944  16.845  0.5095  0.2096 -0.7562
 1649SOL     OW16405   1.840   0.197   6.773  0.2642  0.1060  0.6163
 1649SOL    HW116406   1.849   0.153   6.689 -2.0844 -0.8042  0.8304
 1649SOL    HW216407   1.747   0.217   6.760  0.4019 -0.0849 -0.6746
 1650SOL     OW16408   4.127   1.229  10.363 -0.2544 -0.5320 -0.1898
 1650SOL    HW116409   4.110   1.319  10.335 -0.6708  0.3901  3.0326
 1650SOL    HW216410   4.204   1.194  10.318 -2.4392 -1.5716 -3.0926
 1651SOL     OW16411   0.233   2.927   4.014 -0.6906 -0.8522  0.2889
 1651SOL    HW116412   0.190   2.855   3.968 -1.3819 -0.3933  0.2263
 1651SOL    HW216413   0.191   2.925   4.100  1.4848 -2.5817  1.3243
 1652SOL     OW16414   3.731   2.956  16.984  0.0547  0.1676  0.4451
 1652SOL    HW116415   3.813   2.961  17.032  1.0425  0.0018 -1.1974
 1652SOL    HW216416   3.676   3.023  17.024 -0.5586 -0.2764  0.3467
 1653SOL     OW16417   1.035   0.758   8.565 -0.1494 -0.5547  0.1029
 1653SOL    HW116418   0.988   0.678   8.542  0.4047 -1.0751  0.7868
 1653SOL    HW216419   0.998   0.775   8.652 -0.2626  1.1037 -0.2610
 1654SOL     OW16420   0.001   1.654   7.714  0.0994  0.2383 -0.0479
 1654SOL    HW116421   4.726   1.721   7.645  1.0801  0.5785  0.2503
 1654SOL    HW216422   4.633   1.649   7.721  0.3696 -1.6740  2.0482
 1655SOL     OW16423   4.655   1.203   9.441 -0.1320  0.0788 -0.1594
 1655SOL    HW116424   4.679   1.247   9.360 -1.3724  0.6785 -0.1996
 1655SOL    HW216425   4.570   1.163   9.419  0.1631 -0.8493  0.3826
 1656SOL     OW16426   4.106   0.765   3.698  0.0015 -0.6936  0.3914
 1656SOL    HW116427   4.178   0.717   3.736  1.7439 -0.0327 -2.0754
 1656SOL    HW216428   4.082   0.710   3.623 -0.7703 -0.5801  0.5530
 1657SOL     OW16429   0.283   3.862   4.295 -0.0527  0.4425  0.2097
 1657SOL    HW116430   0.213   3.817   4.342 -0.7341  2.2484  0.9343
 1657SOL    HW216431   0.234   3.876   4.213 -1.7446  1.1550  1.3530
 1658SOL     OW16432   0.800   2.239   7.418  0.0474 -0.1337  0.1233
 1658SOL    HW116433   0.719   2.244   7.367  2.3863 -0.8529 -3.7016
 1658SOL    HW216434   0.862   2.204   7.353  0.0451 -1.8078  1.0329
 1659SOL     OW16435   3.671   1.279   5.226  0.8297  0.3608  0.3376
 1659SOL    HW116436   3.707   1.191   5.240 -0.7328 -0.2216  0.7411
 1659SOL    HW216437   3.661   1.279   5.131 -1.9505 -2.5470  0.6083
 1660SOL     OW16438   2.692   3.724   5.543  0.4293 -0.5245 -0.6344
 1660SOL    HW116439   2.700   3.643   5.493 -3.0967 -1.1167 -0.2444
 1660SOL    HW216440   2.726   3.786   5.480 -0.9726 -0.4338 -1.2874
 1661SOL     OW16441   4.176   1.044   3.678 -0.5431  0.1598  0.1802
 1661SOL    HW116442   4.147   0.953   3.668  0.4021  0.0278 -1.2220
 1661SOL    HW216443   4.252   1.035   3.735 -0.9939 -1.9407  0.4656
 1662SOL     OW16444   4.417   2.995   6.195 -0.6301 -0.8534  0.4137
 1662SOL    HW116445   4.334   3.040   6.182  0.5100  0.5491 -1.9861
 1662SOL    HW216446   4.453   3.041   6.271 -3.0592  0.7200  0.6107
 1663SOL     OW16447   1.375   2.860  13.690 -0.3564  0.5221 -0.2753
 1663SOL    HW116448   1.469   2.862  13.672 -0.5739  2.8714 -1.1144
 1663SOL    HW216449   1.373   2.940  13.743  0.5895 -1.1631  2.2988
 1664SOL     OW16450   1.073   2.297   5.782 -0.3514  0.6071  0.4172
 1664SOL    HW116451   1.017   2.355   5.730 -0.3337  1.1809  1.0394
 1664SOL    HW216452   1.134   2.366   5.808 -0.0146  0.4392  0.0685
 1665SOL     OW16453   4.656   2.860   6.313 -0.6174 -0.1681  0.5456
 1665SOL    HW116454   4.633   2.947   6.281  1.2165 -0.1019 -0.5984
 1665SOL    HW216455   0.010   2.879   6.360 -2.0366  2.4607  1.8994
 1666SOL     OW16456   4.031   4.161   6.924  0.0490  0.6432 -0.2014
 1666SOL    HW116457   3.974   4.085   6.918  1.5002 -0.5774  1.3646
 1666SOL    HW216458   4.114   4.114   6.914 -1.0694 -1.6206  1.0119
 1667SOL     OW16459   1.332   2.661   8.026 -0.5093 -0.1615 -0.0359
 1667SOL    HW116460   1.273   2.736   8.017 -1.1955 -0.6491  0.3921
 1667SOL    HW216461   1.340   2.657   8.121  0.2790  0.3318 -0.0777
 1668SOL     OW16462   4.274   2.819   1.539  0.5474 -0.0558 -0.0680
 1668SOL    HW116463   4.239   2.827   1.450 -0.5579 -0.9906  0.2836
 1668SOL    HW216464   4.221   2.880   1.592 -0.1856 -0.1605 -0.6840
 1669SOL     OW16465   1.679   4.379  17.605  0.5101  0.0107  0.2531
 1669SOL    HW116466   1.641   4.447  17.660 -1.3960 -0.4225 -0.5487
 1669SOL    HW216467   1.674   4.430  17.524  0.8496 -0.2605  0.0557
 1670SOL     OW16468   1.632   3.258   8.442  0.4148 -0.7578  0.0274
 1670SOL    HW116469   1.627   3.290   8.352 -0.8482  0.6872  0.6087
 1670SOL    HW216470   1.558   3.198   8.441  1.3503 -1.9122 -0.3684
 1671SOL     OW16471   1.929   4.446   5.375  0.0140 -0.1759 -0.0792
 1671SOL    HW116472   1.909   4.394   5.297  1.5844  0.7642 -1.1101
 1671SOL    HW216473   1.931   4.381   5.445 -1.7006 -1.4846 -1.2329
 1672SOL     OW16474   3.670   3.381   1.990 -0.3101  0.8952 -0.0019
 1672SOL    HW116475   3.596   3.442   1.992 -0.8947  0.1755  0.9337
 1672SOL    HW216476   3.652   3.327   1.913 -1.5270 -0.8090  1.4689
 1673SOL     OW16477   0.403   4.573  10.557 -0.1660  0.1408  0.4104
 1673SOL    HW116478   0.458   4.644  10.522 -2.4793  1.7143 -0.0404
 1673SOL    HW216479   0.319   4.614  10.577  0.9013  2.4384  0.1971
 1674SOL     OW16480   2.878   3.024   6.631  0.2112 -0.0334  0.1013
 1674SOL    HW116481   2.934   2.951   6.658  0.7617  0.3719  0.0600
 1674SOL    HW216482   2.920   3.101   6.669 -0.8586  0.0147  1.1853
 1675SOL     OW16483   2.609   2.139   4.833 -0.6835 -0.3695 -0.1538
 1675SOL    HW116484   2.613   2.150   4.738 -0.0305 -1.2129 -0.2257
 1675SOL    HW216485   2.529   2.086   4.841  0.2584 -1.7297  0.3442
 1676SOL     OW16486   4.319   4.530   2.333 -0.4965  0.1217 -0.3179
 1676SOL    HW116487   4.314   4.466   2.403 -1.2676  0.0751 -0.4215
 1676SOL    HW216488   4.397   4.497   2.289 -0.4373 -3.0185  2.1341
 1677SOL     OW16489   2.744   1.680  14.188 -0.6530  0.1978  0.8104
 1677SOL    HW116490   2.824   1.732  14.177 -1.1210  0.6575 -0.4164
 1677SOL    HW216491   2.756   1.639  14.274  0.2320  0.3786  0.7747
 1678SOL     OW16492   0.358   1.241   0.230 -0.3899  0.1107  0.1818
 1678SOL    HW116493   0.263   1.242   0.218 -0.6508  2.6061  2.4929
 1678SOL    HW216494   0.379   1.153   0.261  0.0077  0.5241  1.0744
 1679SOL     OW16495   0.503   2.126   4.860 -0.3716  0.1785 -0.0915
 1679SOL    HW116496   0.444   2.129   4.785  0.4245 -0.3835 -0.7346
 1679SOL    HW216497   0.563   2.198   4.839  1.3532 -1.6082 -1.1819
 1680SOL     OW16498   3.902   1.851   8.279 -0.5302  0.1302  0.0327
 1680SOL    HW116499   3.978   1.842   8.221 -0.5931 -1.5149  0.2052
 1680SOL    HW216500   3.858   1.923   8.234  0.4083  0.6251 -0.0987
 1681SOL     OW16501   2.199   0.324   6.743  0.6830 -0.0174  0.2611
 1681SOL    HW116502   2.244   0.405   6.768  2.6449 -1.7208  2.1761
 1681SOL    HW216503   2.194   0.340   6.649  2.2625  0.1114  0.2023
 1682SOL     OW16504   2.622   1.278   5.394 -0.2532 -0.1680  0.2614
 1682SOL    HW116505   2.689   1.324   5.445 -1.2700 -1.4220  2.7352
 1682SOL    HW216506   2.662   1.204   5.349 -0.0007  0.2607 -0.2090
 1683SOL     OW16507   3.822   2.610  17.164 -0.1305  0.2281  0.3194
 1683SOL    HW116508   3.739   2.616  17.117 -0.5697  2.5927  1.4023
 1683SOL    HW216509   3.818   2.517  17.188 -1.1436  0.7249  2.0970
 1684SOL     OW16510   0.027   2.118   2.208 -0.1655 -0.3257  0.1572
 1684SOL    HW116511   0.096   2.159   2.156 -1.4179  0.1458 -1.1443
 1684SOL    HW216512   4.718   2.058   2.141 -0.8691  1.5074 -1.1032
 1685SOL     OW16513   3.647   0.083   1.749  0.3047 -0.0069  0.1054
 1685SOL    HW116514   3.738   0.112   1.741  0.0152  0.4747 -1.3373
 1685SOL    HW216515   3.624   0.093   1.842  0.4824 -1.5769  0.3228
 1686SOL     OW16516   4.600   4.062   3.908 -0.0840  0.2695  0.1419
 1686SOL    HW116517   4.534   4.057   3.976 -0.4275 -1.6301 -0.3274
 1686SOL    HW216518   4.594   4.156   3.890 -0.3705 -0.2192 -2.4473
 1687SOL     OW16519   0.159   3.156   6.400  0.6162 -0.4803 -0.5245
 1687SOL    HW116520   0.253   3.164   6.414  0.5481 -0.1539 -0.2348
 1687SOL    HW216521   0.159   3.065   6.370 -1.8124 -0.0160 -1.9552
 1688SOL     OW16522   0.476   3.086   9.521  0.8952  0.3647  0.2245
 1688SOL    HW116523   0.475   3.118   9.431 -0.2680  0.2983  0.2205
 1688SOL    HW216524   0.471   2.991   9.516  0.3861  0.3860  0.3361
 1689SOL     OW16525   1.488   1.887   3.173  0.0193 -0.3458 -0.2695
 1689SOL    HW116526   1.545   1.821   3.134 -1.3133 -0.2749 -2.3293
 1689SOL    HW216527   1.419   1.835   3.214 -3.0502  2.5803 -1.7264
 1690SOL     OW16528   3.336   0.665   6.298 -0.1552 -0.3898 -0.0139
 1690SOL    HW116529   3.414   0.643   6.247  1.4423 -0.4574  2.4344
 1690SOL    HW216530   3.304   0.584   6.339 -1.9135  0.0937 -0.4264
 1691SOL     OW16531   4.583   4.212   9.021  0.9045  0.0062 -0.3839
 1691SOL    HW116532   4.521   4.163   9.075  0.8933  0.9885  0.4992
 1691SOL    HW216533   4.527   4.226   8.945  0.1448 -0.1813  0.1400
 1692SOL     OW16534   2.005   1.353   9.483 -1.0514 -0.4206 -0.0484
 1692SOL    HW116535   1.969   1.335   9.396 -0.9845 -1.5824  0.1618
 1692SOL    HW216536   1.971   1.441   9.498  0.3946  0.4797 -2.0614
 1693SOL     OW16537   3.975   0.304   6.625 -0.5741 -0.1293  0.0794
 1693SOL    HW116538   4.002   0.367   6.692 -1.8624  1.4095 -0.8421
 1693SOL    HW216539   3.946   0.236   6.686  0.1848  0.4421  1.0754
 1694SOL     OW16540   0.867   2.418   3.326 -0.1348  0.6724  0.5463
 1694SOL    HW116541   0.855   2.336   3.374 -2.3183 -0.7231 -2.4156
 1694SOL    HW216542   0.960   2.440   3.331  0.1660 -0.6799  0.7085
 1695SOL     OW16543   1.558   4.590   4.259 -0.1141 -0.8276  0.0845
 1695SOL    HW116544   1.587   4.627   4.343  0.9279  0.6600 -0.9361
 1695SOL    HW216545   1.516   4.670   4.228 -0.8038 -1.0154  0.5301
 1696SOL     OW16546   0.740   3.308  11.252  0.2862  0.1300  0.4895
 1696SOL    HW116547   0.733   3.391  11.204  1.1766 -0.6171 -0.9284
 1696SOL    HW216548   0.828   3.289  11.284  0.3126  1.2332  1.0721
 1697SOL     OW16549   1.404   3.156   5.940 -0.3853 -0.3564 -0.1003
 1697SOL    HW116550   1.484   3.104   5.934  0.0499  0.4735 -1.4128
 1697SOL    HW216551   1.431   3.210   6.014  1.8269  1.0111 -1.9002
 1698SOL     OW16552   0.829   0.088  14.447 -0.0819 -0.3394  0.1616
 1698SOL    HW116553   0.858   0.041  14.526  0.9114 -3.1728 -1.8589
 1698SOL    HW216554   0.791   0.170  14.478  0.3204 -0.7084  1.6489
 1699SOL     OW16555   4.004   2.580   9.636  0.2387  0.6837  0.2996
 1699SOL    HW116556   4.062   2.537   9.573  1.3012  0.0973  1.6832
 1699SOL    HW216557   3.967   2.650   9.582 -1.1480  0.7378  1.3128
 1700SOL     OW16558   1.608   3.527   4.361  0.7780  0.3709  0.6370
 1700SOL    HW116559   1.627   3.558   4.272  1.5141  0.0974  0.7042
 1700SOL    HW216560   1.628   3.434   4.352 -0.6204  0.3116 -2.0852
 1701SOL     OW16561   2.357   3.173   4.935 -0.0924 -0.6581 -0.2374
 1701SOL    HW116562   2.389   3.199   4.849 -1.8093  0.9112 -0.3955
 1701SOL    HW216563   2.368   3.257   4.978 -2.4306 -0.1632 -0.5911
 1702SOL     OW16564   4.222   1.257   7.929  0.1778  0.1472  0.4963
 1702SOL    HW116565   4.302   1.294   7.966 -1.1470 -0.1538  3.6637
 1702SOL    HW216566   4.197   1.319   7.860 -1.9246 -1.4098 -0.1509
 1703SOL     OW16567   1.396   2.883   3.738  0.3360 -0.2624 -0.1003
 1703SOL    HW116568   1.328   2.912   3.799  0.9495 -2.0297  1.4321
 1703SOL    HW216569   1.418   2.797   3.774  0.7823  1.2801  3.3698
 1704SOL     OW16570   2.357   0.611   5.086  0.1426  0.1454  0.2092
 1704SOL    HW116571   2.427   0.637   5.026  0.8737  0.0588  1.0331
 1704SOL    HW216572   2.411   0.586   5.161 -1.2167 -0.5397  0.9459
 1705SOL     OW16573   3.286   1.838   7.981  0.2681 -0.1107 -0.3927
 1705SOL    HW116574   3.338   1.917   7.966 -0.7874  0.6897  0.1669
 1705SOL    HW216575   3.212   1.876   8.028  0.0987  0.4973 -1.1472
 1706SOL     OW16576   1.854   4.383   2.521 -0.0139 -0.4803  0.3559
 1706SOL    HW116577   1.949   4.385   2.508  0.0771  0.9109  1.2161
 1706SOL    HW216578   1.835   4.476   2.530  0.9280 -0.1266 -1.3068
 1707SOL     OW16579   2.699   4.146   4.971 -0.2741  0.1282 -0.6636
 1707SOL    HW116580   2.652   4.212   4.920 -0.7865  0.1232 -0.2011
 1707SOL    HW216581   2.648   4.067   4.954 -0.2727 -0.1439  0.6017
 1708SOL     OW16582   2.420   4.528   7.493 -0.1247  0.1028  0.0303
 1708SOL    HW116583   2.348   4.547   7.554  0.1309  0.1569  0.3122
 1708SOL    HW216584   2.441   4.438   7.517 -0.2179  0.3772  1.1391
 1709SOL     OW16585   3.582   1.321  12.520 -0.3736 -0.1522 -0.1854
 1709SOL    HW116586   3.623   1.283  12.442 -0.1652 -0.6886  0.1853
 1709SOL    HW216587   3.493   1.323  12.486 -0.3489 -0.2994 -0.2605
 1710SOL     OW16588   3.815   3.113   4.134 -0.0512  0.1674 -0.1704
 1710SOL    HW116589   3.820   3.051   4.206  0.9342  0.6759  0.1924
 1710SOL    HW216590   3.723   3.130   4.111 -0.3957  0.1533  1.2256
 1711SOL     OW16591   2.558   3.345   9.914 -0.2567  0.0757 -0.0244
 1711SOL    HW116592   2.639   3.325   9.961  0.5351  0.3465 -1.2787
 1711SOL    HW216593   2.525   3.418   9.967  0.9088  0.2037  0.5164
 1712SOL     OW16594   3.789   1.126   0.588  0.2420 -0.2931  0.1318
 1712SOL    HW116595   3.810   1.145   0.680  0.5292  0.8435 -0.1743
 1712SOL    HW216596   3.767   1.212   0.554  0.8544  0.5461  1.8328
 1713SOL     OW16597   0.899   1.054   0.250 -0.2650  0.0147 -0.0880
 1713SOL    HW116598   0.986   1.059   0.290  0.4135  0.3363 -1.6027
 1713SOL    HW216599   0.852   1.001   0.315  0.5697 -0.2591  0.2890
 1714SOL     OW16600   3.281   2.150  17.347 -0.2029 -0.2137  0.0508
 1714SOL    HW116601   3.239   2.214  17.404 -0.5758 -0.2665 -0.1608
 1714SOL    HW216602   3.372   2.156  17.374 -0.4662 -0.6767  1.0724
 1715SOL     OW16603   2.049   3.145   7.471  0.4584  0.1720  0.4107
 1715SOL    HW116604   2.097   3.070   7.506 -0.5169 -0.4684  0.4020
 1715SOL    HW216605   1.969   3.098   7.447 -0.4494  1.9654 -0.0281
 1716SOL     OW16606   2.550   3.261   0.528 -0.6145 -0.1551 -0.4076
 1716SOL    HW116607   2.607   3.289   0.456 -1.1669  0.4944 -0.5934
 1716SOL    HW216608   2.606   3.236   0.601  1.1363 -0.6588 -1.9268
 1717SOL     OW16609   0.842   2.341   0.722 -0.6921 -0.9518 -0.2521
 1717SOL    HW116610   0.756   2.344   0.681 -1.3891  1.8485  1.4325
 1717SOL    HW216611   0.877   2.429   0.704 -0.5813 -0.8875  0.2942
 1718SOL     OW16612   2.184   4.061  15.352  0.0515 -0.8313  0.1270
 1718SOL    HW116613   2.151   4.090  15.437  1.7823  2.2535 -0.2321
 1718SOL    HW216614   2.129   3.985  15.335  1.4030 -2.4765  3.0001
 1719SOL     OW16615   4.295   2.805   7.863  0.2821 -0.0260  0.1003
 1719SOL    HW116616   4.253   2.827   7.779  0.1016 -1.0024 -0.0678
 1719SOL    HW216617   4.295   2.709   7.861  1.5386 -0.0666  2.8595
 1720SOL     OW16618   2.682   2.724  13.983 -0.4493  0.1073 -0.3313
 1720SOL    HW116619   2.705   2.761  14.068 -0.6922  1.0880 -0.6847
 1720SOL    HW216620   2.760   2.730  13.927 -0.6765  3.3983 -0.2903
 1721SOL     OW16621   1.141   0.113  17.612 -0.0310  0.6579  0.5986
 1721SOL    HW116622   1.095   0.123  17.528 -1.2924 -1.5375  1.0295
 1721SOL    HW216623   1.118   0.023  17.632 -1.7914  1.6367  2.9241
 1722SOL     OW16624   1.358   2.489   3.524 -0.1732  0.2662 -0.6252
 1722SOL    HW116625   1.373   2.513   3.616 -0.4059 -0.7718 -0.3152
 1722SOL    HW216626   1.445   2.453   3.505 -0.1469  0.5472 -1.0308
 1723SOL     OW16627   1.037   4.083   9.200  1.0332 -0.2179 -0.8985
 1723SOL    HW116628   0.957   4.033   9.179 -0.6615  1.8530  0.6096
 1723SOL    HW216629   1.082   4.037   9.271 -0.5330 -1.6098 -0.7897
 1724SOL     OW16630   3.664   1.069  11.845  0.4231 -0.2581  0.1940
 1724SOL    HW116631   3.724   1.144  11.841  1.3357 -1.0317 -0.5507
 1724SOL    HW216632   3.585   1.122  11.849  0.6626  0.0474  1.0087
 1725SOL     OW16633   2.850   0.444  16.703  0.2554  1.0314  0.2892
 1725SOL    HW116634   2.757   0.437  16.685  0.2036  2.8333 -0.1267
 1725SOL    HW216635   2.851   0.412  16.793 -0.7356  2.0805  0.6691
 1726SOL     OW16636   0.065   2.080   3.851 -0.0909  0.4218  0.2720
 1726SOL    HW116637   0.065   1.985   3.836  0.0837  0.1794  1.8288
 1726SOL    HW216638   0.071   2.093   3.945  0.6561  2.2443 -0.0256
 1727SOL     OW16639   1.260   4.563   3.892 -0.2533  0.2963  0.1581
 1727SOL    HW116640   1.181   4.510   3.883  0.5237 -1.1439  2.0063
 1727SOL    HW216641   1.333   4.505   3.869 -0.5360  0.8476 -2.1870
 1728SOL     OW16642   0.967   2.665   2.407 -0.1115  0.1129  0.4146
 1728SOL    HW116643   1.021   2.590   2.383 -0.9362 -0.4012  0.1447
 1728SOL    HW216644   1.006   2.704   2.485  1.2389  1.7446 -1.0910
 1729SOL     OW16645   2.707   3.375   5.061 -0.6468 -0.0358 -0.0448
 1729SOL    HW116646   2.640   3.411   5.002  0.1351  1.8486  0.2003
 1729SOL    HW216647   2.775   3.344   5.001 -0.2090  1.2972 -0.2495
 1730SOL     OW16648   2.163   2.689   3.366  0.1810 -0.0121 -0.2516
 1730SOL    HW116649   2.206   2.717   3.285 -0.1189  1.2973  0.0414
 1730SOL    HW216650   2.090   2.634   3.335  0.6525 -1.0577  0.4846
 1731SOL     OW16651   1.689   0.889   4.720 -0.4163 -0.3793  0.2004
 1731SOL    HW116652   1.747   0.896   4.645  0.8902 -2.2663  1.0454
 1731SOL    HW216653   1.712   0.969   4.769  1.0396 -0.5719 -0.1829
 1732SOL     OW16654   1.872   2.723   7.765  0.3146  0.2262 -0.0492
 1732SOL    HW116655   1.832   2.700   7.848  1.6348  1.1470  0.8409
 1732SOL    HW216656   1.903   2.638   7.735  0.4714  0.8114 -1.6086
 1733SOL     OW16657   2.571   2.261   6.244  0.1119  0.1487  0.4690
 1733SOL    HW116658   2.622   2.184   6.220  1.7058  0.6259  2.3508
 1733SOL    HW216659   2.491   2.230   6.202  1.5639  0.3462 -2.4597
 1734SOL     OW16660   2.538   3.978   8.424  0.2752 -0.0965 -0.0907
 1734SOL    HW116661   2.475   4.004   8.491  1.0624  0.1924  0.5464
 1734SOL    HW216662   2.538   3.883   8.437  0.4156 -0.0749  0.0756
 1735SOL     OW16663   2.246   0.219   6.284  0.4680 -0.2687 -0.0154
 1735SOL    HW116664   2.175   0.264   6.237 -0.2148 -0.5907  0.7021
 1735SOL    HW216665   2.313   0.238   6.218 -0.1864  1.0071 -0.3109
 1736SOL     OW16666   2.056   2.363  11.748 -0.2439 -0.1303  0.0230
 1736SOL    HW116667   1.994   2.398  11.684 -0.1142 -2.1068 -1.1783
 1736SOL    HW216668   2.112   2.439  11.764  1.0137 -0.3670 -3.2756
 1737SOL     OW16669   2.569   3.030  14.946  0.2913 -0.1915  0.8436
 1737SOL    HW116670   2.649   2.978  14.938 -0.5969 -2.0895  4.1266
 1737SOL    HW216671   2.566   3.030  15.042 -0.4151  0.8346  0.8253
 1738SOL     OW16672   1.514   0.869   4.251  0.2867  0.0861  0.1888
 1738SOL    HW116673   1.472   0.953   4.232  0.6610  0.4616  1.0187
 1738SOL    HW216674   1.445   0.803   4.257 -1.1863  1.5377 -0.6116
 1739SOL     OW16675   3.666   4.359   8.944 -0.1169  0.0950 -0.0243
 1739SOL    HW116676   3.651   4.324   8.856 -0.0450 -2.2048  0.8684
 1739SOL    HW216677   3.652   4.287   9.006  0.1886  1.1222  1.2491
 1740SOL     OW16678   0.238   2.611   2.482  0.2671 -0.1358 -0.0028
 1740SOL    HW116679   0.203   2.674   2.544 -0.5969 -0.0952 -0.5292
 1740SOL    HW216680   0.324   2.585   2.516  1.2881  0.8317 -1.8592
 1741SOL     OW16681   1.721   4.063   6.260  0.4577 -0.2857  0.3927
 1741SOL    HW116682   1.639   4.020   6.235  0.0129  1.3698 -1.0182
 1741SOL    HW216683   1.770   4.039   6.181 -1.4603 -1.5649 -0.3951
 1742SOL     OW16684   2.811   2.413   7.630 -0.3516 -0.0817 -0.6391
 1742SOL    HW116685   2.847   2.474   7.566  2.7363 -1.0259  0.1795
 1742SOL    HW216686   2.751   2.370   7.570  0.4783  0.9672 -2.2339
 1743SOL     OW16687   4.590   2.340  10.331  0.4121  0.2106 -0.1665
 1743SOL    HW116688   4.645   2.414  10.305  1.0729 -0.3676 -0.4081
 1743SOL    HW216689   4.572   2.294  10.249 -1.2710 -5.6666  3.4978
 1744SOL     OW16690   1.198   0.954   1.733 -0.0357  0.8818  0.1720
 1744SOL    HW116691   1.205   0.954   1.829 -0.3811 -2.0097  0.1962
 1744SOL    HW216692   1.107   0.933   1.714  0.0257 -0.6496  1.6143
 1745SOL     OW16693   2.427   1.066   1.927 -1.0665 -0.1662 -0.0277
 1745SOL    HW116694   2.337   1.080   1.959 -1.0892  1.2677 -0.7079
 1745SOL    HW216695   2.470   1.051   2.011 -1.4846 -0.1006  0.2005
 1746SOL     OW16696   3.322   3.578   9.264  0.5456 -0.6193 -0.2781
 1746SOL    HW116697   3.366   3.644   9.317  0.2733 -0.8598  0.2405
 1746SOL    HW216698   3.234   3.577   9.301  1.0232 -0.7413  0.8252
 1747SOL     OW16699   0.632   3.168   9.805  0.1055 -0.4243  0.0893
 1747SOL    HW116700   0.699   3.222   9.846 -1.1038  1.3692 -0.2663
 1747SOL    HW216701   0.686   3.116   9.746 -2.0274 -2.0808 -0.4177
 1748SOL     OW16702   3.949   3.685  13.400  0.1829  0.0252 -0.2839
 1748SOL    HW116703   3.899   3.745  13.346  0.5545 -2.4835 -3.4051
 1748SOL    HW216704   3.970   3.615  13.338 -0.0856 -0.7723  0.5237
 1749SOL     OW16705   3.805   0.890   6.524  0.0436 -0.3910  0.1195
 1749SOL    HW116706   3.811   0.805   6.567  0.6177 -1.0292 -1.2091
 1749SOL    HW216707   3.716   0.886   6.488 -0.4541  0.2608  1.2833
 1750SOL     OW16708   2.571   1.110   8.803 -0.2328  0.2673  0.3892
 1750SOL    HW116709   2.580   1.205   8.810  0.3318  0.1410  1.3392
 1750SOL    HW216710   2.533   1.107   8.715 -0.8798  1.3490  0.6192
 1751SOL     OW16711   3.840   2.704   7.615  0.2689 -0.3144  0.2186
 1751SOL    HW116712   3.850   2.742   7.528 -0.6357 -0.8934 -0.1259
 1751SOL    HW216713   3.839   2.790   7.658 -1.7114 -1.7317  3.0027
 1752SOL     OW16714   3.465   4.192   2.862  0.1988 -0.1983 -0.2184
 1752SOL    HW116715   3.505   4.248   2.929  0.0725 -1.9491  1.3217
 1752SOL    HW216716   3.409   4.146   2.924 -0.5043  0.1111 -0.6193
 1753SOL     OW16717   3.585   2.904  11.345 -0.2790 -0.1320  0.2003
 1753SOL    HW116718   3.613   2.862  11.427 -0.4247 -0.8020 -0.0939
 1753SOL    HW216719   3.505   2.948  11.372  1.2700  2.5322  0.4384
 1754SOL     OW16720   3.019   3.030  11.383  0.0492 -0.0899  0.2706
 1754SOL    HW116721   3.036   3.088  11.309  1.4324  1.4621  1.8054
 1754SOL    HW216722   2.990   3.100  11.441 -2.1703 -1.1584  0.4458
 1755SOL     OW16723   4.638   4.108   5.719 -0.2113  0.3031 -0.1675
 1755SOL    HW116724   4.612   4.190   5.760  0.1591  0.4008 -0.1302
 1755SOL    HW216725   4.566   4.056   5.755 -1.4067  1.7710 -0.4443
 1756SOL     OW16726   0.917   1.368   6.847  0.0746  0.2908  0.2068
 1756SOL    HW116727   0.934   1.274   6.860  1.1654  0.7821  2.3075
 1756SOL    HW216728   0.993   1.378   6.789 -0.2580 -1.2068 -0.5103
 1757SOL     OW16729   4.067   1.327  17.141  0.5122 -0.4343  0.0788
 1757SOL    HW116730   4.053   1.419  17.120 -2.8202 -0.6499  1.4039
 1757SOL    HW216731   4.023   1.327  17.226  0.3806  0.0711  0.0071
 1758SOL     OW16732   2.833   0.056  10.622 -0.0149  0.1000 -0.2016
 1758SOL    HW116733   2.795   0.023  10.541  2.5090 -1.0887 -0.9031
 1758SOL    HW216734   2.790   0.009  10.694 -1.1865  1.3589 -0.0713
 1759SOL     OW16735   0.468   2.253   6.069  0.7027 -0.5282  0.2797
 1759SOL    HW116736   0.407   2.183   6.047  0.7368  0.3186 -2.5065
 1759SOL    HW216737   0.552   2.208   6.057  1.1634  0.4386 -0.1528
 1760SOL     OW16738   0.697   4.595   4.636  0.1721  0.4070  0.5070
 1760SOL    HW116739   0.680   4.501   4.626 -0.3544  0.7196 -1.6340
 1760SOL    HW216740   0.791   4.594   4.654  0.5875  0.6118 -1.6082
 1761SOL     OW16741   3.863   1.988   5.801  0.0835  0.0720  0.2492
 1761SOL    HW116742   3.791   2.042   5.771  1.0176  0.5617 -1.1140
 1761SOL    HW216743   3.944   2.039   5.799 -0.1078  0.4585  2.2217
 1762SOL     OW16744   2.058   2.207   3.493 -0.0744 -0.2510  0.1733
 1762SOL    HW116745   1.983   2.255   3.458  0.0470 -0.3826 -0.2709
 1762SOL    HW216746   2.124   2.248   3.437 -0.3960  1.3278  0.9419
 1763SOL     OW16747   2.499   1.049   8.054 -0.7648 -0.1100  0.4342
 1763SOL    HW116748   2.572   1.057   8.115  1.4434 -2.2200 -1.8893
 1763SOL    HW216749   2.453   0.970   8.084 -1.9011  0.4758  0.2584
 1764SOL     OW16750   3.578   3.014  11.085  0.2296  0.3525  0.4132
 1764SOL    HW116751   3.601   2.968  11.166 -1.2170  0.6741  1.0066
 1764SOL    HW216752   3.522   3.084  11.119  0.4191  0.9136 -0.4299
 1765SOL     OW16753   3.229   1.943   5.641  0.6794 -0.1678  0.0086
 1765SOL    HW116754   3.264   1.854   5.654 -1.9423 -0.8325  2.4805
 1765SOL    HW216755   3.198   1.961   5.729 -1.1451  1.1050 -0.8917
 1766SOL     OW16756   4.530   0.970   2.646  0.5058 -0.3065 -0.0211
 1766SOL    HW116757   4.620   0.962   2.613  0.0336 -1.4998 -1.0220
 1766SOL    HW216758   4.530   1.065   2.652 -1.0131 -0.2178 -1.5117
 1767SOL     OW16759   2.735   1.057   2.826 -0.2534  0.1862 -0.0626
 1767SOL    HW116760   2.804   1.078   2.764  0.3499  1.9669  1.2105
 1767SOL    HW216761   2.667   1.036   2.761 -0.1673  1.7172 -0.6491
 1768SOL     OW16762   4.005   4.273  14.713 -0.1329  0.2366  0.3819
 1768SOL    HW116763   4.087   4.312  14.682 -0.2649  0.5867  0.4710
 1768SOL    HW216764   3.990   4.333  14.786  1.4699  1.3274 -0.1919
 1769SOL     OW16765   3.957   0.875  10.515 -0.2068  0.1716 -0.0886
 1769SOL    HW116766   4.043   0.874  10.557 -0.6088 -2.0886  0.7208
 1769SOL    HW216767   3.932   0.784  10.494 -0.5116  0.0598  0.7464
 1770SOL     OW16768   4.490   1.226   7.751 -0.6244 -0.0470 -0.4674
 1770SOL    HW116769   4.420   1.276   7.709 -0.8903  0.7770  0.9568
 1770SOL    HW216770   4.475   1.144   7.705  0.6947  0.3011 -1.5221
 1771SOL     OW16771   1.261   3.377   7.536  0.0102 -0.1853 -0.2992
 1771SOL    HW116772   1.205   3.300   7.547 -1.6315  0.8935 -1.0857
 1771SOL    HW216773   1.332   3.347   7.480  0.8252  2.2351 -0.5959
 1772SOL     OW16774   0.597   3.252   2.913 -0.1244 -1.1470 -0.2095
 1772SOL    HW116775   0.599   3.271   3.007  0.8336 -0.3673 -0.3898
 1772SOL    HW216776   0.503   3.262   2.900 -0.1501  0.0024  0.8487
 1773SOL     OW16777   4.361   3.704   3.649  0.0739 -0.0584  0.1812
 1773SOL    HW116778   4.367   3.728   3.557 -0.1763  2.2022  0.7549
 1773SOL    HW216779   4.294   3.766   3.679  1.3407  0.6251  1.5715
 1774SOL     OW16780   4.072   2.341   1.505 -0.6152  0.2265 -0.0273
 1774SOL    HW116781   4.135   2.308   1.569 -0.2750  0.0279 -0.4641
 1774SOL    HW216782   4.136   2.370   1.441  0.4771 -1.8298  0.1419
 1775SOL     OW16783   0.965   2.883   9.858 -0.2697  0.8023  0.6464
 1775SOL    HW116784   1.012   2.912   9.937 -0.4272 -2.0251  1.7839
 1775SOL    HW216785   1.037   2.836   9.816 -0.3896  1.8011 -0.6369
 1776SOL     OW16786   2.428   1.291   6.862  0.5063 -0.5576  0.2814
 1776SOL    HW116787   2.443   1.320   6.772 -0.6244  0.7727  0.5195
 1776SOL    HW216788   2.339   1.322   6.876  1.1076  1.3179  0.0195
 1777SOL     OW16789   1.105   3.100   3.582 -0.0132  0.0907 -0.3111
 1777SOL    HW116790   1.177   3.130   3.637  0.6635 -2.0628 -0.0578
 1777SOL    HW216791   1.142   3.106   3.494  1.2482 -2.7050  0.0630
 1778SOL     OW16792   4.145   2.582   4.130  0.1049 -0.7533  0.0169
 1778SOL    HW116793   4.167   2.618   4.044 -0.2790  0.8599  0.5884
 1778SOL    HW216794   4.110   2.499   4.099 -1.0819 -1.1982  2.5430
 1779SOL     OW16795   4.238   0.686   2.767 -0.3011 -0.4745 -0.0883
 1779SOL    HW116796   4.179   0.670   2.841  1.2654  0.9476  1.4565
 1779SOL    HW216797   4.301   0.615   2.778  0.3642 -0.0936 -1.5139
 1780SOL     OW16798   0.275   2.430   4.780  0.0740  0.3991  0.6653
 1780SOL    HW116799   0.253   2.499   4.843 -0.3787  0.0160  0.9246
 1780SOL    HW216800   0.300   2.484   4.705 -1.4524 -1.7782 -1.3884
 1781SOL     OW16801   0.690   2.129   2.456 -0.0318 -0.2134  0.4025
 1781SOL    HW116802   0.772   2.170   2.483 -1.1867  2.9214 -0.8609
 1781SOL    HW216803   0.642   2.204   2.420 -1.7603 -1.0942  0.9062
 1782SOL     OW16804   3.229   4.001   7.306 -0.1979  0.5967  0.2510
 1782SOL    HW116805   3.165   3.931   7.314 -0.4696  0.7601 -0.5244
 1782SOL    HW216806   3.210   4.047   7.388  1.3024  1.8935 -0.1229
 1783SOL     OW16807   3.708   2.062  12.153 -0.0752 -0.3319 -0.4588
 1783SOL    HW116808   3.624   2.106  12.163  0.9695  1.9973 -1.9464
 1783SOL    HW216809   3.689   1.972  12.179 -1.4363 -0.6110 -2.4312
 1784SOL     OW16810   4.284   3.615   7.838 -1.3376 -0.8902  0.3522
 1784SOL    HW116811   4.323   3.537   7.876 -0.9210 -1.4645 -1.2528
 1784SOL    HW216812   4.354   3.644   7.779 -0.7089 -1.8068  0.6496
 1785SOL     OW16813   0.979   4.006  13.704  0.0057 -0.2888  0.1458
 1785SOL    HW116814   1.034   3.952  13.761  1.3197 -0.6453 -1.4468
 1785SOL    HW216815   1.021   4.086  13.736 -1.7908  0.7221 -0.0485
 1786SOL     OW16816   2.673   4.020   3.960  0.0663 -0.5315 -0.2886
 1786SOL    HW116817   2.765   4.032   3.981 -0.2494  0.8278  0.3097
 1786SOL    HW216818   2.657   4.106   3.919  0.2570 -0.8299 -0.9914
 1787SOL     OW16819   2.503   3.278  12.347  0.3022 -0.1917 -0.3155
 1787SOL    HW116820   2.554   3.197  12.354 -0.8840 -0.8244  1.1728
 1787SOL    HW216821   2.545   3.328  12.417 -1.2144  0.0352  0.4500
 1788SOL     OW16822   1.272   0.694   5.595  0.0643 -0.2577 -0.0529
 1788SOL    HW116823   1.307   0.720   5.680 -0.7545 -0.1374  0.2453
 1788SOL    HW216824   1.344   0.717   5.537 -0.9428 -0.6517 -1.4671
 1789SOL     OW16825   4.296   4.646   9.044 -0.1369 -0.1741  0.0421
 1789SOL    HW116826   4.293   4.673   8.952 -1.5289 -0.0342  0.1184
 1789SOL    HW216827   4.367   4.582   9.053 -1.2314 -1.7827 -2.4612
 1790SOL     OW16828   2.911   4.123   4.084  0.1927  0.1354 -0.1363
 1790SOL    HW116829   2.919   4.191   4.151  1.4072 -1.0689  0.9299
 1790SOL    HW216830   2.946   4.174   4.011 -2.8556  0.7837 -1.1517
 1791SOL     OW16831   2.670   2.120   6.868  0.2467 -0.0415  0.2999
 1791SOL    HW116832   2.610   2.090   6.800  1.3580 -1.1680 -0.1869
 1791SOL    HW216833   2.713   2.039   6.895  0.3671 -0.1667 -0.2655
 1792SOL     OW16834   1.595   2.357  17.546 -0.1972 -0.3612 -0.0741
 1792SOL    HW116835   1.677   2.367  17.497 -0.0130  1.4339  0.6180
 1792SOL    HW216836   1.589   2.445  17.582 -0.1921 -1.2087  2.0040
 1793SOL     OW16837   3.746   3.096  14.798  0.2120  0.5701 -0.1750
 1793SOL    HW116838   3.713   3.098  14.708  0.8130  1.6777 -0.3573
 1793SOL    HW216839   3.700   3.018  14.830  1.3021 -0.0742 -0.2022
 1794SOL     OW16840   3.195   3.407   4.478 -0.6046 -0.1207 -0.2028
 1794SOL    HW116841   3.145   3.405   4.560  0.9878 -2.2755  0.7183
 1794SOL    HW216842   3.128   3.371   4.420  0.2531  0.3959 -1.5187
 1795SOL     OW16843   0.813   3.724  13.275  0.2790 -0.3127 -0.3280
 1795SOL    HW116844   0.731   3.713  13.322  0.5757 -0.8024  0.0773
 1795SOL    HW216845   0.840   3.815  13.289 -0.4109  0.0521 -1.3729
 1796SOL     OW16846   2.102   2.680   0.038 -0.2180  0.3847  0.4823
 1796SOL    HW116847   2.162   2.659  17.675  0.5979  2.3726  0.5720
 1796SOL    HW216848   2.027   2.706  17.693 -1.2517  1.1960  2.2971
 1797SOL     OW16849   4.453   4.262   1.210  0.3665  0.1505  1.1513
 1797SOL    HW116850   4.484   4.341   1.167  0.2423 -1.2765 -1.5452
 1797SOL    HW216851   4.475   4.275   1.303  0.6682  0.8709  0.9809
 1798SOL     OW16852   4.607   1.988   5.705 -0.2294  0.1968 -0.1135
 1798SOL    HW116853   4.687   1.940   5.683 -1.1686 -0.0125 -3.1547
 1798SOL    HW216854   4.598   1.956   5.795 -0.7414  1.4114  0.2667
 1799SOL     OW16855   3.487   1.549   1.774  0.5816 -0.0564  0.4543
 1799SOL    HW116856   3.497   1.459   1.744  0.4030 -0.0383  0.3388
 1799SOL    HW216857   3.469   1.539   1.867  1.1842  2.5541  0.8539
 1800SOL     OW16858   4.182   3.453   7.205  0.4370  0.5897  0.0726
 1800SOL    HW116859   4.168   3.372   7.254  1.7676  0.1462 -0.2586
 1800SOL    HW216860   4.224   3.414   7.128  3.5536 -0.2720  2.2157
 1801SOL     OW16861   3.594   1.899   7.822  0.2382 -0.0683 -0.1575
 1801SOL    HW116862   3.594   1.973   7.883 -1.2543 -0.5805  0.4633
 1801SOL    HW216863   3.688   1.889   7.808  0.2645 -0.6162  0.3962
 1802SOL     OW16864   0.475   1.741   2.555  0.8062  0.1604 -0.1063
 1802SOL    HW116865   0.545   1.803   2.534  0.5970  0.1774 -0.7657
 1802SOL    HW216866   0.465   1.703   2.468  0.5006  1.4145 -0.6169
 1803SOL     OW16867   1.562   3.073   3.839 -0.5147  0.1231  0.0234
 1803SOL    HW116868   1.519   3.000   3.796 -2.4100  0.6614  1.0312
 1803SOL    HW216869   1.645   3.028   3.856 -0.5401  0.1108  0.1130
 1804SOL     OW16870   4.422   0.448  10.487  0.5019 -0.1975  0.0426
 1804SOL    HW116871   4.505   0.495  10.486  0.1868  0.3655 -0.0264
 1804SOL    HW216872   4.380   0.502  10.554 -1.5612 -0.0008 -1.3754
 1805SOL     OW16873   3.655   0.206   6.265  0.6957  0.3219 -0.0457
 1805SOL    HW116874   3.674   0.221   6.173 -0.9440 -1.2715 -0.6479
 1805SOL    HW216875   3.700   0.275   6.313  2.0401  0.3752 -1.4031
 1806SOL     OW16876   0.376   3.528  10.682  0.0652  0.9122  0.2853
 1806SOL    HW116877   0.320   3.452  10.693  0.2668  0.8252  0.6888
 1806SOL    HW216878   0.339   3.550  10.596  0.2426  1.9410  0.4628
 1807SOL     OW16879   1.898   3.206   7.128 -0.5960  0.4464 -0.6865
 1807SOL    HW116880   1.877   3.279   7.069  0.2136  0.7102 -0.6508
 1807SOL    HW216881   1.925   3.147   7.058 -1.5576  0.1821 -0.8355
 1808SOL     OW16882   4.015   3.875   5.196  0.3963 -0.7957 -0.1206
 1808SOL    HW116883   4.046   3.834   5.276  2.5320  1.0354 -0.0128
 1808SOL    HW216884   4.062   3.828   5.127  2.6503 -0.2539  1.0591
 1809SOL     OW16885   0.353   4.389   3.604  0.2761 -0.6256  0.0837
 1809SOL    HW116886   0.294   4.383   3.529  1.0379  1.1784 -0.6765
 1809SOL    HW216887   0.313   4.456   3.660  2.2202 -0.0334  0.7600
 1810SOL     OW16888   0.012   2.138   1.401  0.8426  0.0500 -0.1520
 1810SOL    HW116889   0.013   2.079   1.477 -1.0668  0.6431  0.3225
 1810SOL    HW216890   0.107   2.135   1.386  0.1477 -1.7100 -4.3719
 1811SOL     OW16891   3.343   3.632  16.670 -0.2173  0.0014  0.1879
 1811SOL    HW116892   3.345   3.594  16.582  3.1601 -0.1442  0.3327
 1811SOL    HW216893   3.363   3.560  16.729  0.9527  1.1750  1.2267
 1812SOL     OW16894   0.512   3.392  16.699  0.1389  0.0475 -0.6336
 1812SOL    HW116895   0.509   3.474  16.649  0.1443  0.2005 -0.3859
 1812SOL    HW216896   0.423   3.387  16.733  0.2108  0.3851 -0.3855
 1813SOL     OW16897   1.265   2.869   6.304  0.4622 -0.1977 -0.0667
 1813SOL    HW116898   1.336   2.921   6.265  0.4726  0.3295  0.6712
 1813SOL    HW216899   1.215   2.858   6.223  0.9935  0.6421 -0.5064
 1814SOL     OW16900   3.877   1.586   8.382  0.2264  0.4122 -0.2271
 1814SOL    HW116901   3.939   1.558   8.315 -1.2436 -2.8654 -0.1820
 1814SOL    HW216902   3.896   1.679   8.396  2.8216 -0.2564  0.8152
 1815SOL     OW16903   3.650   3.479   7.220 -0.2906 -0.2465 -0.1821
 1815SOL    HW116904   3.734   3.449   7.186  0.6743 -0.0246  2.0439
 1815SOL    HW216905   3.641   3.553   7.159  0.2989 -1.4306 -1.7073
 1816SOL     OW16906   1.114   0.106  10.424 -0.5747 -0.5041 -0.0048
 1816SOL    HW116907   1.032   0.061  10.403 -1.1125  0.3012  0.3814
 1816SOL    HW216908   1.076   0.176  10.478  0.6654  1.3604 -1.5652
 1817SOL     OW16909   3.218   3.614   4.276  0.2568 -0.2107  0.2693
 1817SOL    HW116910   3.230   3.543   4.339  2.5314  1.0641  1.2752
 1817SOL    HW216911   3.190   3.564   4.199  2.0293 -0.2070 -0.3773
 1818SOL     OW16912   2.363   1.236   5.492 -0.3463 -0.0240 -0.1587
 1818SOL    HW116913   2.360   1.308   5.555  1.4680  0.4897 -0.6360
 1818SOL    HW216914   2.451   1.253   5.457  0.0381 -2.0342 -0.1556
 1819SOL     OW16915   1.967   0.542  15.472 -0.1444  0.4907  0.1521
 1819SOL    HW116916   2.028   0.592  15.418  2.9061 -1.6816  1.5726
 1819SOL    HW216917   1.938   0.474  15.411  1.7505  0.0740 -0.2954
 1820SOL     OW16918   4.014   3.107   5.395 -0.0552  0.3552  0.0770
 1820SOL    HW116919   3.975   3.181   5.347  1.4523  1.7752  1.0200
 1820SOL    HW216920   3.978   3.122   5.482  0.8048 -0.1618  0.5274
 1821SOL     OW16921   2.513   1.032  15.259  0.1132  0.4340  0.3527
 1821SOL    HW116922   2.543   0.968  15.194  2.0074  1.6677  0.0038
 1821SOL    HW216923   2.505   0.961  15.323  0.3401  0.6250  0.5928
 1822SOL     OW16924   2.756   2.793   6.223  0.2577  0.5580 -0.3463
 1822SOL    HW116925   2.835   2.749   6.255  0.2330  0.1939 -0.7845
 1822SOL    HW216926   2.793   2.840   6.149 -0.2566  0.7670 -0.4712
 1823SOL     OW16927   2.200   2.653   5.527 -0.0990  0.0692  0.4677
 1823SOL    HW116928   2.183   2.696   5.443  0.6679  2.2533  1.4128
 1823SOL    HW216929   2.295   2.653   5.541  0.0969  0.0930 -0.8721
 1824SOL     OW16930   3.566   2.682  10.591  0.2489  0.7272  0.0639
 1824SOL    HW116931   3.525   2.632  10.520 -0.4173  1.7350 -0.2709
 1824SOL    HW216932   3.587   2.613  10.653  2.8003 -0.9604 -2.6827
 1825SOL     OW16933   0.269   1.088  15.644  1.4713 -0.1792 -0.2843
 1825SOL    HW116934   0.210   1.017  15.619  0.3656  0.3316  0.8726
 1825SOL    HW216935   0.242   1.166  15.597 -1.4910 -0.4375  0.9667
 1826SOL     OW16936   3.784   3.631   4.675 -0.0003 -0.4827 -0.1928
 1826SOL    HW116937   3.800   3.707   4.731  0.4377 -2.5440  2.4313
 1826SOL    HW216938   3.716   3.653   4.611  1.5554 -0.7664 -1.9362
 1827SOL     OW16939   0.089   0.810   8.359 -0.1790 -0.3790 -0.8999
 1827SOL    HW116940   0.143   0.758   8.418  0.3637  1.7948  0.5233
 1827SOL    HW216941   0.046   0.855   8.432 -1.5344 -0.5712 -1.5736
 1828SOL     OW16942   1.918   4.155   3.341 -0.1825 -0.0630 -0.1192
 1828SOL    HW116943   1.904   4.191   3.428 -2.3171 -0.5783 -0.2448
 1828SOL    HW216944   1.838   4.165   3.289 -0.2055 -0.3472 -0.1406
 1829SOL     OW16945   3.663   2.225   4.908  0.2749 -0.5440 -0.0547
 1829SOL    HW116946   3.736   2.166   4.928 -0.2784 -1.3297 -0.3670
 1829SOL    HW216947   3.596   2.195   4.970  2.9195 -1.5445  2.3679
 1830SOL     OW16948   2.775   3.540   9.262  0.6559  0.1507 -0.1874
 1830SOL    HW116949   2.785   3.625   9.305 -2.5459  0.6351 -0.4236
 1830SOL    HW216950   2.774   3.472   9.329 -1.1806 -0.5509 -0.9296
 1831SOL     OW16951   0.968   2.098   3.300  0.3105 -0.9826  0.3466
 1831SOL    HW116952   0.947   2.137   3.386  1.5880  0.0057  0.2089
 1831SOL    HW216953   1.018   2.170   3.262  0.3403 -2.1756 -1.8276
 1832SOL     OW16954   2.982   2.827   0.114  0.1289 -0.1225 -0.4836
 1832SOL    HW116955   2.999   2.796   0.203  2.6218 -0.9309 -1.2492
 1832SOL    HW216956   2.976   2.922   0.120  0.6116 -0.0402 -1.2081
 1833SOL     OW16957   4.296   4.698  14.756 -0.0850  0.0176  0.3017
 1833SOL    HW116958   4.382   0.011  14.772 -0.0312  0.1000 -0.1834
 1833SOL    HW216959   4.307   4.692  14.661 -0.0766 -0.2655  0.3211
 1834SOL     OW16960   2.574   3.028   2.425 -0.5745 -0.2961  0.3322
 1834SOL    HW116961   2.491   3.056   2.464 -0.2858 -0.5297  1.1215
 1834SOL    HW216962   2.547   3.029   2.333  0.7762 -1.0360 -0.0703
 1835SOL     OW16963   3.659   1.460   4.691  0.1126  0.3253 -0.2905
 1835SOL    HW116964   3.678   1.519   4.618  2.4025 -0.6784 -0.5117
 1835SOL    HW216965   3.722   1.476   4.761  2.5707 -2.0613 -1.9431
 1836SOL     OW16966   3.423   2.603   5.738 -0.5560  0.1692 -0.0359
 1836SOL    HW116967   3.388   2.631   5.823 -2.1045  3.1317 -1.6665
 1836SOL    HW216968   3.343   2.625   5.690  0.2679  1.4437 -0.8253
 1837SOL     OW16969   3.957   1.445   8.096  0.1214 -0.2433  0.6901
 1837SOL    HW116970   3.985   1.359   8.129 -0.9378 -0.8619 -0.0296
 1837SOL    HW216971   3.880   1.425   8.044  0.1218  2.6056 -0.4160
 1838SOL     OW16972   4.538   0.372   7.933 -0.0785  0.0815  0.2043
 1838SOL    HW116973   4.476   0.439   7.903  0.1316  0.2074  0.0584
 1838SOL    HW216974   4.530   0.292   7.879 -0.2688 -0.2112  0.6659
 1839SOL     OW16975   1.763   1.056  17.530 -0.3179  0.5282  0.4368
 1839SOL    HW116976   1.845   1.007  17.539  0.2396  1.4138  0.2525
 1839SOL    HW216977   1.740   1.082  17.619 -0.0522  2.3044 -0.0080
 1840SOL     OW16978   2.660   2.695  10.884  0.1276 -0.1940  0.8188
 1840SOL    HW116979   2.684   2.732  10.969  0.7588  0.5541  0.3130
 1840SOL    HW216980   2.599   2.766  10.866  1.0755 -0.3667 -3.0640
 1841SOL     OW16981   3.875   1.838  17.255 -0.2505  0.3629  0.0503
 1841SOL    HW116982   3.963   1.876  17.251  0.4860 -1.1864  1.7237
 1841SOL    HW216983   3.849   1.830  17.163 -1.9883 -0.8336  0.6312
 1842SOL     OW16984   3.313   1.294  10.997  0.1036  0.1386  0.1639
 1842SOL    HW116985   3.407   1.298  11.013  0.3035  1.8454 -1.5809
 1842SOL    HW216986   3.296   1.205  11.029  1.3430 -0.8617 -1.9934
 1843SOL     OW16987   1.204   3.469   9.407 -0.1846 -0.2334  0.5786
 1843SOL    HW116988   1.126   3.437   9.453 -0.2521 -3.4694 -1.7786
 1843SOL    HW216989   1.260   3.499   9.479 -0.5421  0.8353  0.3978
 1844SOL     OW16990   2.500   4.010   5.572  0.1648  0.1627  0.5538
 1844SOL    HW116991   2.463   3.957   5.643 -0.6912 -0.8654 -0.6687
 1844SOL    HW216992   2.445   3.985   5.497  0.3643  1.2886  0.0355
 1845SOL     OW16993   3.564   1.565   9.165  0.8027  0.1744 -0.0283
 1845SOL    HW116994   3.637   1.564   9.226  0.7799  1.3467  0.0114
 1845SOL    HW216995   3.594   1.514   9.090 -0.5333  0.6895 -0.9281
 1846SOL     OW16996   3.116   0.676   9.558 -0.1203 -0.1889 -0.1287
 1846SOL    HW116997   3.177   0.612   9.594  0.2622  0.8412  1.0415
 1846SOL    HW216998   3.157   0.725   9.487  1.7996 -1.2488  0.2656
 1847SOL     OW16999   3.225   3.548   4.823  0.1087 -0.0648  0.1025
 1847SOL    HW117000   3.274   3.600   4.759  0.4681  0.3302  0.7026
 1847SOL    HW217001   3.170   3.500   4.761 -1.8886  0.6218  1.3315
 1848SOL     OW17002   1.215   4.140   3.121  0.5290 -0.2738  0.7707
 1848SOL    HW117003   1.272   4.198   3.071 -0.9148  0.6843  0.2525
 1848SOL    HW217004   1.136   4.193   3.122  0.6733 -0.0375 -0.6828
 1849SOL     OW17005   1.413   1.450  11.064  0.4874  0.1892  0.4788
 1849SOL    HW117006   1.496   1.447  11.110  0.2274  0.3348  0.9583
 1849SOL    HW217007   1.435   1.520  11.002 -1.8327  0.0865 -0.4870
 1850SOL     OW17008   2.978   0.338   3.194 -0.0488  0.2011  0.2627
 1850SOL    HW117009   2.888   0.372   3.188 -0.3469 -0.4101  1.2793
 1850SOL    HW217010   3.006   0.352   3.103 -1.3203 -0.9938 -0.3233
 1851SOL     OW17011   2.585   0.469  16.620  0.0352  0.4686 -0.5937
 1851SOL    HW117012   2.531   0.530  16.570 -0.5741  0.3340 -0.1019
 1851SOL    HW217013   2.555   0.470  16.711 -0.8058  1.1088 -0.8784
 1852SOL     OW17014   0.909   1.079  13.078 -0.4272 -0.0035  0.3027
 1852SOL    HW117015   0.826   1.100  13.034 -0.4810  2.9584  1.8391
 1852SOL    HW217016   0.953   1.036  13.005 -0.0649 -0.2491  0.6654
 1853SOL     OW17017   0.986   1.378   5.595  0.5375 -0.4686 -0.3819
 1853SOL    HW117018   1.064   1.407   5.548  0.3898  0.4136 -0.0927
 1853SOL    HW217019   0.978   1.450   5.659 -3.1983  0.5425 -2.0046
 1854SOL     OW17020   1.904   0.040   6.116 -0.6457 -0.1151 -0.1084
 1854SOL    HW117021   1.874   4.680   6.093 -3.0307  0.7450 -0.2271
 1854SOL    HW217022   1.874   0.080   6.034 -0.7536  0.5492  0.2555
 1855SOL     OW17023   3.718   3.563  15.142 -0.2537  0.7216 -0.4559
 1855SOL    HW117024   3.752   3.650  15.164  0.2011  0.6100 -0.7211
 1855SOL    HW217025   3.803   3.522  15.126  0.1291  2.0179 -1.6863
 1856SOL     OW17026   4.097   1.220   5.329 -0.2029  0.1077 -0.0976
 1856SOL    HW117027   4.018   1.274   5.324 -0.3789 -0.1545 -0.1795
 1856SOL    HW217028   4.068   1.163   5.400  0.2256 -0.0358 -0.0386
 1857SOL     OW17029   1.163   2.808  12.395  0.2587 -0.2729  0.1613
 1857SOL    HW117030   1.100   2.754  12.347 -0.1696  0.8433 -0.5385
 1857SOL    HW217031   1.198   2.743  12.455  0.4007  0.9328  1.3736
 1858SOL     OW17032   4.628   3.077   7.923 -0.3260  0.4633 -0.3260
 1858SOL    HW117033   4.588   3.003   7.968  1.5497  1.9776  3.8469
 1858SOL    HW217034   4.713   3.075   7.967 -0.7911  0.4101  0.5638
 1859SOL     OW17035   0.721   0.572  13.487  0.5467 -0.2511  0.4001
 1859SOL    HW117036   0.681   0.616  13.563 -0.0644  0.1704 -0.1666
 1859SOL    HW217037   0.671   0.491  13.491 -2.3332  1.5064  0.2115
 1860SOL     OW17038   0.096   1.182   9.107  0.2861 -0.0815  1.1053
 1860SOL    HW117039   0.156   1.252   9.082  0.2899 -1.1069 -1.8034
 1860SOL    HW217040   0.149   1.102   9.111  0.1812 -0.1336  1.4357
 1861SOL     OW17041   4.155   0.467   2.107  0.1307 -0.2418  0.2753
 1861SOL    HW117042   4.237   0.503   2.073 -0.7431  0.1486 -1.4222
 1861SOL    HW217043   4.150   0.385   2.059 -2.3960  1.0944 -1.7286
 1862SOL     OW17044   2.501   0.820   0.134  0.4373 -0.4859  0.0670
 1862SOL    HW117045   2.426   0.761   0.135 -0.7182  0.8928 -2.3590
 1862SOL    HW217046   2.573   0.762   0.110 -0.1031 -1.0895 -0.0945
 1863SOL     OW17047   4.131   0.949   1.758 -0.4768 -0.0147 -0.0316
 1863SOL    HW117048   4.066   1.002   1.711 -0.0127 -0.8604 -1.6418
 1863SOL    HW217049   4.212   0.985   1.722  0.4621 -1.1790  0.9059
 1864SOL     OW17050   0.995   2.337   7.945  0.0577  0.1356  0.1405
 1864SOL    HW117051   1.051   2.261   7.961 -1.8986 -1.6024 -1.4076
 1864SOL    HW217052   1.017   2.394   8.019 -1.8521  0.4495  0.4705
 1865SOL     OW17053   3.714   1.143   6.360  0.1770  0.4449 -0.3670
 1865SOL    HW117054   3.705   1.219   6.303  6.3623 -0.6508 -2.8164
 1865SOL    HW217055   3.648   1.153   6.429 -0.2680 -1.5872 -0.4952
 1866SOL     OW17056   3.435   2.728   3.089  0.2188 -0.2458  0.4693
 1866SOL    HW117057   3.358   2.708   3.035  0.5028 -1.4562  0.5131
 1866SOL    HW217058   3.509   2.708   3.032 -0.4225  2.3023 -1.2319
 1867SOL     OW17059   3.779   4.215   6.216  0.5718  0.3968 -0.2417
 1867SOL    HW117060   3.704   4.260   6.176  1.7328  1.2019 -1.5258
 1867SOL    HW217061   3.812   4.283   6.275  1.1849 -0.9489  0.9425
 1868SOL     OW17062   3.356   2.861   5.815  0.4802  0.0608  0.6835
 1868SOL    HW117063   3.327   2.834   5.728 -2.5514  1.2812  1.3213
 1868SOL    HW217064   3.333   2.954   5.814  1.8784  0.4531  3.4861
 1869SOL     OW17065   2.309   4.300  12.521 -0.6625 -0.0243 -0.9690
 1869SOL    HW117066   2.237   4.357  12.494 -2.4328 -1.7140  0.1683
 1869SOL    HW217067   2.277   4.267  12.605  1.7566 -2.8447 -1.1670
 1870SOL     OW17068   1.697   0.059   7.966  0.2369 -0.2018 -0.5579
 1870SOL    HW117069   1.618   0.017   7.930  0.6699 -1.2979 -0.2483
 1870SOL    HW217070   1.700   0.144   7.923 -1.9877 -0.5564 -1.4318
 1871SOL     OW17071   4.538   0.748   3.777 -0.1822  0.1103 -0.0948
 1871SOL    HW117072   4.559   0.673   3.832 -2.0502 -1.4357 -1.5136
 1871SOL    HW217073   4.623   0.781   3.750  0.5054 -3.1045 -1.7723
 1872SOL     OW17074   1.493   0.840  10.999 -0.4555 -0.4561 -0.3436
 1872SOL    HW117075   1.503   0.754  11.040  0.1439  0.7416  1.9782
 1872SOL    HW217076   1.423   0.872  11.056 -0.5146 -0.4356 -0.4270
 1873SOL     OW17077   4.463   1.740   1.480  0.0130 -0.4290  0.2770
 1873SOL    HW117078   4.413   1.816   1.451  0.2124  0.1864  1.5587
 1873SOL    HW217079   4.409   1.704   1.551  0.5528 -0.1924  0.8095
 1874SOL     OW17080   0.194   0.182   3.171 -0.2368  0.1017  0.3919
 1874SOL    HW117081   0.107   0.194   3.209 -0.0532  3.6678 -0.3306
 1874SOL    HW217082   0.184   0.245   3.100 -2.5565 -0.0517  0.5958
 1875SOL     OW17083   3.339   1.064   8.069  0.9088 -0.2327 -0.0366
 1875SOL    HW117084   3.333   1.135   8.004 -1.0728 -1.5749 -1.2972
 1875SOL    HW217085   3.396   1.111   8.130  3.2691 -3.1669  0.0030
 1876SOL     OW17086   2.971   1.577   3.636 -0.0462 -0.1641 -0.4092
 1876SOL    HW117087   2.880   1.576   3.665  0.3992  0.3472  1.0225
 1876SOL    HW217088   3.007   1.520   3.704  1.0363 -1.1895 -1.8522
 1877SOL     OW17089   2.205   2.152   7.259  0.0330  0.1307 -0.0685
 1877SOL    HW117090   2.232   2.113   7.175  1.7923 -3.7379  2.3009
 1877SOL    HW217091   2.198   2.244   7.234  0.2081  0.3584  0.7425
 1878SOL     OW17092   2.879   2.052   3.125 -0.2876  0.0867  0.6169
 1878SOL    HW117093   2.953   1.992   3.115 -1.2989 -0.9319 -0.6985
 1878SOL    HW217094   2.804   1.993   3.129  0.6354 -0.8167  4.1818
 1879SOL     OW17095   1.064   4.077   6.220 -0.0723 -0.0519  0.5805
 1879SOL    HW117096   1.006   4.151   6.202 -0.3478 -0.5772 -0.6829
 1879SOL    HW217097   1.026   4.007   6.167 -0.8452  1.7893 -1.2598
 1880SOL     OW17098   0.397   4.673  12.215 -0.2825  0.1809 -0.2044
 1880SOL    HW117099   0.359   4.649  12.299  0.2368  0.4004  0.0899
 1880SOL    HW217100   0.482   4.639  12.240 -0.9300 -0.2707  1.3664
 1881SOL     OW17101   1.796   0.717  15.625 -0.3476 -1.0513  0.8373
 1881SOL    HW117102   1.865   0.676  15.572  0.9179  1.8835  0.2120
 1881SOL    HW217103   1.768   0.637  15.668 -0.3093 -0.5030  1.8791
 1882SOL     OW17104   4.582   1.843  13.818  0.3573 -0.1387 -0.5558
 1882SOL    HW117105   4.523   1.892  13.875  0.3054 -0.7352 -0.1027
 1882SOL    HW217106   4.657   1.836  13.877  0.2986  2.3480 -0.1613
 1883SOL     OW17107   0.451   1.161  11.940 -0.1311  0.2065 -0.4386
 1883SOL    HW117108   0.546   1.167  11.926  0.0346  1.2487  1.1244
 1883SOL    HW217109   0.444   1.079  11.989  0.3523 -0.1533 -0.9684
 1884SOL     OW17110   2.606   1.720   6.608 -0.4116  1.0638  0.4490
 1884SOL    HW117111   2.665   1.754   6.541 -1.9243  1.7288 -0.5615
 1884SOL    HW217112   2.525   1.767   6.588 -0.8318 -0.8778 -2.3399
 1885SOL     OW17113   2.507   4.410   2.594  0.0480 -0.2765  0.1198
 1885SOL    HW117114   2.424   4.430   2.638 -1.1681 -2.2586 -1.3070
 1885SOL    HW217115   2.492   4.461   2.514  1.2385 -0.8003 -0.4390
 1886SOL     OW17116   2.284   0.853   1.273 -0.0582 -0.6056 -0.1568
 1886SOL    HW117117   2.367   0.850   1.226  0.2110  0.7042  0.2529
 1886SOL    HW217118   2.252   0.942   1.260  0.9204 -0.0163  1.4889
 1887SOL     OW17119   4.476   0.889  15.142 -0.3795 -0.0083  0.4308
 1887SOL    HW117120   4.408   0.870  15.078  2.5611 -2.1858 -2.0266
 1887SOL    HW217121   4.430   0.869  15.223  1.1023 -0.6129  1.1301
 1888SOL     OW17122   3.346   1.738   5.379 -0.0164  0.0047  0.7318
 1888SOL    HW117123   3.403   1.688   5.437 -0.2992 -1.6537 -0.4020
 1888SOL    HW217124   3.271   1.679   5.363  0.2182 -0.2096  0.4330
 1889SOL     OW17125   0.054   3.723   6.689 -0.9675 -0.5948 -0.7672
 1889SOL    HW117126   0.062   3.796   6.626 -0.8378 -0.7104 -0.8858
 1889SOL    HW217127   0.042   3.769   6.772  2.5577  0.1261 -0.6487
 1890SOL     OW17128   1.830   1.326   8.385 -0.1818  0.5116 -0.9788
 1890SOL    HW117129   1.735   1.314   8.397  0.1970  0.7761  2.2300
 1890SOL    HW217130   1.846   1.235   8.360 -1.8239 -0.2477  0.7423
 1891SOL     OW17131   3.974   2.188   7.755 -0.9038  0.2246 -0.2292
 1891SOL    HW117132   4.018   2.270   7.778 -0.7013 -0.3639  1.4663
 1891SOL    HW217133   3.887   2.226   7.741 -0.6145  1.3093  0.9359
 1892SOL     OW17134   2.506   2.946   4.914 -0.1447 -0.5877 -0.5436
 1892SOL    HW117135   2.560   3.019   4.945  0.0142  0.5317 -3.4434
 1892SOL    HW217136   2.421   2.989   4.915 -0.0693 -0.4527 -0.1160
 1893SOL     OW17137   1.324   2.485  15.080  0.6008  0.8054 -0.1879
 1893SOL    HW117138   1.401   2.521  15.035  1.2798  0.0874  0.3919
 1893SOL    HW217139   1.354   2.403  15.119  2.1335  1.2151 -0.4793
 1894SOL     OW17140   3.926   3.509   7.947  0.1405  0.0103 -0.2301
 1894SOL    HW117141   3.839   3.489   7.982  0.1556  0.2364 -0.0646
 1894SOL    HW217142   3.946   3.426   7.905  0.4486  1.1736 -2.3494
 1895SOL     OW17143   4.422   1.312   8.178  0.5097  0.3711  0.2126
 1895SOL    HW117144   4.462   1.230   8.206 -1.3828 -0.9550 -0.9173
 1895SOL    HW217145   4.495   1.363   8.145 -0.5221  1.1137 -0.9378
 1896SOL     OW17146   1.718   4.085  11.398  0.3304 -0.2759  0.2054
 1896SOL    HW117147   1.650   4.047  11.453  1.3892 -1.1572  0.9196
 1896SOL    HW217148   1.715   4.013  11.335 -0.4038 -1.4670  1.6077
 1897SOL     OW17149   3.220   0.165   4.605 -0.1035  0.1319  0.1932
 1897SOL    HW117150   3.130   0.175   4.637 -1.6250 -2.1050 -3.3959
 1897SOL    HW217151   3.247   0.099   4.669  0.1102 -1.8969 -1.9671
 1898SOL     OW17152   3.968   3.931   4.556 -0.0136 -0.1732  0.2636
 1898SOL    HW117153   3.900   3.993   4.581 -1.2439 -0.9863 -1.0556
 1898SOL    HW217154   4.032   3.948   4.625 -0.7157  1.5511  0.5012
 1899SOL     OW17155   3.420   3.449   6.262 -0.2698 -0.0173  0.1552
 1899SOL    HW117156   3.346   3.474   6.317 -1.6063  0.3262 -1.8116
 1899SOL    HW217157   3.489   3.490   6.314 -0.4841  0.3327  0.1609
 1900SOL     OW17158   0.576   2.847  16.667  0.1687 -0.3577 -0.2586
 1900SOL    HW117159   0.579   2.825  16.760  0.0724 -0.5993 -0.3119
 1900SOL    HW217160   0.609   2.937  16.671  1.4466 -0.8330 -0.1150
 1901SOL     OW17161   4.400   2.056   1.471  0.2892  0.7101 -0.1685
 1901SOL    HW117162   4.422   2.078   1.380  0.9617  0.1318 -0.1442
 1901SOL    HW217163   4.460   2.105   1.527  0.5651 -2.3474  2.1637
 1902SOL     OW17164   1.447   2.245   4.919 -0.0107  0.2667 -0.0429
 1902SOL    HW117165   1.386   2.172   4.930 -0.3188  0.7801  1.7375
 1902SOL    HW217166   1.425   2.299   4.995  0.0930  0.0757  0.1221
 1903SOL     OW17167   3.510   2.634   7.335 -0.0057  0.2786 -0.6789
 1903SOL    HW117168   3.521   2.637   7.240 -1.8362 -0.4894 -0.9259
 1903SOL    HW217169   3.551   2.552   7.363 -1.1482  0.4749  1.5973
 1904SOL     OW17170   2.456   1.405   0.321  0.0290  0.1709  0.0152
 1904SOL    HW117171   2.508   1.442   0.250 -2.3804 -1.5044 -2.6442
 1904SOL    HW217172   2.526   1.425   0.383  2.1942 -0.2733 -2.2745
 1905SOL     OW17173   4.630   0.430   8.562  0.1449 -0.3792 -0.3347
 1905SOL    HW117174   4.694   0.498   8.581 -0.1995 -0.1633  0.0484
 1905SOL    HW217175   4.670   0.372   8.498 -0.6756 -1.4662  0.1275
 1906SOL     OW17176   4.346   0.576   7.105 -0.1593  0.2150  0.6781
 1906SOL    HW117177   4.388   0.497   7.071 -1.1581  0.6616 -1.5790
 1906SOL    HW217178   4.393   0.649   7.064  0.0764  1.8924  3.8864
 1907SOL     OW17179   0.755   1.001   7.217  0.3145  0.2736 -0.3121
 1907SOL    HW117180   0.811   0.984   7.292 -0.8861 -0.3220  0.4540
 1907SOL    HW217181   0.676   0.965   7.257  0.2104  1.9119  0.9674
 1908SOL     OW17182   3.163   2.535   3.839 -0.4512 -0.3472 -0.5193
 1908SOL    HW117183   3.121   2.517   3.755 -1.1675  1.4684 -0.5399
 1908SOL    HW217184   3.217   2.611   3.817 -0.0975 -0.5485 -0.3504
 1909SOL     OW17185   3.879   3.899  12.365 -0.4152 -0.0119 -0.4050
 1909SOL    HW117186   3.931   3.842  12.421  0.2889  0.6299 -0.4090
 1909SOL    HW217187   3.937   3.971  12.342 -1.2514  0.3386 -1.4252
 1910SOL     OW17188   1.242   0.831   3.421  0.2553 -0.1425  0.2345
 1910SOL    HW117189   1.322   0.835   3.472  0.4746 -1.1603 -0.0226
 1910SOL    HW217190   1.230   0.736   3.410 -0.1988  0.1064 -1.3409
 1911SOL     OW17191   4.444   1.823  13.590 -0.1355  0.1990  0.0612
 1911SOL    HW117192   4.489   1.838  13.673 -1.3696  0.2079  0.7274
 1911SOL    HW217193   4.428   1.916  13.572  0.1732  0.1037 -0.6773
 1912SOL     OW17194   0.335   1.962   2.156 -0.6514  0.6418 -0.2745
 1912SOL    HW117195   0.327   2.050   2.192 -0.6521  0.4504  0.1989
 1912SOL    HW217196   0.273   1.917   2.213  1.0075  0.5332  1.4585
 1913SOL     OW17197   2.499   2.850   9.010  0.4529 -0.0841  0.0902
 1913SOL    HW117198   2.428   2.897   9.055  0.6698 -0.8824  1.2736
 1913SOL    HW217199   2.567   2.895   9.060  2.0638 -0.5166 -1.7307
 1914SOL     OW17200   0.272   1.181  13.033  0.0998 -0.8924 -0.0467
 1914SOL    HW117201   0.284   1.272  13.008  0.2258 -1.2420 -1.2997
 1914SOL    HW217202   0.184   1.149  13.014  0.5103 -0.5684 -2.4977
 1915SOL     OW17203   4.597   0.624  13.673  0.6363 -0.0969 -0.1817
 1915SOL    HW117204   4.546   0.560  13.623 -0.5448  0.7617 -0.0864
 1915SOL    HW217205   4.598   0.587  13.761 -1.9432  1.3393  0.4610
 1916SOL     OW17206   0.780   2.965   2.060  0.0123 -0.1333  0.0023
 1916SOL    HW117207   0.799   3.058   2.056 -0.0670 -0.0286  2.0401
 1916SOL    HW217208   0.865   2.934   2.093 -0.3709  0.1438  1.2564
 1917SOL     OW17209   2.447   1.614   4.306 -0.4141  0.0240 -0.0445
 1917SOL    HW117210   2.378   1.679   4.317 -0.8354 -0.8562  2.5855
 1917SOL    HW217211   2.388   1.539   4.301 -0.9434  0.3850  0.6957
 1918SOL     OW17212   0.094   0.914   4.414 -0.1329  0.2077  0.0756
 1918SOL    HW117213   0.050   0.990   4.453  0.6414  1.2472 -1.0853
 1918SOL    HW217214   0.148   0.882   4.486 -1.1251  0.4543  0.9243
 1919SOL     OW17215   0.822   3.957   8.141 -0.5456  0.2194  0.1105
 1919SOL    HW117216   0.899   3.983   8.091 -1.3217 -4.0896 -3.3717
 1919SOL    HW217217   0.852   3.868   8.159  1.1789  1.5580  3.7181
 1920SOL     OW17218   2.816   3.436   9.007  0.1273  0.1362  0.6385
 1920SOL    HW117219   2.825   3.483   9.090  0.8960 -2.5197  2.0698
 1920SOL    HW217220   2.898   3.388   9.013 -0.0157 -0.3936 -1.6022
 1921SOL     OW17221   1.667   1.418   0.073 -0.1299  0.2947 -1.0332
 1921SOL    HW117222   1.632   1.434   0.161 -0.1969 -0.9488 -0.8366
 1921SOL    HW217223   1.758   1.447   0.081 -0.1931  0.7358 -1.8760
 1922SOL     OW17224   0.832   0.889   4.640  0.1772 -0.2395 -0.4663
 1922SOL    HW117225   0.797   0.803   4.616  0.1033 -0.9682  2.2262
 1922SOL    HW217226   0.757   0.941   4.613  0.4966 -0.6804 -2.2021
 1923SOL     OW17227   0.275   2.183   1.386 -0.2336  0.0160 -0.4819
 1923SOL    HW117228   0.353   2.129   1.402 -0.8590 -0.5200  0.7623
 1923SOL    HW217229   0.295   2.267   1.426 -1.6424 -0.8219  1.9658
 1924SOL     OW17230   4.317   1.262   6.786  0.3560  0.1208 -0.1842
 1924SOL    HW117231   4.313   1.172   6.752  0.9739  0.5315 -1.3484
 1924SOL    HW217232   4.386   1.254   6.852  1.0168 -1.3524 -1.0448
 1925SOL     OW17233   1.694   2.808   6.699 -0.3429  0.0644  0.4211
 1925SOL    HW117234   1.644   2.743   6.748 -0.5241  0.0872  0.2687
 1925SOL    HW217235   1.620   2.851   6.654 -0.4768 -1.0205 -0.4072
 1926SOL     OW17236   1.325   3.731   4.894 -0.0520  0.0359 -0.3659
 1926SOL    HW117237   1.304   3.760   4.806  0.5147 -3.1774 -1.5745
 1926SOL    HW217238   1.285   3.802   4.944  0.2779  0.4644 -0.7242
 1927SOL     OW17239   1.342   4.337   0.064  0.1808  0.2021  0.0745
 1927SOL    HW117240   1.295   4.382   0.134 -1.1590  1.1055 -1.3991
 1927SOL    HW217241   1.370   4.262   0.117 -2.5384 -0.3870  0.6591
 1928SOL     OW17242   3.529   2.427  14.932  0.1844  0.2974  0.6272
 1928SOL    HW117243   3.588   2.410  15.005  2.5174 -1.7348 -1.7562
 1928SOL    HW217244   3.463   2.488  14.966 -0.0547  0.9625 -1.0168
 1929SOL     OW17245   2.115   1.607  15.554  0.8126  0.3407 -0.0934
 1929SOL    HW117246   2.073   1.687  15.521  3.2703  0.1160 -3.7688
 1929SOL    HW217247   2.196   1.610  15.503  1.8847  0.9068  1.6547
 1930SOL     OW17248   2.769   1.957   5.529 -0.4859 -0.5213 -0.4155
 1930SOL    HW117249   2.824   1.982   5.454  0.5649 -2.2361 -0.2217
 1930SOL    HW217250   2.687   1.926   5.491 -1.0615 -0.5978  0.9016
 1931SOL     OW17251   3.468   2.032   0.088  0.6349 -0.1732 -0.4732
 1931SOL    HW117252   3.507   1.948   0.065  1.2651  0.3428 -1.2859
 1931SOL    HW217253   3.387   2.039   0.036 -0.1892  0.0269  0.8369
 1932SOL     OW17254   2.262   2.121   5.132  0.2609 -0.5695 -0.2395
 1932SOL    HW117255   2.254   2.028   5.150  1.0853 -0.1894  2.1269
 1932SOL    HW217256   2.351   2.136   5.165 -1.3793  1.4550  3.2506
 1933SOL     OW17257   2.042   3.053   6.106  0.3005  0.0190 -0.3583
 1933SOL    HW117258   2.088   3.015   6.031  0.1168 -1.1323  0.1175
 1933SOL    HW217259   2.036   2.978   6.165 -1.2017 -0.6009 -1.2951
 1934SOL     OW17260   2.954   1.364   8.317 -0.4655  0.2752 -0.0459
 1934SOL    HW117261   2.976   1.444   8.269 -3.5688 -0.1705 -2.2718
 1934SOL    HW217262   2.973   1.304   8.245 -1.8419  0.6098 -0.6896
 1935SOL     OW17263   4.201   1.350  10.880  0.0680  0.7213 -0.4243
 1935SOL    HW117264   4.267   1.415  10.857  2.2806 -1.9431 -1.7020
 1935SOL    HW217265   4.157   1.349  10.796 -1.5747 -0.8881  0.4611
 1936SOL     OW17266   0.980   1.071  16.823 -0.5770  0.3573  0.4316
 1936SOL    HW117267   0.925   1.009  16.871 -1.4207 -0.3258 -1.4257
 1936SOL    HW217268   0.993   1.028  16.738  0.1806  0.1671  0.6389
 1937SOL     OW17269   3.996   4.712  15.221  0.3994  0.3802  0.3550
 1937SOL    HW117270   4.021   4.717  15.128  0.9359 -1.7815  0.3892
 1937SOL    HW217271   4.041   0.067  15.242  3.5350 -1.2864  0.0452
 1938SOL     OW17272   3.496   1.692  12.109  0.7331 -0.4646  0.3136
 1938SOL    HW117273   3.551   1.633  12.058 -0.8388 -1.6927  0.0419
 1938SOL    HW217274   3.456   1.740  12.037 -0.7781 -2.6326 -0.2828
 1939SOL     OW17275   3.413   1.282   8.299  0.2869  0.5284 -0.3431
 1939SOL    HW117276   3.483   1.341   8.326 -0.1969  0.5429  0.8507
 1939SOL    HW217277   3.333   1.332   8.312 -0.3639 -0.8420  0.8895
 1940SOL     OW17278   1.415   1.441   7.825  0.2999 -0.4789 -0.0198
 1940SOL    HW117279   1.447   1.529   7.846  0.3411 -0.2411 -1.0558
 1940SOL    HW217280   1.340   1.426   7.882  1.7640 -0.6698  1.8294
 1941SOL     OW17281   3.096   3.732   6.947 -0.1598  0.4671 -0.0445
 1941SOL    HW117282   3.016   3.683   6.967  0.2046  0.0382  0.3730
 1941SOL    HW217283   3.087   3.751   6.854  1.3541 -1.3375 -0.5602
 1942SOL     OW17284   1.047   0.265   7.522 -0.7793 -0.3191  0.5168
 1942SOL    HW117285   0.974   0.292   7.467  0.8200  1.9609 -0.4672
 1942SOL    HW217286   1.097   0.211   7.461 -1.2506  0.0664 -0.2061
 1943SOL     OW17287   4.649   1.311   5.193 -0.1697  0.2075 -0.3140
 1943SOL    HW117288   4.656   1.365   5.271  0.5596 -0.7162  0.2531
 1943SOL    HW217289   4.563   1.332   5.156 -0.7633  0.7670  1.3800
 1944SOL     OW17290   1.066   2.801   3.400 -0.2546 -0.5128  0.7676
 1944SOL    HW117291   1.041   2.805   3.493 -1.2844  1.6452  0.4128
 1944SOL    HW217292   0.983   2.839   3.370  1.0362  0.4691 -1.5062
 1945SOL     OW17293   4.573   4.286  13.843  0.3118 -0.5009 -0.0082
 1945SOL    HW117294   4.509   4.354  13.822 -1.2410 -1.4201  1.7223
 1945SOL    HW217295   4.556   4.279  13.937 -0.3382 -2.2370 -0.2606
 1946SOL     OW17296   3.238   1.907   4.557  0.2142  0.7727 -0.1636
 1946SOL    HW117297   3.161   1.900   4.501 -0.8688  0.7127  1.3381
 1946SOL    HW217298   3.238   1.818   4.592  1.2737  1.3259  1.2418
 1947SOL     OW17299   4.382   2.815  14.867 -0.2287  0.1421  0.2686
 1947SOL    HW117300   4.445   2.744  14.876 -1.3726 -0.8524  0.3889
 1947SOL    HW217301   4.411   2.860  14.787  1.3006  0.2581  0.8830
 1948SOL     OW17302   2.975   0.096   4.705 -0.5764  0.0151  0.1371
 1948SOL    HW117303   2.943   0.091   4.796 -0.2539 -1.3737  0.1778
 1948SOL    HW217304   2.945   0.178   4.667 -0.3045 -0.6939 -1.5840
 1949SOL     OW17305   3.738   2.446  10.681 -0.4954  0.1697  0.4161
 1949SOL    HW117306   3.658   2.436  10.733 -0.9876 -0.0748 -0.3857
 1949SOL    HW217307   3.758   2.356  10.655  0.1507  0.7048 -0.9217
 1950SOL     OW17308   1.892   0.411  10.215  0.2053  0.0389  0.6444
 1950SOL    HW117309   1.976   0.451  10.234  0.7729 -1.1134  0.5406
 1950SOL    HW217310   1.929   0.323  10.204  1.1083  0.7196 -1.6976
 1951SOL     OW17311   0.939   0.899   1.721  0.2443  0.3556  0.4191
 1951SOL    HW117312   0.891   0.952   1.658 -0.9792 -0.5639  0.5656
 1951SOL    HW217313   0.872   0.902   1.789 -0.1436  0.5387  0.0267
 1952SOL     OW17314   3.120   1.303   9.295  0.1743  0.0501 -0.0597
 1952SOL    HW117315   3.139   1.360   9.370  1.1001  1.0412 -1.0435
 1952SOL    HW217316   3.137   1.217   9.332  1.4269  0.0358 -0.6767
 1953SOL     OW17317   2.676   1.989   1.823 -0.0751  0.1738 -0.4140
 1953SOL    HW117318   2.749   2.023   1.770  1.2392  1.7835  2.4451
 1953SOL    HW217319   2.690   2.036   1.905  0.5029  0.3931 -0.6371
 1954SOL     OW17320   3.676   0.055   9.561 -0.0319 -0.0682 -0.3416
 1954SOL    HW117321   3.711   0.065   9.473 -0.2760  0.5691 -0.3656
 1954SOL    HW217322   3.753   0.059   9.618  1.0237  1.2869 -1.8921
 1955SOL     OW17323   1.807   2.286   6.794  0.2616 -0.0175  0.3390
 1955SOL    HW117324   1.736   2.288   6.730  0.8647 -2.1110 -0.3817
 1955SOL    HW217325   1.770   2.244   6.872 -1.2581 -0.0401 -0.3818
 1956SOL     OW17326   4.491   4.698   3.190  0.3882 -0.0882 -0.4442
 1956SOL    HW117327   4.501   4.613   3.146  1.8730 -0.7579  1.1746
 1956SOL    HW217328   4.582   4.722   3.210 -0.6186  1.3541  2.4215
 1957SOL     OW17329   0.243   0.735   6.436 -0.1700 -0.0703 -0.0060
 1957SOL    HW117330   0.297   0.731   6.515  1.1312 -0.4319 -0.8973
 1957SOL    HW217331   0.200   0.817   6.459  1.2168 -0.3092  3.4127
 1958SOL     OW17332   0.478   1.588   3.133 -0.5444 -0.5073  0.0643
 1958SOL    HW117333   0.514   1.539   3.059 -1.6212  0.5361 -1.1502
 1958SOL    HW217334   0.390   1.562   3.108 -0.5612  1.6911 -2.0996
 1959SOL     OW17335   3.628   1.052   3.886  0.1576 -0.5022  0.0200
 1959SOL    HW117336   3.688   1.126   3.883 -0.5097 -0.0396 -1.8500
 1959SOL    HW217337   3.565   1.080   3.819  0.7882  1.4487  0.2357
 1960SOL     OW17338   1.609   4.503   0.192 -0.1454  0.6157  0.2637
 1960SOL    HW117339   1.632   4.589   0.226  0.1021  1.9597 -3.2332
 1960SOL    HW217340   1.543   4.512   0.123 -0.8243 -1.9381  0.5912
 1961SOL     OW17341   3.172   2.393   1.910  0.1943 -0.2807 -0.2502
 1961SOL    HW117342   3.197   2.424   1.823  0.0149 -1.1068 -0.5898
 1961SOL    HW217343   3.165   2.299   1.896  2.9302 -0.1222 -2.7319
 1962SOL     OW17344   1.616   3.222   1.854  0.0337  0.4715  0.0727
 1962SOL    HW117345   1.703   3.260   1.843 -0.7013  1.7976 -1.1056
 1962SOL    HW217346   1.573   3.246   1.772  1.6818 -1.4650 -1.3550
 1963SOL     OW17347   0.090   0.846   0.048 -0.2231  0.4248 -0.3424
 1963SOL    HW117348   0.133   0.907  17.696  1.3629  0.6291  0.9812
 1963SOL    HW217349   0.159   0.792   0.084 -0.9778  0.1421  0.6721
 1964SOL     OW17350   0.689   2.611   3.394  0.5888 -0.3350 -0.7312
 1964SOL    HW117351   0.720   2.694   3.357  0.0975 -0.5034 -1.5184
 1964SOL    HW217352   0.769   2.560   3.381  1.2969  0.3631  0.7761
 1965SOL     OW17353   1.407   3.184  15.137 -0.2522 -0.2800 -0.6633
 1965SOL    HW117354   1.347   3.194  15.063 -1.3740 -1.4004  0.1156
 1965SOL    HW217355   1.382   3.254  15.197  0.4207 -0.4051 -0.2414
 1966SOL     OW17356   2.175   3.518   1.861  0.0483 -0.9206 -0.0150
 1966SOL    HW117357   2.141   3.457   1.927 -2.8032 -0.6258 -1.2233
 1966SOL    HW217358   2.267   3.522   1.889 -0.4121  0.9071  1.2481
 1967SOL     OW17359   0.112   2.587   0.923 -0.2063 -0.0739  0.2948
 1967SOL    HW117360   0.078   2.532   0.852  3.3704 -0.8776 -0.8123
 1967SOL    HW217361   0.139   2.666   0.877 -1.9248 -1.3219 -2.8002
 1968SOL     OW17362   2.420   0.238  12.954 -0.2781  0.6069 -0.2737
 1968SOL    HW117363   2.511   0.263  12.938  0.7521 -1.6961  2.0300
 1968SOL    HW217364   2.380   0.325  12.955  0.2590  0.8727 -2.0724
 1969SOL     OW17365   4.354   1.097  16.252  0.3939  0.0040  0.0466
 1969SOL    HW117366   4.446   1.118  16.232  0.7049  0.4153  1.9264
 1969SOL    HW217367   4.301   1.154  16.197  1.3135  0.5691 -0.2445
 1970SOL     OW17368   3.509   2.638  14.719 -0.1529  0.1118  0.4486
 1970SOL    HW117369   3.503   2.589  14.637 -0.1961  1.6216 -0.4522
 1970SOL    HW217370   3.555   2.574  14.775  0.5607 -0.3201 -0.6247
 1971SOL     OW17371   0.859   3.702   8.371 -0.4769 -0.0148 -0.5152
 1971SOL    HW117372   0.786   3.639   8.366 -0.0905 -0.5140  0.1659
 1971SOL    HW217373   0.882   3.688   8.463  1.1851  2.4823 -0.5534
 1972SOL     OW17374   1.511   3.951  11.499 -0.0466 -0.0954  0.0303
 1972SOL    HW117375   1.574   3.912  11.559  0.4503  0.0197 -0.4166
 1972SOL    HW217376   1.443   3.884  11.486  1.5057 -1.1995 -2.4803
 1973SOL     OW17377   4.302   1.222  17.490  0.1613  0.2218 -0.3815
 1973SOL    HW117378   4.266   1.192  17.406 -0.6796 -0.5290  0.2486
 1973SOL    HW217379   4.338   1.309  17.473  2.5581 -0.2851  2.2187
 1974SOL     OW17380   4.012   3.463   3.462 -0.4250  0.1999  0.1671
 1974SOL    HW117381   3.936   3.458   3.403 -2.0681 -1.5642  2.4037
 1974SOL    HW217382   4.048   3.374   3.460  1.1861  0.8763  0.0669
 1975SOL     OW17383   1.469   0.166   4.594  0.6308 -0.0688 -0.1978
 1975SOL    HW117384   1.559   0.173   4.626  0.1960 -0.7806  1.1770
 1975SOL    HW217385   1.440   0.252   4.625  0.5719  1.2913 -3.9732
 1976SOL     OW17386   0.650   3.609  10.037  0.2548  0.2596 -0.0040
 1976SOL    HW117387   0.608   3.655  10.109  0.6248 -1.5672  1.3758
 1976SOL    HW217388   0.638   3.518  10.062 -0.0246  0.5849  1.0338
 1977SOL     OW17389   2.009   1.612   7.474  0.3323  0.3543  0.3233
 1977SOL    HW117390   2.052   1.688   7.435  0.1159  0.7219  0.7939
 1977SOL    HW217391   1.993   1.634   7.566  0.0293  0.3479  0.2710
 1978SOL     OW17392   1.162   1.291   0.414 -0.0246  0.7478  0.1363
 1978SOL    HW117393   1.106   1.301   0.492  0.3697  0.9093  0.3983
 1978SOL    HW217394   1.115   1.351   0.356 -0.3152 -1.5644 -2.0044
 1979SOL     OW17395   0.850   1.293   3.877  0.4473 -0.2822  0.0867
 1979SOL    HW117396   0.932   1.309   3.830  1.1113 -0.3364  1.2370
 1979SOL    HW217397   0.791   1.281   3.802 -0.2815  0.4938  0.5457
 1980SOL     OW17398   2.416   1.659   3.059  0.5921  0.1373  0.6446
 1980SOL    HW117399   2.433   1.644   3.152  1.3262 -0.7928  0.3649
 1980SOL    HW217400   2.322   1.639   3.065  0.3883  0.4798 -1.2611
 1981SOL     OW17401   0.136   3.846   7.570  0.3623 -0.2336 -0.3380
 1981SOL    HW117402   0.132   3.759   7.532 -1.1213 -0.6042  0.7002
 1981SOL    HW217403   0.101   3.840   7.659 -0.7200  0.8801 -0.6932
 1982SOL     OW17404   0.969   4.159   0.715 -0.4549 -0.8442 -0.0757
 1982SOL    HW117405   0.956   4.251   0.694  0.7438 -0.4043  1.1699
 1982SOL    HW217406   0.891   4.144   0.768  0.6293 -2.0271  1.1645
 1983SOL     OW17407   2.806   2.055  11.889 -0.0650  0.4624  0.1266
 1983SOL    HW117408   2.877   2.115  11.868  0.8715 -1.3854 -1.8767
 1983SOL    HW217409   2.833   2.019  11.974 -1.3847  0.2982  0.4903
 1984SOL     OW17410   3.479   3.345   5.806  0.2139  0.1381 -0.3984
 1984SOL    HW117411   3.437   3.387   5.881 -2.3792  0.9948 -2.3573
 1984SOL    HW217412   3.481   3.256   5.841 -1.4499 -0.6226 -2.2485
 1985SOL     OW17413   2.179   1.856   2.487  0.3145 -0.6745 -0.5079
 1985SOL    HW117414   2.142   1.837   2.573  2.6771  0.7844  0.8169
 1985SOL    HW217415   2.227   1.937   2.505 -1.8598  0.4511  0.1859
 1986SOL     OW17416   0.882   4.366  14.249 -0.0224  0.1409  0.4284
 1986SOL    HW117417   0.823   4.399  14.181  1.0244  0.5703 -0.2713
 1986SOL    HW217418   0.872   4.424  14.324 -0.8949  1.8979 -1.0346
 1987SOL     OW17419   4.261   4.509   7.886  0.4460  0.1268  0.1054
 1987SOL    HW117420   4.177   4.463   7.882  0.7847 -0.6070  1.6068
 1987SOL    HW217421   4.269   4.528   7.980 -1.1926 -2.6601  0.8039
 1988SOL     OW17422   2.357   0.329   7.628  0.2266 -0.1447  0.8075
 1988SOL    HW117423   2.281   0.359   7.677 -1.8510 -1.0662 -1.8355
 1988SOL    HW217424   2.310   0.276   7.563 -0.4508  0.5425  0.7395
 1989SOL     OW17425   2.188   3.889   4.706  0.1340  0.2514  0.4417
 1989SOL    HW117426   2.259   3.832   4.737 -0.8981 -1.2126  0.1350
 1989SOL    HW217427   2.127   3.826   4.669  1.4056  0.1167 -1.4122
 1990SOL     OW17428   3.024   1.626  15.148 -0.5825 -0.2772  0.0930
 1990SOL    HW117429   3.069   1.541  15.152 -3.7875 -1.9749  0.1234
 1990SOL    HW217430   3.003   1.650  15.238  1.8545 -0.0110  0.5927
 1991SOL     OW17431   0.691   2.455   9.497 -0.7735  0.4975 -0.5202
 1991SOL    HW117432   0.733   2.404   9.567 -0.2305  2.7306  0.7583
 1991SOL    HW217433   0.612   2.404   9.480  0.4669 -0.2068 -4.1891
 1992SOL     OW17434   3.159   4.726   2.448 -0.1570 -0.4970  0.1670
 1992SOL    HW117435   3.244   0.009   2.491 -0.6361 -0.1461  1.0245
 1992SOL    HW217436   3.188   4.661   2.384  0.6277 -1.4108  1.4605
 1993SOL     OW17437   1.211   3.763   8.361  0.1799 -0.1720 -0.3683
 1993SOL    HW117438   1.151   3.781   8.289  0.3120 -0.9183 -0.6616
 1993SOL    HW217439   1.198   3.841   8.415 -0.4942 -1.1730  0.9345
 1994SOL     OW17440   4.583   0.498  11.281  0.3190  0.7748  0.1778
 1994SOL    HW117441   4.636   0.461  11.210 -0.4876 -0.6815  0.3237
 1994SOL    HW217442   4.598   0.592  11.282 -1.7034  1.1037  0.6047
 1995SOL     OW17443   2.760   3.676  10.329 -0.3866 -0.3126  0.1786
 1995SOL    HW117444   2.686   3.617  10.316 -0.7984  0.1449  0.4428
 1995SOL    HW217445   2.813   3.608  10.371 -0.0948 -0.6326 -0.7014
 1996SOL     OW17446   0.996   0.303   3.200  0.1229 -0.5157  0.2437
 1996SOL    HW117447   1.020   0.391   3.169 -1.9054 -0.1839 -0.3862
 1996SOL    HW217448   1.077   0.254   3.191  0.2913 -0.1093 -0.4861
 1997SOL     OW17449   0.799   0.340   3.412  1.0715 -0.2989 -0.1984
 1997SOL    HW117450   0.877   0.339   3.356  1.4971  1.8448  0.3575
 1997SOL    HW217451   0.738   0.392   3.359  0.5398 -1.8764 -1.1367
 1998SOL     OW17452   4.559   3.708   4.874 -0.1165 -0.4902  0.1946
 1998SOL    HW117453   4.485   3.668   4.828 -0.6884 -0.4458  1.0867
 1998SOL    HW217454   4.519   3.788   4.909  1.4200 -0.4611  1.9015
 1999SOL     OW17455   0.033   0.462  10.641  0.3106  0.2193 -0.2978
 1999SOL    HW117456   4.715   0.520  10.579 -0.9844  1.5800  1.9093
 1999SOL    HW217457   4.708   0.382  10.627  0.3879  0.4587 -1.9165
 2000SOL     OW17458   4.246   2.051   1.896  0.2880 -0.0698 -0.3533
 2000SOL    HW117459   4.151   2.058   1.903  0.0691 -1.7851 -1.4932
 2000SOL    HW217460   4.260   2.004   1.814  0.6996 -1.9795  0.8199
 2001SOL     OW17461   1.425   2.928  15.218 -0.2770  0.1885  0.0223
 2001SOL    HW117462   1.416   3.019  15.192 -0.2254 -0.3734 -1.9836
 2001SOL    HW217463   1.366   2.878  15.161  0.6032 -1.0969  0.2347
 2002SOL     OW17464   4.032   1.162   8.194 -0.3359  0.5601  0.1819
 2002SOL    HW117465   4.051   1.092   8.132  0.7271 -0.4573  1.6661
 2002SOL    HW217466   3.967   1.125   8.254  0.1725 -0.8650 -0.1594
 2003SOL     OW17467   3.053   0.732  16.770 -0.2199 -0.3115  0.0353
 2003SOL    HW117468   3.074   0.809  16.717 -2.1254 -0.1412 -0.4946
 2003SOL    HW217469   2.959   0.751  16.766 -0.5638 -2.5283 -2.3159
 2004SOL     OW17470   2.722   1.218  13.337  0.2700 -0.5676  0.4451
 2004SOL    HW117471   2.714   1.308  13.305  0.0428 -1.2051 -1.2803
 2004SOL    HW217472   2.810   1.211  13.373 -0.3702 -0.3086  2.0722
 2005SOL     OW17473   3.714   0.841   2.490 -0.2124  0.5143 -0.2143
 2005SOL    HW117474   3.768   0.919   2.479  1.0575 -0.2615  0.5028
 2005SOL    HW217475   3.765   0.794   2.423  1.0237  0.9488  0.4090
 2006SOL     OW17476   2.166   3.419   5.787 -0.2146 -0.9815 -0.3801
 2006SOL    HW117477   2.180   3.471   5.867 -1.7575 -1.0491 -0.0617
 2006SOL    HW217478   2.174   3.328   5.813 -0.5948 -0.2205  2.4146
 2007SOL     OW17479   3.948   3.240   7.860  0.0829 -0.7321  0.3690
 2007SOL    HW117480   3.966   3.178   7.931  0.9957 -0.1528  0.6424
 2007SOL    HW217481   4.037   3.229   7.827 -0.3375 -3.0079 -0.0013
 2008SOL     OW17482   1.511   4.388   6.051 -0.4474 -0.1366  0.0089
 2008SOL    HW117483   1.427   4.367   6.092  1.4685 -0.2624  3.8913
 2008SOL    HW217484   1.487   4.442   5.976 -1.9897  0.7718  1.1367
 2009SOL     OW17485   1.038   4.420   3.752 -0.1884  0.1811  0.4816
 2009SOL    HW117486   0.951   4.442   3.717  1.0038  1.9333 -1.3984
 2009SOL    HW217487   1.095   4.439   3.677 -0.6334 -0.2813  0.0291
 2010SOL     OW17488   4.207   3.919  14.498 -0.5065  0.2660  0.1131
 2010SOL    HW117489   4.245   4.002  14.525  2.6590 -1.3807  0.7719
 2010SOL    HW217490   4.136   3.931  14.435  0.2920 -2.2766 -1.2873
 2011SOL     OW17491   2.141   2.361   0.735  0.1375  0.0140  0.4139
 2011SOL    HW117492   2.093   2.379   0.654  0.1500  2.2042  0.8943
 2011SOL    HW217493   2.214   2.422   0.727 -0.2580 -0.1508 -4.2346
 2012SOL     OW17494   0.353   1.501   3.622  0.1710 -0.5471 -0.0153
 2012SOL    HW117495   0.359   1.422   3.569  0.1166 -1.7217  1.7138
 2012SOL    HW217496   0.399   1.564   3.567 -2.5090  1.6754  0.3285
 2013SOL     OW17497   3.909   3.277   2.080 -0.2794 -0.1709  0.3933
 2013SOL    HW117498   3.832   3.310   2.035  0.0956 -2.4236 -1.8992
 2013SOL    HW217499   3.969   3.351   2.094  1.5105 -1.4594 -0.4591
 2014SOL     OW17500   4.364   1.687   7.988 -0.3485  0.4056  0.3066
 2014SOL    HW117501   4.436   1.707   8.048 -1.0868 -1.2836  1.7533
 2014SOL    HW217502   4.397   1.682   7.898  0.2902 -1.0364  0.6245
 2015SOL     OW17503   0.062   1.944  16.895  0.0568  0.8571 -0.0734
 2015SOL    HW117504   0.093   2.030  16.922  0.4741  1.0542 -1.1651
 2015SOL    HW217505   4.718   1.917  16.953  0.9440  0.0774  0.6585
 2016SOL     OW17506   3.238   2.943   9.944  0.3037 -0.2455  0.2956
 2016SOL    HW117507   3.329   2.969   9.929  0.0080  0.0372 -1.0040
 2016SOL    HW217508   3.217   2.905   9.859 -0.6797 -1.1606  0.9401
 2017SOL     OW17509   0.364   3.204  16.905 -0.0478  0.3875 -0.4079
 2017SOL    HW117510   0.302   3.272  16.879 -1.2564 -0.0587  1.3717
 2017SOL    HW217511   0.380   3.227  16.996 -1.7921 -2.7636  0.6616
 2018SOL     OW17512   3.237   2.963  11.147  0.0470  0.6706 -0.2806
 2018SOL    HW117513   3.157   3.002  11.112  0.6538  1.9433 -0.2677
 2018SOL    HW217514   3.240   2.879  11.103  0.5269  1.9043 -2.5952
 2019SOL     OW17515   2.363   4.333   5.787  0.3205  0.0787 -0.9899
 2019SOL    HW117516   2.357   4.425   5.813 -2.7595 -0.7771  1.3705
 2019SOL    HW217517   2.443   4.341   5.734  1.8191 -2.4943  0.8618
 2020SOL     OW17518   4.318   2.365  16.294 -0.0290  0.6497 -0.0602
 2020SOL    HW117519   4.345   2.446  16.251 -1.5324  0.6275 -1.0298
 2020SOL    HW217520   4.400   2.316  16.288 -1.1287 -1.2159  0.2634
 2021SOL     OW17521   2.290   1.655   7.081  0.1763 -0.6964  0.4875
 2021SOL    HW117522   2.348   1.688   7.012  1.2846 -1.4512  1.0543
 2021SOL    HW217523   2.333   1.572   7.101  2.2471  0.1636 -0.2827
 2022SOL     OW17524   4.074   2.337   6.911 -0.5278 -0.1115  0.2305
 2022SOL    HW117525   4.109   2.310   6.996 -0.6299 -0.5100  0.1436
 2022SOL    HW217526   4.111   2.425   6.907 -1.9539  0.4490 -0.9496
 2023SOL     OW17527   4.009   3.104  13.361 -0.3356  0.2161 -0.3823
 2023SOL    HW117528   3.957   3.176  13.397 -0.0140  0.1405  0.2340
 2023SOL    HW217529   4.001   3.115  13.266  0.8626  2.3445 -0.2535
 2024SOL     OW17530   3.826   4.093  13.487  0.3664  0.4367 -0.4351
 2024SOL    HW117531   3.809   4.095  13.393 -0.6790 -0.6582 -0.2602
 2024SOL    HW217532   3.745   4.114  13.533  1.5930  2.7297  0.7038
 2025SOL     OW17533   0.391   3.201   8.549 -0.8978  0.0952  0.6938
 2025SOL    HW117534   0.297   3.201   8.532 -0.5685 -0.7528 -1.0861
 2025SOL    HW217535   0.387   3.268   8.617 -0.5876  1.8749 -1.0121
 2026SOL     OW17536   2.150   2.065   4.732 -0.3996 -0.3273  0.8979
 2026SOL    HW117537   2.149   2.044   4.639  1.8660  0.1944  0.7608
 2026SOL    HW217538   2.092   2.141   4.743 -1.6684 -1.3043  0.9245
 2027SOL     OW17539   3.734   2.096   2.862  0.1049  0.2774 -0.1851
 2027SOL    HW117540   3.656   2.082   2.917  2.0532  2.3838  3.1366
 2027SOL    HW217541   3.717   2.178   2.816 -1.8667  0.8796  1.6000
 2028SOL     OW17542   1.284   3.855   0.038 -0.0968  0.0576  0.6710
 2028SOL    HW117543   1.336   3.935   0.043  0.1503 -0.1893  2.2512
 2028SOL    HW217544   1.256   3.851  17.656  3.0926  0.3246 -0.3189
 2029SOL     OW17545   2.258   3.423  10.363  0.0123  0.1325  0.6662
 2029SOL    HW117546   2.170   3.384  10.359 -0.0853  0.4513 -0.3971
 2029SOL    HW217547   2.308   3.369  10.302  0.4560  1.1883  0.1042
 2030SOL     OW17548   2.571   0.403   2.485  0.0650 -0.3398  0.2884
 2030SOL    HW117549   2.529   0.338   2.541 -0.2626  0.5924  1.1166
 2030SOL    HW217550   2.500   0.411   2.421  1.4614  1.0832 -1.1196
 2031SOL     OW17551   1.022   3.923   4.677 -0.3807 -0.3477  0.1716
 2031SOL    HW117552   0.945   3.866   4.678 -0.4791 -0.2234 -0.2861
 2031SOL    HW217553   0.967   4.001   4.670 -0.1356  0.0586  2.8672
 2032SOL     OW17554   1.497   1.881   4.720  0.5143 -0.2799  0.2762
 2032SOL    HW117555   1.457   1.968   4.710 -0.2574 -0.4823  1.5130
 2032SOL    HW217556   1.461   1.828   4.650  0.0086 -1.1640  1.1989
 2033SOL     OW17557   0.402   1.661   4.891  0.0979 -0.2619  0.3825
 2033SOL    HW117558   0.335   1.600   4.859 -1.7903  0.8338  2.2796
 2033SOL    HW217559   0.406   1.641   4.984 -3.0066 -1.5310  0.2434
 2034SOL     OW17560   4.043   0.792   9.487 -0.8081  0.0997 -0.0800
 2034SOL    HW117561   4.085   0.802   9.573 -1.9007 -0.0532  0.4694
 2034SOL    HW217562   4.010   0.881   9.479  0.4589  0.5834  0.0440
 2035SOL     OW17563   4.189   4.705  15.557  0.0225  0.2249  0.5992
 2035SOL    HW117564   4.101   4.699  15.593  0.8274 -2.1474  2.1264
 2035SOL    HW217565   4.166   0.018  15.473 -1.2247  1.6418  1.6023
 2036SOL     OW17566   2.915   3.559   5.256  0.0474 -0.5169 -0.1084
 2036SOL    HW117567   2.887   3.564   5.165  0.9764  0.0701 -0.3597
 2036SOL    HW217568   3.002   3.519   5.255 -0.0621 -0.6479 -2.8770
 2037SOL     OW17569   3.236   0.755   1.104 -0.6034 -0.1444 -0.1601
 2037SOL    HW117570   3.304   0.696   1.137 -0.3296 -0.8059 -1.8873
 2037SOL    HW217571   3.297   0.830   1.105 -1.2021  0.2992  2.1376
 2038SOL     OW17572   2.549   2.990   5.931  0.0300 -0.0002  0.2939
 2038SOL    HW117573   2.636   2.993   5.970  1.5466 -0.3535 -3.0616
 2038SOL    HW217574   2.497   2.972   6.010  1.7331 -1.5494  1.0598
 2039SOL     OW17575   3.819   1.403   5.924  0.5466  0.6386  0.2810
 2039SOL    HW117576   3.856   1.333   5.978 -0.8572  0.1979  0.6996
 2039SOL    HW217577   3.757   1.445   5.984 -0.1445  0.4045 -0.2683
 2040SOL     OW17578   0.696   2.604   7.615 -0.3111  0.5124 -0.4848
 2040SOL    HW117579   0.776   2.610   7.562  0.6363 -0.7166  0.8230
 2040SOL    HW217580   0.740   2.573   7.694  2.2426  2.4550 -1.1351
 2041SOL     OW17581   3.652   3.819   4.495  0.5643  0.3504  0.2709
 2041SOL    HW117582   3.627   3.890   4.436  3.1199 -1.1643 -2.6309
 2041SOL    HW217583   3.625   3.747   4.438 -2.3143  0.6182  1.2585
 2042SOL     OW17584   3.277   2.002   8.686  0.0375 -0.5703 -0.5829
 2042SOL    HW117585   3.364   2.038   8.670  0.1416  0.0368  1.3518
 2042SOL    HW217586   3.250   2.051   8.763 -0.2695  2.0177 -2.3450
 2043SOL     OW17587   2.119   3.368   3.368  0.7460 -0.3736 -0.3051
 2043SOL    HW117588   2.112   3.273   3.383 -0.0218 -0.0025  1.7041
 2043SOL    HW217589   2.183   3.383   3.437 -1.1219  2.1335  0.8689
 2044SOL     OW17590   3.236   1.867   1.576 -0.1585  0.2264 -0.1165
 2044SOL    HW117591   3.155   1.911   1.551  0.6313  0.1004 -2.8566
 2044SOL    HW217592   3.202   1.780   1.599 -1.1878  0.4952 -0.6249
 2045SOL     OW17593   1.197   1.880   8.861 -0.4491 -0.1254 -0.1899
 2045SOL    HW117594   1.146   1.850   8.936  0.8484 -0.3942  0.5728
 2045SOL    HW217595   1.122   1.884   8.801 -0.4222 -0.6803 -0.2642
 2046SOL     OW17596   2.619   4.139   6.212  0.4833 -0.1307  0.4502
 2046SOL    HW117597   2.531   4.106   6.190  1.1991 -0.6944 -1.6514
 2046SOL    HW217598   2.604   4.228   6.181  4.4239  0.3692 -0.0211
 2047SOL     OW17599   3.219   2.667   5.308 -0.0097  0.0645  0.0124
 2047SOL    HW117600   3.248   2.576   5.309 -2.3311 -0.6836  0.5412
 2047SOL    HW217601   3.185   2.662   5.219 -0.3389 -2.5633  0.2672
 2048SOL     OW17602   4.524   1.188   0.209 -0.1695  0.3366 -0.1578
 2048SOL    HW117603   4.504   1.101   0.175  2.5159 -1.1359  2.1146
 2048SOL    HW217604   4.587   1.220   0.144  0.6721 -0.5947  0.1950
 2049SOL     OW17605   2.666   3.012   4.529  0.2896  0.2989 -0.5871
 2049SOL    HW117606   2.760   3.003   4.545  0.2142  0.1949 -0.1898
 2049SOL    HW217607   2.665   3.096   4.483 -2.3298 -0.3252 -1.6939
 2050SOL     OW17608   3.537   1.750   4.575  0.5489 -0.0914 -0.1684
 2050SOL    HW117609   3.511   1.715   4.661  1.4809 -0.9094 -0.2226
 2050SOL    HW217610   3.524   1.667   4.529 -1.2726 -0.9521  1.9062
 2051SOL     OW17611   4.312   0.547  13.791  0.4045 -0.0108 -0.1192
 2051SOL    HW117612   4.277   0.579  13.874 -0.8017  1.0401 -1.0429
 2051SOL    HW217613   4.391   0.499  13.817 -0.8862 -1.8362  0.4488
 2052SOL     OW17614   2.167   2.205   4.298 -0.8738  0.2863 -0.2342
 2052SOL    HW117615   2.133   2.267   4.233 -1.3602  1.6366  1.2991
 2052SOL    HW217616   2.091   2.192   4.355 -0.4137 -0.0987  0.2953
 2053SOL     OW17617   1.109   4.570  17.668 -0.0916  0.1660 -0.0612
 2053SOL    HW117618   1.146   4.505  17.608  2.8127  2.5514 -0.8881
 2053SOL    HW217619   1.098   4.518   0.039 -0.8339  1.5367  0.7291
 2054SOL     OW17620   0.377   1.619  16.594  0.1728  0.0892  0.6768
 2054SOL    HW117621   0.467   1.603  16.567  0.3526  2.0609  0.0828
 2054SOL    HW217622   0.381   1.683  16.665  0.8685  1.2858 -0.4294
 2055SOL     OW17623   1.730   3.368   0.415  0.3677 -0.4845  0.0292
 2055SOL    HW117624   1.822   3.359   0.442 -0.5401 -2.7358  2.3423
 2055SOL    HW217625   1.743   3.444   0.358  0.7828  0.5229  1.4348
 2056SOL     OW17626   1.486   1.690   7.924  0.1088  0.7463  0.0238
 2056SOL    HW117627   1.474   1.779   7.959  0.4399  0.6045  0.5047
 2056SOL    HW217628   1.530   1.701   7.840 -0.5923  0.2380 -0.3973
 2057SOL     OW17629   2.933   2.785  15.329 -0.5019  0.6915  0.3114
 2057SOL    HW117630   2.909   2.741  15.410 -0.0892 -1.4837 -0.7472
 2057SOL    HW217631   2.844   2.805  15.297 -1.2626 -1.0667  1.3776
 2058SOL     OW17632   1.432   2.082   2.605 -0.0279 -0.1872  0.3689
 2058SOL    HW117633   1.521   2.067   2.572  1.1098  0.1731  3.3006
 2058SOL    HW217634   1.390   2.117   2.526  0.4968 -1.0631 -0.3092
 2059SOL     OW17635   1.811   4.192   5.533  0.0211 -0.1738  0.3888
 2059SOL    HW117636   1.749   4.183   5.461  1.2952  2.8660 -1.1124
 2059SOL    HW217637   1.820   4.103   5.565 -0.4073 -0.0967  0.7222
 2060SOL     OW17638   0.052   0.924   4.727 -0.3293 -0.1050  0.1759
 2060SOL    HW117639   0.018   0.894   4.812  1.4391  0.5366  1.1126
 2060SOL    HW217640   0.022   1.015   4.722 -0.1947 -0.1289 -0.9683
 2061SOL     OW17641   0.162   2.355   1.081  0.0309  0.0365  0.3881
 2061SOL    HW117642   0.079   2.350   1.129  0.2859  0.7751  0.8999
 2061SOL    HW217643   0.154   2.440   1.039 -1.8279  0.0478  0.7345
 2062SOL     OW17644   0.066   0.399   9.786 -0.4706  0.9681 -0.0343
 2062SOL    HW117645   0.041   0.309   9.764 -1.4352  0.5981  2.5245
 2062SOL    HW217646   0.011   0.417   9.862 -0.7717  0.7676 -0.2063
 2063SOL     OW17647   1.969   2.005   6.007 -0.1109  0.4073 -0.0530
 2063SOL    HW117648   2.042   2.044   5.959  0.8593 -1.4538 -0.0681
 2063SOL    HW217649   1.970   2.066   6.081 -0.3489 -1.0333  1.1431
 2064SOL     OW17650   1.704   0.754   5.346  0.7541  0.6575 -0.3942
 2064SOL    HW117651   1.624   0.791   5.309  0.2371 -0.4526 -0.3638
 2064SOL    HW217652   1.706   0.667   5.308  0.8225  0.1832  0.6989
 2065SOL     OW17653   0.146   0.381   2.541  0.5503 -0.6705  0.8719
 2065SOL    HW117654   0.183   0.459   2.582 -2.9025  0.6094  1.4808
 2065SOL    HW217655   0.055   0.406   2.556  1.1567  1.7520  0.4986
 2066SOL     OW17656   0.613   2.580  13.305 -0.2307 -0.0613  0.0795
 2066SOL    HW117657   0.680   2.607  13.369 -2.4113 -0.6805  2.6080
 2066SOL    HW217658   0.539   2.538  13.349 -0.5079 -0.4695 -0.7746
 2067SOL     OW17659   0.883   0.043  14.191 -0.2519  0.4866  0.2587
 2067SOL    HW117660   0.932   0.121  14.166  0.2459  0.2800  0.5869
 2067SOL    HW217661   0.861   0.062  14.282 -0.3972 -0.3500  0.3977
 2068SOL     OW17662   0.983   0.035  15.137  0.3422 -0.0909 -0.6107
 2068SOL    HW117663   0.909   0.046  15.197  0.5357  1.5512 -0.6587
 2068SOL    HW217664   1.005   4.676  15.171 -3.1061 -0.7093  0.0525
 2069SOL     OW17665   1.491   2.453   4.700  0.0076  0.4802  0.2198
 2069SOL    HW117666   1.573   2.501   4.699  1.9733 -2.8696  0.1143
 2069SOL    HW217667   1.489   2.422   4.791  2.8032 -1.9880 -0.5597
 2070SOL     OW17668   4.542   3.086   6.416 -0.3804  0.0089  0.2685
 2070SOL    HW117669   4.570   3.081   6.508 -0.8782 -1.2948  0.3523
 2070SOL    HW217670   4.513   3.177   6.407 -0.6696  0.0774  1.8872
 2071SOL     OW17671   3.833   3.425  12.275  0.0722 -0.5699  0.2052
 2071SOL    HW117672   3.863   3.461  12.358 -1.8858  3.3523 -0.8186
 2071SOL    HW217673   3.865   3.485  12.207  1.0774  0.7775  1.8865
 2072SOL     OW17674   3.678   1.819   5.139 -0.6957 -0.8146 -0.2940
 2072SOL    HW117675   3.583   1.832   5.138 -0.3793  1.4900  1.2277
 2072SOL    HW217676   3.705   1.793   5.227 -0.2749 -0.5319 -0.3382
 2073SOL     OW17677   3.689   1.382  12.049 -0.1855  0.3827 -0.3645
 2073SOL    HW117678   3.748   1.415  11.982  0.0890 -1.5716 -1.0741
 2073SOL    HW217679   3.611   1.384  11.993 -0.3993  0.0607 -0.0832
 2074SOL     OW17680   1.645   4.590   1.897 -0.0142  0.3976  0.3621
 2074SOL    HW117681   1.553   4.579   1.920  0.2632 -0.8625  0.8561
 2074SOL    HW217682   1.677   4.526   1.961 -1.2857 -1.9888 -1.4184
 2075SOL     OW17683   3.262   2.047  15.677  0.4358  0.4406  0.2037
 2075SOL    HW117684   3.285   2.029  15.586  1.0396  1.5283  0.1463
 2075SOL    HW217685   3.299   2.134  15.694 -0.7081  1.0998 -0.6637
 2076SOL     OW17686   2.255   3.323   2.669  0.1613  0.6706  0.8248
 2076SOL    HW117687   2.170   3.297   2.634 -0.4661  1.6789  1.6052
 2076SOL    HW217688   2.300   3.240   2.686  0.2949  0.5978  0.1060
 2077SOL     OW17689   2.197   3.846   3.280 -0.2810 -0.5005  0.0858
 2077SOL    HW117690   2.185   3.755   3.254 -0.6965  0.0238 -1.5972
 2077SOL    HW217691   2.276   3.867   3.229 -0.4101  0.4444  0.2755
 2078SOL     OW17692   0.319   0.664   3.104  0.1863  0.8682 -0.0472
 2078SOL    HW117693   0.346   0.641   3.193 -0.0893  1.5390  0.2139
 2078SOL    HW217694   0.299   0.758   3.107 -0.6987  0.7312 -2.1905
 2079SOL     OW17695   2.212   1.233  10.746  0.0553 -0.2607  0.3165
 2079SOL    HW117696   2.227   1.326  10.765  1.2550 -0.9311  2.6729
 2079SOL    HW217697   2.241   1.223  10.655  0.9461 -0.8555  0.6710
 2080SOL     OW17698   3.333   4.059   8.432  0.0804  0.4394 -0.1579
 2080SOL    HW117699   3.414   4.016   8.457  0.4498  0.8771 -0.5951
 2080SOL    HW217700   3.276   3.981   8.432  2.1634 -1.0756  1.0661
 2081SOL     OW17701   2.317   2.788  11.959 -0.0263 -0.1961 -0.5672
 2081SOL    HW117702   2.346   2.874  11.989  2.0673 -1.0103 -0.2458
 2081SOL    HW217703   2.400   2.743  11.944 -0.9520 -0.9429 -3.3427
 2082SOL     OW17704   4.397   0.308  11.250 -0.4256  0.2613  0.7740
 2082SOL    HW117705   4.446   0.388  11.269  0.1327 -0.5815  2.8353
 2082SOL    HW217706   4.330   0.331  11.186 -0.6636  1.1771  1.3443
 2083SOL     OW17707   1.714   2.836   4.820  0.1339  0.2139 -0.1439
 2083SOL    HW117708   1.792   2.837   4.876  0.1079  1.2065 -0.1187
 2083SOL    HW217709   1.734   2.754   4.775 -3.3068 -0.7357  0.0152
 2084SOL     OW17710   0.119   4.457  12.202  0.3291 -0.1193 -0.5864
 2084SOL    HW117711   0.205   4.457  12.244 -0.7000 -1.5053  1.5470
 2084SOL    HW217712   0.070   4.380  12.234  0.7549 -1.1407 -2.3999
 2085SOL     OW17713   1.094   3.145   7.559  1.0707  0.4222  0.6331
 2085SOL    HW117714   1.061   3.203   7.628 -1.2015  0.7811 -0.7607
 2085SOL    HW217715   1.041   3.066   7.567 -3.5769  3.5565  0.6677
 2086SOL     OW17716   4.618   1.117   2.117 -0.2528 -0.3244  0.1518
 2086SOL    HW117717   4.590   1.026   2.121 -0.3613 -0.3570 -1.2729
 2086SOL    HW217718   4.539   1.160   2.152 -0.8227  0.4721 -2.0986
 2087SOL     OW17719   3.816   2.958   7.690 -0.0872 -0.4551 -0.1030
 2087SOL    HW117720   3.888   3.015   7.663 -1.2167  1.0621  0.0893
 2087SOL    HW217721   3.752   2.999   7.631  0.1268 -1.1800 -0.8459
 2088SOL     OW17722   2.338   1.447  11.044 -0.3532  0.1972  0.1888
 2088SOL    HW117723   2.317   1.487  10.959  0.7673 -0.3066 -0.3257
 2088SOL    HW217724   2.320   1.355  11.022 -1.9376  0.2471  1.2717
 2089SOL     OW17725   3.629   4.645  11.226  0.3808 -0.0463  0.0617
 2089SOL    HW117726   3.643   4.618  11.136 -0.3249 -1.9655  0.5213
 2089SOL    HW217727   3.537   4.625  11.239  0.1214  1.0769 -0.0351
 2090SOL     OW17728   3.276   3.101   4.365  0.3964  0.5553 -0.1440
 2090SOL    HW117729   3.232   3.032   4.415 -0.0143  1.7459  1.1236
 2090SOL    HW217730   3.259   3.068   4.277 -2.2330 -2.1827  1.3748
 2091SOL     OW17731   1.416   1.754   7.487  0.5208 -0.2451 -0.0854
 2091SOL    HW117732   1.473   1.678   7.501  0.5324  0.0404  1.4137
 2091SOL    HW217733   1.433   1.804   7.567  1.2467  0.5768 -0.7536
 2092SOL     OW17734   1.689   1.119   5.635  0.4681  0.0790  0.1630
 2092SOL    HW117735   1.639   1.157   5.708  0.0077  0.4070 -0.3216
 2092SOL    HW217736   1.778   1.118   5.669 -0.4748  1.0791  2.6316
 2093SOL     OW17737   1.735   1.773   4.721 -0.3566 -0.2583 -0.4973
 2093SOL    HW117738   1.693   1.690   4.744  0.1685 -0.3089  0.2937
 2093SOL    HW217739   1.659   1.831   4.726 -0.7113 -0.8630  1.2059
 2094SOL     OW17740   0.860   3.810   7.557  0.3177 -0.1836 -0.3317
 2094SOL    HW117741   0.907   3.771   7.483 -0.3345  0.8090 -1.2728
 2094SOL    HW217742   0.930   3.843   7.613  1.2369 -2.7625  0.0330
 2095SOL     OW17743   2.817   0.507   2.595 -0.1437 -0.0304  0.3868
 2095SOL    HW117744   2.738   0.479   2.549  0.9584 -2.0474 -0.2447
 2095SOL    HW217745   2.887   0.492   2.531 -0.5014 -1.5591  0.3739
 2096SOL     OW17746   1.370   0.531  14.189  0.5425  0.5521 -0.5604
 2096SOL    HW117747   1.413   0.575  14.262  0.6580 -0.4495 -0.0246
 2096SOL    HW217748   1.280   0.523  14.221  0.9392 -1.1894  0.0959
 2097SOL     OW17749   1.212   0.614   6.449  0.2035 -0.4903  0.0254
 2097SOL    HW117750   1.124   0.627   6.412  0.5274  1.5624 -0.0227
 2097SOL    HW217751   1.228   0.689   6.507 -0.6467  0.1063 -0.4981
 2098SOL     OW17752   2.582   2.894  17.246  0.4918  0.3027  0.1712
 2098SOL    HW117753   2.590   2.988  17.258  0.7372  0.0222  2.2618
 2098SOL    HW217754   2.658   2.866  17.298  0.9151  1.3263  0.0876
 2099SOL     OW17755   3.981   4.560   4.254  0.2396  0.0823  0.0247
 2099SOL    HW117756   3.917   4.627   4.227  0.5664  0.4742  0.2218
 2099SOL    HW217757   3.966   4.498   4.183  0.4303  2.1959 -1.8787
 2100SOL     OW17758   0.968   0.407   6.921  0.1221  0.4888  0.0715
 2100SOL    HW117759   0.948   0.449   6.837 -1.4089 -0.6406 -0.1336
 2100SOL    HW217760   1.061   0.389   6.904 -0.2725 -0.4476 -1.1006
 2101SOL     OW17761   2.820   4.638  14.179  0.6915  0.2743  0.6891
 2101SOL    HW117762   2.880   4.709  14.201  0.2788  0.7889  0.1708
 2101SOL    HW217763   2.849   4.613  14.092 -0.0136 -2.4160  1.2387
 2102SOL     OW17764   1.264   1.593   1.111  0.4058  0.2401 -0.3541
 2102SOL    HW117765   1.325   1.659   1.080 -0.3335 -0.8173 -4.0931
 2102SOL    HW217766   1.249   1.539   1.032 -1.6889  2.4276 -1.4483
 2103SOL     OW17767   0.159   1.409   6.108  0.1693  0.2649 -0.5204
 2103SOL    HW117768   0.114   1.428   6.190 -0.4325 -0.5561 -0.6624
 2103SOL    HW217769   0.084   1.404   6.049  0.5487 -0.7128 -0.9229
 2104SOL     OW17770   4.028   4.414   8.287 -0.5957 -0.5133  0.6566
 2104SOL    HW117771   4.029   4.320   8.269 -2.8112  0.0159 -2.2660
 2104SOL    HW217772   4.025   4.412   8.382 -1.4541 -2.8370  0.5989
 2105SOL     OW17773   0.256   2.285   5.657 -1.3037 -0.3373  0.0302
 2105SOL    HW117774   0.178   2.277   5.712 -1.1963  1.2786  0.4468
 2105SOL    HW217775   0.236   2.217   5.593  2.5606  0.1629 -1.6939
 2106SOL     OW17776   0.421   1.505   7.345 -0.1802  0.2348 -0.4356
 2106SOL    HW117777   0.339   1.546   7.373  0.9396  0.5577  2.3938
 2106SOL    HW217778   0.483   1.568   7.382 -1.2477  1.1350 -0.1906
 2107SOL     OW17779   2.629   2.692  11.243 -0.3276 -0.7290 -0.4752
 2107SOL    HW117780   2.586   2.608  11.255 -1.9870  0.3022  0.7857
 2107SOL    HW217781   2.692   2.692  11.315  2.0652  0.4867 -2.5753
 2108SOL     OW17782   3.746   4.473   2.998  0.0360 -0.9615 -0.1823
 2108SOL    HW117783   3.823   4.499   3.048 -0.3338  0.1177 -0.1627
 2108SOL    HW217784   3.788   4.406   2.945  2.6835 -0.3000  1.0659
 2109SOL     OW17785   1.028   1.711   5.786 -0.2199 -0.1907 -0.2367
 2109SOL    HW117786   0.972   1.773   5.739  0.6642  0.5842 -0.2752
 2109SOL    HW217787   1.111   1.718   5.739 -0.2651  2.8382  0.1105
 2110SOL     OW17788   4.324   2.386   5.177  0.0569  0.0149  0.0576
 2110SOL    HW117789   4.317   2.345   5.263  0.3503  1.9213  0.9848
 2110SOL    HW217790   4.285   2.307   5.138  1.4201  0.3143 -1.9148
 2111SOL     OW17791   2.401   4.197   3.511 -0.2082  0.0108  0.2900
 2111SOL    HW117792   2.381   4.253   3.436  0.8154  2.0113  1.5291
 2111SOL    HW217793   2.330   4.132   3.514  0.5121 -0.7628  0.4742
 2112SOL     OW17794   0.783   3.181   8.749  0.1500  0.0027  0.0569
 2112SOL    HW117795   0.807   3.091   8.724 -0.1788  0.2564 -1.1780
 2112SOL    HW217796   0.700   3.172   8.795  0.0609  1.4962  0.1811
 2113SOL     OW17797   0.173   4.459   9.201 -0.4562 -0.2662 -0.2285
 2113SOL    HW117798   0.180   4.364   9.197  0.2997 -0.1283 -2.3444
 2113SOL    HW217799   0.262   4.485   9.175  0.0860 -0.2221  1.6488
 2114SOL     OW17800   2.658   4.560   6.928  0.0268 -0.1215 -0.0438
 2114SOL    HW117801   2.654   4.653   6.951 -0.4563 -0.0276 -0.5079
 2114SOL    HW217802   2.632   4.553   6.836  0.3668 -1.2992 -0.0566
 2115SOL     OW17803   4.024   3.753  12.610  0.2124 -0.1732  0.4935
 2115SOL    HW117804   4.101   3.736  12.556  1.9218  1.6462  2.4069
 2115SOL    HW217805   4.070   3.757  12.694 -1.0465  0.4824  1.1557
 2116SOL     OW17806   3.670   4.614  10.946 -0.5134 -0.4820 -0.1668
 2116SOL    HW117807   3.657   4.679  10.877  1.2877 -1.7774 -1.7238
 2116SOL    HW217808   3.683   4.540  10.887  0.1980  0.8024 -1.6511
 2117SOL     OW17809   2.475   2.586  11.613  0.2240 -0.0929 -0.2382
 2117SOL    HW117810   2.480   2.662  11.555  1.8202  0.3881  0.4987
 2117SOL    HW217811   2.535   2.606  11.685  0.2057  0.4119 -0.3627
 2118SOL     OW17812   3.250   3.974   2.151  0.0206 -0.1711  0.1840
 2118SOL    HW117813   3.174   3.929   2.114  0.2042 -0.5981  0.3294
 2118SOL    HW217814   3.212   4.008   2.232 -0.4735 -0.0807 -0.0855
 2119SOL     OW17815   3.671   2.249   5.738 -0.1841  0.1463 -0.8072
 2119SOL    HW117816   3.661   2.292   5.653 -1.0666 -0.8618 -1.2214
 2119SOL    HW217817   3.585   2.208   5.748  0.5575 -1.0358  0.6682
 2120SOL     OW17818   3.231   2.729   1.149 -0.0469  0.4020  0.6769
 2120SOL    HW117819   3.258   2.787   1.078  0.3123 -0.1435  0.3761
 2120SOL    HW217820   3.276   2.767   1.224 -0.2101 -0.1463  1.0511
 2121SOL     OW17821   1.570   0.526   5.033  0.6717 -0.4711  0.2291
 2121SOL    HW117822   1.642   0.475   4.995  0.0151 -0.3184 -1.2211
 2121SOL    HW217823   1.592   0.616   5.010 -1.7041  0.0432 -0.0071
 2122SOL     OW17824   1.862   4.040   2.145  0.3224  0.7043  0.4304
 2122SOL    HW117825   1.845   4.068   2.235  0.4930 -0.1794  0.7420
 2122SOL    HW217826   1.930   4.100   2.115  1.1759 -1.6414 -2.4012
 2123SOL     OW17827   0.056   0.926   2.325  1.0571 -0.2178 -0.1531
 2123SOL    HW117828   0.076   0.997   2.264  0.9190  0.2297  0.3288
 2123SOL    HW217829   0.046   0.971   2.408 -0.1720 -1.4702  0.3813
 2124SOL     OW17830   3.294   3.928   3.368 -0.0821 -0.2200 -0.3550
 2124SOL    HW117831   3.216   3.915   3.314 -0.1004  0.0748 -0.4023
 2124SOL    HW217832   3.293   3.841   3.408  1.5918 -0.6077 -1.1751
 2125SOL     OW17833   0.092   2.419   3.199  0.1031 -0.1063  0.6114
 2125SOL    HW117834   0.173   2.432   3.149 -1.0734  2.2365 -0.6962
 2125SOL    HW217835   0.129   2.369   3.272  1.7377 -1.0893 -0.8930
 2126SOL     OW17836   0.586   3.135  16.758  0.3105 -0.2726  0.6776
 2126SOL    HW117837   0.510   3.166  16.806 -2.8784 -6.1291 -0.5768
 2126SOL    HW217838   0.589   3.207  16.695  1.1751 -1.3420 -0.5170
 2127SOL     OW17839   2.712   1.021   7.759 -0.4494  0.3178 -0.6391
 2127SOL    HW117840   2.701   0.964   7.834  0.8551 -1.4206 -1.7774
 2127SOL    HW217841   2.677   1.106   7.788  0.3238  0.7870 -1.0728
 2128SOL     OW17842   1.591   2.055   5.616 -0.1690 -0.8628 -0.6120
 2128SOL    HW117843   1.605   1.964   5.642  0.5399 -0.9856 -1.4244
 2128SOL    HW217844   1.495   2.058   5.614 -0.2588 -2.4140  2.3027
 2129SOL     OW17845   1.444   4.351  17.280  0.0505 -0.5633 -0.4200
 2129SOL    HW117846   1.441   4.274  17.336 -0.7483 -1.3891 -1.6074
 2129SOL    HW217847   1.525   4.394  17.308 -0.2196  0.3683 -1.0458
 2130SOL     OW17848   0.017   1.413  16.408  0.7041  0.1043  0.3195
 2130SOL    HW117849   4.655   1.396  16.440  0.3786  1.6494  0.2593
 2130SOL    HW217850   4.722   1.421  16.316 -2.6678  0.3372  1.1582
 2131SOL     OW17851   2.756   0.894   1.269  0.3104  0.4466 -0.0310
 2131SOL    HW117852   2.719   0.981   1.280  0.7786  0.4745  1.2943
 2131SOL    HW217853   2.688   0.845   1.223  2.3975 -0.5202 -2.0721
 2132SOL     OW17854   2.432   3.067   5.357 -0.2083 -0.3125 -0.4991
 2132SOL    HW117855   2.367   3.077   5.287 -3.8214 -3.4007  2.4251
 2132SOL    HW217856   2.514   3.045   5.313 -0.2469  1.4756 -1.4754
 2133SOL     OW17857   0.776   0.397   2.937 -0.0183  0.0286 -0.0960
 2133SOL    HW117858   0.792   0.328   3.002 -0.7038  1.3737  1.4876
 2133SOL    HW217859   0.860   0.442   2.925 -0.0088 -0.3187 -1.3651
 2134SOL     OW17860   4.530   2.649   8.830 -1.0820 -0.1517  0.0756
 2134SOL    HW117861   4.597   2.700   8.875  0.5648 -2.9391  0.7778
 2134SOL    HW217862   4.516   2.695   8.747 -1.2582 -2.0787 -0.9584
 2135SOL     OW17863   0.533   2.411   8.570  0.2759 -0.6021  0.5548
 2135SOL    HW117864   0.484   2.330   8.556  0.1098 -0.1969 -1.2317
 2135SOL    HW217865   0.520   2.407   8.665  1.0006  1.9595  0.7683
 2136SOL     OW17866   2.168   0.079   2.004  0.6512 -0.1599 -0.7060
 2136SOL    HW117867   2.141   0.082   1.912 -2.5920  0.2820  0.2366
 2136SOL    HW217868   2.247   0.131   1.992 -0.6190  1.3323 -2.8201
 2137SOL     OW17869   0.506   1.564   1.435  0.1695  0.5831  0.5210
 2137SOL    HW117870   0.552   1.646   1.454 -0.6642  1.3112 -0.6225
 2137SOL    HW217871   0.545   1.495   1.489  0.5774 -0.7225 -1.4388
 2138SOL     OW17872   2.432   1.147   3.746 -0.0190 -0.1418  0.1697
 2138SOL    HW117873   2.392   1.234   3.751 -0.0111 -0.0512 -1.3238
 2138SOL    HW217874   2.361   1.093   3.781 -1.9306  2.0495 -0.2881
 2139SOL     OW17875   3.149   2.764   8.975 -0.1966 -0.3473 -0.1940
 2139SOL    HW117876   3.186   2.736   8.891  0.9475 -0.5541  0.3878
 2139SOL    HW217877   3.153   2.679   9.020  0.1691 -0.0029  0.4261
 2140SOL     OW17878   3.333   3.610   3.860 -0.1537 -0.0852  0.1549
 2140SOL    HW117879   3.357   3.549   3.790 -0.0722  1.6198 -1.3097
 2140SOL    HW217880   3.398   3.592   3.927  0.7669  1.4044 -0.3489
 2141SOL     OW17881   3.294   3.265   3.212  0.4100 -0.0478  0.4240
 2141SOL    HW117882   3.201   3.248   3.229  0.1873 -0.0134 -0.7203
 2141SOL    HW217883   3.275   3.267   3.118  2.2032 -1.7520  0.0339
 2142SOL     OW17884   2.702   2.016   9.671  0.8519  0.2852 -0.5362
 2142SOL    HW117885   2.620   2.059   9.698 -0.3502 -2.5069  0.2576
 2142SOL    HW217886   2.751   2.033   9.751  1.5549  0.5493 -1.0221
 2143SOL     OW17887   0.729   2.211   4.545  0.2542  0.2089 -0.8200
 2143SOL    HW117888   0.695   2.232   4.458 -0.8526  2.4329  0.1450
 2143SOL    HW217889   0.704   2.119   4.536  2.5346 -0.2394 -2.6731
 2144SOL     OW17890   1.823   3.603  16.342  0.2425 -0.1842  0.6178
 2144SOL    HW117891   1.826   3.612  16.437 -0.4485 -0.1319  0.6316
 2144SOL    HW217892   1.918   3.605  16.328  0.2754  1.9683  1.2364
 2145SOL     OW17893   0.086   2.245   2.440 -0.2337 -0.0188 -0.3537
 2145SOL    HW117894   0.012   2.293   2.478 -0.1708 -0.5388  0.4239
 2145SOL    HW217895   0.044   2.197   2.369  0.8967  1.9136 -2.3058
 2146SOL     OW17896   2.824   0.228   6.711  0.1188 -0.3467 -0.1543
 2146SOL    HW117897   2.907   0.272   6.691  0.1740 -0.1408  0.5274
 2146SOL    HW217898   2.864   0.153   6.756 -1.4522 -0.1397  1.6147
 2147SOL     OW17899   2.854   2.613   6.494 -0.0560 -0.9347 -0.7977
 2147SOL    HW117900   2.854   2.583   6.403  0.8562 -1.7822 -0.5303
 2147SOL    HW217901   2.949   2.621   6.501 -0.2289 -0.5484  1.2228
 2148SOL     OW17902   3.058   0.167   3.881  0.3399 -0.2933  0.1658
 2148SOL    HW117903   2.992   0.175   3.812 -0.6455  1.0589  1.2662
 2148SOL    HW217904   3.061   0.258   3.911 -0.0062 -0.9421  2.2223
 2149SOL     OW17905   0.532   1.679   3.509  0.4290  0.3554 -0.2386
 2149SOL    HW117906   0.533   1.770   3.539 -0.9134 -0.8659  3.4433
 2149SOL    HW217907   0.593   1.688   3.435  1.1565  0.3517  0.3612
 2150SOL     OW17908   3.081   0.254  11.480  0.3425 -0.2123  0.1996
 2150SOL    HW117909   3.125   0.190  11.424 -0.4969  1.5967 -2.4754
 2150SOL    HW217910   3.149   0.313  11.513  0.5364 -0.0539 -0.4915
 2151SOL     OW17911   2.419   4.686   5.292 -0.3119  0.7361 -0.6148
 2151SOL    HW117912   2.403   4.616   5.356 -0.9020  0.5852 -0.9273
 2151SOL    HW217913   2.503   4.716   5.326 -0.4314 -0.4592  0.7256
 2152SOL     OW17914   1.692   0.845   2.909  0.0680 -0.7370  0.3344
 2152SOL    HW117915   1.772   0.818   2.955  2.0508  3.0939 -0.9365
 2152SOL    HW217916   1.733   0.896   2.840  1.7593  0.3911  2.1600
 2153SOL     OW17917   1.882   1.061   9.785 -0.2271 -0.1571  0.2927
 2153SOL    HW117918   1.796   1.022   9.770  0.3242 -1.3299  0.2434
 2153SOL    HW217919   1.874   1.098   9.873  0.7321  2.4432 -0.6984
 2154SOL     OW17920   4.115   1.355  12.365 -0.2383  0.3619 -0.4460
 2154SOL    HW117921   4.146   1.440  12.334  1.3272  0.4056  1.1845
 2154SOL    HW217922   4.092   1.312  12.282  0.7692  0.9576 -1.0274
 2155SOL     OW17923   2.712   0.428   3.300 -0.2221  0.1622 -0.7696
 2155SOL    HW117924   2.623   0.462   3.294 -0.3718 -0.2743 -1.0199
 2155SOL    HW217925   2.762   0.506   3.273 -1.2423  0.0312 -3.0158
 2156SOL     OW17926   0.162   4.562   2.970  0.1325  0.0719 -0.0700
 2156SOL    HW117927   0.144   4.506   3.045 -0.9854 -1.2758 -1.3440
 2156SOL    HW217928   0.116   4.638   3.006 -0.7214  0.5714 -2.2110
 2157SOL     OW17929   4.224   1.231  14.658  0.3515 -0.5562 -0.5318
 2157SOL    HW117930   4.257   1.189  14.578  0.4409 -0.5419 -0.5025
 2157SOL    HW217931   4.234   1.321  14.629 -0.9194 -0.4888 -0.7667
 2158SOL     OW17932   2.842   0.593   3.833 -0.4277  0.3633 -0.2485
 2158SOL    HW117933   2.881   0.525   3.779  1.2582  0.1392  1.2356
 2158SOL    HW217934   2.896   0.668   3.807 -1.5616  1.4525  0.5189
 2159SOL     OW17935   3.374   1.182   3.923 -0.1169  0.9353 -0.4505
 2159SOL    HW117936   3.451   1.233   3.949  0.1653  1.7331 -2.8478
 2159SOL    HW217937   3.325   1.241   3.865 -0.5869  1.2225  0.2442
 2160SOL     OW17938   3.177   1.244   4.368 -0.3914  0.2588 -0.1288
 2160SOL    HW117939   3.235   1.184   4.321 -0.2790 -0.3034  0.7216
 2160SOL    HW217940   3.092   1.219   4.332 -0.2922  0.0781 -0.2377
 2161SOL     OW17941   1.390   1.656   6.766  0.2204  0.5355 -0.2279
 2161SOL    HW117942   1.434   1.715   6.828 -0.1548  1.9154 -1.2806
 2161SOL    HW217943   1.301   1.690   6.765 -0.3402 -0.8961 -0.0769
 2162SOL     OW17944   3.721   1.630   9.379  0.2331  0.0175 -0.5017
 2162SOL    HW117945   3.717   1.563   9.447  1.9460  0.2411 -0.1829
 2162SOL    HW217946   3.814   1.654   9.377 -0.2792  2.1726  2.0746
 2163SOL     OW17947   3.174   0.952   8.253  0.0038  0.1723  0.4316
 2163SOL    HW117948   3.130   1.014   8.311 -0.5546 -0.7661  1.0050
 2163SOL    HW217949   3.238   1.010   8.211  0.9588 -0.7122  0.6506
 2164SOL     OW17950   3.985   3.158  10.780  0.1498  0.1014  0.1319
 2164SOL    HW117951   3.929   3.147  10.857  2.4539 -1.5108  1.5979
 2164SOL    HW217952   3.982   3.067  10.750  2.2372  0.1443 -0.1908
 2165SOL     OW17953   3.907   2.302   7.456 -0.3357 -0.2249 -0.1270
 2165SOL    HW117954   3.894   2.228   7.397 -2.4256 -1.5289  1.9512
 2165SOL    HW217955   3.971   2.275   7.522  1.4052 -1.2434 -2.2304
 2166SOL     OW17956   1.986   2.806  17.298 -0.7458 -0.1458 -0.1552
 2166SOL    HW117957   1.968   2.859  17.220  0.6715  1.6347  0.7125
 2166SOL    HW217958   2.080   2.794  17.285 -0.6043  0.1635  0.5622
 2167SOL     OW17959   1.208   2.016   7.262 -0.3523 -0.2478  0.6106
 2167SOL    HW117960   1.133   2.066   7.228  0.2519 -1.1393 -2.0553
 2167SOL    HW217961   1.158   1.959   7.320 -0.4502  0.6935  1.4378
 2168SOL     OW17962   0.757   3.837   4.102 -0.1715  0.5208  0.4842
 2168SOL    HW117963   0.682   3.883   4.062  0.4721  0.7817 -0.4284
 2168SOL    HW217964   0.797   3.806   4.021  0.1618  2.0428  0.0641
 2169SOL     OW17965   2.859   0.756   2.256  0.4080  0.2475  0.0770
 2169SOL    HW117966   2.873   0.678   2.202  0.6943  0.4807 -0.1885
 2169SOL    HW217967   2.949   0.788   2.258 -0.2014  1.9150  0.8260
 2170SOL     OW17968   4.596   1.314  13.814 -0.5077 -0.1805  0.4311
 2170SOL    HW117969   4.558   1.390  13.770 -1.2024  0.1811  1.6685
 2170SOL    HW217970   4.628   1.352  13.896 -1.8589  0.2549  0.7628
 2171SOL     OW17971   1.151   1.792   6.669  0.3637  0.1273  0.2485
 2171SOL    HW117972   1.086   1.808   6.737  1.1349 -2.2746  1.5716
 2171SOL    HW217973   1.207   1.869   6.683  0.2801  0.4029 -0.9532
 2172SOL     OW17974   2.570   1.148  11.691  0.6892  0.7326  0.8391
 2172SOL    HW117975   2.546   1.219  11.631 -2.4980 -1.4469 -0.4509
 2172SOL    HW217976   2.585   1.074  11.633 -1.4677  0.8702  0.1135
 2173SOL     OW17977   2.564   0.568   4.819 -1.2610  0.2126  0.5243
 2173SOL    HW117978   2.557   0.473   4.815 -1.0692  0.2017  0.4409
 2173SOL    HW217979   2.651   0.579   4.858 -0.7288 -0.9361 -0.3367
 2174SOL     OW17980   3.501   3.886   9.519  0.1876  0.1299  0.0076
 2174SOL    HW117981   3.506   3.970   9.564  0.4012  0.1801 -0.1102
 2174SOL    HW217982   3.496   3.820   9.589  2.3688  1.5935  1.5537
 2175SOL     OW17983   1.846   0.332   9.536 -0.2228 -0.5996 -0.1533
 2175SOL    HW117984   1.876   0.423   9.543 -0.6332 -0.5490  1.0956
 2175SOL    HW217985   1.913   0.290   9.589  0.5623 -1.3106 -1.7127
 2176SOL     OW17986   4.577   1.032   1.490 -0.4059 -0.0767 -0.1902
 2176SOL    HW117987   4.533   1.089   1.427  1.1002 -0.5379 -1.6476
 2176SOL    HW217988   4.668   1.045   1.461 -0.9880  4.1983 -0.0816
 2177SOL     OW17989   1.492   1.610   0.234 -0.1879 -0.1669  0.2771
 2177SOL    HW117990   1.548   1.563   0.295 -1.9274  0.9640  2.7334
 2177SOL    HW217991   1.459   1.545   0.172 -0.6020 -1.2647  1.6497
 2178SOL     OW17992   4.399   4.694   4.311 -0.4878  0.1636 -0.3268
 2178SOL    HW117993   4.480   4.647   4.333 -2.6521 -0.8511  5.3540
 2178SOL    HW217994   4.427   0.057   4.294  1.3077 -0.0547  1.4323
 2179SOL     OW17995   3.068   1.527   5.946 -0.0289 -0.2668  0.2447
 2179SOL    HW117996   2.976   1.519   5.973  0.2554  0.8011  1.5072
 2179SOL    HW217997   3.092   1.614   5.978  0.1559 -0.6187  1.0521
 2180SOL     OW17998   0.117   0.980   0.316  0.1955 -0.0705  0.3070
 2180SOL    HW117999   0.151   0.984   0.406  1.0196  2.2037 -0.0835
 2180SOL    HW218000   0.161   0.906   0.274  1.2614  0.8753 -0.2478
 2181SOL     OW18001   3.499   0.878   2.995  0.8708  0.6083  0.2442
 2181SOL    HW118002   3.438   0.829   2.941 -0.4300  1.5386  0.8840
 2181SOL    HW218003   3.548   0.930   2.931 -1.0657  1.6152 -0.4087
 2182SOL     OW18004   0.362   1.893  15.372  0.0749  0.4552 -0.7060
 2182SOL    HW118005   0.283   1.849  15.342  0.1432 -0.4801  0.5020
 2182SOL    HW218006   0.386   1.836  15.445 -0.7354  1.7332  0.5654
 2183SOL     OW18007   4.323   3.537   1.963  0.1310 -0.3805 -0.0025
 2183SOL    HW118008   4.414   3.520   1.988  0.7031  3.1091  0.3462
 2183SOL    HW218009   4.332   3.555   1.870 -0.3988  0.1584  0.0497
 2184SOL     OW18010   1.923   2.319   4.840 -0.0719  0.0223  0.2528
 2184SOL    HW118011   1.866   2.242   4.838  0.1690 -0.1001 -1.9064
 2184SOL    HW218012   1.970   2.318   4.923  0.6803  2.4315 -0.1544
 2185SOL     OW18013   0.552   0.754   7.705 -0.4798 -0.1967 -0.3542
 2185SOL    HW118014   0.584   0.752   7.615  3.0610 -2.1819  0.9586
 2185SOL    HW218015   0.616   0.787   7.769 -1.3057 -2.3868  1.5847
 2186SOL     OW18016   2.287   4.440   2.791  0.1019  0.3126  0.5490
 2186SOL    HW118017   2.333   4.364   2.827 -1.2077  0.5107  2.5947
 2186SOL    HW218018   2.337   4.509   2.834 -1.4590  0.2574  2.4289
 2187SOL     OW18019   3.800   0.422   3.642  0.4028 -0.0081 -0.0011
 2187SOL    HW118020   3.889   0.390   3.622 -0.2121  0.1383 -2.9675
 2187SOL    HW218021   3.749   0.366   3.583 -1.1106 -1.6437  2.8842
 2188SOL     OW18022   0.753   1.391   2.446 -0.0280  0.0207 -0.2672
 2188SOL    HW118023   0.699   1.312   2.451  2.3735 -1.6374 -0.4025
 2188SOL    HW218024   0.727   1.417   2.534  2.0976 -0.0398  0.3816
 2189SOL     OW18025   4.600   4.189   2.028  0.3254  0.3239 -0.8984
 2189SOL    HW118026   4.525   4.168   1.972  0.4329  0.8360 -1.2327
 2189SOL    HW218027   4.651   4.231   1.959  1.1003 -1.8061 -1.6381
 2190SOL     OW18028   3.377   3.268   2.411  0.7334  0.2782  0.2132
 2190SOL    HW118029   3.447   3.203   2.399 -0.3131 -0.9521  0.7616
 2190SOL    HW218030   3.383   3.279   2.506 -0.4315 -0.4773  0.3670
 2191SOL     OW18031   3.679   3.959   8.948  0.0938  0.0707  0.7546
 2191SOL    HW118032   3.646   4.040   8.987 -0.2403  1.3248 -2.1269
 2191SOL    HW218033   3.606   3.899   8.965 -0.0927  0.1000  0.0481
 2192SOL     OW18034   1.409   3.678  10.121 -0.2008  0.1408 -0.1261
 2192SOL    HW118035   1.324   3.661  10.160 -0.5175 -1.7952 -1.6407
 2192SOL    HW218036   1.440   3.752  10.173  2.0195 -0.5130 -0.5162
 2193SOL     OW18037   2.893   3.701  14.740  0.0848 -0.2728  0.0363
 2193SOL    HW118038   2.862   3.697  14.649 -2.7773  1.0417  0.9712
 2193SOL    HW218039   2.986   3.690  14.719  0.4793  0.0951  1.6257
 2194SOL     OW18040   1.007   3.832   6.106  0.6237 -0.0115  0.0399
 2194SOL    HW118041   1.046   3.773   6.041  0.1301  0.3732 -0.6090
 2194SOL    HW218042   0.929   3.859   6.058  0.0092 -0.3350  0.8783
 2195SOL     OW18043   2.198   2.475  12.688 -0.3837 -0.0505 -0.2233
 2195SOL    HW118044   2.250   2.412  12.638 -0.2272 -0.4374  0.4295
 2195SOL    HW218045   2.165   2.516  12.608  2.4038  0.5496 -1.0758
 2196SOL     OW18046   0.875   3.697   0.309  0.4569 -0.2553 -0.4664
 2196SOL    HW118047   0.931   3.674   0.383  2.0041  0.7702 -1.3259
 2196SOL    HW218048   0.926   3.765   0.265 -0.3071 -0.0818 -1.0849
 2197SOL     OW18049   3.957   3.596  17.469 -0.0932  0.0486  0.5173
 2197SOL    HW118050   3.867   3.630  17.472  0.1369  0.6135  1.0109
 2197SOL    HW218051   3.999   3.638  17.544  1.3852  1.0289 -0.8519
 2198SOL     OW18052   0.630   0.257   7.052  0.2667 -0.5465  0.4857
 2198SOL    HW118053   0.551   0.299   7.018  1.9690  0.9219 -1.6830
 2198SOL    HW218054   0.668   0.325   7.107  1.1803 -0.0226 -0.7823
 2199SOL     OW18055   1.866   3.906   4.061  0.8732  0.3113 -0.2608
 2199SOL    HW118056   1.882   3.842   4.131  1.1965 -0.5914 -1.1675
 2199SOL    HW218057   1.888   3.983   4.115  0.9355  1.8109 -2.4075
 2200SOL     OW18058   3.079   3.061   7.739  0.2795 -0.1171  0.0012
 2200SOL    HW118059   3.164   3.026   7.765 -0.8392 -1.6040  1.6989
 2200SOL    HW218060   3.020   2.988   7.759  1.6971 -0.8747  1.3955
 2201SOL     OW18061   2.585   0.890  15.048 -0.0796  0.1290 -0.1975
 2201SOL    HW118062   2.542   0.953  14.990 -0.2161  0.6270  0.4417
 2201SOL    HW218063   2.598   0.822  14.982  1.5589 -1.0800  1.3842
 2202SOL     OW18064   4.353   3.844   3.393 -0.7850  0.3110  0.8147
 2202SOL    HW118065   4.394   3.922   3.428  0.1640  0.4893 -0.7004
 2202SOL    HW218066   4.423   3.790   3.355 -0.1665  0.9624  1.0424
 2203SOL     OW18067   2.613   2.365   3.640 -0.0469 -0.3313 -0.3140
 2203SOL    HW118068   2.546   2.332   3.700  0.4249 -3.9055 -1.7785
 2203SOL    HW218069   2.665   2.287   3.622 -2.0688 -1.5768 -0.7210
 2204SOL     OW18070   3.077   2.248   9.939 -0.8202 -0.3460 -0.0157
 2204SOL    HW118071   3.004   2.194   9.907 -1.9815  0.5035  1.1987
 2204SOL    HW218072   3.067   2.338   9.907  1.7413  0.2931  1.0230
 2205SOL     OW18073   3.636   2.230   3.382 -0.3623 -0.5836  1.1942
 2205SOL    HW118074   3.596   2.266   3.461  0.4368  0.6277  1.0518
 2205SOL    HW218075   3.715   2.283   3.375  0.6009 -2.2112 -0.1426
 2206SOL     OW18076   4.285   2.327   1.672  0.8162 -0.7291 -0.6193
 2206SOL    HW118077   4.270   2.328   1.767  1.1849 -1.6129 -0.5513
 2206SOL    HW218078   4.373   2.289   1.665  0.6257 -0.9753 -1.6606
 2207SOL     OW18079   0.126   1.133   8.126 -0.3847  0.0455 -0.2900
 2207SOL    HW118080   0.088   1.214   8.162  0.0133 -0.0394  0.3142
 2207SOL    HW218081   0.164   1.175   8.049 -0.9972  2.4066  0.6765
 2208SOL     OW18082   0.322   1.191  10.703 -0.3489 -0.3304 -0.5969
 2208SOL    HW118083   0.258   1.173  10.772  1.1841 -2.9154  0.1808
 2208SOL    HW218084   0.387   1.121  10.713 -0.7598 -0.6173  0.0466
 2209SOL     OW18085   1.745   1.512   6.946  0.5271  0.4865  0.0431
 2209SOL    HW118086   1.739   1.552   7.033  0.3407 -1.1848  0.8110
 2209SOL    HW218087   1.700   1.428   6.960  0.8747  0.1253 -1.0178
 2210SOL     OW18088   4.699   4.017  14.453 -0.5124 -0.2161 -0.0237
 2210SOL    HW118089   0.052   3.973  14.428 -0.9717 -1.7982  1.2783
 2210SOL    HW218090   0.009   4.069  14.525 -0.3034  1.2967 -1.2229
 2211SOL     OW18091   0.837   0.303   4.282 -0.1591  0.4295 -0.5437
 2211SOL    HW118092   0.839   0.218   4.325  1.6501  0.8180  0.1171
 2211SOL    HW218093   0.746   0.298   4.253  0.0023  1.0222 -1.1495
 2212SOL     OW18094   1.719   1.989  10.750  0.4499 -0.0314  0.5572
 2212SOL    HW118095   1.649   2.022  10.694 -0.0265  0.9913  1.7719
 2212SOL    HW218096   1.770   1.944  10.682  0.7226  2.1200 -0.6477
 2213SOL     OW18097   1.134   4.211  14.047  0.2203 -0.3870 -0.4814
 2213SOL    HW118098   1.208   4.270  14.034 -1.0477  0.8204 -2.2689
 2213SOL    HW218099   1.103   4.224  13.957  1.6727 -0.0672 -0.9442
 2214SOL     OW18100   2.400   1.990  12.772  0.3516  0.0180 -0.1824
 2214SOL    HW118101   2.311   2.021  12.756  1.3564  0.8510 -4.0209
 2214SOL    HW218102   2.432   1.935  12.701 -0.1284 -0.7298  0.1816
 2215SOL     OW18103   2.148   1.367   4.832  0.1881  0.0745 -0.6055
 2215SOL    HW118104   2.174   1.376   4.923  2.5256  1.8766 -1.4379
 2215SOL    HW218105   2.065   1.415   4.824  0.6954  1.0799  0.1474
 2216SOL     OW18106   0.155   0.086   4.655  0.6604  0.0833 -0.2454
 2216SOL    HW118107   0.236   0.047   4.688  0.3108 -0.9097 -0.5419
 2216SOL    HW218108   0.100   0.073   4.732 -0.5488 -0.9981 -1.3023
 2217SOL     OW18109   0.365   3.908   1.262 -0.4050  0.0408  0.4321
 2217SOL    HW118110   0.273   3.898   1.288 -0.3072 -0.9422  0.4108
 2217SOL    HW218111   0.365   3.911   1.167  0.6420 -2.4678  0.3564
 2218SOL     OW18112   2.603   1.369  14.441  0.1548 -0.8335 -0.2419
 2218SOL    HW118113   2.656   1.449  14.439 -1.7804  0.5224  1.8088
 2218SOL    HW218114   2.563   1.383  14.527  0.4109 -1.6045 -0.0020
 2219SOL     OW18115   1.031   1.855   7.382  0.5366  0.4506  0.1173
 2219SOL    HW118116   0.966   1.787   7.366 -0.6939  2.0302 -1.5925
 2219SOL    HW218117   1.082   1.814   7.452  1.0814  0.1470 -0.4564
 2220SOL     OW18118   3.466   1.477   1.273 -0.2676 -0.4883  0.0608
 2220SOL    HW118119   3.460   1.571   1.291  1.9600  0.2460 -2.9918
 2220SOL    HW218120   3.492   1.477   1.181 -0.0555 -1.5302  0.1218
 2221SOL     OW18121   1.057   1.685   0.747 -0.3647  0.0044 -0.6926
 2221SOL    HW118122   1.100   1.621   0.803 -0.6521 -0.7537 -1.3362
 2221SOL    HW218123   1.114   1.700   0.671 -1.5808  2.1683 -1.1778
 2222SOL     OW18124   2.556   2.093  13.380  0.3191  0.1266  0.2138
 2222SOL    HW118125   2.498   2.035  13.331  0.8649  0.0740 -0.3683
 2222SOL    HW218126   2.508   2.090  13.463  1.3902  0.5625  0.8643
 2223SOL     OW18127   0.969   1.729   4.508 -0.0614 -0.2273 -0.1825
 2223SOL    HW118128   0.902   1.671   4.473 -0.6381  1.7835 -2.3683
 2223SOL    HW218129   1.037   1.665   4.531  0.0180  0.4868  1.6513
 2224SOL     OW18130   2.471   4.502   4.117 -0.2483 -0.5688 -0.1239
 2224SOL    HW118131   2.457   4.578   4.060  1.3044 -0.0129  0.2255
 2224SOL    HW218132   2.386   4.463   4.098 -0.4042 -0.3536  0.1252
 2225SOL     OW18133   3.155   0.938   6.846 -0.6072  0.1779  0.4452
 2225SOL    HW118134   3.063   0.937   6.819 -1.3276 -1.4611  2.9695
 2225SOL    HW218135   3.180   0.846   6.832 -1.4143  0.0463 -0.1614
 2226SOL     OW18136   2.349   1.181  11.010  0.3275  0.1575 -0.0242
 2226SOL    HW118137   2.312   1.158  10.925  0.4294 -1.1592  0.2782
 2226SOL    HW218138   2.432   1.139  10.989  1.0412 -0.2790  3.6082
 2227SOL     OW18139   0.730   2.590   8.690  0.3215  0.1652 -0.0885
 2227SOL    HW118140   0.678   2.513   8.670  1.7875 -0.6346 -0.7938
 2227SOL    HW218141   0.673   2.667   8.700 -0.2583 -0.0706 -1.6609
 2228SOL     OW18142   3.452   2.107   1.245 -0.7704  0.0030  0.7971
 2228SOL    HW118143   3.358   2.094   1.255 -1.0549  1.8741  0.7079
 2228SOL    HW218144   3.481   2.049   1.315  2.5496  0.0494 -0.5386
 2229SOL     OW18145   1.399   0.446   6.582  0.2583  0.1012 -0.3848
 2229SOL    HW118146   1.331   0.464   6.518 -1.1267 -0.4445  0.9450
 2229SOL    HW218147   1.473   0.500   6.554  1.7760 -1.4733  0.5789
 2230SOL     OW18148   2.272   2.019  10.127 -0.1285  0.1272  0.2475
 2230SOL    HW118149   2.333   2.010  10.200 -1.0390  1.2394  1.1431
 2230SOL    HW218150   2.256   2.113  10.135  2.1136  0.2435  3.5337
 2231SOL     OW18151   3.233   1.165   1.336 -0.4817  0.3857  0.1507
 2231SOL    HW118152   3.208   1.146   1.426 -0.4519 -1.6929 -0.2776
 2231SOL    HW218153   3.149   1.147   1.294  0.0995  1.6413 -1.5557
 2232SOL     OW18154   2.524   3.679   7.355  0.0540  0.0489  0.3424
 2232SOL    HW118155   2.490   3.620   7.423 -2.0808  2.0772  1.0475
 2232SOL    HW218156   2.503   3.764   7.394 -1.5635  0.6343 -1.7671
 2233SOL     OW18157   3.149   0.414   1.282  0.2398 -0.1594 -0.2434
 2233SOL    HW118158   3.159   0.369   1.366 -1.9973  0.2768  0.2436
 2233SOL    HW218159   3.229   0.377   1.244  0.3626 -2.0297  1.8574
 2234SOL     OW18160   0.279   2.194   4.416 -0.3346  0.1111 -0.4044
 2234SOL    HW118161   0.218   2.268   4.421  0.2810  0.7914 -3.0315
 2234SOL    HW218162   0.235   2.135   4.355 -0.7515  0.8021 -0.7829
 2235SOL     OW18163   2.029   0.416   8.793  0.4675 -0.4133 -0.3338
 2235SOL    HW118164   1.971   0.411   8.869  1.0723 -1.0569  0.0827
 2235SOL    HW218165   1.984   0.348   8.743 -3.0411  3.0592 -1.9527
 2236SOL     OW18166   0.189   3.537  14.257 -0.1904 -0.3097  0.5118
 2236SOL    HW118167   0.279   3.562  14.279  0.0257 -0.2630 -0.3979
 2236SOL    HW218168   0.189   3.550  14.162  0.5409 -3.2883  0.1118
 2237SOL     OW18169   0.572   2.203   9.946  0.1048 -0.8289 -0.1152
 2237SOL    HW118170   0.625   2.141   9.895  3.0781  0.5077  1.3639
 2237SOL    HW218171   0.492   2.157   9.969  1.3213 -3.2937 -0.7727
 2238SOL     OW18172   3.214   2.068   3.573 -0.1796 -0.0929 -0.0144
 2238SOL    HW118173   3.176   1.985   3.543 -1.2864  1.0039 -1.6581
 2238SOL    HW218174   3.131   2.106   3.601 -0.1809  2.3844 -3.3747
 2239SOL     OW18175   3.505   1.058  10.927 -0.0509 -0.5932  0.4899
 2239SOL    HW118176   3.415   1.041  10.955  0.3798 -1.1424  1.5602
 2239SOL    HW218177   3.538   0.973  10.956  2.5088  0.2654  0.1401
 2240SOL     OW18178   2.216   0.017   7.603 -0.1508 -0.4867 -0.4004
 2240SOL    HW118179   2.228   0.047   7.512 -2.8943 -0.5660 -0.7835
 2240SOL    HW218180   2.125   4.715   7.609  0.4946 -2.2122  0.8128
 2241SOL     OW18181   2.019   2.650   2.398  0.1202  0.0030  0.1393
 2241SOL    HW118182   2.101   2.661   2.447 -0.3169  0.5797  0.7440
 2241SOL    HW218183   2.047   2.656   2.306 -0.1207 -0.0421  0.0627
 2242SOL     OW18184   4.690   1.335   5.634  0.8408  0.2759 -0.1755
 2242SOL    HW118185   0.041   1.355   5.581 -1.4079  2.6191 -2.6065
 2242SOL    HW218186   4.633   1.392   5.583  0.1020  0.7539  1.1946
 2243SOL     OW18187   2.159   0.630   8.692  0.5714 -0.0773 -0.2958
 2243SOL    HW118188   2.123   0.664   8.774 -0.5982  0.6566 -1.1177
 2243SOL    HW218189   2.116   0.545   8.691  0.2258  0.1099 -1.7836
 2244SOL     OW18190   2.566   0.848  15.923 -0.8512  0.4996  0.2739
 2244SOL    HW118191   2.483   0.827  15.966 -0.5939 -1.7285 -0.3085
 2244SOL    HW218192   2.545   0.875  15.834  1.9711  0.8085 -0.2781
 2245SOL     OW18193   0.202   1.073   7.052  0.1951 -0.4991 -0.4342
 2245SOL    HW118194   0.118   1.048   7.092  0.3678 -0.3895 -0.0059
 2245SOL    HW218195   0.225   1.158   7.088  0.1748 -1.3506  1.5619
 2246SOL     OW18196   1.166   0.687   2.914  0.4861 -0.1066  0.1442
 2246SOL    HW118197   1.120   0.753   2.862  2.6867  0.2938 -1.2976
 2246SOL    HW218198   1.250   0.729   2.935  1.5375 -2.3015  0.2538
 2247SOL     OW18199   2.940   0.424   3.643  0.8493 -0.7475  0.2159
 2247SOL    HW118200   2.989   0.438   3.562  0.8580  0.0333  0.3603
 2247SOL    HW218201   2.960   0.331   3.656 -1.0682 -1.2900 -0.7558
 2248SOL     OW18202   0.533   1.408   0.113 -0.8907  0.6017 -0.3473
 2248SOL    HW118203   0.458   1.366   0.155  0.9124 -1.5754  0.6802
 2248SOL    HW218204   0.478   1.469   0.064 -0.3663  0.2156 -1.4159
 2249SOL     OW18205   1.331   2.059   5.550 -0.1906  0.4543 -0.1431
 2249SOL    HW118206   1.320   2.146   5.511 -2.4296 -0.3218 -1.2423
 2249SOL    HW218207   1.245   2.049   5.591  0.0953  0.8906  0.5513
 2250SOL     OW18208   0.461   4.177   6.595  0.2066 -0.0052  0.1707
 2250SOL    HW118209   0.411   4.251   6.563  1.5418  1.2154  0.9179
 2250SOL    HW218210   0.551   4.209   6.605  0.8868 -2.0767  0.7366
 2251SOL     OW18211   0.898   3.402   3.478 -0.2286 -0.8326 -0.0473
 2251SOL    HW118212   0.909   3.495   3.458  1.6300 -1.0607 -0.0374
 2251SOL    HW218213   0.925   3.359   3.397  0.8802  1.4510 -0.8797
 2252SOL     OW18214   2.880   3.544   3.330  0.3854 -0.6119 -0.0953
 2252SOL    HW118215   2.788   3.533   3.351  0.2394 -0.5686 -0.7223
 2252SOL    HW218216   2.853   3.578   3.246 -0.8244  2.5026  1.5698
 2253SOL     OW18217   2.759   4.299  10.235  0.0230  0.4419 -0.1375
 2253SOL    HW118218   2.751   4.389  10.205  1.1833  1.3513  2.2780
 2253SOL    HW218219   2.668   4.267  10.239 -0.8080  2.6874 -1.2622
 2254SOL     OW18220   3.561   4.035   7.261 -0.1978  0.2464  0.7234
 2254SOL    HW118221   3.498   4.105   7.240 -1.6582 -0.5175  2.5199
 2254SOL    HW218222   3.509   3.956   7.248 -0.5534  0.6517 -0.3205
 2255SOL     OW18223   1.157   2.584   6.471  0.0094 -0.2815 -0.0929
 2255SOL    HW118224   1.216   2.640   6.421 -1.3804  1.0116 -0.2714
 2255SOL    HW218225   1.175   2.499   6.431 -0.3776 -0.4047 -0.0030
 2256SOL     OW18226   2.273   2.155   8.254  0.1606 -0.0475 -0.2760
 2256SOL    HW118227   2.359   2.144   8.294  0.2873  0.2621 -0.4634
 2256SOL    HW218228   2.308   2.216   8.189  1.9393 -1.8563 -0.9817
 2257SOL     OW18229   0.039   2.409  16.374 -0.1116 -0.0050  0.3023
 2257SOL    HW118230   4.694   2.371  16.424  1.7750 -1.4173  1.9255
 2257SOL    HW218231   0.030   2.502  16.394 -1.0740 -0.1472  0.5236
 2258SOL     OW18232   4.027   0.809   0.636  0.4662 -0.2829 -0.0890
 2258SOL    HW118233   3.945   0.765   0.615 -0.9435  1.6640  1.2918
 2258SOL    HW218234   4.036   0.793   0.730  0.4732 -0.4118 -0.1115
 2259SOL     OW18235   2.397   0.452  17.659 -0.0951  0.1654  0.1668
 2259SOL    HW118236   2.387   0.520   0.018  0.0970  0.8874 -0.5305
 2259SOL    HW218237   2.316   0.402  17.668  1.1876 -1.6828  1.3530
 2260SOL     OW18238   1.608   2.964   1.677  0.0374  0.9058 -0.0089
 2260SOL    HW118239   1.566   3.010   1.750 -1.8847  0.0905 -0.6027
 2260SOL    HW218240   1.636   3.043   1.631 -1.5189  1.2930 -0.2910
 2261SOL     OW18241   1.510   1.733   2.244 -0.6539 -0.2338  0.2226
 2261SOL    HW118242   1.540   1.820   2.214 -0.9849 -0.2280 -0.0905
 2261SOL    HW218243   1.592   1.716   2.290  0.0977  3.0798  0.1528
 2262SOL     OW18244   0.723   0.545   4.196 -0.0117 -0.5124  0.3435
 2262SOL    HW118245   0.788   0.493   4.242  0.2491 -1.5632 -1.1965
 2262SOL    HW218246   0.770   0.628   4.196  1.6242 -1.4065 -2.7218
 2263SOL     OW18247   1.204   0.684   0.067 -0.3997  0.1931  0.5296
 2263SOL    HW118248   1.164   0.764   0.102 -2.4813 -0.4850 -0.3120
 2263SOL    HW218249   1.125   0.648   0.027  1.2922 -2.2741 -0.5982
 2264SOL     OW18250   0.844   4.650   8.867  0.2817 -0.5836  0.0286
 2264SOL    HW118251   0.830   0.007   8.912  0.2508 -0.5260 -0.0880
 2264SOL    HW218252   0.938   4.635   8.878  0.6846 -0.3193 -3.1173
 2265SOL     OW18253   4.602   3.598   5.125 -0.0929  0.0190 -0.3625
 2265SOL    HW118254   4.584   3.509   5.097 -0.4274 -0.3522  1.0575
 2265SOL    HW218255   4.564   3.645   5.050  0.2136  0.3696 -0.2997
 2266SOL     OW18256   3.589   4.529   5.067 -0.3413  0.7083  0.1190
 2266SOL    HW118257   3.545   4.502   5.148  0.9926 -3.6878 -0.6077
 2266SOL    HW218258   3.598   4.623   5.083  1.8595  0.3766  0.7949
 2267SOL     OW18259   2.947   4.053  14.548  0.4617  0.0011 -0.1671
 2267SOL    HW118260   2.858   4.047  14.585  0.7937 -1.6275  0.3859
 2267SOL    HW218261   2.960   4.147  14.543  0.0626  0.1539  1.3627
 2268SOL     OW18262   4.532   3.025   7.307 -0.2273 -0.0949 -0.1839
 2268SOL    HW118263   4.534   3.037   7.212  1.2665  0.8015 -0.0373
 2268SOL    HW218264   4.501   2.936   7.323  1.1565 -0.7653 -1.2422
 2269SOL     OW18265   4.662   3.987   1.783  0.1503 -0.0402  0.0572
 2269SOL    HW118266   0.007   3.924   1.792 -0.0846 -0.2081  0.7591
 2269SOL    HW218267   4.713   4.068   1.789  1.6282 -1.1137  2.1375
 2270SOL     OW18268   3.305   4.195   8.122 -0.1389 -0.2740  0.1471
 2270SOL    HW118269   3.296   4.161   8.211  0.6187 -1.9114 -0.3850
 2270SOL    HW218270   3.274   4.285   8.129  1.3291  0.1413  1.1566
 2271SOL     OW18271   2.646   0.499   6.364 -0.0781  0.1738  0.3700
 2271SOL    HW118272   2.564   0.532   6.327  0.1689  0.2890 -0.0729
 2271SOL    HW218273   2.676   0.437   6.298  2.8660  1.5913  0.4180
 2272SOL     OW18274   0.747   1.395   4.254  0.2971  0.5741 -0.4043
 2272SOL    HW118275   0.742   1.466   4.190 -0.6772 -1.0447 -2.1057
 2272SOL    HW218276   0.835   1.363   4.238  0.2111 -1.0827  2.3196
 2273SOL     OW18277   3.033   0.162  16.893 -0.8055 -0.5068  0.6300
 2273SOL    HW118278   3.057   0.248  16.926  1.4083 -0.7938 -0.1978
 2273SOL    HW218279   2.937   0.160  16.898 -0.9772  1.9631 -1.8705
 2274SOL     OW18280   4.438   1.946   3.583 -0.1407  0.7139 -0.4781
 2274SOL    HW118281   4.479   2.031   3.564  0.2936  1.0022  1.7386
 2274SOL    HW218282   4.477   1.890   3.517 -1.3644  0.1046 -0.6954
 2275SOL     OW18283   0.052   1.652   5.704  0.2664 -0.1168  0.3972
 2275SOL    HW118284   4.692   1.611   5.707 -1.3301  3.3300  1.6654
 2275SOL    HW218285   0.109   1.579   5.728  1.0589  0.3978  0.0925
 2276SOL     OW18286   2.490   3.829  17.556 -1.0728  0.3710 -0.0560
 2276SOL    HW118287   2.426   3.856  17.490 -1.0723  0.8669  0.1457
 2276SOL    HW218288   2.520   3.916  17.584  0.5049 -0.2910  0.2857
 2277SOL     OW18289   0.755   3.913   2.035 -0.2672 -0.2968  0.3791
 2277SOL    HW118290   0.768   4.003   2.008 -0.2852 -0.7329 -1.0801
 2277SOL    HW218291   0.669   3.911   2.077 -0.4835  1.3054 -0.0239
 2278SOL     OW18292   2.775   3.674  13.159 -0.1799 -0.8524  0.0357
 2278SOL    HW118293   2.809   3.631  13.238  0.2154  0.0949  0.3850
 2278SOL    HW218294   2.686   3.698  13.187 -1.0774 -0.7370 -2.8909
 2279SOL     OW18295   1.870   2.521   6.269  0.5150  0.7069 -0.0926
 2279SOL    HW118296   1.952   2.474   6.289  0.1372 -0.0158 -0.2440
 2279SOL    HW218297   1.835   2.526   6.358 -1.6017  0.0975 -0.8904
 2280SOL     OW18298   2.006   1.559   5.321 -0.9837 -0.5382  0.7179
 2280SOL    HW118299   2.006   1.651   5.295 -1.5578 -0.8454 -0.3522
 2280SOL    HW218300   2.101   1.549   5.327 -1.0458 -2.0591 -0.6998
 2281SOL     OW18301   2.328   2.327   3.983  0.2144  0.5395  0.1242
 2281SOL    HW118302   2.250   2.348   3.932  0.3272 -0.9202 -0.6409
 2281SOL    HW218303   2.372   2.412   3.979  0.7825  0.3481  2.4052
 2282SOL     OW18304   3.344   0.700   4.885  0.2779  0.2331 -0.1241
 2282SOL    HW118305   3.415   0.731   4.829 -0.1084  0.0286 -0.7279
 2282SOL    HW218306   3.334   0.616   4.840  3.2973 -1.7054  2.8583
 2283SOL     OW18307   3.390   3.324   5.554 -0.1220  0.3929  0.1388
 2283SOL    HW118308   3.412   3.354   5.642 -1.3765  1.3959  0.1162
 2283SOL    HW218309   3.295   3.335   5.553  0.0460  1.7524 -0.6671
 2284SOL     OW18310   1.011   3.842  14.814  0.3381  0.2838  0.1972
 2284SOL    HW118311   0.917   3.845  14.835  0.0840 -1.7132 -0.6091
 2284SOL    HW218312   1.038   3.782  14.884  0.4258  2.7590  2.3005
 2285SOL     OW18313   4.613   1.559   4.702 -0.2031 -0.1727  0.2008
 2285SOL    HW118314   4.583   1.643   4.670 -1.7623 -1.5977 -2.0514
 2285SOL    HW218315   4.555   1.494   4.663 -0.1154 -0.4282  0.4934
 2286SOL     OW18316   2.468   1.770  14.255 -0.1718 -0.3182 -0.2238
 2286SOL    HW118317   2.406   1.702  14.284  0.0166 -0.1964  0.4722
 2286SOL    HW218318   2.544   1.728  14.214  0.8204  1.8509 -0.6072
 2287SOL     OW18319   3.040   2.831   2.654  0.4145 -0.3897  0.0540
 2287SOL    HW118320   2.968   2.861   2.599 -0.4320  0.3900  1.5900
 2287SOL    HW218321   3.117   2.827   2.598 -0.4025  0.4051 -1.1315
 2288SOL     OW18322   3.760   0.647   6.763 -0.1467  0.0632 -0.3819
 2288SOL    HW118323   3.783   0.690   6.846  1.2822  0.9875 -1.2588
 2288SOL    HW218324   3.807   0.567   6.784  1.7074  1.5169  0.9875
 2289SOL     OW18325   3.340   1.968   9.118  0.6355  0.1145 -0.1409
 2289SOL    HW118326   3.384   1.934   9.197  0.7816 -1.3596 -0.8552
 2289SOL    HW218327   3.381   1.916   9.049 -0.3052  0.4809 -0.9647
 2290SOL     OW18328   0.274   0.450   7.467 -0.6436  0.0266  0.9038
 2290SOL    HW118329   0.265   0.521   7.531  0.5954 -0.2632  1.4065
 2290SOL    HW218330   0.295   0.503   7.390 -1.1675  1.1986  1.5657
 2291SOL     OW18331   4.600   2.339   6.755  0.0836 -0.2012  0.6391
 2291SOL    HW118332   4.643   2.299   6.679  0.4166 -0.7525  1.1201
 2291SOL    HW218333   4.663   2.410   6.769 -0.4963  0.2399  1.0268
 2292SOL     OW18334   4.230   4.708  16.539 -0.3420 -0.4368 -0.4521
 2292SOL    HW118335   4.193   0.030  16.612 -1.2186 -1.3379 -0.2904
 2292SOL    HW218336   4.164   0.010  16.475  0.3639  0.4342 -0.7824
 2293SOL     OW18337   4.131   4.354   3.094  0.0944  0.4395  0.2899
 2293SOL    HW118338   4.057   4.302   3.064 -0.0735  1.1609 -0.5508
 2293SOL    HW218339   4.122   4.434   3.041 -0.3412 -1.4972 -2.5669
 2294SOL     OW18340   3.077   1.720  12.610  0.4301  0.3133 -0.5251
 2294SOL    HW118341   3.112   1.640  12.650 -3.2893 -0.8645  0.3519
 2294SOL    HW218342   3.075   1.774  12.689  0.2970  0.0301 -0.3359
 2295SOL     OW18343   1.760   0.170  15.198  0.4072  0.6923  0.2842
 2295SOL    HW118344   1.738   0.094  15.143 -0.3340  0.7988  0.4384
 2295SOL    HW218345   1.690   0.232  15.178  0.2300  0.1230 -0.8664
 2296SOL     OW18346   1.244   3.881  17.005 -0.0910  0.1991  0.1862
 2296SOL    HW118347   1.171   3.840  16.958  2.0145 -2.7321 -0.5063
 2296SOL    HW218348   1.278   3.794  17.028 -2.1152 -0.5041  0.6046
 2297SOL     OW18349   3.321   0.057   1.071  0.1240  0.1908  0.1414
 2297SOL    HW118350   3.405   0.013   1.083 -0.4331 -0.7271  0.6791
 2297SOL    HW218351   3.300   0.049   0.978  0.5857 -0.3167  0.0812
 2298SOL     OW18352   2.900   3.185   0.076 -0.3941 -0.5375  0.4670
 2298SOL    HW118353   2.874   3.276   0.065 -1.7669 -0.9502  0.2431
 2298SOL    HW218354   2.815   3.146   0.054 -0.9073 -0.1966  1.9000
 2299SOL     OW18355   2.220   2.074   3.952  0.4686  0.1479  0.5109
 2299SOL    HW118356   2.130   2.106   3.961  0.1039  0.0134 -2.5362
 2299SOL    HW218357   2.268   2.140   4.002 -0.7346  0.7349  0.8959
 2300SOL     OW18358   3.942   0.149  12.285  0.3600 -0.5898 -0.4304
 2300SOL    HW118359   3.885   0.117  12.355  0.0410 -0.2694 -0.5457
 2300SOL    HW218360   3.896   0.232  12.269  1.2025  0.0278  0.3737
 2301SOL     OW18361   3.594   1.398  17.386 -0.1359  0.3039  0.6942
 2301SOL    HW118362   3.560   1.484  17.410 -1.5430 -0.2940  0.8597
 2301SOL    HW218363   3.606   1.401  17.291  1.6623  0.5249  0.9237
 2302SOL     OW18364   2.352   2.909   7.357 -0.2459  0.2441 -0.0175
 2302SOL    HW118365   2.419   2.841   7.354 -0.0332  0.4660 -0.2377
 2302SOL    HW218366   2.385   2.961   7.430 -0.8733  2.8996 -1.6206
 2303SOL     OW18367   2.219   4.374   6.662 -0.4408 -0.4217 -0.0948
 2303SOL    HW118368   2.257   4.309   6.722 -0.3160 -0.1959  0.0687
 2303SOL    HW218369   2.159   4.325   6.606  1.2114 -0.2135 -2.0768
 2304SOL     OW18370   0.177   3.866   3.462 -0.5450  0.2187 -0.1186
 2304SOL    HW118371   0.110   3.899   3.522 -0.7003 -2.6847  1.3207
 2304SOL    HW218372   0.150   3.777   3.439 -0.3919 -0.1064  0.9583
 2305SOL     OW18373   1.404   2.371   6.105  0.1263 -0.5711  0.1272
 2305SOL    HW118374   1.378   2.286   6.069  2.0159 -1.7024  1.4661
 2305SOL    HW218375   1.498   2.366   6.121  0.4407  2.0545 -0.7582
 2306SOL     OW18376   2.550   3.778   3.259 -0.2526 -0.1819  0.0466
 2306SOL    HW118377   2.513   3.709   3.204  0.2207 -1.8954  1.8424
 2306SOL    HW218378   2.507   3.856   3.224 -1.2275 -1.6331 -1.9687
 2307SOL     OW18379   0.632   1.347   3.284  0.3794 -0.2838 -0.2866
 2307SOL    HW118380   0.556   1.350   3.225  3.0652  1.2235 -3.6651
 2307SOL    HW218381   0.663   1.257   3.276  0.9096 -0.4156  3.2194
 2308SOL     OW18382   3.436   1.094   5.306  0.2604  0.7382  0.7622
 2308SOL    HW118383   3.418   1.042   5.385 -1.3383  2.2926  1.4361
 2308SOL    HW218384   3.383   1.058   5.236  2.4182 -1.1131  0.0946
 2309SOL     OW18385   3.988   3.564  15.546 -0.0276  0.8766 -0.2707
 2309SOL    HW118386   3.905   3.519  15.529 -0.0588  1.0147 -0.4914
 2309SOL    HW218387   3.969   3.617  15.623 -1.3036  1.4346 -0.9788
 2310SOL     OW18388   4.700   4.504  15.675  0.0232 -0.3807 -0.0324
 2310SOL    HW118389   4.698   4.449  15.753  1.9204  0.9968  0.9900
 2310SOL    HW218390   4.687   4.435  15.610  0.0924  0.9916 -1.5310
 2311SOL     OW18391   2.151   0.781  14.088 -0.1396  0.4932 -0.7109
 2311SOL    HW118392   2.185   0.721  14.154  1.2709 -1.8474 -3.5704
 2311SOL    HW218393   2.067   0.797  14.131 -0.7532 -1.2966 -1.2620
 2312SOL     OW18394   1.957   4.181   1.836  0.0539  0.4731 -0.0218
 2312SOL    HW118395   1.950   4.275   1.849  0.8323  0.7272 -1.4733
 2312SOL    HW218396   1.987   4.151   1.922  0.9624 -1.5200 -1.0053
 2313SOL     OW18397   4.539   1.024   6.604  0.1796 -0.2722  0.6313
 2313SOL    HW118398   4.472   1.030   6.673 -0.5657 -2.9857  0.1106
 2313SOL    HW218399   4.519   1.090   6.538 -2.0272 -1.3055  0.2511
 2314SOL     OW18400   2.071   1.838   9.325 -0.1158  0.9919 -0.2139
 2314SOL    HW118401   1.976   1.841   9.322 -0.1461  1.9686  1.8207
 2314SOL    HW218402   2.089   1.926   9.359 -0.1964  0.7638  0.4173
 2315SOL     OW18403   3.278   1.053   3.176 -0.6262  0.0569 -0.4843
 2315SOL    HW118404   3.268   1.001   3.096 -3.0280 -0.0406 -0.0978
 2315SOL    HW218405   3.370   1.043   3.202 -0.2642  1.7252 -1.1796
 2316SOL     OW18406   1.216   0.225  11.301  0.8494  0.1093  0.1535
 2316SOL    HW118407   1.165   0.250  11.379 -0.1123 -1.1347 -0.0767
 2316SOL    HW218408   1.186   0.138  11.275 -1.3239  0.8430  0.1975
 2317SOL     OW18409   3.789   3.242   5.891 -0.0229  0.0802 -0.7157
 2317SOL    HW118410   3.706   3.275   5.925 -0.6622 -1.2064 -1.0001
 2317SOL    HW218411   3.857   3.293   5.935 -0.4242 -0.2934  0.3575
 2318SOL     OW18412   1.610   1.252   2.281  0.0879  0.7663  0.1952
 2318SOL    HW118413   1.652   1.303   2.350 -0.6434  0.2226  1.0417
 2318SOL    HW218414   1.641   1.311   2.212 -0.4134  0.6265 -0.1554
 2319SOL     OW18415   1.054   0.766   5.373  0.4758 -0.3194  0.2300
 2319SOL    HW118416   1.097   0.717   5.303 -3.0729  0.2348 -2.3538
 2319SOL    HW218417   1.115   0.760   5.446  0.1652  0.2559  0.5371
 2320SOL     OW18418   4.613   1.380   3.592 -0.4132  0.1319  0.0399
 2320SOL    HW118419   4.538   1.355   3.539  0.3813 -1.4971 -0.3144
 2320SOL    HW218420   4.576   1.359   3.678  0.2248  0.0069  0.2859
 2321SOL     OW18421   4.285   4.390   0.325 -0.1603  0.1947  0.0618
 2321SOL    HW118422   4.287   4.321   0.258  0.6268  0.4334 -0.1629
 2321SOL    HW218423   4.251   4.327   0.389  0.7383 -2.3518 -1.9343
 2322SOL     OW18424   1.528   0.984   8.026  0.0668 -0.7686  0.6018
 2322SOL    HW118425   1.616   0.958   8.001  0.6608  0.6013  1.2605
 2322SOL    HW218426   1.538   0.969   8.120  0.2289 -1.5925  0.4465
 2323SOL     OW18427   2.037   0.700   8.022  0.2284 -0.2965 -0.4571
 2323SOL    HW118428   2.016   0.678   7.931  2.1296 -1.4070 -0.6322
 2323SOL    HW218429   2.072   0.789   8.019 -0.2086 -0.0571  1.7374
 2324SOL     OW18430   1.198   4.075   4.424 -0.2958  0.2677  0.2190
 2324SOL    HW118431   1.133   4.004   4.431  0.1455 -0.1572 -0.0444
 2324SOL    HW218432   1.207   4.088   4.330  0.5518 -1.0862  0.1241
 2325SOL     OW18433   2.025   4.098   7.272 -0.3009 -0.0723  0.1493
 2325SOL    HW118434   2.074   4.169   7.232  1.3968 -1.6603 -0.5578
 2325SOL    HW218435   2.077   4.076   7.350  0.0103  2.7315  0.7517
 2326SOL     OW18436   0.457   1.437   1.835 -0.0179  0.3814  0.2399
 2326SOL    HW118437   0.401   1.378   1.886 -0.5496 -1.2851 -2.2463
 2326SOL    HW218438   0.403   1.516   1.837 -2.4013 -1.2275  0.8408
 2327SOL     OW18439   4.520   1.676   4.221 -0.3627 -0.0430 -0.0080
 2327SOL    HW118440   4.486   1.592   4.252  1.3369 -0.5542  0.4774
 2327SOL    HW218441   4.450   1.735   4.248  0.5861  0.2529  1.8534
 2328SOL     OW18442   3.633   4.597  17.040 -0.6796 -0.2096 -0.5419
 2328SOL    HW118443   3.642   4.691  17.025 -0.6752  0.1813  1.8670
 2328SOL    HW218444   3.722   4.582  17.071 -0.6870  1.4046  0.3080
 2329SOL     OW18445   4.330   1.944   5.683 -0.0459 -0.0665  0.4020
 2329SOL    HW118446   4.326   1.883   5.609  0.3684  2.0207 -1.3492
 2329SOL    HW218447   4.420   1.975   5.672  0.0639 -0.7374 -0.5822
 2330SOL     OW18448   1.923   4.408  14.498  0.3054  0.4482  0.9946
 2330SOL    HW118449   1.876   4.490  14.480 -2.7948 -1.5844 -0.0774
 2330SOL    HW218450   1.869   4.335  14.468 -0.3910  0.9451  1.0265
 2331SOL     OW18451   0.652   4.539  11.079  0.5963 -0.3126  0.2394
 2331SOL    HW118452   0.623   4.573  10.995 -0.7497 -1.1825  0.3673
 2331SOL    HW218453   0.621   4.608  11.138  2.1041  1.1462 -0.6628
 2332SOL     OW18454   2.375   3.010   9.312  0.6457 -0.6255  0.7012
 2332SOL    HW118455   2.317   3.041   9.242  0.1299  1.1191  1.9048
 2332SOL    HW218456   2.311   3.036   9.378  2.3280  1.0699  1.6684
 2333SOL     OW18457   1.010   3.759   7.325 -0.3034  0.4091 -0.2842
 2333SOL    HW118458   1.066   3.693   7.283 -2.2853 -0.4188 -1.6350
 2333SOL    HW218459   1.051   3.844   7.309  0.3702 -0.0326 -0.9264
 2334SOL     OW18460   1.550   0.718   3.956  0.5787 -0.1414  0.1561
 2334SOL    HW118461   1.598   0.693   4.035 -0.7479  1.7882  1.5696
 2334SOL    HW218462   1.572   0.640   3.904 -0.3415 -0.2579 -0.0498
 2335SOL     OW18463   1.108   4.127   3.782 -0.0853  0.2534  0.1206
 2335SOL    HW118464   1.072   4.203   3.828  0.9962  0.9315 -0.1392
 2335SOL    HW218465   1.159   4.079   3.847 -1.7924 -0.6939  0.7340
 2336SOL     OW18466   1.746   1.754  13.541 -0.3146 -0.3286  0.1115
 2336SOL    HW118467   1.726   1.697  13.615 -0.1039  0.7676  1.0105
 2336SOL    HW218468   1.778   1.833  13.585  0.9742  0.0922 -1.5800
 2337SOL     OW18469   0.539   3.456  13.077 -0.0411 -0.1754 -0.4142
 2337SOL    HW118470   0.479   3.497  13.014  0.2822 -0.0410 -0.6349
 2337SOL    HW218471   0.503   3.470  13.164 -1.8421  0.3828 -1.2545
 2338SOL     OW18472   1.619   3.847   7.046  0.1258 -0.7852 -0.4714
 2338SOL    HW118473   1.706   3.807   7.047  1.3067  1.7616 -0.7220
 2338SOL    HW218474   1.642   3.914   6.982 -0.6017  1.8027  1.9925
 2339SOL     OW18475   4.594   4.301   3.783 -0.1440  0.1368 -0.0760
 2339SOL    HW118476   4.519   4.360   3.794  1.2512  2.0082 -0.5127
 2339SOL    HW218477   4.629   4.337   3.702 -1.7517  0.2940 -0.7053
 2340SOL     OW18478   0.810   4.473  16.626 -0.5316  0.5590 -0.3186
 2340SOL    HW118479   0.763   4.500  16.547 -0.4861 -0.0254 -0.5454
 2340SOL    HW218480   0.739   4.468  16.690  0.3901  2.3288  0.8323
 2341SOL     OW18481   3.041   2.762   6.766  0.0532  0.3957  0.0835
 2341SOL    HW118482   3.065   2.696   6.701 -2.5089  0.0370 -0.5204
 2341SOL    HW218483   3.042   2.697   6.836  0.9820 -0.2184 -0.5012
 2342SOL     OW18484   0.024   2.272   0.495  0.1773  0.9210 -0.0797
 2342SOL    HW118485   4.693   2.246   0.423  1.7635 -0.3614 -0.8686
 2342SOL    HW218486   0.031   2.189   0.542  2.2241  0.2540 -1.5602
 2343SOL     OW18487   3.595   4.281  16.258  0.3313  0.6501  0.5138
 2343SOL    HW118488   3.548   4.218  16.313  1.1914  0.5729  1.1601
 2343SOL    HW218489   3.682   4.268  16.297 -0.1315  0.4917  1.4841
 2344SOL     OW18490   3.270   2.185   0.569 -0.0040 -0.4677  0.4656
 2344SOL    HW118491   3.269   2.126   0.493  2.4119  0.7598 -0.5256
 2344SOL    HW218492   3.250   2.268   0.526 -2.5740 -0.9105  0.7911
 2345SOL     OW18493   3.324   3.127  15.494 -0.6339 -0.1877 -0.4142
 2345SOL    HW118494   3.279   3.157  15.573  2.8752  4.6294 -0.2100
 2345SOL    HW218495   3.275   3.046  15.482 -1.3051  0.0581  0.6668
 2346SOL     OW18496   3.316   0.044   1.769 -0.4794 -0.7059 -0.1487
 2346SOL    HW118497   3.258   4.709   1.813 -1.9115  0.0419 -0.9992
 2346SOL    HW218498   3.310   0.018   1.678 -1.7276 -0.7864 -0.0327
 2347SOL     OW18499   4.331   2.666   0.281  0.2160  0.1285  0.8169
 2347SOL    HW118500   4.332   2.632   0.191  0.5506 -1.5080  1.4402
 2347SOL    HW218501   4.298   2.756   0.275 -0.2812 -0.1631 -0.9446
 2348SOL     OW18502   0.547   2.150   7.914 -0.2931 -0.2738  0.1184
 2348SOL    HW118503   0.547   2.211   7.841  0.4815  2.1874  2.2106
 2348SOL    HW218504   0.522   2.067   7.873  1.4027 -0.3600 -0.7066
 2349SOL     OW18505   0.644   1.234   5.241 -0.6540 -0.0343 -0.4317
 2349SOL    HW118506   0.701   1.306   5.216  0.4960 -0.4073  1.1054
 2349SOL    HW218507   0.694   1.159   5.208  0.3127 -0.0442  1.0721
 2350SOL     OW18508   3.040   3.911   2.859 -0.1636 -0.0541  0.2668
 2350SOL    HW118509   3.050   4.006   2.861  1.3199 -0.2414  1.5057
 2350SOL    HW218510   2.958   3.911   2.809  0.1577 -2.1093 -0.2478
 2351SOL     OW18511   4.620   3.327   2.950  0.1899  0.4747  0.1939
 2351SOL    HW118512   4.656   3.240   2.962 -0.8643  0.2794  2.0754
 2351SOL    HW218513   4.528   3.320   2.923  0.2630  1.2529 -0.2689
 2352SOL     OW18514   4.158   4.624   8.518 -0.0622 -0.5480  0.6477
 2352SOL    HW118515   4.189   4.625   8.608  1.7118 -1.8176  0.0690
 2352SOL    HW218516   4.135   4.532   8.504 -0.5931 -0.5229  1.3902
 2353SOL     OW18517   1.416   4.344   8.020 -0.1370 -1.0190 -0.1637
 2353SOL    HW118518   1.463   4.261   8.022  0.4445 -0.6978 -0.4188
 2353SOL    HW218519   1.473   4.404   7.973 -1.4249 -0.5139 -1.0837
 2354SOL     OW18520   0.151   4.714  16.937  0.5092 -0.5953 -0.2293
 2354SOL    HW118521   0.090   4.723  16.864 -0.7014 -1.1149  0.6922
 2354SOL    HW218522   0.221   0.045  16.911  0.5174  0.1636  1.4529
 2355SOL     OW18523   1.201   4.069   6.989 -0.1765  0.3876 -0.0425
 2355SOL    HW118524   1.245   4.056   6.905 -0.4020  0.0074 -0.1025
 2355SOL    HW218525   1.278   4.074   7.045  0.1693  0.2723 -0.5089
 2356SOL     OW18526   2.305   0.801  14.408 -0.0586  0.2701  0.5181
 2356SOL    HW118527   2.396   0.789  14.383 -0.2898  0.5821 -0.4723
 2356SOL    HW218528   2.270   0.720  14.372 -0.6055 -0.1217  1.9180
 2357SOL     OW18529   1.220   3.521  13.308 -0.5490  0.0009 -0.3167
 2357SOL    HW118530   1.286   3.577  13.267 -0.3893 -0.2862 -0.4480
 2357SOL    HW218531   1.144   3.541  13.254  0.2011 -0.0905 -1.4004
 2358SOL     OW18532   3.769   0.069   2.548 -0.5590  0.2852 -0.4975
 2358SOL    HW118533   3.684   0.051   2.590  0.1634  0.0456  0.8626
 2358SOL    HW218534   3.770   0.035   2.458 -0.0050  0.3292 -0.5087
 2359SOL     OW18535   0.114   1.512   1.915 -0.0907  0.0147  0.1620
 2359SOL    HW118536   0.034   1.510   1.967 -0.9828  2.0580 -1.1450
 2359SOL    HW218537   0.077   1.473   1.836  0.9553 -1.3885  0.3694
 2360SOL     OW18538   1.089   3.376   1.453 -0.2811  0.1072 -0.3885
 2360SOL    HW118539   1.097   3.471   1.465  1.1814 -0.1348  0.5230
 2360SOL    HW218540   1.000   3.369   1.418  0.1582 -0.7056 -1.3346
 2361SOL     OW18541   4.298   3.050  11.514  0.0895  0.1540  0.0137
 2361SOL    HW118542   4.349   3.079  11.438  1.6521 -1.1940  0.5403
 2361SOL    HW218543   4.289   3.136  11.555 -0.8163 -0.2764  0.7204
 2362SOL     OW18544   2.383   4.606   9.344 -0.1599 -0.5057  0.3971
 2362SOL    HW118545   2.395   4.520   9.302 -1.4276 -0.0199 -0.9856
 2362SOL    HW218546   2.434   4.668   9.293 -1.5165  0.3732  0.0991
 2363SOL     OW18547   4.287   4.096   3.029 -0.9986  0.5668  0.1379
 2363SOL    HW118548   4.217   4.062   3.085  0.9208 -2.1558  0.8960
 2363SOL    HW218549   4.287   4.192   3.037  1.8749  0.6575 -1.2105
 2364SOL     OW18550   0.159   2.026   8.795  0.4242  0.6734 -0.3176
 2364SOL    HW118551   0.204   2.025   8.711 -2.5370  1.4705 -1.9111
 2364SOL    HW218552   0.225   2.062   8.854  0.7310 -0.5166  0.0740
 2365SOL     OW18553   1.144   0.800   7.208 -0.0840  0.4852  0.3496
 2365SOL    HW118554   1.151   0.893   7.186 -3.4995  0.5181 -0.5208
 2365SOL    HW218555   1.130   0.820   7.300 -1.1336  0.4257  0.1970
 2366SOL     OW18556   1.660   3.815   2.513 -0.0669 -0.1978 -0.2599
 2366SOL    HW118557   1.695   3.853   2.593  4.1118  0.0772 -2.1761
 2366SOL    HW218558   1.736   3.800   2.455 -0.9884 -0.9329 -1.2804
 2367SOL     OW18559   1.056   1.900   8.244  0.5023 -0.1470  0.3132
 2367SOL    HW118560   1.143   1.886   8.282  0.1650 -2.0421  0.3846
 2367SOL    HW218561   1.041   1.991   8.273 -2.3738 -0.7428  0.7355
 2368SOL     OW18562   2.961   4.402   9.114 -0.8053  0.3057  0.1160
 2368SOL    HW118563   2.925   4.414   9.026  1.3457 -1.0403 -0.9364
 2368SOL    HW218564   2.924   4.319   9.145 -0.4080  0.5268  1.2031
 2369SOL     OW18565   1.121   4.292   2.074 -0.4095  0.0053 -0.2909
 2369SOL    HW118566   1.170   4.244   2.141 -0.9477  0.5056  0.4669
 2369SOL    HW218567   1.176   4.282   1.996  0.0520 -0.0956  0.0429
 2370SOL     OW18568   3.029   3.265   6.662 -0.1538  0.1079  0.8370
 2370SOL    HW118569   2.998   3.346   6.704 -2.9058 -0.0657 -0.8847
 2370SOL    HW218570   3.113   3.257   6.708  0.3018 -0.2933 -0.0660
 2371SOL     OW18571   2.913   0.330   4.573 -0.3894 -0.3981  0.0015
 2371SOL    HW118572   2.822   0.316   4.549 -0.3139 -1.4594  0.3400
 2371SOL    HW218573   2.909   0.414   4.620  1.3212 -0.6311  0.5717
 2372SOL     OW18574   0.419   3.794   3.689  0.2063 -0.3250 -0.3995
 2372SOL    HW118575   0.342   3.738   3.696  0.1754 -0.1402  0.8781
 2372SOL    HW218576   0.418   3.804   3.594 -1.4840  1.4862 -0.1771
 2373SOL     OW18577   1.040   1.801  17.492 -0.1256 -0.3015  0.1040
 2373SOL    HW118578   1.068   1.718  17.529  3.6133  0.2312 -1.5128
 2373SOL    HW218579   1.031   1.852  17.572 -0.4767 -0.3347  0.0861
 2374SOL     OW18580   2.712   1.645   6.850 -0.4784  0.1999  0.1893
 2374SOL    HW118581   2.669   1.657   6.765  2.0464 -1.8975 -1.3748
 2374SOL    HW218582   2.803   1.653   6.821 -1.0321 -2.8195 -2.3748
 2375SOL     OW18583   0.598   4.530  14.487  0.6187 -0.2648  0.1933
 2375SOL    HW118584   0.692   4.548  14.491  0.7598 -1.0396  0.2388
 2375SOL    HW218585   0.564   4.620  14.479  0.4924 -0.1691  1.8045
 2376SOL     OW18586   4.513   0.367   3.423 -0.2675  0.2885 -0.3231
 2376SOL    HW118587   4.419   0.350   3.432 -0.3392  0.8952  0.0684
 2376SOL    HW218588   4.539   0.346   3.512 -1.5725  2.1355  0.5073
 2377SOL     OW18589   2.213   3.271   7.926 -0.0679 -0.2242  1.4050
 2377SOL    HW118590   2.154   3.345   7.937  0.4182  0.1239  1.6311
 2377SOL    HW218591   2.170   3.200   7.973 -1.1374 -1.0075 -0.7785
 2378SOL     OW18592   3.767   3.871   8.332 -0.4586 -0.6799  0.1113
 2378SOL    HW118593   3.845   3.911   8.293 -0.2810 -1.3005 -0.1641
 2378SOL    HW218594   3.787   3.778   8.322  1.2644  0.1183 -4.1981
 2379SOL     OW18595   1.988   3.749   6.245 -0.0145 -0.1164  0.0009
 2379SOL    HW118596   2.033   3.665   6.246 -1.5933 -0.9768 -0.9157
 2379SOL    HW218597   1.905   3.731   6.290  0.0509 -0.3751  0.0176
 2380SOL     OW18598   1.292   0.440   3.582  0.4064  0.4319  0.2297
 2380SOL    HW118599   1.386   0.455   3.578  0.5806 -0.8399 -0.3819
 2380SOL    HW218600   1.294   0.346   3.566  0.4721  0.2323  1.3970
 2381SOL     OW18601   4.685   4.393   3.542 -0.6465 -0.2679 -0.1117
 2381SOL    HW118602   4.689   4.471   3.487  1.0737  0.5854  1.2207
 2381SOL    HW218603   4.656   4.328   3.477 -0.6145 -1.2356  0.8331
 2382SOL     OW18604   1.706   3.291   4.262  0.0686  0.1922  0.1494
 2382SOL    HW118605   1.764   3.344   4.206  0.0101 -0.0968 -0.1914
 2382SOL    HW218606   1.751   3.206   4.264  2.1102  1.2621  0.0970
 2383SOL     OW18607   4.178   2.844   1.296 -0.2445 -0.0928  0.1866
 2383SOL    HW118608   4.083   2.854   1.307 -0.3471 -0.5131 -0.3459
 2383SOL    HW218609   4.185   2.901   1.220  0.3931 -2.1469 -1.2824
 2384SOL     OW18610   1.125   1.462   7.063  0.5699 -0.5870 -0.4320
 2384SOL    HW118611   1.208   1.430   7.026 -0.4487 -1.9266 -1.5885
 2384SOL    HW218612   1.084   1.380   7.091 -2.8897  0.4049 -2.6881
 2385SOL     OW18613   0.976   1.884   6.133 -0.1773 -0.0084 -0.0050
 2385SOL    HW118614   1.066   1.872   6.105  0.6327 -0.5443  2.8110
 2385SOL    HW218615   0.931   1.885   6.049  0.1749  0.6720 -0.1791
 2386SOL     OW18616   1.343   0.330   4.191  0.0367 -0.4397 -0.4327
 2386SOL    HW118617   1.399   0.376   4.253 -1.2389 -0.3282  0.6209
 2386SOL    HW218618   1.388   0.251   4.160  0.8704  0.1598 -0.7605
 2387SOL     OW18619   3.861   2.673   1.802 -0.3414 -0.2969  0.0706
 2387SOL    HW118620   3.855   2.606   1.734 -2.2123  0.6175 -0.6667
 2387SOL    HW218621   3.894   2.610   1.866  0.6971 -0.1482 -0.3275
 2388SOL     OW18622   3.036   3.775   3.879 -0.7930 -0.8312 -0.7197
 2388SOL    HW118623   3.003   3.753   3.966  0.0187 -0.5411 -0.3396
 2388SOL    HW218624   3.094   3.848   3.901 -0.2134 -1.1809 -1.0768
 2389SOL     OW18625   2.692   3.018   5.512 -0.2831  0.3645 -0.1431
 2389SOL    HW118626   2.611   3.030   5.462 -1.5134 -1.0451  1.5382
 2389SOL    HW218627   2.751   3.083   5.472  0.4744  0.4529  1.1320
 2390SOL     OW18628   4.130   2.118   2.655 -0.2111  0.5046  0.1630
 2390SOL    HW118629   4.217   2.117   2.696  0.2828 -1.4503 -0.9294
 2390SOL    HW218630   4.078   2.052   2.701 -1.0220  0.2442 -1.1398
 2391SOL     OW18631   1.983   2.564   3.864  0.2708 -0.2132 -0.4768
 2391SOL    HW118632   2.051   2.630   3.850 -0.7474  0.8685 -0.2789
 2391SOL    HW218633   1.968   2.540   3.772  0.8605 -0.0481 -0.6169
 2392SOL     OW18634   2.256   1.265   3.091 -0.3188 -0.5267  0.5126
 2392SOL    HW118635   2.349   1.250   3.108 -0.1382  1.0831  0.9247
 2392SOL    HW218636   2.228   1.303   3.174  1.9979 -0.1500  1.1216
 2393SOL     OW18637   1.628   2.983   4.581  0.0121  0.4302 -0.6602
 2393SOL    HW118638   1.691   2.942   4.641  1.4430  5.4615  1.3076
 2393SOL    HW218639   1.631   3.077   4.602 -1.4456  0.4758 -0.6619
 2394SOL     OW18640   2.436   4.346  17.475 -0.3312 -0.2305 -0.0760
 2394SOL    HW118641   2.440   4.272  17.536 -1.5019  0.8820  1.3373
 2394SOL    HW218642   2.524   4.380  17.490 -0.2797 -0.8611  1.0449
 2395SOL     OW18643   0.405   2.744  16.485  0.3629  0.1722 -0.4376
 2395SOL    HW118644   0.318   2.768  16.516 -0.2074 -1.7920 -0.5146
 2395SOL    HW218645   0.463   2.764  16.558 -0.7294  0.7470  0.2687
 2396SOL     OW18646   0.893   1.168   1.093  0.0506 -0.0413  0.2957
 2396SOL    HW118647   0.958   1.193   1.159 -1.5246 -0.0080  1.8546
 2396SOL    HW218648   0.809   1.199   1.127  0.1863  0.3792  0.2508
 2397SOL     OW18649   0.693   2.281   4.247 -0.1448 -0.0905 -1.0531
 2397SOL    HW118650   0.745   2.203   4.229  0.5884 -0.1738  1.5335
 2397SOL    HW218651   0.761   2.348   4.245 -0.8999  0.7507  1.7756
 2398SOL     OW18652   1.333   1.273   8.646 -0.3938 -0.2670 -0.3706
 2398SOL    HW118653   1.329   1.333   8.721  1.7227 -0.9420  0.2691
 2398SOL    HW218654   1.405   1.217   8.674 -1.1100 -1.0215 -0.0543
 2399SOL     OW18655   2.424   2.044  16.844 -0.1193 -0.4322 -0.0513
 2399SOL    HW118656   2.486   2.109  16.877 -1.1031 -0.2768  1.5001
 2399SOL    HW218657   2.396   1.995  16.921 -1.6758  0.4285 -0.0575
 2400SOL     OW18658   0.113   2.460   8.180 -0.1599  0.5031 -0.0380
 2400SOL    HW118659   0.133   2.431   8.092 -1.6374 -0.9705  0.1203
 2400SOL    HW218660   0.022   2.489   8.171 -0.7104 -0.2615  2.8785
 2401SOL     OW18661   4.382   3.671   8.683 -0.4068 -0.6701 -0.2414
 2401SOL    HW118662   4.373   3.593   8.629 -3.6982 -1.4642  1.3857
 2401SOL    HW218663   4.437   3.634   8.752  1.2110  1.2878 -0.5012
 2402SOL     OW18664   3.475   3.055   2.042 -0.5516 -0.2862  0.6361
 2402SOL    HW118665   3.494   3.134   2.093 -0.0194  0.7487 -1.1637
 2402SOL    HW218666   3.566   3.029   2.030 -1.4341 -2.7918 -0.5251
 2403SOL     OW18667   0.702   2.519   1.428  0.0939  0.2862  0.3442
 2403SOL    HW118668   0.656   2.491   1.349  2.1536 -0.3316 -0.6280
 2403SOL    HW218669   0.693   2.614   1.423  0.1467  0.3385  1.1898
 2404SOL     OW18670   3.042   3.353  13.530  0.6465 -0.1703  0.3097
 2404SOL    HW118671   3.113   3.393  13.480  0.7708  1.0640  1.4633
 2404SOL    HW218672   2.973   3.367  13.465 -0.5998 -1.3558  1.3467
 2405SOL     OW18673   2.512   1.434   5.015 -0.1875 -0.6667  0.6678
 2405SOL    HW118674   2.506   1.495   4.942  1.1338 -1.2470  0.0736
 2405SOL    HW218675   2.605   1.417   4.999 -0.1561  0.0792  0.0880
 2406SOL     OW18676   4.007   0.239   3.405 -0.3767 -0.0243  0.3049
 2406SOL    HW118677   3.966   0.153   3.411 -0.4279  0.2666  4.1538
 2406SOL    HW218678   4.005   0.253   3.310 -1.5740 -1.2499  0.1424
 2407SOL     OW18679   2.602   0.441  10.971  0.5107  0.0783  0.3499
 2407SOL    HW118680   2.645   0.367  11.016 -0.3459 -0.9791 -0.5607
 2407SOL    HW218681   2.602   0.397  10.886 -0.7994 -0.7436  0.7612
 2408SOL     OW18682   0.390   4.634   1.532  0.2648  0.1650 -0.3940
 2408SOL    HW118683   0.296   4.650   1.525  0.2218 -0.1670 -0.5923
 2408SOL    HW218684   0.397   4.614   1.626 -1.0917  0.8561 -0.1549
 2409SOL     OW18685   0.203   4.654   1.898 -0.2594 -0.6359  0.0217
 2409SOL    HW118686   0.275   4.671   1.838 -0.6372 -3.3913 -1.2288
 2409SOL    HW218687   0.246   4.587   1.952  1.2693  1.7351  1.7475
 2410SOL     OW18688   4.307   4.060   6.857 -0.1017 -0.1536  0.0758
 2410SOL    HW118689   4.266   3.989   6.806 -0.9619 -0.0337  0.5941
 2410SOL    HW218690   4.344   4.015   6.933  0.7564  0.1168 -0.1883
 2411SOL     OW18691   1.187   3.526   5.792  0.2225 -0.0868 -0.5007
 2411SOL    HW118692   1.219   3.484   5.712  2.4315  2.2005 -0.8157
 2411SOL    HW218693   1.253   3.595   5.797  0.5006 -0.4141  0.2446
 2412SOL     OW18694   1.764   4.275   7.162  0.3646 -0.6147 -0.2627
 2412SOL    HW118695   1.826   4.299   7.093  1.1071 -0.8204  0.3342
 2412SOL    HW218696   1.816   4.219   7.219  0.8422 -0.2828 -0.3689
 2413SOL     OW18697   0.565   0.010   9.052  0.5551 -0.2238  0.0694
 2413SOL    HW118698   0.495   4.672   9.047  1.4950 -1.2870  0.7270
 2413SOL    HW218699   0.566   0.032   8.959 -0.5527 -2.6647 -0.5389
 2414SOL     OW18700   3.741   3.759   5.392  0.5382 -0.6665 -0.1153
 2414SOL    HW118701   3.674   3.802   5.446  1.2154  1.2478 -0.8079
 2414SOL    HW218702   3.749   3.826   5.324 -0.8467  0.8489  1.2259
 2415SOL     OW18703   2.590   2.810   3.380 -0.7832 -0.0680 -0.7027
 2415SOL    HW118704   2.558   2.797   3.469  0.9154  1.9154  0.1986
 2415SOL    HW218705   2.642   2.736   3.349 -0.0873  0.2369 -0.2705
 2416SOL     OW18706   2.622   4.155   9.400  1.1925  0.2962 -0.3445
 2416SOL    HW118707   2.612   4.079   9.342 -0.4907  1.1601 -1.1931
 2416SOL    HW218708   2.534   4.175   9.432  1.1937 -0.4426  0.1287
 2417SOL     OW18709   3.188   0.185   5.455 -0.4049 -0.4044 -0.3314
 2417SOL    HW118710   3.181   0.252   5.524  0.5856 -1.2057  0.5484
 2417SOL    HW218711   3.137   0.231   5.389  0.0376 -1.1271 -1.1658
 2418SOL     OW18712   1.742   3.703   7.524  0.5473 -0.5497 -0.1903
 2418SOL    HW118713   1.755   3.655   7.606 -0.8533 -0.7987 -0.1043
 2418SOL    HW218714   1.831   3.695   7.492  0.6024 -1.1979  0.1254
 2419SOL     OW18715   1.242   1.727   2.787 -0.5207  0.3263 -0.1351
 2419SOL    HW118716   1.327   1.766   2.810  0.6377 -1.9744 -0.5339
 2419SOL    HW218717   1.213   1.779   2.712  2.4166  1.7488 -0.3021
 2420SOL     OW18718   4.612   1.550   1.741  0.1818  0.0154 -0.1508
 2420SOL    HW118719   4.681   1.544   1.675 -0.9900 -1.9027 -1.2240
 2420SOL    HW218720   4.612   1.645   1.752 -1.0912 -0.0257  0.1888
 2421SOL     OW18721   3.938   0.097   4.899  0.1852  0.3908  0.6507
 2421SOL    HW118722   3.953   0.116   4.992  0.8603  1.3910  0.3428
 2421SOL    HW218723   3.914   0.186   4.873  0.6105  0.8486  1.8311
 2422SOL     OW18724   4.177   0.232   1.640  0.4503 -0.4667  0.6899
 2422SOL    HW118725   4.243   0.289   1.601 -0.6280  1.7217  2.0534
 2422SOL    HW218726   4.113   0.251   1.571  0.9575  0.0098  0.3516
 2423SOL     OW18727   2.202   1.053   5.056  0.8068 -0.5454  0.3555
 2423SOL    HW118728   2.205   1.149   5.056 -0.7824 -0.5028  2.4350
 2423SOL    HW218729   2.162   1.043   4.970  0.3757 -1.1634  0.6292
 2424SOL     OW18730   0.692   1.008   0.471 -0.2907  0.0821  0.5223
 2424SOL    HW118731   0.688   1.104   0.471  1.8325  0.1504  1.0387
 2424SOL    HW218732   0.631   0.986   0.541 -1.0993  0.7391  0.0296
 2425SOL     OW18733   3.757   0.142   4.189  0.3930  0.2685  0.9220
 2425SOL    HW118734   3.821   0.108   4.127 -0.4156 -0.3384  0.4175
 2425SOL    HW218735   3.704   0.193   4.128  2.1089  2.0433  0.9407
 2426SOL     OW18736   1.110   0.490  12.632 -0.4562  0.3043 -0.5057
 2426SOL    HW118737   1.103   0.455  12.721 -0.1061  0.5890 -0.3661
 2426SOL    HW218738   1.192   0.444  12.612 -0.0712  0.6361  0.2652
 2427SOL     OW18739   3.262   3.873   8.007  0.3513 -0.1718  0.1796
 2427SOL    HW118740   3.228   3.938   7.947  1.6308  0.6734  0.3760
 2427SOL    HW218741   3.175   3.857   8.045 -0.3005  0.6621 -0.9751
 2428SOL     OW18742   4.612   3.946   8.712  0.3099 -0.0813  0.0703
 2428SOL    HW118743   4.585   4.032   8.681  1.8623  0.7780  1.1196
 2428SOL    HW218744   4.544   3.880   8.695 -1.6111  1.2598  2.4203
 2429SOL     OW18745   1.881   3.075  14.341  0.4480 -0.1124  0.2597
 2429SOL    HW118746   1.937   3.144  14.305 -1.1528  1.8157  1.4049
 2429SOL    HW218747   1.854   3.114  14.425  0.9024 -0.2242  0.4552
 2430SOL     OW18748   0.026   0.111   2.866  0.4723  0.2581  0.8117
 2430SOL    HW118749   0.016   0.186   2.925 -4.6226 -1.0746  1.6164
 2430SOL    HW218750   4.663   0.083   2.853  0.9132 -0.8910  0.1989
 2431SOL     OW18751   1.545   0.507   3.502 -0.6232 -0.0459 -0.2965
 2431SOL    HW118752   1.572   0.429   3.454  0.7946  0.0214  0.3754
 2431SOL    HW218753   1.574   0.572   3.437 -1.2505  2.8807  2.3202
 2432SOL     OW18754   0.941   4.001   7.887 -0.7162 -0.0640  0.1967
 2432SOL    HW118755   0.969   3.934   7.825 -0.2780  0.0051  0.3165
 2432SOL    HW218756   0.847   4.010   7.873 -0.8477 -2.1538 -0.2154
 2433SOL     OW18757   3.798   4.255  16.426  0.2135  0.3661  0.2434
 2433SOL    HW118758   3.891   4.231  16.421 -0.0458 -0.2560 -1.5983
 2433SOL    HW218759   3.780   4.222  16.514 -0.0908  0.1503  0.0991
 2434SOL     OW18760   0.693   0.260   8.688  0.0573  0.1568 -0.3336
 2434SOL    HW118761   0.751   0.322   8.732  1.0946 -1.0537  0.0192
 2434SOL    HW218762   0.749   0.212   8.627 -0.6872 -1.8301  0.5380
 2435SOL     OW18763   2.017   0.238   5.021 -0.4478  0.0153  0.0768
 2435SOL    HW118764   2.095   0.266   4.972 -0.3855 -0.9321 -0.3730
 2435SOL    HW218765   2.025   0.143   5.017 -1.7498 -0.1017  0.2254
 2436SOL     OW18766   3.706   1.519   1.452  0.1754 -0.2102 -0.5582
 2436SOL    HW118767   3.730   1.482   1.367  2.3197  0.4133 -0.2154
 2436SOL    HW218768   3.615   1.489   1.462 -0.0362  0.0167 -1.8190
 2437SOL     OW18769   4.179   2.735  13.948  0.4122 -0.1449  0.3912
 2437SOL    HW118770   4.213   2.822  13.929 -2.6559  1.0651  0.5138
 2437SOL    HW218771   4.217   2.729  14.035  1.1849 -1.4270 -0.0321
 2438SOL     OW18772   2.144   3.571  13.723 -0.5648 -0.0199 -0.2105
 2438SOL    HW118773   2.126   3.648  13.776 -0.1454 -0.5456  0.6876
 2438SOL    HW218774   2.101   3.587  13.639  0.5074 -0.7586 -0.8975
 2439SOL     OW18775   3.097   2.000  14.497  0.3582 -0.3717  0.7812
 2439SOL    HW118776   3.174   2.024  14.445 -0.3042 -0.6978 -0.3504
 2439SOL    HW218777   3.044   2.071  14.461  1.3386 -0.2643 -0.4510
 2440SOL     OW18778   3.092   1.261   6.896  0.0432  0.1535  0.1745
 2440SOL    HW118779   3.071   1.330   6.959 -0.3886  1.1499 -1.0358
 2440SOL    HW218780   3.172   1.219   6.927  0.6291  1.2304  0.1310
 2441SOL     OW18781   0.179   1.351   5.415 -0.6443 -0.2670 -0.2860
 2441SOL    HW118782   0.243   1.285   5.389 -0.4307 -0.3880  0.5760
 2441SOL    HW218783   0.238   1.411   5.460 -1.9800  1.4626 -0.8465
 2442SOL     OW18784   3.863   0.656   3.301  0.0447 -0.4250  0.0990
 2442SOL    HW118785   3.903   0.571   3.316  0.5920 -0.3740 -1.0303
 2442SOL    HW218786   3.799   0.653   3.372 -1.7450  2.2309 -1.4182
 2443SOL     OW18787   1.788   0.914   0.321 -0.0291 -0.3468  0.1791
 2443SOL    HW118788   1.863   0.920   0.262 -0.6497 -0.9467 -0.6705
 2443SOL    HW218789   1.727   0.862   0.269  2.4377 -2.4477 -0.6043
 2444SOL     OW18790   0.098   2.152   8.111 -0.2278 -0.1502 -0.3771
 2444SOL    HW118791   0.128   2.225   8.056  1.8491 -0.5652  0.2041
 2444SOL    HW218792   0.173   2.093   8.112 -0.6951 -0.7642 -1.7012
 2445SOL     OW18793   2.736   0.201  11.027  0.1609  0.0975  0.3581
 2445SOL    HW118794   2.677   0.156  10.967 -0.1803  0.5226  0.3709
 2445SOL    HW218795   2.823   0.193  10.987 -0.0791 -1.7999  0.2571
 2446SOL     OW18796   0.381   0.387   9.113 -0.1220  0.3127 -0.7353
 2446SOL    HW118797   0.465   0.372   9.156 -0.7316  0.2066  0.4346
 2446SOL    HW218798   0.350   0.297   9.105  1.3043 -0.4311  2.0208
 2447SOL     OW18799   1.291   2.997   8.584  0.8483 -0.4719  0.5665
 2447SOL    HW118800   1.271   3.076   8.633  0.1173 -1.5187  1.9507
 2447SOL    HW218801   1.316   3.036   8.500  0.4296 -2.3378 -0.4408
 2448SOL     OW18802   3.091   3.192   8.931  0.2551  0.0356 -0.0511
 2448SOL    HW118803   3.065   3.235   8.850 -0.3905  0.0926  0.1912
 2448SOL    HW218804   3.120   3.269   8.980  3.9920 -2.2868  1.3798
 2449SOL     OW18805   2.876   0.332   0.598  0.5809 -0.3682  0.2536
 2449SOL    HW118806   2.856   0.246   0.633 -0.8396  1.1768  3.2576
 2449SOL    HW218807   2.878   0.309   0.505 -0.1162 -0.5435  0.2773
 2450SOL     OW18808   2.640   1.489   7.334 -0.4377  0.1384 -0.2838
 2450SOL    HW118809   2.579   1.546   7.380  0.4090  0.4245  0.4709
 2450SOL    HW218810   2.599   1.474   7.248 -1.1912  1.4537 -0.1464
 2451SOL     OW18811   1.752   0.045   1.127  0.0814  0.4643 -0.0133
 2451SOL    HW118812   1.727   0.078   1.214 -0.2238  1.0828 -0.3344
 2451SOL    HW218813   1.677   0.069   1.072  0.3672 -0.1274 -0.6535
 2452SOL     OW18814   2.134   2.096  14.320  0.0992 -0.1228 -0.1478
 2452SOL    HW118815   2.118   2.157  14.392  2.2647  2.2903 -1.7138
 2452SOL    HW218816   2.215   2.119  14.275 -0.2944 -1.8790 -1.7344
 2453SOL     OW18817   0.064   0.058   2.350  0.6326 -0.3932 -0.7858
 2453SOL    HW118818   0.122   0.130   2.325  1.7823 -0.8844  0.4653
 2453SOL    HW218819   0.067   0.058   2.445 -1.5069  1.4901 -0.6953
 2454SOL     OW18820   1.773   0.242   1.762 -0.0600 -0.1597 -0.0979
 2454SOL    HW118821   1.816   0.173   1.812  0.1752  0.5970  0.7557
 2454SOL    HW218822   1.822   0.316   1.799  0.6159 -0.5532 -0.2142
 2455SOL     OW18823   0.487   3.321  12.786  0.8033  0.8450  0.1930
 2455SOL    HW118824   0.449   3.286  12.706 -2.2075  0.9393  1.5746
 2455SOL    HW218825   0.431   3.399  12.790  1.8526  1.6548 -1.1553
 2456SOL     OW18826   0.397   3.182   7.460  0.5395  0.1986  0.1398
 2456SOL    HW118827   0.363   3.267   7.433 -0.8946 -0.9001 -1.5408
 2456SOL    HW218828   0.390   3.131   7.380 -1.0509  0.8023 -0.0932
 2457SOL     OW18829   2.319   1.324   4.600 -0.2403  0.0558 -0.3812
 2457SOL    HW118830   2.295   1.395   4.540 -3.4027 -0.9632 -0.3391
 2457SOL    HW218831   2.288   1.375   4.675 -0.5329 -0.8133  0.0859
 2458SOL     OW18832   3.942   2.517   3.738 -0.4977 -0.0933 -0.1388
 2458SOL    HW118833   3.920   2.442   3.682  2.1269 -0.4148 -0.7098
 2458SOL    HW218834   3.983   2.585   3.686 -0.5051 -0.0494 -0.0875
 2459SOL     OW18835   2.887   4.662   7.389  0.2241  0.3948  0.0562
 2459SOL    HW118836   2.921   4.631   7.473 -0.0753  0.7127  0.2996
 2459SOL    HW218837   2.812   4.603   7.383  0.0146  0.7277 -0.5571
 2460SOL     OW18838   3.172   4.002   3.941  0.0393  0.4648  0.3417
 2460SOL    HW118839   3.181   3.989   4.035 -1.5780 -2.2075  0.1264
 2460SOL    HW218840   3.120   4.082   3.939  0.5500  0.7985  0.3074
 2461SOL     OW18841   0.298   0.606   9.241 -0.1803 -0.2878 -0.3739
 2461SOL    HW118842   0.333   0.519   9.222 -0.2664 -0.8996  2.2049
 2461SOL    HW218843   0.362   0.664   9.201  1.0874 -1.2305  0.2843
 2462SOL     OW18844   3.402   1.196   6.125  0.4858 -0.8055  0.0396
 2462SOL    HW118845   3.358   1.241   6.198  2.2310  3.3682 -1.4615
 2462SOL    HW218846   3.322   1.153   6.093  0.2435  0.3736 -0.9467
 2463SOL     OW18847   0.923   1.976   2.696  0.3521  0.1925  0.3012
 2463SOL    HW118848   0.849   1.916   2.701  0.2997  0.2486  0.1968
 2463SOL    HW218849   0.969   1.940   2.620  0.4593  3.3059 -1.1546
 2464SOL     OW18850   2.436   0.721   4.169 -0.1454 -0.0576  0.3629
 2464SOL    HW118851   2.445   0.790   4.103 -2.8284 -0.6035 -0.5781
 2464SOL    HW218852   2.521   0.682   4.148 -0.6526 -1.0110  0.0925
 2465SOL     OW18853   2.067   1.739   6.098 -0.0330  0.4666 -0.2395
 2465SOL    HW118854   2.048   1.668   6.036 -3.3613  2.2164 -1.1998
 2465SOL    HW218855   2.011   1.815   6.079 -1.3771  0.0050  1.8430
 2466SOL     OW18856   0.215   3.694   8.856  0.2958 -0.3415  0.2799
 2466SOL    HW118857   0.185   3.763   8.915  1.0752 -0.5929  0.9575
 2466SOL    HW218858   0.278   3.648   8.911  1.0051 -0.5972 -0.7444
 2467SOL     OW18859   4.384   1.042   1.700 -0.0644  0.2757  0.1336
 2467SOL    HW118860   4.439   1.054   1.622 -0.8606  1.1437 -0.2810
 2467SOL    HW218861   4.438   1.087   1.765 -0.0409  1.1299 -0.4864
 2468SOL     OW18862   1.679   3.663   9.067  0.3024 -0.5908  0.4172
 2468SOL    HW118863   1.602   3.665   9.124 -0.0452 -0.6513 -0.0451
 2468SOL    HW218864   1.638   3.600   9.007  0.0161 -1.0159  1.0625
 2469SOL     OW18865   1.979   2.891   3.256  0.2301 -0.0916  0.0540
 2469SOL    HW118866   1.905   2.865   3.310 -1.3296  1.3206 -1.4274
 2469SOL    HW218867   2.052   2.852   3.304  0.7271  1.3581  0.4678
 2470SOL     OW18868   1.511   0.605   6.951  0.0323 -0.0287 -0.4151
 2470SOL    HW118869   1.419   0.631   6.947 -0.0582  0.0527  1.9709
 2470SOL    HW218870   1.504   0.533   7.013  1.8358  1.4091  1.4780
 2471SOL     OW18871   0.131   0.438   5.967  0.3147  0.6157  0.7036
 2471SOL    HW118872   0.217   0.399   5.950 -0.9149 -1.3684 -0.9794
 2471SOL    HW218873   0.069   0.379   5.923 -0.7857  1.7817  0.7156
 2472SOL     OW18874   4.092   4.099   4.061  0.6558 -0.2749  0.3929
 2472SOL    HW118875   4.119   4.008   4.065 -1.8176 -0.9265  2.1950
 2472SOL    HW218876   4.019   4.093   4.122 -1.2026 -1.4434 -1.9897
 2473SOL     OW18877   2.529   1.111   1.665  0.0993 -0.6712 -0.1751
 2473SOL    HW118878   2.473   1.054   1.612 -0.2464  0.3981 -0.9668
 2473SOL    HW218879   2.494   1.097   1.753 -0.4313  1.8285  0.0324
 2474SOL     OW18880   3.458   0.894  14.214  0.2900  0.2196  0.4258
 2474SOL    HW118881   3.413   0.824  14.261 -1.2866 -1.3790 -3.4823
 2474SOL    HW218882   3.504   0.842  14.149  0.1478 -0.6954  1.0585
 2475SOL     OW18883   4.219   4.420   4.314 -0.0100 -0.0351  1.0543
 2475SOL    HW118884   4.277   4.462   4.378 -0.8047  2.1798  0.2979
 2475SOL    HW218885   4.134   4.463   4.323  0.3846  1.3118 -1.8215
 2476SOL     OW18886   2.363   0.468   7.261  0.1772 -0.8224 -0.5137
 2476SOL    HW118887   2.418   0.485   7.337  1.2008 -1.0359 -1.2054
 2476SOL    HW218888   2.358   0.559   7.232 -0.5956 -0.9163 -0.6638
 2477SOL     OW18889   0.145   1.505   4.900  0.3548  0.1873 -0.2652
 2477SOL    HW118890   0.156   1.491   4.994 -1.6602  1.8649  0.2038
 2477SOL    HW218891   0.063   1.456   4.893 -0.5157  1.7832 -1.0158
 2478SOL     OW18892   2.220   1.914   5.646 -0.4636  1.2641  0.0282
 2478SOL    HW118893   2.245   1.872   5.564  0.5041  1.3455  0.2865
 2478SOL    HW218894   2.125   1.925   5.639 -0.7341 -1.4029 -0.5275
 2479SOL     OW18895   3.370   3.856   3.765  0.1588 -0.6267  0.5920
 2479SOL    HW118896   3.356   3.768   3.800 -1.4394 -1.0824 -1.1520
 2479SOL    HW218897   3.307   3.907   3.816  0.5528  0.1628  0.2908
 2480SOL     OW18898   3.992   4.413   7.727  0.0376 -0.0542  0.7444
 2480SOL    HW118899   3.984   4.329   7.772  4.4089  0.4417  2.4085
 2480SOL    HW218900   3.903   4.445   7.738  0.2888  0.0974  2.2483
 2481SOL     OW18901   4.679   3.115   7.514 -0.4243 -0.0191 -0.3408
 2481SOL    HW118902   4.723   3.039   7.554 -0.4835 -0.2537 -0.7154
 2481SOL    HW218903   4.652   3.081   7.428 -1.5092 -1.2511  0.4948
 2482SOL     OW18904   1.693   2.668   6.475 -0.7735  0.1318  0.0705
 2482SOL    HW118905   1.777   2.636   6.507 -1.3118  0.4214  1.8062
 2482SOL    HW218906   1.661   2.725   6.545 -0.6025  1.1311 -0.6552
 2483SOL     OW18907   0.661   3.035   4.933  0.2298 -0.5035  0.0200
 2483SOL    HW118908   0.752   3.031   4.963 -0.2167 -0.3722  1.3776
 2483SOL    HW218909   0.617   2.974   4.992  1.7401  0.8073  2.4999
 2484SOL     OW18910   2.343   1.800   6.561  0.4167  0.6328 -0.2801
 2484SOL    HW118911   2.282   1.763   6.499 -1.8368  0.8806  1.7906
 2484SOL    HW218912   2.344   1.893   6.540  1.9981  0.2243 -2.0370
 2485SOL     OW18913   1.365   3.755   5.829 -0.1908  0.3330  0.0333
 2485SOL    HW118914   1.288   3.811   5.821 -0.2571  0.4596  1.5528
 2485SOL    HW218915   1.414   3.800   5.898 -0.7060  1.1206 -0.1084
 2486SOL     OW18916   1.813   3.337   2.392  0.0709 -0.4071 -0.3594
 2486SOL    HW118917   1.740   3.393   2.368 -1.6648 -2.4202  0.1656
 2486SOL    HW218918   1.760   3.265   2.429 -0.3927 -0.0640 -0.3544
 2487SOL     OW18919   2.589   0.748   6.734  0.0211  0.0779 -0.1312
 2487SOL    HW118920   2.551   0.800   6.805 -2.0447 -1.2380 -0.2513
 2487SOL    HW218921   2.555   0.668   6.774 -0.3915 -0.4790 -1.6086
 2488SOL     OW18922   0.691   0.926  11.565  0.6258  0.2819  0.1944
 2488SOL    HW118923   0.754   0.966  11.504 -0.8140  2.7207  0.3618
 2488SOL    HW218924   0.607   0.970  11.555 -0.3683 -0.9447  3.3096
 2489SOL     OW18925   4.644   4.525  11.529 -0.1904 -0.0160 -0.0071
 2489SOL    HW118926   4.718   4.477  11.491 -0.4920  0.0324 -0.6438
 2489SOL    HW218927   4.670   4.609  11.490  4.0396 -2.1031 -1.6997
 2490SOL     OW18928   0.765   1.394  14.544 -0.0752  0.1548 -0.1654
 2490SOL    HW118929   0.700   1.369  14.610  1.5222  0.0471  1.3537
 2490SOL    HW218930   0.813   1.315  14.521  0.0789  0.8177 -2.0719
 2491SOL     OW18931   1.380   0.264   6.050 -0.7728 -0.4779 -0.0936
 2491SOL    HW118932   1.317   0.321   6.094 -0.6947 -0.3250 -0.1800
 2491SOL    HW218933   1.456   0.302   6.095 -2.0937  2.0343 -0.0272
 2492SOL     OW18934   1.458   2.679   0.991  0.3065 -0.0448 -0.0191
 2492SOL    HW118935   1.480   2.597   1.034  1.5225  0.6538  0.6863
 2492SOL    HW218936   1.485   2.657   0.902  1.0563  0.4182  0.0981
 2493SOL     OW18937   3.624   3.194   8.767 -0.4883 -0.5165  0.1613
 2493SOL    HW118938   3.582   3.170   8.850 -1.3060  0.5224  0.0455
 2493SOL    HW218939   3.650   3.106   8.739  1.1372 -0.0148  0.0996
 2494SOL     OW18940   1.424   1.880   6.550 -0.1760 -0.5485  0.2523
 2494SOL    HW118941   1.371   1.926   6.486  1.7112  0.0721 -0.8475
 2494SOL    HW218942   1.411   1.941   6.623  0.8516 -0.5218  0.4204
 2495SOL     OW18943   4.218   4.502   5.755  0.1862  0.1213  0.2028
 2495SOL    HW118944   4.256   4.585   5.785 -2.4355  0.7733  1.7763
 2495SOL    HW218945   4.285   4.436   5.772  1.3583  0.8839 -1.4464
 2496SOL     OW18946   4.098   0.192   6.413 -0.5757 -0.0534  0.3227
 2496SOL    HW118947   4.186   0.195   6.450  0.2069  2.3859 -1.6925
 2496SOL    HW218948   4.055   0.227   6.492  0.9391  1.1364  0.6358
 2497SOL     OW18949   4.318   0.789   6.704 -0.0374 -0.0481 -0.0296
 2497SOL    HW118950   4.292   0.881   6.705  0.2165  0.0227 -0.0892
 2497SOL    HW218951   4.242   0.746   6.663 -1.0305  3.1551 -1.5686
 2498SOL     OW18952   3.198   3.806   8.398 -0.1492  0.2924  0.2645
 2498SOL    HW118953   3.136   3.785   8.327  0.2672  1.1419 -0.3525
 2498SOL    HW218954   3.189   3.736   8.463 -1.3686 -0.7209 -0.9846
 2499SOL     OW18955   4.133   3.310   3.039 -0.7583  0.0398  0.0170
 2499SOL    HW118956   4.045   3.308   3.000 -1.3005  1.1078  1.1769
 2499SOL    HW218957   4.104   3.289   3.128 -0.6689 -0.1581 -0.0020
 2500SOL     OW18958   3.261   1.277   7.877 -0.5976  0.3340 -0.3155
 2500SOL    HW118959   3.347   1.316   7.861  0.2297 -1.0261  0.8657
 2500SOL    HW218960   3.241   1.227   7.798  2.3687 -0.4011 -0.5926
 2501SOL     OW18961   2.652   2.154   7.727  0.6609  0.2613  0.1460
 2501SOL    HW118962   2.665   2.200   7.643 -0.5096 -0.8643 -0.6407
 2501SOL    HW218963   2.563   2.176   7.752  0.4730  0.3359 -0.5820
 2502SOL     OW18964   2.889   1.677   5.192 -0.3680  0.3000  0.0564
 2502SOL    HW118965   2.855   1.756   5.150  1.8985  0.1420 -2.0956
 2502SOL    HW218966   2.975   1.667   5.151 -0.7009 -1.7420 -0.1277
 2503SOL     OW18967   4.325   0.689   4.274  0.0212 -0.4321 -0.1255
 2503SOL    HW118968   4.343   0.626   4.344 -0.7547 -2.4414 -1.7554
 2503SOL    HW218969   4.352   0.769   4.318  0.1067 -0.9814  0.8267
 2504SOL     OW18970   3.385   4.620  11.308  0.0469 -0.1600 -0.5889
 2504SOL    HW118971   3.333   4.662  11.376  1.4628 -0.2765  0.5794
 2504SOL    HW218972   3.370   4.682  11.237 -1.7932 -2.2242 -1.9669
 2505SOL     OW18973   3.303   4.031  13.572  0.1723 -0.7224  0.0769
 2505SOL    HW118974   3.290   3.974  13.647 -0.3757  0.6108  1.0039
 2505SOL    HW218975   3.293   3.983  13.490 -0.3202  0.1440 -0.3695
 2506SOL     OW18976   4.376   3.366   6.100  0.1396 -0.0971 -0.2468
 2506SOL    HW118977   4.386   3.456   6.069 -0.5115  0.2156  0.4524
 2506SOL    HW218978   4.396   3.325   6.016  2.7876  1.2898 -0.2715
 2507SOL     OW18979   2.266   0.774   7.501 -0.0774 -0.0322  0.0808
 2507SOL    HW118980   2.234   0.856   7.538 -1.0673 -0.9297  1.2195
 2507SOL    HW218981   2.220   0.764   7.417  0.4715 -0.7630 -0.1291
 2508SOL     OW18982   4.528   1.214   8.662 -0.3921 -0.1028  0.0490
 2508SOL    HW118983   4.546   1.295   8.614 -0.0424 -0.5487 -0.5828
 2508SOL    HW218984   4.461   1.248   8.720 -1.4796  0.7368 -1.6958
 2509SOL     OW18985   0.593   1.708   7.430  0.9206  0.3282  0.3502
 2509SOL    HW118986   0.682   1.673   7.422 -0.2019 -2.5053  0.1436
 2509SOL    HW218987   0.596   1.744   7.519  1.0700  0.1371  0.4245
 2510SOL     OW18988   2.814   3.594   8.802  0.2851  0.8793  0.0131
 2510SOL    HW118989   2.836   3.679   8.839  0.2551  0.9613 -0.1563
 2510SOL    HW218990   2.811   3.528   8.871  1.8276  1.2639  0.4418
 2511SOL     OW18991   3.882   0.441   9.134  0.5941 -0.4237 -0.2268
 2511SOL    HW118992   3.910   0.532   9.142 -2.2187  0.4811 -0.6310
 2511SOL    HW218993   3.810   0.450   9.071 -1.2192 -0.6464  1.7933
 2512SOL     OW18994   3.734   3.802  11.271  0.6336 -0.5525 -0.2825
 2512SOL    HW118995   3.654   3.833  11.229  0.5008 -0.1196  0.2939
 2512SOL    HW218996   3.710   3.797  11.363  0.4932 -2.1713 -0.4178
 2513SOL     OW18997   0.279   0.777   8.912  0.6089 -0.1565 -0.0743
 2513SOL    HW118998   0.208   0.726   8.950  0.1609 -0.4246 -1.2586
 2513SOL    HW218999   0.355   0.726   8.939  1.4352 -0.2943 -2.5690
 2514SOL     OW19000   2.335   3.633   0.029 -0.1731 -0.1902 -0.2252
 2514SOL    HW119001   2.368   3.688  17.667 -0.9972 -0.1102 -0.5475
 2514SOL    HW219002   2.382   3.675   0.101 -0.3738 -0.7407  0.2284
 2515SOL     OW19003   3.548   1.212  10.320  0.4290  0.2200 -0.0287
 2515SOL    HW119004   3.588   1.285  10.272 -2.1650  0.6315 -1.5680
 2515SOL    HW219005   3.491   1.182  10.249  2.0794  0.9881 -1.6831
 2516SOL     OW19006   2.830   2.995   2.541  0.4564 -0.3816  0.3474
 2516SOL    HW119007   2.746   3.010   2.499  0.5356 -2.2632 -0.4687
 2516SOL    HW219008   2.842   3.078   2.587 -1.5286  1.1922 -1.9708
 2517SOL     OW19009   0.324   1.539   1.077 -0.3431  0.1184 -0.4569
 2517SOL    HW119010   0.306   1.623   1.035  1.2646  1.0572  0.7246
 2517SOL    HW219011   0.302   1.472   1.012  0.2610 -0.9461  0.4407
 2518SOL     OW19012   0.003   2.405   0.738 -0.5539  0.1115 -0.1807
 2518SOL    HW119013   4.660   2.340   0.737 -0.0443 -0.4320 -1.1383
 2518SOL    HW219014   0.051   2.376   0.660 -0.1807 -1.2287  0.5408
 2519SOL     OW19015   4.423   0.294   1.898  0.2313 -0.0330  0.2443
 2519SOL    HW119016   4.450   0.242   1.974  0.1198  1.2224  1.1477
 2519SOL    HW219017   4.400   0.378   1.938  2.0596  1.1738 -1.2473
 2520SOL     OW19018   4.026   2.821   4.204  0.2322  0.0014 -0.0186
 2520SOL    HW119019   3.943   2.784   4.234 -0.6263  0.0739 -2.2643
 2520SOL    HW219020   4.080   2.746   4.182  0.8305  0.0410  1.3250
 2521SOL     OW19021   2.974   2.312   4.662  0.1385 -0.2567 -1.0516
 2521SOL    HW119022   2.964   2.402   4.632 -1.6185  0.3222  1.2428
 2521SOL    HW219023   3.027   2.311   4.741 -1.5788  0.1280  0.1001
 2522SOL     OW19024   3.760   1.305   7.127  0.5668 -0.3340 -0.7045
 2522SOL    HW119025   3.715   1.223   7.107  0.4199 -0.5104  0.3313
 2522SOL    HW219026   3.690   1.370   7.128  0.8946  0.0015  0.9414
 2523SOL     OW19027   0.841   1.890   3.509  0.0331 -0.0533 -0.5277
 2523SOL    HW119028   0.814   1.876   3.419 -1.3296  0.3378 -0.1823
 2523SOL    HW219029   0.752   1.905   3.541  0.1488  0.0395 -0.2441
 2524SOL     OW19030   0.597   0.272  14.831 -0.1869 -0.6409  0.5405
 2524SOL    HW119031   0.643   0.355  14.840  1.3339 -1.5721  1.2265
 2524SOL    HW219032   0.674   0.216  14.839 -0.2354 -0.4047  2.6611
 2525SOL     OW19033   2.231   1.259   6.501  0.2435  0.3319 -0.4011
 2525SOL    HW119034   2.151   1.208   6.512  0.9704 -0.6689  0.3287
 2525SOL    HW219035   2.222   1.339   6.553  0.7358  0.7290 -0.9204
 2526SOL     OW19036   2.507   2.662  13.808  0.0349 -0.0889 -0.6852
 2526SOL    HW119037   2.592   2.661  13.854 -1.1854  1.3121  1.6258
 2526SOL    HW219038   2.456   2.729  13.854  0.3478 -0.8843  0.8260
 2527SOL     OW19039   1.485   3.100   4.949  0.8869 -0.3735 -0.0497
 2527SOL    HW119040   1.551   3.125   4.884 -0.4225  0.7264 -0.9512
 2527SOL    HW219041   1.487   3.178   5.004 -2.3087 -0.0462 -0.3849
 2528SOL     OW19042   0.910   3.501   8.825 -0.0622  0.1743 -0.4051
 2528SOL    HW119043   0.877   3.454   8.749 -1.2804  0.0521  0.2024
 2528SOL    HW219044   0.948   3.431   8.879 -0.7207  1.7225  2.0838
 2529SOL     OW19045   2.502   3.435  15.593 -0.1943 -0.4522 -0.0095
 2529SOL    HW119046   2.557   3.508  15.620  0.9366 -2.4455  3.1152
 2529SOL    HW219047   2.480   3.456  15.502  0.4343 -1.6540 -0.4445
 2530SOL     OW19048   0.559   4.701   2.267 -0.2108 -0.1918 -0.3734
 2530SOL    HW119049   0.520   4.672   2.184  2.1183 -1.3203 -1.1019
 2530SOL    HW219050   0.625   0.036   2.235 -0.2068  0.5600  1.1329
 2531SOL     OW19051   3.947   0.171   9.607  0.0422 -0.0273  0.3123
 2531SOL    HW119052   3.936   0.264   9.588 -2.3234 -0.2862  0.4679
 2531SOL    HW219053   4.030   0.172   9.654  0.9926  1.7543 -1.3913
 2532SOL     OW19054   1.254   0.720   8.959 -0.9235 -0.4902 -0.2270
 2532SOL    HW119055   1.203   0.792   8.924  0.2652  0.4029 -0.1308
 2532SOL    HW219056   1.314   0.751   9.027 -0.9476  1.2133 -0.9867
 2533SOL     OW19057   2.669   3.649   4.806 -0.1204  0.3576  0.0127
 2533SOL    HW119058   2.728   3.620   4.737  0.6246  0.1810  0.7251
 2533SOL    HW219059   2.730   3.673   4.876  2.4181  0.6502 -2.2762
 2534SOL     OW19060   3.023   1.110   8.433 -0.1265  0.5569 -0.0364
 2534SOL    HW119061   3.036   1.204   8.417 -0.4441  0.5993 -0.0493
 2534SOL    HW219062   2.932   1.102   8.403  0.2221  0.0232 -0.9418
 2535SOL     OW19063   3.480   1.381   8.901 -0.5040  0.2579 -0.3755
 2535SOL    HW119064   3.528   1.302   8.925  0.0705  0.9098  0.5954
 2535SOL    HW219065   3.396   1.374   8.946 -1.0292  0.5767 -1.3077
 2536SOL     OW19066   0.501   0.720   0.864 -0.7917 -0.0027  0.4139
 2536SOL    HW119067   0.411   0.721   0.831 -0.2879 -1.2334 -0.9950
 2536SOL    HW219068   0.532   0.810   0.858  1.7386 -0.6805  3.7118
 2537SOL     OW19069   4.340   3.360   7.970  0.1702  0.2050  0.3101
 2537SOL    HW119070   4.380   3.296   8.028 -0.6505 -1.4018 -0.8778
 2537SOL    HW219071   4.252   3.321   7.963 -0.1828  1.0176  0.1943
 2538SOL     OW19072   2.812   0.208   7.370 -0.9929  0.3284  0.9290
 2538SOL    HW119073   2.724   0.188   7.401 -0.7922 -0.7045  0.8304
 2538SOL    HW219074   2.868   0.136   7.400 -0.8314 -0.4092 -1.1554
 2539SOL     OW19075   3.926   4.607   8.109 -0.2863 -0.0602  0.4426
 2539SOL    HW119076   3.940   4.678   8.172  1.6962  0.2196 -0.3270
 2539SOL    HW219077   3.966   4.539   8.164  0.3415  1.1569  1.4741
 2540SOL     OW19078   2.569   2.452   5.420 -0.2376  0.2260 -0.0627
 2540SOL    HW119079   2.520   2.518   5.372 -2.3402 -1.9485 -0.9467
 2540SOL    HW219080   2.499   2.394   5.450  1.0992 -0.4371  1.7340
 2541SOL     OW19081   0.425   2.041  14.826 -0.1261  0.1220 -0.1989
 2541SOL    HW119082   0.468   2.121  14.798  1.7400 -0.7815  0.1219
 2541SOL    HW219083   0.373   2.031  14.746 -1.0449  1.9008  0.1884
 2542SOL     OW19084   3.905   0.538  13.973  0.1521 -0.2771  0.2506
 2542SOL    HW119085   3.973   0.592  13.933  0.2118  0.8295  1.8501
 2542SOL    HW219086   3.867   0.602  14.033 -0.0580 -1.4338  1.3707
 2543SOL     OW19087   4.519   1.535   9.394 -0.2722  0.2400  0.1770
 2543SOL    HW119088   4.549   1.451   9.358 -1.1595 -0.0134  0.0309
 2543SOL    HW219089   4.538   1.601   9.327  0.1140 -0.3531 -0.2993
 2544SOL     OW19090   0.260   0.080  12.730 -0.1309  0.0658 -0.1580
 2544SOL    HW119091   0.214   0.079  12.814 -2.8984  0.3735 -1.6611
 2544SOL    HW219092   0.350   0.078  12.761 -0.7683  0.7736  1.7788
 2545SOL     OW19093   2.924   2.601   9.930 -0.3946 -0.4078  0.0160
 2545SOL    HW119094   2.840   2.636   9.903  0.6711  2.5654  0.6128
 2545SOL    HW219095   2.885   2.552  10.003  0.3322  0.2558  0.8463
 2546SOL     OW19096   2.753   1.903  15.800 -0.0179  0.0411 -0.4185
 2546SOL    HW119097   2.769   1.918  15.707  0.3948 -0.4894 -0.4271
 2546SOL    HW219098   2.671   1.950  15.819  1.7040  3.0357 -0.4556
 2547SOL     OW19099   0.645   3.147  11.717 -0.4069  0.7895 -0.6524
 2547SOL    HW119100   0.568   3.161  11.772 -0.1491 -1.7901  0.3780
 2547SOL    HW219101   0.608   3.088  11.651 -0.1234  1.6458 -1.5756
 2548SOL     OW19102   0.816   0.070   4.405  0.2715 -0.1074 -0.2454
 2548SOL    HW119103   0.763   0.087   4.482  1.3620 -0.6973  0.6335
 2548SOL    HW219104   0.801   4.707   4.378 -0.8631 -0.8002  2.7155
 2549SOL     OW19105   1.827   1.723   7.767 -0.4420 -0.3332  0.4576
 2549SOL    HW119106   1.851   1.637   7.801  3.1139  0.2740 -0.4481
 2549SOL    HW219107   1.911   1.751   7.730 -1.0194 -0.2088 -0.7425
 2550SOL     OW19108   2.085   1.808   7.659  0.3091 -0.0782 -0.4059
 2550SOL    HW119109   2.063   1.861   7.736  0.0433 -2.1433  0.9541
 2550SOL    HW219110   2.128   1.876   7.607  1.5666  0.3207  1.1219
 2551SOL     OW19111   4.329   2.509   0.772 -0.1909  0.0343 -0.5337
 2551SOL    HW119112   4.351   2.548   0.688 -0.9274  1.4115 -0.0887
 2551SOL    HW219113   4.389   2.559   0.827 -0.8343  0.6525 -0.3862
 2552SOL     OW19114   2.997   3.292   2.346  0.6775  0.4814 -0.1015
 2552SOL    HW119115   2.964   3.280   2.435  0.7949  1.3049  0.0539
 2552SOL    HW219116   2.919   3.307   2.293  0.8422 -1.1735 -0.8102
 2553SOL     OW19117   0.864   2.803   8.850  0.4844 -0.6526 -0.3622
 2553SOL    HW119118   0.897   2.795   8.939  0.1602  2.3811  0.0384
 2553SOL    HW219119   0.773   2.824   8.869  0.7778 -2.2767  2.8256
 2554SOL     OW19120   1.467   2.391   2.931 -0.1406  0.4075 -0.6562
 2554SOL    HW119121   1.398   2.457   2.920  0.7117  1.5273  0.6817
 2554SOL    HW219122   1.421   2.320   2.886  1.4444 -1.2459  0.3767
 2555SOL     OW19123   4.671   3.289  16.758  0.0440 -0.0974 -0.1312
 2555SOL    HW119124   4.595   3.343  16.782  0.6420  2.1661 -3.3528
 2555SOL    HW219125   4.634   3.214  16.713 -0.1031  0.7312 -1.3799
 2556SOL     OW19126   1.822   3.670   5.131 -0.3088 -0.1007  0.5593
 2556SOL    HW119127   1.904   3.711   5.105 -0.3012 -1.1096 -0.9912
 2556SOL    HW219128   1.762   3.694   5.060 -0.2833 -3.2533 -0.5355
 2557SOL     OW19129   4.522   4.650  12.010  0.0278 -0.3901  0.1856
 2557SOL    HW119130   4.478   4.720  11.961  2.2409  0.2152 -0.9011
 2557SOL    HW219131   4.590   4.626  11.947 -0.8357  0.7217 -1.1661
 2558SOL     OW19132   2.602   3.153  10.704 -0.1661  0.3048 -0.0512
 2558SOL    HW119133   2.580   3.216  10.772 -0.3986 -1.0204  1.1055
 2558SOL    HW219134   2.548   3.180  10.630 -1.3100 -2.0976 -0.0933
 2559SOL     OW19135   3.825   3.317  13.386 -0.9236  0.0984 -0.5618
 2559SOL    HW119136   3.777   3.293  13.307  3.5509 -1.0995 -2.9160
 2559SOL    HW219137   3.754   3.321  13.450 -0.5392  0.4391 -0.1641
 2560SOL     OW19138   1.665   1.443   0.358 -0.0000 -0.6084  0.2110
 2560SOL    HW119139   1.622   1.442   0.443  1.2019  2.1435  0.8349
 2560SOL    HW219140   1.699   1.354   0.369  2.5673  0.6253  2.2415
 2561SOL     OW19141   2.495   1.667   2.741  0.5557 -0.0245 -0.4004
 2561SOL    HW119142   2.492   1.677   2.836 -1.3582 -1.0913 -0.3437
 2561SOL    HW219143   2.576   1.711   2.713  0.5918  0.1909  0.0407
 2562SOL     OW19144   2.292   3.978   5.414 -0.3245 -0.4690  0.2157
 2562SOL    HW119145   2.248   3.892   5.411  0.2421 -0.8238  2.0219
 2562SOL    HW219146   2.270   4.027   5.335 -1.9145 -0.1991  0.8239
 2563SOL     OW19147   4.029   1.035   0.459 -0.5121  0.4903 -0.4160
 2563SOL    HW119148   3.952   1.008   0.509  1.1776  2.1653  3.1003
 2563SOL    HW219149   4.072   1.095   0.520 -1.5141 -0.0353  0.7842
 2564SOL     OW19150   3.308   3.387   8.719 -0.1440 -0.5730 -0.2529
 2564SOL    HW119151   3.304   3.400   8.625  2.6334  0.2438 -0.2768
 2564SOL    HW219152   3.332   3.295   8.733 -1.4024 -1.2505 -2.6564
 2565SOL     OW19153   2.294   2.793  14.588  0.3447  0.6339  0.1664
 2565SOL    HW119154   2.369   2.825  14.637  0.7761 -1.6294  1.0021
 2565SOL    HW219155   2.221   2.843  14.626  0.5693 -0.1680  1.6910
 2566SOL     OW19156   1.053   0.565  11.590  0.2907 -0.2753  0.1761
 2566SOL    HW119157   1.094   0.609  11.665 -0.2693 -0.1888  0.4295
 2566SOL    HW219158   0.976   0.619  11.573 -0.2084 -1.1638 -0.3969
 2567SOL     OW19159   1.130   2.816   2.615  0.2235  0.3198  0.1127
 2567SOL    HW119160   1.207   2.847   2.567  2.0780 -0.2935  2.6598
 2567SOL    HW219161   1.103   2.900   2.654  0.1075  0.6238 -0.6278
 2568SOL     OW19162   3.650   3.605   3.357 -0.1478  0.2711  0.5132
 2568SOL    HW119163   3.707   3.675   3.326 -0.6266  0.9128  1.0841
 2568SOL    HW219164   3.617   3.643   3.439  1.5271 -0.0250  1.3224
 2569SOL     OW19165   0.922   0.552   3.952  0.1839  0.0701  0.1457
 2569SOL    HW119166   0.960   0.605   4.022 -1.0647  1.5739 -0.3268
 2569SOL    HW219167   0.993   0.547   3.888 -1.8271 -1.5070 -1.9386
 2570SOL     OW19168   2.674   1.579   6.206  0.0125  0.6074  0.0103
 2570SOL    HW119169   2.739   1.510   6.219 -0.2624  0.4017  0.2909
 2570SOL    HW219170   2.611   1.527   6.156 -0.1707 -0.3654  1.2530
 2571SOL     OW19171   1.060   2.378   3.675 -0.1380  0.0597  0.2008
 2571SOL    HW119172   1.065   2.464   3.718 -0.8594  0.3781 -0.3518
 2571SOL    HW219173   1.087   2.418   3.592  2.0212  0.3343  1.0093
 2572SOL     OW19174   0.872   0.407   2.136 -0.0830  0.1976 -0.4301
 2572SOL    HW119175   0.917   0.411   2.052  2.7602  1.0841  1.1429
 2572SOL    HW219176   0.826   0.491   2.136  1.8027  1.2038 -3.0372
 2573SOL     OW19177   2.763   1.831   4.631 -0.7929  0.1979 -0.0475
 2573SOL    HW119178   2.831   1.895   4.652  1.3586 -1.0719 -3.2243
 2573SOL    HW219179   2.693   1.895   4.620 -1.9028 -1.2339 -1.3880
 2574SOL     OW19180   0.542   2.648   4.909 -0.1874  0.0983 -0.1977
 2574SOL    HW119181   0.572   2.691   4.989 -2.5263 -1.6393  1.6366
 2574SOL    HW219182   0.448   2.641   4.923 -0.2479  0.4662 -0.4376
 2575SOL     OW19183   3.948   1.850  16.889 -0.2136  0.0657 -0.4208
 2575SOL    HW119184   3.956   1.930  16.941  0.6417 -1.1478  1.3527
 2575SOL    HW219185   4.030   1.847  16.841  1.0703 -1.0082  1.8314
 2576SOL     OW19186   3.948   1.288   9.282 -0.7300  0.2056  0.6127
 2576SOL    HW119187   3.963   1.203   9.323 -1.9945  0.3719  1.4174
 2576SOL    HW219188   3.854   1.277   9.265 -0.3720 -0.1052 -1.1740
 2577SOL     OW19189   1.276   3.014  10.308 -0.0318  0.4120  0.9205
 2577SOL    HW119190   1.287   3.108  10.317  2.3827  0.1959  0.0104
 2577SOL    HW219191   1.227   2.985  10.386 -3.7856 -0.6653 -1.8046
 2578SOL     OW19192   3.631   2.833  14.845 -0.0107  0.4423  0.5680
 2578SOL    HW119193   3.611   2.745  14.812 -0.3541  0.7640 -0.0861
 2578SOL    HW219194   3.694   2.815  14.915 -1.0784  0.7242  1.5997
 2579SOL     OW19195   1.667   3.778  17.115 -0.8237 -0.3669  0.1357
 2579SOL    HW119196   1.573   3.757  17.119 -1.3903  1.8349 -1.0434
 2579SOL    HW219197   1.668   3.844  17.045 -0.7112 -3.3469 -2.6968
 2580SOL     OW19198   0.058   2.313   7.172 -0.1743 -0.6972  0.8527
 2580SOL    HW119199   0.096   2.381   7.227  0.7540  0.0085 -0.6430
 2580SOL    HW219200   0.130   2.283   7.116 -1.1198  0.1527 -0.8195
 2581SOL     OW19201   2.542   3.374   6.884  0.0502  0.3182 -0.1546
 2581SOL    HW119202   2.561   3.280   6.882 -2.5070 -0.1571 -1.3938
 2581SOL    HW219203   2.517   3.393   6.974  0.4899  0.2110 -0.0114
 2582SOL     OW19204   4.379   0.209   9.425  0.3048  0.0318  0.4910
 2582SOL    HW119205   4.370   0.172   9.513 -1.1015 -0.5637  0.0967
 2582SOL    HW219206   4.392   0.303   9.435  0.1212  0.2791 -1.5696
 2583SOL     OW19207   3.453   0.788   8.069 -0.4437  0.1430 -0.5197
 2583SOL    HW119208   3.507   0.747   8.137 -0.2378  1.6692  0.2456
 2583SOL    HW219209   3.449   0.882   8.087 -0.7085  0.2511 -1.1465
 2584SOL     OW19210   3.177   1.652  17.006  0.1150  0.1686  0.1476
 2584SOL    HW119211   3.220   1.737  17.002 -1.6104  1.0129 -0.9421
 2584SOL    HW219212   3.090   1.684  16.980 -0.0584 -1.3062 -1.1029
 2585SOL     OW19213   2.067   3.451   2.276  0.3980  0.6156  0.2103
 2585SOL    HW119214   2.073   3.481   2.367  2.2410 -0.6344  0.4939
 2585SOL    HW219215   2.006   3.514   2.237 -0.9131  0.7237  2.4497
 2586SOL     OW19216   4.510   0.877   2.057 -0.1661  0.0373  0.1620
 2586SOL    HW119217   4.425   0.879   2.014  0.2258  1.4525 -0.5357
 2586SOL    HW219218   4.553   0.821   1.993  1.6014  1.0060  0.4867
 2587SOL     OW19219   0.413   1.848   7.221 -0.1312  0.2948 -0.0084
 2587SOL    HW119220   0.448   1.804   7.298 -0.5416  0.1818  0.1133
 2587SOL    HW219221   0.477   1.827   7.153 -0.3260  0.4808 -0.2502
 2588SOL     OW19222   2.780   0.749   0.373  0.3352  0.1933 -0.3166
 2588SOL    HW119223   2.868   0.787   0.379  0.8976 -0.9391 -1.4642
 2588SOL    HW219224   2.784   0.700   0.291 -1.5253 -0.3228 -0.0962
 2589SOL     OW19225   4.557   1.953  15.055  0.4406  0.1238 -0.0623
 2589SOL    HW119226   4.465   1.980  15.064 -0.3805 -2.5748 -0.4798
 2589SOL    HW219227   4.549   1.858  15.045 -1.1823  0.0182  2.2296
 2590SOL     OW19228   3.261   3.793   2.515 -0.4523 -0.3507 -0.4830
 2590SOL    HW119229   3.218   3.871   2.480  1.3462  0.3567 -1.0984
 2590SOL    HW219230   3.181   3.759   2.556  0.9201 -2.0852  0.7694
 2591SOL     OW19231   0.930   0.277   5.385 -0.3698 -0.5812 -0.1707
 2591SOL    HW119232   0.884   0.309   5.307  2.1392  2.1157 -0.5231
 2591SOL    HW219233   1.003   0.338   5.384 -1.2024  0.4475  1.4529
 2592SOL     OW19234   3.917   0.220   5.144  1.0404  0.0870  0.4111
 2592SOL    HW119235   3.929   0.305   5.101  1.3655 -0.6669 -0.9826
 2592SOL    HW219236   3.885   0.237   5.232  0.5055  0.2701  0.1812
 2593SOL     OW19237   4.723   1.064   7.445 -0.5858 -0.5363 -0.1890
 2593SOL    HW119238   4.703   1.128   7.377 -0.3195  1.1879  1.3493
 2593SOL    HW219239   4.640   1.022   7.469 -1.3587  1.0332 -0.0790
 2594SOL     OW19240   1.670   0.571  10.211 -0.9069  0.4493 -0.4787
 2594SOL    HW119241   1.667   0.590  10.304  0.8478 -1.2007 -0.0920
 2594SOL    HW219242   1.755   0.528  10.202 -1.5905 -0.9529 -0.1513
 2595SOL     OW19243   2.993   2.167   3.712 -0.4920  0.2457 -0.4278
 2595SOL    HW119244   3.066   2.207   3.757 -0.5280  1.1295 -1.1551
 2595SOL    HW219245   2.925   2.183   3.777 -0.9592  0.1645 -0.8915
 2596SOL     OW19246   3.536   0.205   7.626 -0.4214  0.1478 -0.5169
 2596SOL    HW119247   3.465   0.263   7.655 -1.4867 -1.5709  0.2773
 2596SOL    HW219248   3.600   0.262   7.583 -1.8082  1.8505 -0.3573
 2597SOL     OW19249   0.369   4.382   6.973 -0.2071 -0.4497 -0.6419
 2597SOL    HW119250   0.458   4.416   6.983 -0.0878 -1.3978  1.4705
 2597SOL    HW219251   0.321   4.428   7.041 -0.6712 -0.3408 -1.0481
 2598SOL     OW19252   2.236   2.401   5.522 -0.0342  0.0200  0.2211
 2598SOL    HW119253   2.179   2.359   5.458  0.4647  1.9727 -1.5208
 2598SOL    HW219254   2.205   2.492   5.522 -0.0195  0.0261  0.3601
 2599SOL     OW19255   1.519   3.457   8.619  0.0672 -0.0610 -0.6909
 2599SOL    HW119256   1.526   3.521   8.549 -1.9704  2.2388  1.1996
 2599SOL    HW219257   1.577   3.386   8.592 -1.3815 -1.1789 -0.8494
 2600SOL     OW19258   4.649   3.350   3.853  0.3977  0.2237 -0.7188
 2600SOL    HW119259   4.654   3.403   3.773 -0.1601 -0.1617 -1.0093
 2600SOL    HW219260   4.555   3.331   3.850 -0.1019  2.5741 -0.2726
 2601SOL     OW19261   1.455   1.523  16.612  0.1503 -0.5967  0.2206
 2601SOL    HW119262   1.419   1.474  16.686 -0.8384  0.7153  0.6042
 2601SOL    HW219263   1.531   1.558  16.657 -0.3662  0.7328  0.0560
 2602SOL     OW19264   4.487   3.343   5.017 -0.4672  0.3204 -0.5859
 2602SOL    HW119265   4.393   3.344   5.001 -0.8089  2.6850  1.4007
 2602SOL    HW219266   4.502   3.254   5.049 -0.2577  0.2119 -0.9916
 2603SOL     OW19267   2.616   1.166   5.827 -0.0504  0.5885  0.0384
 2603SOL    HW119268   2.678   1.146   5.757 -2.3271 -2.7350 -1.0059
 2603SOL    HW219269   2.569   1.235   5.780 -1.2771 -1.3567 -1.6046
 2604SOL     OW19270   1.734   2.676   8.010  0.5193 -0.0781 -0.0232
 2604SOL    HW119271   1.775   2.729   8.078  3.2339 -0.4507 -1.3747
 2604SOL    HW219272   1.731   2.588   8.048  0.2780  0.1690  0.5381
 2605SOL     OW19273   2.433   2.857   4.505  0.2028  0.1293  0.2872
 2605SOL    HW119274   2.478   2.935   4.539  1.0443 -0.9499  1.6634
 2605SOL    HW219275   2.432   2.790   4.574 -1.9161 -0.1532 -0.0165
 2606SOL     OW19276   3.892   0.688   8.300  0.2609  0.8505 -0.3779
 2606SOL    HW119277   3.924   0.614   8.351 -2.6824 -0.1662 -0.0440
 2606SOL    HW219278   3.969   0.739   8.274 -0.4445  2.3670  0.4959
 2607SOL     OW19279   1.626   2.238   6.571  0.3304  0.2380 -0.2975
 2607SOL    HW119280   1.582   2.316   6.539  0.7529  1.0977  1.2066
 2607SOL    HW219281   1.664   2.203   6.490  2.5034  2.1405 -0.1066
 2608SOL     OW19282   1.867   2.868   8.176 -0.1327  0.4498 -0.3903
 2608SOL    HW119283   1.888   2.842   8.266 -3.6635  3.5167  1.2860
 2608SOL    HW219284   1.949   2.833   8.142  0.5203 -0.5108  2.1421
 2609SOL     OW19285   0.166   1.068   9.454  0.2167  0.4303  0.5994
 2609SOL    HW119286   0.086   1.118   9.439 -0.4778 -0.9437 -0.1889
 2609SOL    HW219287   0.145   0.990   9.404  0.4941  1.2147 -0.7279
 2610SOL     OW19288   3.790   2.604   2.532 -0.2742  0.2982 -0.1538
 2610SOL    HW119289   3.845   2.585   2.457  0.8046  0.6608  0.5449
 2610SOL    HW219290   3.802   2.697   2.550  0.6949  0.3776 -1.2144
 2611SOL     OW19291   3.587   3.268   4.066 -0.1504  0.5563 -0.0522
 2611SOL    HW119292   3.513   3.207   4.067  0.6659 -0.4306  0.0224
 2611SOL    HW219293   3.613   3.256   3.975 -0.8110 -3.3049  0.2781
 2612SOL     OW19294   3.229   0.341  17.295  0.2492  0.2420 -0.3974
 2612SOL    HW119295   3.188   0.265  17.254  0.3086 -0.7635  1.4088
 2612SOL    HW219296   3.275   0.374  17.219  1.4744  1.4293  0.8607
 2613SOL     OW19297   2.859   3.161   7.084  0.1266 -0.2300  0.2580
 2613SOL    HW119298   2.851   3.240   7.030  0.4617 -1.9486 -2.2779
 2613SOL    HW219299   2.808   3.187   7.161  0.1487  0.0581  0.1769
 2614SOL     OW19300   0.367   3.376   1.781  0.2795 -0.0978  0.2776
 2614SOL    HW119301   0.304   3.337   1.720 -0.8802  1.2510  0.6198
 2614SOL    HW219302   0.395   3.289   1.809 -1.5682 -0.2301  1.7363
 2615SOL     OW19303   4.147   4.403  14.352  0.4898  0.0877 -0.1450
 2615SOL    HW119304   4.217   4.355  14.308  1.1235  1.4875 -0.6824
 2615SOL    HW219305   4.087   4.333  14.374 -0.7323  0.7824 -1.2761
 2616SOL     OW19306   2.597   2.213   3.026  0.1999 -0.4032  0.3013
 2616SOL    HW119307   2.684   2.236   2.994  0.1620 -0.8246 -0.1083
 2616SOL    HW219308   2.583   2.123   2.997  2.2596 -0.3554 -0.8245
 2617SOL     OW19309   4.705   0.422   5.185  0.2108 -0.6125  0.1274
 2617SOL    HW119310   4.724   0.499   5.132 -0.7238 -0.1438  0.4545
 2617SOL    HW219311   0.029   0.446   5.262 -2.7856  0.0199  1.9424
 2618SOL     OW19312   2.168   2.052   9.871  0.7229  0.0025  0.0252
 2618SOL    HW119313   2.200   1.986   9.809  2.4200  0.0585  0.8289
 2618SOL    HW219314   2.199   2.016   9.954  0.8602 -1.5349 -0.6985
 2619SOL     OW19315   0.900   2.643   8.436  0.2210 -0.0218 -0.0448
 2619SOL    HW119316   0.958   2.638   8.360  1.0053 -0.9787  0.6176
 2619SOL    HW219317   0.820   2.610   8.396  0.3089 -0.3058  0.0130
 2620SOL     OW19318   0.706   1.919   8.250 -0.3436 -0.2037  0.2788
 2620SOL    HW119319   0.734   1.964   8.171 -1.2137 -1.1936 -0.5942
 2620SOL    HW219320   0.724   1.825   8.239  2.6001  0.5855 -1.5544
 2621SOL     OW19321   4.722   1.147   2.470  0.0209  0.0295 -0.0356
 2621SOL    HW119322   0.031   1.215   2.412  0.1157 -0.5877 -0.7011
 2621SOL    HW219323   4.631   1.173   2.460 -0.1153  0.0988  1.3363
 2622SOL     OW19324   4.656   0.167   9.699  0.6140 -0.4873 -0.1414
 2622SOL    HW119325   4.664   0.103   9.628  1.5575 -0.9693  0.3944
 2622SOL    HW219326   4.680   0.104   9.766  0.3074 -0.3854  0.0609
 2623SOL     OW19327   3.348   3.001  11.407 -0.0109 -0.2064 -0.1609
 2623SOL    HW119328   3.308   3.007  11.320 -0.5020 -1.9026 -0.0341
 2623SOL    HW219329   3.302   3.069  11.457  1.7607  0.0925  1.0435
 2624SOL     OW19330   1.002   3.114   4.671 -0.3853  0.3368  0.1406
 2624SOL    HW119331   0.928   3.059   4.646  0.1529 -0.6797  0.7990
 2624SOL    HW219332   0.968   3.159   4.748  1.5253 -0.1453  1.2719
 2625SOL     OW19333   2.680   3.445   2.613 -0.3855 -0.4147  0.0164
 2625SOL    HW119334   2.607   3.489   2.567 -0.6970  0.5072  1.3888
 2625SOL    HW219335   2.748   3.438   2.546 -2.4406  0.0526 -2.1717
 2626SOL     OW19336   2.054   2.637  16.752  0.2984 -1.0321  0.0002
 2626SOL    HW119337   2.133   2.677  16.790  0.2112  0.4613 -1.3715
 2626SOL    HW219338   1.995   2.638  16.827 -0.0815  0.3300 -0.3220
 2627SOL     OW19339   0.925   2.621   4.812  0.0935 -0.1376 -0.1908
 2627SOL    HW119340   0.984   2.545   4.818 -1.3655 -1.0157  2.6933
 2627SOL    HW219341   0.997   2.682   4.795  1.7111 -1.3947  2.2068
 2628SOL     OW19342   0.747   4.403   4.899  0.0196 -0.1633 -0.4008
 2628SOL    HW119343   0.746   4.331   4.962  1.5381 -1.3594 -1.7152
 2628SOL    HW219344   0.788   4.361   4.823  0.9797  0.5659 -0.2808
 2629SOL     OW19345   3.294   0.051   3.851  0.0206  0.2665 -0.0045
 2629SOL    HW119346   3.284   4.703   3.792 -0.7772 -0.3618  0.9222
 2629SOL    HW219347   3.205   0.086   3.851  0.4716  1.4224 -2.7260
 2630SOL     OW19348   4.726   1.516  12.610  0.1375 -0.1648  0.2070
 2630SOL    HW119349   0.029   1.427  12.591  0.4107  0.0083 -0.1745
 2630SOL    HW219350   4.690   1.494  12.696 -1.2780 -0.7753 -0.5375
 2631SOL     OW19351   0.377   4.611  16.375 -0.2750  0.1831  0.3138
 2631SOL    HW119352   0.380   4.654  16.290  0.6889  1.4105  0.9820
 2631SOL    HW219353   0.416   4.526  16.355 -1.0544  0.0224 -0.5116
 2632SOL     OW19354   3.912   2.131   5.477  0.2683 -0.2989  0.0627
 2632SOL    HW119355   3.947   2.182   5.404 -1.3018  1.5251  0.5720
 2632SOL    HW219356   3.818   2.147   5.485  0.2684 -0.2516 -0.0440
 2633SOL     OW19357   0.288   1.459   5.696  0.0613  0.1210 -0.3509
 2633SOL    HW119358   0.359   1.394   5.693 -1.1257 -1.1105 -1.3900
 2633SOL    HW219359   0.299   1.495   5.784 -0.5025  1.7299 -0.9382
 2634SOL     OW19360   3.295   1.032   9.137 -0.0199 -0.2514  0.2281
 2634SOL    HW119361   3.252   0.954   9.102 -0.8606  0.9570 -1.4126
 2634SOL    HW219362   3.286   1.015   9.231 -0.3956 -0.2689  0.1893
 2635SOL     OW19363   1.643   2.656   5.327 -0.0966 -0.3222  0.3422
 2635SOL    HW119364   1.735   2.637   5.348 -0.1594 -0.6877  0.2813
 2635SOL    HW219365   1.656   2.719   5.256  1.8358 -1.5533 -0.3932
 2636SOL     OW19366   2.468   3.955   3.793 -0.6186 -0.4830  0.6335
 2636SOL    HW119367   2.525   3.934   3.719 -1.9251 -0.5748 -0.3594
 2636SOL    HW219368   2.537   3.967   3.857  0.2891  0.0360 -0.4412
 2637SOL     OW19369   2.997   0.406   2.409  0.2697  0.6321  0.2603
 2637SOL    HW119370   3.039   0.337   2.358 -1.9980  0.9695 -2.0627
 2637SOL    HW219371   3.078   0.429   2.455  0.1190  0.2762  0.7043
 2638SOL     OW19372   3.225   4.689   8.272 -0.1478 -0.7751  0.1529
 2638SOL    HW119373   3.201   0.041   8.223  0.3736  0.1046  1.3069
 2638SOL    HW219374   3.138   4.655   8.292  1.1484 -3.5416  1.1100
 2639SOL     OW19375   4.560   1.471   8.983 -0.0506 -0.1040 -0.1413
 2639SOL    HW119376   4.595   1.534   8.920  1.5901 -0.3711  0.4989
 2639SOL    HW219377   4.470   1.477   8.952  0.5498 -0.6612 -1.9828
 2640SOL     OW19378   2.701   3.153   7.974  0.1257  0.6580 -0.3402
 2640SOL    HW119379   2.607   3.150   7.989 -0.1436  1.2698 -1.9013
 2640SOL    HW219380   2.730   3.189   8.058 -0.6100  1.1088 -0.2783
 2641SOL     OW19381   1.053   2.832  14.027  0.3956  0.4082 -0.2796
 2641SOL    HW119382   0.962   2.814  14.003  0.3022  0.6259 -0.0909
 2641SOL    HW219383   1.103   2.791  13.957 -1.3592  1.0193 -1.8920
 2642SOL     OW19384   2.884   4.502   3.904  0.0957  0.4690 -0.2593
 2642SOL    HW119385   2.870   4.514   3.810 -2.8557 -3.0372 -0.2495
 2642SOL    HW219386   2.866   4.588   3.943 -1.6161 -0.6431  1.3941
 2643SOL     OW19387   0.070   4.185   6.516  0.1456  0.1044  0.2702
 2643SOL    HW119388   0.112   4.211   6.598  2.5110  1.1617 -1.2869
 2643SOL    HW219389   0.105   4.097   6.503  0.5618  0.4397 -0.8562
 2644SOL     OW19390   1.523   2.832   5.027 -0.5026 -0.2704 -0.2687
 2644SOL    HW119391   1.575   2.800   4.953  0.1911 -0.0113  0.1137
 2644SOL    HW219392   1.508   2.922   4.997 -2.3644  0.2504  2.1963
 2645SOL     OW19393   1.265   0.418   6.261 -0.1172 -0.2606 -0.4641
 2645SOL    HW119394   1.231   0.451   6.177  0.9783 -0.1838 -0.8729
 2645SOL    HW219395   1.244   0.486   6.325  1.9152 -0.2072  0.1560
 2646SOL     OW19396   4.476   3.717  14.489 -0.0662  0.2514 -0.3561
 2646SOL    HW119397   4.516   3.778  14.427  0.7745  1.4698  1.4035
 2646SOL    HW219398   4.396   3.766  14.507  1.2198  1.4759  2.0010
 2647SOL     OW19399   0.342   1.098   7.781 -0.8475 -0.7478 -0.1973
 2647SOL    HW119400   0.286   1.158   7.831  1.4088 -0.5005  2.0547
 2647SOL    HW219401   0.402   1.087   7.855  1.3107  1.7197 -1.5664
 2648SOL     OW19402   1.886   1.844   8.337  0.4179 -0.0631  0.2012
 2648SOL    HW119403   1.851   1.769   8.287 -2.6080  1.6991 -0.3210
 2648SOL    HW219404   1.814   1.906   8.328  0.8376  0.4561  0.4511
 2649SOL     OW19405   0.905   1.244  13.315 -0.1063  0.1553 -0.1094
 2649SOL    HW119406   0.935   1.331  13.289 -1.6800  0.8423  0.3877
 2649SOL    HW219407   0.861   1.203  13.241 -1.1378  1.6897 -0.3588
 2650SOL     OW19408   1.698   0.566   4.198  0.1888  0.0935  0.1940
 2650SOL    HW119409   1.697   0.546   4.291  0.8069  1.4663  0.5053
 2650SOL    HW219410   1.713   0.482   4.156 -2.0816  0.0366 -0.4780
 2651SOL     OW19411   0.037   4.212   7.118 -0.2932 -0.1585 -0.0385
 2651SOL    HW119412   4.680   4.180   7.152  0.0497 -0.5131  0.4790
 2651SOL    HW219413   0.043   4.298   7.160  0.1798  0.2587 -0.9631
 2652SOL     OW19414   4.157   1.789  17.365  0.7940 -0.6418 -0.9143
 2652SOL    HW119415   4.138   1.860  17.304 -0.1705  1.1647  1.5117
 2652SOL    HW219416   4.195   1.724  17.306  0.0720 -0.9850 -1.0085
 2653SOL     OW19417   4.372   3.295   2.880 -0.2558 -0.1360 -0.1255
 2653SOL    HW119418   4.331   3.342   2.807 -1.0568 -0.4240  0.1297
 2653SOL    HW219419   4.294   3.284   2.935  0.5474 -1.0436  0.8344
 2654SOL     OW19420   3.742   2.389   9.300 -0.2476  0.2989  0.2869
 2654SOL    HW119421   3.792   2.458   9.344  0.1215  0.2622 -0.0725
 2654SOL    HW219422   3.654   2.426   9.290 -1.1417 -1.7681  0.5379
 2655SOL     OW19423   1.493   3.328   6.181 -0.1453  0.3065 -0.1049
 2655SOL    HW119424   1.586   3.339   6.161 -0.2030 -0.2602 -0.6629
 2655SOL    HW219425   1.450   3.406   6.147  0.7193  1.1987  0.8287
 2656SOL     OW19426   1.122   3.623   3.918 -0.4035  0.1819 -0.8496
 2656SOL    HW119427   1.161   3.586   3.838  1.1153  1.6613 -0.7999
 2656SOL    HW219428   1.117   3.539   3.964 -1.2105  0.8285  0.2264
 2657SOL     OW19429   1.974   3.549  13.494 -0.2051  0.1250 -0.3680
 2657SOL    HW119430   1.932   3.584  13.415  0.1876  2.4553  0.4504
 2657SOL    HW219431   1.908   3.487  13.526  0.1659 -0.3639 -0.5508
 2658SOL     OW19432   1.909   0.885   6.856  0.4946  0.7216 -0.1958
 2658SOL    HW119433   1.952   0.814   6.904 -0.1901  0.1955 -0.3627
 2658SOL    HW219434   1.822   0.889   6.897  1.0770  0.5108  1.0692
 2659SOL     OW19435   3.641   1.451   6.125  0.0427  0.6375  0.2740
 2659SOL    HW119436   3.612   1.378   6.180  1.7404  1.0651  1.7624
 2659SOL    HW219437   3.560   1.492   6.095 -0.1091  1.0035  1.1891
 2660SOL     OW19438   4.644   1.916   8.685  0.2201  0.1235  0.2052
 2660SOL    HW119439   4.597   1.997   8.667 -0.4254 -0.5251 -0.9854
 2660SOL    HW219440   0.005   1.946   8.710 -0.8978  2.3307  1.3751
 2661SOL     OW19441   4.592   1.389   7.972 -0.8109 -0.1068 -0.6256
 2661SOL    HW119442   4.601   1.464   7.912  0.0501  0.2168 -0.0914
 2661SOL    HW219443   4.571   1.320   7.908  1.4243 -0.4046 -1.0309
 2662SOL     OW19444   0.074   2.885  12.440 -0.0242 -0.0260 -0.4084
 2662SOL    HW119445   0.146   2.830  12.470 -1.5060 -0.6579  1.9274
 2662SOL    HW219446   0.039   2.815  12.385 -0.3022 -1.3385  1.4655
 2663SOL     OW19447   1.999   0.463   7.550 -0.2737  0.2541 -0.0381
 2663SOL    HW119448   1.916   0.482   7.507 -0.1793 -1.2346 -0.8834
 2663SOL    HW219449   1.983   0.378   7.590 -0.6145  0.1030 -0.5058
 2664SOL     OW19450   1.937   0.639   7.771  0.6572 -0.2828  0.8474
 2664SOL    HW119451   1.943   0.602   7.683  1.5780 -1.1997  1.3024
 2664SOL    HW219452   1.847   0.614   7.794  0.2754 -1.7162 -2.1691
 2665SOL     OW19453   3.199   1.396   8.433 -0.7698 -0.0995  0.4376
 2665SOL    HW119454   3.202   1.442   8.518  0.2683 -0.3355  0.5345
 2665SOL    HW219455   3.110   1.417   8.406 -0.1002  1.1523 -0.7981
 2666SOL     OW19456   3.006   0.864   5.190 -0.8822 -0.5145 -0.3860
 2666SOL    HW119457   2.965   0.910   5.263 -0.6360  0.1721 -0.6785
 2666SOL    HW219458   2.952   0.786   5.203 -3.0705  0.8727 -1.1070
 2667SOL     OW19459   3.582   3.580   4.357  0.0756  0.0542 -0.4035
 2667SOL    HW119460   3.673   3.572   4.385 -0.1192  1.1308  0.5357
 2667SOL    HW219461   3.546   3.492   4.372 -0.9909  0.4377 -0.7700
 2668SOL     OW19462   3.983   2.499   8.482 -0.0381 -0.2301 -0.0220
 2668SOL    HW119463   3.889   2.509   8.464 -0.4237  1.3536  2.8342
 2668SOL    HW219464   4.008   2.431   8.420 -2.1745 -0.5438 -0.5446
 2669SOL     OW19465   4.279   1.985   1.029 -0.0298  0.3539  0.3394
 2669SOL    HW119466   4.233   2.051   1.081  0.3412  1.2593 -0.4829
 2669SOL    HW219467   4.367   2.017   1.012 -0.6578  1.1456 -1.4075
 2670SOL     OW19468   1.452   2.079   6.240  0.7579  0.2822  0.0833
 2670SOL    HW119469   1.444   1.984   6.250 -0.8269  0.2132 -1.7393
 2670SOL    HW219470   1.445   2.083   6.145 -0.9881  2.5986  0.3004
 2671SOL     OW19471   1.003   0.286  14.155  0.5183  0.4084  0.0370
 2671SOL    HW119472   0.980   0.324  14.070  1.1666 -0.2589 -0.4339
 2671SOL    HW219473   1.000   0.362  14.213  1.1511 -0.2343  0.9043
 2672SOL     OW19474   1.082   3.816   3.174 -0.2028 -0.5361  0.2507
 2672SOL    HW119475   1.161   3.854   3.137 -1.4578  0.3104 -1.6075
 2672SOL    HW219476   1.014   3.871   3.134  0.0037 -0.9561 -0.6772
 2673SOL     OW19477   3.030   3.273  17.308  0.3222 -0.1227  0.3881
 2673SOL    HW119478   2.944   3.235  17.289  0.3452  1.1540 -2.3142
 2673SOL    HW219479   3.071   3.216  17.372  0.0145 -1.5100 -0.6476
 2674SOL     OW19480   3.777   2.340   1.205  0.8957 -0.0021  0.1765
 2674SOL    HW119481   3.722   2.301   1.138  0.8316  2.2162 -1.0779
 2674SOL    HW219482   3.846   2.385   1.156  0.1387 -1.6130 -2.3396
 2675SOL     OW19483   3.030   1.046  17.268 -0.0419  0.2792 -0.0423
 2675SOL    HW119484   3.120   1.020  17.291  0.6089  1.5425 -1.1311
 2675SOL    HW219485   2.984   0.985  17.325  2.8484 -2.4165 -0.5588
 2676SOL     OW19486   0.949   0.481  13.634 -0.4830  0.7734 -0.6325
 2676SOL    HW119487   0.903   0.416  13.582  1.9508 -1.3380 -0.1652
 2676SOL    HW219488   0.978   0.538  13.563  1.3478  0.4494 -0.1671
 2677SOL     OW19489   0.746   0.007   6.649  0.3113 -0.7348 -0.2358
 2677SOL    HW119490   0.797   0.057   6.712  1.0606  1.2721 -2.4274
 2677SOL    HW219491   0.821   4.694   6.603 -0.6023 -0.5795 -1.8825
 2678SOL     OW19492   1.754   1.839  14.969 -0.2392 -0.0863  0.0284
 2678SOL    HW119493   1.798   1.754  14.967 -1.7681 -0.8375 -1.4354
 2678SOL    HW219494   1.814   1.894  15.020 -0.2515 -0.8063  0.8061
 2679SOL     OW19495   1.794   4.377  13.395 -0.3211 -0.6457 -0.3344
 2679SOL    HW119496   1.789   4.471  13.380 -1.2812 -0.6649 -0.1244
 2679SOL    HW219497   1.822   4.378  13.487  1.0179 -1.2228 -0.7383
 2680SOL     OW19498   4.179   2.993   3.613  0.7482 -0.6478 -0.4369
 2680SOL    HW119499   4.150   3.074   3.655  0.8181 -1.5790  1.3997
 2680SOL    HW219500   4.266   3.016   3.580  0.5059  1.3294  0.3083
 2681SOL     OW19501   4.081   1.341  15.388  0.4560  0.2410  0.7194
 2681SOL    HW119502   4.167   1.334  15.428  2.3298  1.4374 -3.0642
 2681SOL    HW219503   4.092   1.282  15.313 -0.8107 -0.8366  1.3813
 2682SOL     OW19504   3.790   0.876   2.005 -0.3267 -0.2366 -0.2419
 2682SOL    HW119505   3.838   0.794   2.013  0.3407  0.2917  1.1170
 2682SOL    HW219506   3.840   0.928   1.942  0.7183 -1.2970 -0.2992
 2683SOL     OW19507   1.641   2.879   7.099  0.4341  0.6289  0.0425
 2683SOL    HW119508   1.629   2.786   7.121  1.8233  0.7194  1.1993
 2683SOL    HW219509   1.710   2.859   7.036 -0.2971  0.9629 -0.8536
 2684SOL     OW19510   0.208   1.636   3.401 -0.1724 -0.4532 -0.3350
 2684SOL    HW119511   0.187   1.652   3.309 -0.0696  2.7201  0.1922
 2684SOL    HW219512   0.233   1.721   3.436 -0.5015 -0.1357 -0.8800
 2685SOL     OW19513   2.213   3.429   3.869  0.2401  0.1093  0.4259
 2685SOL    HW119514   2.137   3.371   3.866  0.4672 -0.1324 -0.6171
 2685SOL    HW219515   2.170   3.515   3.866 -0.4937 -0.2266  1.1862
 2686SOL     OW19516   1.558   3.253   0.789  0.0405  0.5565  0.1601
 2686SOL    HW119517   1.571   3.191   0.717  0.7688 -0.1149  0.8550
 2686SOL    HW219518   1.563   3.335   0.741  0.4511  1.0589  1.0568
 2687SOL     OW19519   0.744   4.122   3.754  0.3662 -0.0901 -0.1443
 2687SOL    HW119520   0.808   4.133   3.685 -0.3050 -0.9822 -0.9129
 2687SOL    HW219521   0.792   4.139   3.835 -2.0736 -1.8791  1.7052
 2688SOL     OW19522   2.493   1.334   8.950 -0.0351  0.1318 -0.7378
 2688SOL    HW119523   2.501   1.330   9.045  0.1691 -3.0141 -0.8749
 2688SOL    HW219524   2.496   1.429   8.939 -0.2728  0.1618 -0.5561
 2689SOL     OW19525   2.874   1.566   3.223  0.1900 -1.2105 -0.5917
 2689SOL    HW119526   2.913   1.479   3.210 -1.0696 -1.6911 -1.0634
 2689SOL    HW219527   2.827   1.570   3.140  0.2429 -0.0225 -0.5586
 2690SOL     OW19528   2.861   4.009  16.651  0.1540  0.0573  0.0070
 2690SOL    HW119529   2.940   3.955  16.654 -0.0071 -0.2742 -1.5370
 2690SOL    HW219530   2.881   4.058  16.571 -1.1517 -1.3528 -1.1844
 2691SOL     OW19531   1.635   0.178   5.781  0.0652  0.3191  0.0164
 2691SOL    HW119532   1.668   0.098   5.740 -0.2994 -0.0591  0.4683
 2691SOL    HW219533   1.613   0.240   5.711 -0.9422  2.0180  1.8491
 2692SOL     OW19534   0.945   1.555   2.351 -0.6056  0.5206 -0.5658
 2692SOL    HW119535   1.016   1.497   2.324 -0.6911 -0.4127  1.2398
 2692SOL    HW219536   0.873   1.496   2.371 -0.7609  0.8079 -0.2721
 2693SOL     OW19537   4.626   3.803  16.533 -0.3978 -0.3316  0.4017
 2693SOL    HW119538   4.636   3.849  16.449  1.0753  0.1305  0.8281
 2693SOL    HW219539   4.625   3.709  16.516 -0.8189 -0.3745  0.6761
 2694SOL     OW19540   3.073   3.310   4.695  0.0385  0.1461 -0.1808
 2694SOL    HW119541   3.059   3.301   4.789 -0.9516  1.5531 -0.1956
 2694SOL    HW219542   3.040   3.224   4.668  1.1115 -0.4656  0.4408
 2695SOL     OW19543   3.287   2.111  16.829  0.0489 -0.0018  0.2210
 2695SOL    HW119544   3.235   2.146  16.757  2.3362  0.6064 -1.1312
 2695SOL    HW219545   3.340   2.187  16.852 -0.3606  0.1720  0.5924
 2696SOL     OW19546   2.662   4.113   9.909 -0.1596 -0.2907  0.3012
 2696SOL    HW119547   2.717   4.042   9.944  0.3901  0.5709  1.2001
 2696SOL    HW219548   2.732   4.177   9.900  0.0490 -0.1518  2.6948
 2697SOL     OW19549   2.499   1.939   3.002 -0.9976 -0.3066 -0.0758
 2697SOL    HW119550   2.454   1.859   3.028 -0.9216 -0.2027  0.3921
 2697SOL    HW219551   2.459   1.956   2.917  0.7432 -0.1014 -0.8626
 2698SOL     OW19552   1.452   1.071   6.635  0.1517  0.4686 -0.2446
 2698SOL    HW119553   1.387   1.029   6.692  0.4347  2.1263  1.2968
 2698SOL    HW219554   1.440   1.021   6.554 -1.5472 -0.5777  0.6570
 2699SOL     OW19555   0.959   3.684   8.636  0.4004 -0.0678 -0.6874
 2699SOL    HW119556   1.010   3.755   8.675  1.1021 -0.5719 -0.6878
 2699SOL    HW219557   0.928   3.633   8.711 -2.5714  1.8360 -0.6206
 2700SOL     OW19558   2.416   3.296   4.653 -0.2642  0.0613 -0.0776
 2700SOL    HW119559   2.481   3.350   4.607  1.0138 -0.7563  0.7759
 2700SOL    HW219560   2.343   3.358   4.661 -1.1396 -0.5962 -3.1539
 2701SOL     OW19561   1.658   1.781   5.637 -0.3902 -0.3004 -0.5115
 2701SOL    HW119562   1.588   1.762   5.575 -0.4848 -2.1920  0.1719
 2701SOL    HW219563   1.649   1.714   5.705 -0.0472  0.6511  0.4789
 2702SOL     OW19564   2.203   0.449   5.911 -0.5515 -0.6143 -0.1058
 2702SOL    HW119565   2.156   0.387   5.856 -0.5861  0.1316 -0.9283
 2702SOL    HW219566   2.259   0.491   5.845 -0.3175 -1.9626 -0.7644
 2703SOL     OW19567   4.074   1.652  10.835  0.1088 -0.2177  0.0182
 2703SOL    HW119568   4.136   1.722  10.852 -2.0019  1.4679  0.7710
 2703SOL    HW219569   4.017   1.697  10.773 -0.1505  0.9367  1.0855
 2704SOL     OW19570   0.424   3.553   7.054  0.2740  0.4118 -0.0771
 2704SOL    HW119571   0.444   3.575   7.145 -3.1762  1.0171  0.5425
 2704SOL    HW219572   0.494   3.596   7.006 -0.2577  0.8653 -0.4482
 2705SOL     OW19573   0.660   1.118   0.163 -0.1210  0.4142  0.0801
 2705SOL    HW119574   0.751   1.133   0.186  0.3280  1.3967 -2.3390
 2705SOL    HW219575   0.632   1.091   0.250  2.9712 -1.4891  0.4527
 2706SOL     OW19576   3.181   0.036   9.870  0.0042  0.4376 -0.3759
 2706SOL    HW119577   3.242   4.691   9.885 -1.5913 -1.3895 -2.5160
 2706SOL    HW219578   3.178   0.072   9.958 -1.4192 -0.9201  0.1381
 2707SOL     OW19579   3.286   3.105   3.507 -0.3918 -0.1631 -0.0244
 2707SOL    HW119580   3.344   3.047   3.458  0.9470  0.6084  0.6411
 2707SOL    HW219581   3.347   3.179   3.510 -2.2917  1.4154  0.3301
 2708SOL     OW19582   0.920   3.453   0.934  0.0110 -0.3271 -0.7232
 2708SOL    HW119583   0.944   3.379   0.990 -2.0978 -0.2934  0.2333
 2708SOL    HW219584   1.003   3.491   0.904 -0.0853 -1.5244 -2.5071
 2709SOL     OW19585   3.301   0.968  12.475  0.1410  0.2130 -0.2088
 2709SOL    HW119586   3.385   0.937  12.509  0.8340  0.2080 -1.9195
 2709SOL    HW219587   3.251   0.958  12.556  1.1357 -3.1878  0.0071
 2710SOL     OW19588   2.993   2.667   3.096  0.2024 -0.1833  0.5558
 2710SOL    HW119589   2.950   2.752   3.104  0.9582  0.0336  2.3024
 2710SOL    HW219590   3.056   2.679   3.025 -0.9173 -0.2662 -0.4572
 2711SOL     OW19591   2.319   2.603  13.338  0.5013  0.2695  0.2498
 2711SOL    HW119592   2.320   2.515  13.301  0.4349  0.3215  0.1274
 2711SOL    HW219593   2.246   2.643  13.291  1.0495 -0.1609 -0.9689
 2712SOL     OW19594   0.761   3.353   6.185  0.4277  0.2964 -0.1083
 2712SOL    HW119595   0.703   3.421   6.218  2.9314  2.5781 -0.3882
 2712SOL    HW219596   0.723   3.325   6.102  0.8002  1.6552 -0.7491
 2713SOL     OW19597   1.680   4.206   1.888  0.4460  0.1688 -0.4445
 2713SOL    HW119598   1.754   4.155   1.919 -1.3617 -2.7819 -0.9812
 2713SOL    HW219599   1.688   4.188   1.795  1.4618  0.1841 -0.3546
 2714SOL     OW19600   0.451   1.623   2.306  0.0837 -0.1065  0.0073
 2714SOL    HW119601   0.389   1.610   2.235  0.7734 -1.6033 -0.3196
 2714SOL    HW219602   0.470   1.532   2.328  1.7009 -0.2187 -1.7792
 2715SOL     OW19603   4.636   4.570   9.289 -0.2275  0.0162 -0.7139
 2715SOL    HW119604   4.711   4.518   9.260  0.2994  0.4501 -0.1229
 2715SOL    HW219605   4.656   4.610   9.374 -2.2500 -0.4636 -0.0026
 2716SOL     OW19606   4.216   2.841   7.619 -0.3569 -0.2633  0.0754
 2716SOL    HW119607   4.240   2.754   7.587  0.3172  0.2996 -0.9431
 2716SOL    HW219608   4.170   2.873   7.541  0.6485  0.6169 -0.1564
 2717SOL     OW19609   4.046   2.236  17.594  0.3443  0.2884  0.0945
 2717SOL    HW119610   4.008   2.234  17.681  0.5008 -0.5536  0.1418
 2717SOL    HW219611   4.113   2.169  17.602  1.2010  1.0178 -0.9241
 2718SOL     OW19612   4.615   0.313   4.469 -0.0700  0.7867  0.8488
 2718SOL    HW119613   4.621   0.241   4.406  0.2032  1.6825 -0.1350
 2718SOL    HW219614   4.686   0.372   4.443 -0.0104  0.2640 -0.1567
 2719SOL     OW19615   2.938   4.721   6.751 -0.0628  0.6567 -0.1706
 2719SOL    HW119616   2.925   4.629   6.726 -0.5396  1.0497 -1.3818
 2719SOL    HW219617   2.958   4.719   6.844 -1.7322  0.2741  0.1801
 2720SOL     OW19618   3.183   4.694  12.896  0.2694 -0.2311  0.4115
 2720SOL    HW119619   3.131   4.616  12.913  3.3886 -2.2121  0.8372
 2720SOL    HW219620   3.202   4.693  12.802  0.5526  1.0565  0.4428
 2721SOL     OW19621   3.427   0.396   9.931  0.3693 -0.1879 -0.5247
 2721SOL    HW119622   3.492   0.398   9.860  1.7926  1.7361  0.8378
 2721SOL    HW219623   3.351   0.412   9.875 -0.3537 -2.5284 -0.2031
 2722SOL     OW19624   3.975   0.547  12.554  0.5092 -0.4592  0.1922
 2722SOL    HW119625   4.035   0.617  12.580  0.2245 -0.9836  2.2477
 2722SOL    HW219626   3.930   0.529  12.637  0.4309 -0.3859  0.1650
 2723SOL     OW19627   4.475   3.164  16.621  0.5629  0.2381  0.2204
 2723SOL    HW119628   4.468   3.069  16.612  1.2387  0.1488  0.6417
 2723SOL    HW219629   4.491   3.182  16.528 -4.2832  1.0615 -0.4250
 2724SOL     OW19630   0.778   3.910   5.115  0.3360 -0.0256 -0.1287
 2724SOL    HW119631   0.726   3.885   5.191 -0.5470  0.7984 -0.4715
 2724SOL    HW219632   0.859   3.859   5.126 -0.2435 -0.4458  2.1013
 2725SOL     OW19633   1.858   0.965   1.650  0.3514 -0.0316 -0.0813
 2725SOL    HW119634   1.779   1.018   1.641  1.5382  1.7128 -0.3426
 2725SOL    HW219635   1.836   0.874   1.667 -2.6994  0.7585  0.2103
 2726SOL     OW19636   2.398   3.304  12.641 -0.6939 -0.7392 -0.0593
 2726SOL    HW119637   2.348   3.290  12.560 -1.1227 -3.0796  0.6252
 2726SOL    HW219638   2.486   3.296  12.604 -0.6987 -1.9129  0.1738
 2727SOL     OW19639   4.602   2.418   5.109  0.0675 -0.3310  0.7811
 2727SOL    HW119640   4.591   2.374   5.194 -1.5053 -1.5381 -0.0447
 2727SOL    HW219641   4.514   2.400   5.076  0.4984  1.3927 -1.2752
 2728SOL     OW19642   4.640   3.986   6.863  0.3711  0.6932  0.4749
 2728SOL    HW119643   4.554   3.963   6.897 -0.8704  4.0916 -0.3680
 2728SOL    HW219644   4.655   4.059   6.923 -0.1129  0.8974  0.3496
 2729SOL     OW19645   4.470   2.179   5.971 -0.1018  0.1696  0.7432
 2729SOL    HW119646   4.480   2.085   5.985 -3.0607 -0.2222  0.2811
 2729SOL    HW219647   4.376   2.194   5.982 -0.3484 -0.7507 -0.1980
 2730SOL     OW19648   1.794   1.611   6.376  0.3456  0.3532 -0.2855
 2730SOL    HW119649   1.753   1.634   6.459 -1.6113 -1.3904 -0.7718
 2730SOL    HW219650   1.762   1.684   6.323  2.3909  0.2014 -1.7527
 2731SOL     OW19651   3.428   0.283   2.279 -0.3757 -0.3871 -0.1936
 2731SOL    HW119652   3.492   0.212   2.283  0.0363  0.0749  1.7694
 2731SOL    HW219653   3.479   0.361   2.256  1.6511 -1.4272  0.7709
 2732SOL     OW19654   2.556   0.741   3.736  0.2557  0.1126  0.7407
 2732SOL    HW119655   2.623   0.782   3.683 -0.7799  2.2804  1.1096
 2732SOL    HW219656   2.547   0.661   3.685  2.9968 -1.2353  2.3556
 2733SOL     OW19657   0.614   2.547   5.520 -0.6336  0.0357  0.2404
 2733SOL    HW119658   0.572   2.488   5.583 -0.4058 -1.5667 -1.1196
 2733SOL    HW219659   0.624   2.497   5.440  0.3949  2.2927 -1.0407
 2734SOL     OW19660   1.365   0.554   2.322  0.1482 -0.0879 -0.2952
 2734SOL    HW119661   1.361   0.626   2.259  0.8145  0.5415  0.3848
 2734SOL    HW219662   1.459   0.552   2.339  0.0592 -0.0131  0.1974
 2735SOL     OW19663   1.543   3.184   8.840 -0.0273  0.0196  0.1689
 2735SOL    HW119664   1.449   3.198   8.829  0.3259  2.8485  0.7818
 2735SOL    HW219665   1.544   3.156   8.932  1.2070 -0.7919 -0.0872
 2736SOL     OW19666   1.347   4.704   1.399  0.5102 -0.0951 -0.4047
 2736SOL    HW119667   1.355   4.623   1.450 -0.4436 -1.3061 -2.1625
 2736SOL    HW219668   1.380   0.036   1.466 -0.2448 -2.0671  1.6773
 2737SOL     OW19669   4.388   4.314   3.998 -0.3756 -0.1820 -0.1008
 2737SOL    HW119670   4.378   4.225   4.031 -2.2583 -0.0176 -0.2292
 2737SOL    HW219671   4.436   4.359   4.068 -1.2530 -0.2442  0.5336
 2738SOL     OW19672   3.691   0.068   5.170 -0.1659  0.7311 -0.3471
 2738SOL    HW119673   3.631   0.091   5.240  0.5334 -0.4445  0.6356
 2738SOL    HW219674   3.780   0.082   5.201 -0.5836  0.7777  0.8272
 2739SOL     OW19675   3.409   0.498  14.600  0.1497 -0.2046 -0.2211
 2739SOL    HW119676   3.318   0.492  14.630  0.3574 -1.1869  0.2028
 2739SOL    HW219677   3.428   0.404  14.596 -0.3081 -0.2789 -0.6471
 2740SOL     OW19678   0.263   1.405   2.562 -1.1123  0.4756 -0.1318
 2740SOL    HW119679   0.299   1.364   2.483 -0.0553  2.3220 -0.6260
 2740SOL    HW219680   0.194   1.345   2.588  1.0652 -1.6921  0.7011
 2741SOL     OW19681   2.821   3.451   6.013 -0.3298  0.2632 -0.1443
 2741SOL    HW119682   2.829   3.401   5.932 -2.4113  0.6357 -0.5534
 2741SOL    HW219683   2.770   3.518   5.969  1.1194  0.7624 -1.0834
 2742SOL     OW19684   2.743   3.465   7.086  0.3873 -0.0320 -0.4233
 2742SOL    HW119685   2.660   3.483   7.131 -1.0328 -2.4123 -2.1212
 2742SOL    HW219686   2.723   3.466   6.992  1.6207  1.1153 -0.6731
 2743SOL     OW19687   0.971   1.771   0.978 -0.0017  0.6424 -0.6352
 2743SOL    HW119688   1.047   1.830   0.983  1.2325 -1.1010  1.2468
 2743SOL    HW219689   0.990   1.728   0.895  2.0712  0.2998 -0.0049
 2744SOL     OW19690   2.030   0.323   3.315  0.1566 -0.5068 -0.3113
 2744SOL    HW119691   2.083   0.402   3.317  0.4660 -0.7447  1.3440
 2744SOL    HW219692   1.951   0.346   3.266  0.7870  1.0371 -0.5971
 2745SOL     OW19693   3.096   2.597  10.601  0.4311 -0.3591  0.1728
 2745SOL    HW119694   3.153   2.667  10.634 -0.4877  0.0055  0.9694
 2745SOL    HW219695   3.121   2.522  10.654  0.7876  0.3909  1.0692
 2746SOL     OW19696   2.485   3.418   2.220  0.0399  0.0443  0.3089
 2746SOL    HW119697   2.424   3.351   2.252 -0.2557  1.7332  3.2527
 2746SOL    HW219698   2.467   3.482   2.289  0.3538  0.0259  0.4099
 2747SOL     OW19699   3.604   1.034   4.171  0.0394 -0.0041 -0.7080
 2747SOL    HW119700   3.588   0.940   4.177 -1.4353  0.1744 -1.7737
 2747SOL    HW219701   3.600   1.042   4.076  0.2801  0.9933 -0.6291
 2748SOL     OW19702   1.994   2.105   8.062 -0.4979 -0.1493 -0.4164
 2748SOL    HW119703   2.086   2.105   8.090 -0.3864  0.7409 -0.7561
 2748SOL    HW219704   1.952   2.120   8.146  1.7715 -1.0086  0.8851
 2749SOL     OW19705   2.037   4.398   8.625 -0.2024 -0.2341  0.3195
 2749SOL    HW119706   1.973   4.351   8.571  0.3201 -2.1737  1.3811
 2749SOL    HW219707   2.058   4.469   8.564  0.3709  0.5652  1.4436
 2750SOL     OW19708   2.295   2.909   6.044  0.1216 -0.1554 -0.4680
 2750SOL    HW119709   2.314   2.971   5.973  0.6047  2.3533  1.8274
 2750SOL    HW219710   2.322   2.822   6.015 -1.2487 -0.7781  0.1468
 2751SOL     OW19711   4.289   1.960   8.124  0.1927  0.9262 -0.1267
 2751SOL    HW119712   4.202   1.970   8.086 -0.3216 -0.4610  0.7024
 2751SOL    HW219713   4.342   1.921   8.054 -0.5047 -2.2449  1.1520
 2752SOL     OW19714   4.000   0.481  17.375  0.2439 -0.1245  0.4591
 2752SOL    HW119715   4.055   0.490  17.453  2.0348  1.1376 -0.9425
 2752SOL    HW219716   3.966   0.392  17.386 -0.8561  0.4324  1.4681
 2753SOL     OW19717   2.903   4.346  15.024  0.1355 -0.6605  0.2368
 2753SOL    HW119718   2.816   4.384  15.010  0.9218  1.1764  0.3307
 2753SOL    HW219719   2.896   4.296  15.105 -2.4011  0.9315  1.0263
 2754SOL     OW19720   4.234   1.639   8.265 -0.2907 -0.4276  0.0591
 2754SOL    HW119721   4.261   1.655   8.175  2.8454 -1.7160  0.7888
 2754SOL    HW219722   4.222   1.544   8.265  1.9663 -0.7007  1.1008
 2755SOL     OW19723   4.089   0.132   7.576  0.1813  0.0309 -0.0996
 2755SOL    HW119724   4.038   0.073   7.632 -0.4527  2.5711  2.0342
 2755SOL    HW219725   4.177   0.137   7.613 -0.4403  1.7768  1.1807
 2756SOL     OW19726   4.470   4.252  13.427 -0.5908  0.2494  0.2821
 2756SOL    HW119727   4.401   4.265  13.493  0.1097  1.3026  0.8150
 2756SOL    HW219728   4.413   4.232  13.352  2.5052 -1.6871 -1.5492
 2757SOL     OW19729   1.289   1.792   2.092 -0.4882 -0.4002 -0.2809
 2757SOL    HW119730   1.331   1.791   2.179 -2.1004 -2.8542  0.4739
 2757SOL    HW219731   1.205   1.753   2.116 -1.8938  1.1847 -2.7721
 2758SOL     OW19732   2.424   2.169  14.405 -0.4484 -0.7690 -0.4063
 2758SOL    HW119733   2.370   2.202  14.478 -0.0584  0.1872 -0.5528
 2758SOL    HW219734   2.467   2.097  14.451 -0.7475 -0.4435  0.3958
 2759SOL     OW19735   3.092   1.722   3.246  0.1544 -0.1133 -0.4442
 2759SOL    HW119736   3.012   1.670   3.240 -0.1722  0.3525 -0.1097
 2759SOL    HW219737   3.074   1.780   3.172 -2.1199 -1.3698 -0.8809
 2760SOL     OW19738   3.864   4.568   5.368 -0.1756  0.2597 -0.3439
 2760SOL    HW119739   3.781   4.520   5.364  0.1538 -0.2449 -1.0998
 2760SOL    HW219740   3.924   4.502   5.402  0.2459  1.0265  0.3898
 2761SOL     OW19741   0.429   1.905   4.124 -0.3313 -0.5876 -0.6180
 2761SOL    HW119742   0.455   1.997   4.118 -1.9984 -0.0927 -0.2092
 2761SOL    HW219743   0.341   1.894   4.089 -0.3015  0.3992 -0.9760
 2762SOL     OW19744   4.720   1.947  14.623 -0.6362  0.2540 -0.2931
 2762SOL    HW119745   4.648   1.885  14.623 -0.5299  0.1362  1.6180
 2762SOL    HW219746   4.678   2.032  14.609 -0.3098  0.1252 -1.9760
 2763SOL     OW19747   2.773   1.891   7.771  0.2330  0.3294 -0.5515
 2763SOL    HW119748   2.702   1.954   7.775 -0.8175 -0.9127  0.1487
 2763SOL    HW219749   2.825   1.930   7.841  0.8555 -1.3752 -0.0632
 2764SOL     OW19750   4.075   2.639   8.120  0.3192 -0.2085 -0.0943
 2764SOL    HW119751   3.999   2.637   8.061 -0.7830  0.1091  1.3087
 2764SOL    HW219752   4.108   2.549   8.123  0.6844 -0.0913 -0.5708
 2765SOL     OW19753   3.418   2.199   6.760 -0.2324 -0.2539 -0.6716
 2765SOL    HW119754   3.440   2.249   6.681  0.0861 -0.6363 -0.8254
 2765SOL    HW219755   3.393   2.268   6.822 -1.0419 -0.2392 -1.0184
 2766SOL     OW19756   4.175   0.326  13.628  0.8345 -0.3007  0.3997
 2766SOL    HW119757   4.175   0.418  13.653  0.6868 -0.2913  0.3618
 2766SOL    HW219758   4.100   0.303  13.684 -0.7811  0.4998 -1.4730
 2767SOL     OW19759   0.869   0.822   1.983 -0.5305  0.5246  0.6950
 2767SOL    HW119760   0.927   0.752   1.954  0.4564  2.0804 -1.1098
 2767SOL    HW219761   0.797   0.764   2.007  2.1310 -3.5392 -1.1732
 2768SOL     OW19762   2.910   2.414  10.393 -0.4338  0.5626 -0.2250
 2768SOL    HW119763   2.874   2.469  10.463 -1.2304 -0.8980  0.5137
 2768SOL    HW219764   2.995   2.385  10.426 -1.0586  0.3762  1.2273
 2769SOL     OW19765   0.431   4.609   4.446 -0.3491 -0.4649  0.2569
 2769SOL    HW119766   0.514   4.588   4.490  1.3884  1.2487 -2.2090
 2769SOL    HW219767   0.457   4.607   4.354  1.9947  0.2358  0.8800
 2770SOL     OW19768   0.884   4.176   3.482 -0.1530 -0.3708  0.9778
 2770SOL    HW119769   0.961   4.122   3.498  0.6640 -0.3310 -2.9499
 2770SOL    HW219770   0.930   4.239   3.427 -2.7423  0.2282 -0.5322
 2771SOL     OW19771   1.233   3.158  15.473  0.3115  0.1684 -0.2597
 2771SOL    HW119772   1.152   3.159  15.524  0.7877 -0.6025  0.4975
 2771SOL    HW219773   1.274   3.084  15.517 -0.6754 -2.2467 -3.4344
 2772SOL     OW19774   4.416   0.924  10.481 -0.2510 -0.1936 -0.4761
 2772SOL    HW119775   4.401   0.975  10.401 -2.0068  0.7239  0.4413
 2772SOL    HW219776   4.344   0.963  10.531  0.6310  1.3319 -0.3875
 2773SOL     OW19777   2.462   2.158  10.585  0.2027 -0.1519  0.0595
 2773SOL    HW119778   2.392   2.173  10.648 -0.5791  0.2590 -0.9147
 2773SOL    HW219779   2.541   2.196  10.624 -0.7605 -0.0405  1.8639
 2774SOL     OW19780   4.520   2.307  17.006  0.0639  0.2293  0.3834
 2774SOL    HW119781   4.549   2.388  17.047 -1.1390  1.6475 -1.6085
 2774SOL    HW219782   4.604   2.262  17.009  0.2847  0.6111 -0.1545
 2775SOL     OW19783   0.275   1.269   4.318 -0.0982  0.6031 -0.3751
 2775SOL    HW119784   0.332   1.250   4.244 -1.9209 -3.6994 -0.6766
 2775SOL    HW219785   0.336   1.327   4.364 -0.5808 -0.5965  1.7803
 2776SOL     OW19786   2.476   0.110   0.971  0.5163  0.0377 -0.0426
 2776SOL    HW119787   2.410   0.177   0.990  0.9614  1.1096 -2.3197
 2776SOL    HW219788   2.422   0.034   0.995  1.9584 -1.3958 -1.3311
 2777SOL     OW19789   0.801   3.582   7.721  0.2315 -0.4029  0.1119
 2777SOL    HW119790   0.738   3.623   7.661  0.5195 -1.3211 -0.8106
 2777SOL    HW219791   0.880   3.566   7.670  0.3654 -0.8163  0.4556
 2778SOL     OW19792   0.895   0.074   3.097  0.4391 -0.0593  0.3606
 2778SOL    HW119793   0.806   0.108   3.088  0.4082  0.0397  1.0488
 2778SOL    HW219794   0.939   0.149   3.137 -1.6830 -0.2107  2.9346
 2779SOL     OW19795   2.600   2.332  12.005 -0.4281 -0.0562  0.2050
 2779SOL    HW119796   2.648   2.373  11.932 -1.3726  0.3156 -0.2039
 2779SOL    HW219797   2.542   2.405  12.027 -1.3942 -1.0657  0.9944
 2780SOL     OW19798   0.713   2.033  11.400  0.1185 -0.0199 -0.2440
 2780SOL    HW119799   0.620   2.015  11.408  0.1908 -0.4647 -0.3930
 2780SOL    HW219800   0.745   1.947  11.427 -1.0181 -0.1970  0.5126
 2781SOL     OW19801   2.285   3.120  12.226 -0.1426  0.4519  0.2903
 2781SOL    HW119802   2.354   3.184  12.243 -1.1942  1.5276  0.6166
 2781SOL    HW219803   2.289   3.078  12.312  0.1130 -1.9036 -0.8813
 2782SOL     OW19804   3.174   1.681   0.603  0.0779  0.5216 -0.0731
 2782SOL    HW119805   3.109   1.739   0.564 -0.7232 -0.5469 -0.3407
 2782SOL    HW219806   3.228   1.653   0.528  0.3864 -0.9609  0.6819
 2783SOL     OW19807   4.025   0.320   4.063  0.2309 -0.7116 -0.2208
 2783SOL    HW119808   4.033   0.383   3.991  3.1519 -0.9187 -0.1039
 2783SOL    HW219809   4.003   0.244   4.009 -1.6483 -1.0867  1.1001
 2784SOL     OW19810   3.402   0.211  15.537  0.0470 -0.3346 -0.6072
 2784SOL    HW119811   3.351   0.146  15.586 -0.2627 -2.1503 -3.3219
 2784SOL    HW219812   3.377   0.289  15.585 -1.7564 -1.3034  0.0336
 2785SOL     OW19813   0.190   1.355   7.196 -0.2504 -0.2578  0.3128
 2785SOL    HW119814   0.213   1.384   7.284  0.4445  2.2381 -0.6688
 2785SOL    HW219815   0.209   1.438   7.151 -0.7905 -0.1930  0.2038
 2786SOL     OW19816   0.904   0.711   7.562 -0.2647 -0.2351  0.2112
 2786SOL    HW119817   0.826   0.704   7.507 -0.1711  1.1746 -0.1053
 2786SOL    HW219818   0.870   0.748   7.643  0.7654  1.3219 -0.0791
 2787SOL     OW19819   1.130   1.481   5.943  0.3734  0.1168  0.0263
 2787SOL    HW119820   1.097   1.569   5.924  0.1291 -0.4431 -2.1287
 2787SOL    HW219821   1.111   1.473   6.036  0.0510  0.5412 -0.0006
 2788SOL     OW19822   3.720   3.312   4.401 -0.1929 -0.5205 -0.5209
 2788SOL    HW119823   3.735   3.298   4.308 -1.2722 -2.4810 -0.3940
 2788SOL    HW219824   3.625   3.306   4.400 -0.1314 -1.6941  0.4361
 2789SOL     OW19825   1.214   1.379   4.100 -0.3525  0.0456  0.3167
 2789SOL    HW119826   1.243   1.364   4.009  0.5207 -0.4975  0.6790
 2789SOL    HW219827   1.279   1.344   4.161 -0.3732 -0.2266  0.1869
 2790SOL     OW19828   4.255   1.740   0.051 -0.6881 -0.0048  0.2208
 2790SOL    HW119829   4.247   1.831   0.081  0.3134 -0.5642  2.2012
 2790SOL    HW219830   4.208   1.697   0.123 -0.4830 -0.3837  0.1261
 2791SOL     OW19831   3.282   1.538  12.213  0.0844  0.2411 -0.9875
 2791SOL    HW119832   3.236   1.608  12.260 -0.6677 -1.9033  1.4425
 2791SOL    HW219833   3.367   1.580  12.201  1.0432 -0.9469  1.7136
 2792SOL     OW19834   0.387   3.969   5.323  0.5351 -0.3097  0.6654
 2792SOL    HW119835   0.342   3.895   5.364 -2.7716  0.6686 -1.1459
 2792SOL    HW219836   0.348   4.038   5.376  1.0608  0.2948  0.2590
 2793SOL     OW19837   1.193   1.645   0.509 -0.7671 -0.3753 -0.1642
 2793SOL    HW119838   1.184   1.581   0.438 -1.7403 -0.1016 -0.2808
 2793SOL    HW219839   1.222   1.724   0.463  1.6331 -1.7948 -1.1184
 2794SOL     OW19840   0.549   3.933  16.396 -0.6110 -0.3078 -0.5059
 2794SOL    HW119841   0.555   3.837  16.391 -0.0706 -0.4218  2.2137
 2794SOL    HW219842   0.616   3.959  16.333  0.5396 -1.8641  0.0804
 2795SOL     OW19843   2.470   2.428   9.786 -0.1877 -0.3290 -0.0739
 2795SOL    HW119844   2.425   2.470   9.712  1.1241  1.8507  0.3667
 2795SOL    HW219845   2.463   2.498   9.850  3.9429 -0.9409  1.0581
 2796SOL     OW19846   2.208   3.072   1.034 -0.5688  0.3727  0.1193
 2796SOL    HW119847   2.196   3.042   1.124  2.2546  0.0934  0.3889
 2796SOL    HW219848   2.205   2.991   0.983 -0.7625  1.6881 -1.9462
 2797SOL     OW19849   0.319   3.805   4.638  0.5269  0.9419  0.0305
 2797SOL    HW119850   0.304   3.712   4.625 -2.1751  1.3780  0.0108
 2797SOL    HW219851   0.412   3.817   4.619  0.7880  1.5095  1.6337
 2798SOL     OW19852   1.655   3.143   9.317 -0.1182  0.5401 -0.2656
 2798SOL    HW119853   1.564   3.172   9.319 -0.7900 -1.6540 -0.0381
 2798SOL    HW219854   1.695   3.193   9.388 -1.4808  0.1033  0.8042
 2799SOL     OW19855   1.974   3.514  11.749 -0.5118  0.4399  0.2590
 2799SOL    HW119856   2.065   3.485  11.758 -0.6882 -0.4897 -0.9748
 2799SOL    HW219857   1.985   3.597  11.703 -1.1060 -1.2763 -3.0463
 2800SOL     OW19858   1.352   2.811   8.772  0.7613 -0.0375  0.5380
 2800SOL    HW119859   1.325   2.890   8.724 -0.2754 -0.0321  1.1178
 2800SOL    HW219860   1.447   2.824   8.773  0.6357  0.9255  0.5233
 2801SOL     OW19861   3.014   4.534   4.869  0.9352 -0.1387 -0.0012
 2801SOL    HW119862   2.997   4.453   4.821 -2.3673  0.4512  0.1765
 2801SOL    HW219863   2.934   4.537   4.921  0.5465  0.8187 -0.6582
 2802SOL     OW19864   2.043   1.868   4.951  0.3049 -0.2082 -0.1813
 2802SOL    HW119865   2.106   1.937   4.930  0.3522  0.2981  1.6298
 2802SOL    HW219866   2.006   1.865   4.863  2.7084 -0.1696 -1.2085
 2803SOL     OW19867   4.365   1.279   2.093  0.1555  0.5385 -0.1031
 2803SOL    HW119868   4.316   1.260   2.014 -1.5829  2.3568  0.5308
 2803SOL    HW219869   4.314   1.349   2.134  0.3718  2.4395 -3.0789
 2804SOL     OW19870   2.659   0.060   1.453  0.0220 -0.4801 -0.4175
 2804SOL    HW119871   2.672   0.084   1.361 -0.1996  2.1606  0.2145
 2804SOL    HW219872   2.565   0.072   1.463  0.0055 -1.4314  0.5918
 2805SOL     OW19873   2.524   2.831   6.344  0.6757 -0.2691 -0.2700
 2805SOL    HW119874   2.547   2.817   6.435  0.1910  0.0723 -0.0956
 2805SOL    HW219875   2.610   2.829   6.301  0.3636  0.9782 -0.9844
 2806SOL     OW19876   3.414   4.123   0.729 -0.1446 -0.4592 -0.2228
 2806SOL    HW119877   3.437   4.216   0.732  1.2255 -0.7922 -0.7237
 2806SOL    HW219878   3.347   4.128   0.661 -0.2973  0.8825  0.0197
 2807SOL     OW19879   0.096   0.152   6.187  0.5937 -0.2673  0.8876
 2807SOL    HW119880   0.144   0.108   6.257  2.0004  1.3506  0.9500
 2807SOL    HW219881   0.162   0.191   6.130 -1.3274 -1.6471 -2.2226
 2808SOL     OW19882   4.079   2.390   2.711  0.8224  0.0818  0.3003
 2808SOL    HW119883   4.066   2.420   2.621 -1.2929  0.5623  0.7932
 2808SOL    HW219884   4.103   2.299   2.693 -2.7955 -0.7519 -0.2024
 2809SOL     OW19885   4.466   1.186   2.448  0.3733 -0.2951 -0.0103
 2809SOL    HW119886   4.444   1.275   2.423  4.4664  0.5216 -0.6844
 2809SOL    HW219887   4.397   1.133   2.407  1.0371 -2.1119  1.1946
 2810SOL     OW19888   2.791   3.019  14.621  0.1352 -0.0633  0.0389
 2810SOL    HW119889   2.853   3.058  14.559 -0.9350  1.5647 -0.0017
 2810SOL    HW219890   2.785   3.086  14.689 -0.6296 -1.0718  0.9708
 2811SOL     OW19891   2.169   4.713   6.166  0.0622 -0.2575  0.4154
 2811SOL    HW119892   2.076   4.725   6.147  0.1680  0.0759  0.1177
 2811SOL    HW219893   2.189   0.062   6.221 -1.4021  1.4395 -1.3822
 2812SOL     OW19894   0.206   1.671   7.375 -0.0921 -0.6095  0.3804
 2812SOL    HW119895   0.157   1.718   7.307  1.6993  1.1350  0.2964
 2812SOL    HW219896   0.252   1.744   7.416 -0.1252  0.1872 -0.9847
 2813SOL     OW19897   0.820   4.212  11.088 -0.0190  0.2436  0.1401
 2813SOL    HW119898   0.895   4.269  11.069 -2.6005  2.9596 -1.9459
 2813SOL    HW219899   0.836   4.191  11.180  2.7460  3.1099  0.3285
 2814SOL     OW19900   2.987   1.812  14.158 -0.1425  0.1650 -0.8679
 2814SOL    HW119901   3.019   1.855  14.079 -0.3069  1.7841 -0.0513
 2814SOL    HW219902   2.948   1.881  14.212  0.2047  0.2499 -0.7331
 2815SOL     OW19903   4.720   4.724   9.898 -0.2442 -0.5010  0.1516
 2815SOL    HW119904   0.054   0.017   9.969 -4.2799 -0.0146  3.5048
 2815SOL    HW219905   4.695   4.635   9.922 -0.3694 -0.0687  1.6524
 2816SOL     OW19906   4.092   2.847   5.653 -0.8792  0.4434 -0.1759
 2816SOL    HW119907   4.143   2.928   5.657 -0.3804  0.0377  1.5925
 2816SOL    HW219908   4.152   2.791   5.702 -0.8132  2.3633  1.9118
 2817SOL     OW19909   3.016   2.482   3.614  0.0452 -0.0927 -0.3222
 2817SOL    HW119910   3.038   2.456   3.525  1.2943  0.3850 -0.1478
 2817SOL    HW219911   2.955   2.411   3.635 -0.9007  1.1148  0.9307
 2818SOL     OW19912   1.159   2.753   4.762  0.0649 -0.1327 -0.2356
 2818SOL    HW119913   1.193   2.757   4.852  0.9904 -2.9781 -0.4727
 2818SOL    HW219914   1.203   2.822   4.712 -0.7248  0.9489  0.5488
 2819SOL     OW19915   3.580   2.713   6.733 -0.2909  0.4663 -0.0004
 2819SOL    HW119916   3.544   2.641   6.784 -0.9033 -0.4597 -1.7614
 2819SOL    HW219917   3.510   2.733   6.670 -1.7266  1.9970  2.0556
 2820SOL     OW19918   2.176   3.248   6.238  0.2195 -0.3767  0.0185
 2820SOL    HW119919   2.110   3.190   6.198 -1.3024  2.1483 -1.1447
 2820SOL    HW219920   2.232   3.180   6.275 -1.0985 -1.0015  0.9036
 2821SOL     OW19921   4.370   2.134  14.533 -0.0518 -0.1070  0.0547
 2821SOL    HW119922   4.420   2.111  14.611  1.0851 -1.6867 -1.1285
 2821SOL    HW219923   4.430   2.135  14.458  1.4594 -1.7019  1.2493
 2822SOL     OW19924   3.959   3.683  14.954  0.0480 -0.0314 -0.0770
 2822SOL    HW119925   4.004   3.741  14.892  1.7307 -0.4864  0.7105
 2822SOL    HW219926   3.921   3.621  14.893  0.5768 -1.9945  1.6037
 2823SOL     OW19927   1.758   2.171   2.238 -0.5626  0.4134  0.3384
 2823SOL    HW119928   1.698   2.238   2.205  0.9309  1.4592 -0.2298
 2823SOL    HW219929   1.839   2.222   2.243 -0.4260  0.3518 -1.1551
 2824SOL     OW19930   4.425   1.479  10.027 -0.2963 -0.0644 -0.0218
 2824SOL    HW119931   4.344   1.436  10.053 -1.5954  2.1823 -0.3477
 2824SOL    HW219932   4.453   1.431   9.949  2.6035 -0.8367  1.4859
 2825SOL     OW19933   4.603   4.262   3.319 -0.6957 -0.3413 -0.1300
 2825SOL    HW119934   4.513   4.282   3.294 -0.3898 -0.6010 -1.4381
 2825SOL    HW219935   4.636   4.225   3.237 -1.8769  0.2169 -0.8591
 2826SOL     OW19936   3.719   4.722   0.105 -0.4151  0.0968 -0.1580
 2826SOL    HW119937   3.661   4.659   0.062 -0.9306  2.4146 -2.8053
 2826SOL    HW219938   3.718   4.692   0.196  0.3417  0.8680  0.0976
 2827SOL     OW19939   3.995   1.363  14.385 -0.2489  0.0533 -0.0764
 2827SOL    HW119940   4.042   1.305  14.325  1.2286 -0.2131  1.3289
 2827SOL    HW219941   3.912   1.315  14.383 -1.1969  1.6442  1.1132
 2828SOL     OW19942   1.690   4.014   5.921 -0.0159  0.0997  0.4129
 2828SOL    HW119943   1.769   3.969   5.891 -1.3526 -2.0455  0.1586
 2828SOL    HW219944   1.707   4.108   5.917 -0.0649  0.1033  0.2937
 2829SOL     OW19945   4.323   3.226   3.409 -0.2565  0.1780  0.4399
 2829SOL    HW119946   4.407   3.271   3.399 -0.1621 -0.1627 -0.3460
 2829SOL    HW219947   4.289   3.260   3.492 -3.1414  1.6656 -1.3304
 2830SOL     OW19948   3.611   3.801   4.057 -0.1241  0.3118  0.0610
 2830SOL    HW119949   3.597   3.869   4.123  0.5782  1.4219 -0.9163
 2830SOL    HW219950   3.699   3.777   4.086  0.3107  0.2140 -1.3145
 2831SOL     OW19951   3.116   1.928  17.482 -0.5272  0.6432  0.7805
 2831SOL    HW119952   3.109   1.983  17.404 -0.7176  0.7592  0.8811
 2831SOL    HW219953   3.042   1.867  17.470  0.0690  0.0513  0.0679
 2832SOL     OW19954   4.596   0.142   6.584 -0.0343  0.6171  0.4986
 2832SOL    HW119955   4.610   0.208   6.516  1.1077 -0.5543 -0.3913
 2832SOL    HW219956   4.517   0.103   6.547  0.0888  1.1373 -0.3155
 2833SOL     OW19957   2.697   0.120   5.628  0.4627  0.3844  1.0204
 2833SOL    HW119958   2.631   0.075   5.681 -0.7143 -0.0019 -0.7839
 2833SOL    HW219959   2.774   0.066   5.647  0.6254  0.1381 -0.3426
 2834SOL     OW19960   3.917   3.088   2.692  0.1877  0.0781  0.0110
 2834SOL    HW119961   3.856   3.028   2.648  0.7222 -0.3394 -0.1679
 2834SOL    HW219962   3.892   3.066   2.782 -0.3221 -1.1132 -0.4184
 2835SOL     OW19963   1.808   3.066   8.519  0.1224  0.3679 -0.1694
 2835SOL    HW119964   1.890   3.076   8.471 -0.9288  0.3044 -1.9753
 2835SOL    HW219965   1.756   3.141   8.490  2.3639  2.4023  1.0300
 2836SOL     OW19966   3.647   1.888   8.651 -0.3204  0.4493  0.1997
 2836SOL    HW119967   3.613   1.802   8.677  0.9890 -0.6238 -1.6268
 2836SOL    HW219968   3.735   1.861   8.624 -0.5187 -0.6850  0.6606
 2837SOL     OW19969   1.474   2.310  10.887 -0.3197 -0.2669 -0.1523
 2837SOL    HW119970   1.541   2.373  10.914 -1.2427  0.5075  0.3791
 2837SOL    HW219971   1.505   2.222  10.908  0.4431  0.5976  2.2997
 2838SOL     OW19972   2.253   2.990   5.132  0.0245  0.3448 -0.0233
 2838SOL    HW119973   2.314   3.026   5.067  1.5113 -2.4964 -0.2201
 2838SOL    HW219974   2.179   3.050   5.133  1.6208  2.3198  0.8488
 2839SOL     OW19975   3.837   1.983   4.965 -0.1766 -0.1958 -0.8467
 2839SOL    HW119976   3.839   1.944   4.878 -0.4503 -0.8299 -0.5666
 2839SOL    HW219977   3.811   1.905   5.014  2.4297 -1.7908 -2.0099
 2840SOL     OW19978   3.696   1.188  12.280 -0.4961  0.0284  0.3924
 2840SOL    HW119979   3.763   1.124  12.258 -2.3386 -1.5875 -0.4944
 2840SOL    HW219980   3.724   1.262  12.225 -1.5642 -0.7092 -1.1493
 2841SOL     OW19981   0.461   3.591   8.985  0.8462  0.0333 -0.2645
 2841SOL    HW119982   0.554   3.572   8.971  1.0641  1.3668 -0.6118
 2841SOL    HW219983   0.428   3.516   8.936 -0.9376  1.2439 -0.9291
 2842SOL     OW19984   3.052   2.013   6.394 -0.5478  0.4547  0.5486
 2842SOL    HW119985   3.119   1.999   6.328 -0.1898 -0.8234  1.1858
 2842SOL    HW219986   3.109   2.039   6.467  1.2480  1.2178 -1.1524
 2843SOL     OW19987   2.689   0.100   7.019 -0.0884  0.1481  0.3981
 2843SOL    HW119988   2.657   0.154   6.947 -1.9997 -1.0859  0.3013
 2843SOL    HW219989   2.637   0.134   7.092  0.4996  0.7122  0.5510
 2844SOL     OW19990   3.365   1.937   2.703  0.2289  0.4825  0.0707
 2844SOL    HW119991   3.355   1.993   2.626 -1.1640  3.1771  2.2148
 2844SOL    HW219992   3.281   1.930   2.750 -0.2616  2.0008 -0.5690
 2845SOL     OW19993   4.702   3.757   2.852  0.6039 -0.5827 -0.0345
 2845SOL    HW119994   0.063   3.769   2.815  0.0712  0.2023 -1.0552
 2845SOL    HW219995   4.693   3.846   2.888 -0.7877 -1.7675  2.5034
 2846SOL     OW19996   4.197   1.549   0.250  0.0861  0.3114 -0.3313
 2846SOL    HW119997   4.281   1.516   0.282  0.0709  1.3366  0.7416
 2846SOL    HW219998   4.185   1.480   0.184 -0.2345  0.4376 -0.4012
 2847SOL     OW19999   2.648   2.350   8.972 -0.3401 -0.0442 -0.2741
 2847SOL    HW120000   2.650   2.444   8.953 -0.4588 -0.4312 -2.2010
 2847SOL    HW220001   2.628   2.341   9.065 -1.3029  4.4049 -0.0221
 2848SOL     OW20002   3.866   1.515   5.520  0.0317  0.6475  0.1074
 2848SOL    HW120003   3.908   1.540   5.603  2.0011  2.2167 -1.3454
 2848SOL    HW220004   3.789   1.466   5.548  0.1100  1.1081  1.1331
 2849SOL     OW20005   4.334   2.391   6.740  0.4499 -0.1065  0.2589
 2849SOL    HW120006   4.352   2.406   6.648  0.1859 -4.1387 -0.4702
 2849SOL    HW220007   4.417   2.409   6.784  0.0130 -0.3961  1.2147
 2850SOL     OW20008   1.730   0.819   3.587  1.0861 -0.4290 -0.2862
 2850SOL    HW120009   1.677   0.886   3.544  1.0326  0.6975  1.5626
 2850SOL    HW220010   1.749   0.765   3.510  0.3131 -1.4297  0.2300
 2851SOL     OW20011   4.389   4.708   6.532  0.0279 -0.2539 -0.2403
 2851SOL    HW120012   4.319   0.039   6.562  0.0583 -0.7948  0.9153
 2851SOL    HW220013   4.380   4.633   6.591 -0.9033 -0.3148 -0.4703
 2852SOL     OW20014   3.752   2.296   9.771 -0.2801 -0.0217  0.0659
 2852SOL    HW120015   3.839   2.266   9.798 -0.4137 -1.4592 -1.1174
 2852SOL    HW220016   3.693   2.259   9.836  1.4276 -1.4057  0.8111
 2853SOL     OW20017   2.084   3.904  12.835 -0.3462 -0.1958 -0.0579
 2853SOL    HW120018   2.093   3.979  12.893  1.4290 -0.1074 -0.4466
 2853SOL    HW220019   2.125   3.833  12.886 -0.8109 -0.2293  0.2639
 2854SOL     OW20020   1.284   3.367  15.311  0.4408 -0.2889  0.1690
 2854SOL    HW120021   1.237   3.442  15.348  3.5010  1.9667 -0.5037
 2854SOL    HW220022   1.265   3.298  15.374  1.7466 -1.3648 -0.6321
 2855SOL     OW20023   0.874   3.237   2.894 -0.7602 -0.2222  0.2908
 2855SOL    HW120024   0.783   3.210   2.881 -0.2574 -1.4937 -0.5172
 2855SOL    HW220025   0.854   3.298   2.966 -0.0953  2.1024 -1.4893
 2856SOL     OW20026   2.567   2.898   6.690  0.0887 -0.5081 -0.0303
 2856SOL    HW120027   2.659   2.893   6.717  0.3909 -4.2612 -1.7938
 2856SOL    HW220028   2.552   2.992   6.688 -2.4113 -0.8651  2.5573
 2857SOL     OW20029   3.221   4.419   7.274  0.0418 -0.1618 -0.0281
 2857SOL    HW120030   3.273   4.500   7.283 -2.1194  0.9470  2.3484
 2857SOL    HW220031   3.163   4.430   7.349 -0.9489  2.0767 -1.1237
 2858SOL     OW20032   2.646   3.106   5.144  0.4311 -0.1244 -0.5341
 2858SOL    HW120033   2.666   3.191   5.105 -0.9056  0.7767  0.7270
 2858SOL    HW220034   2.716   3.103   5.210  0.9429 -1.7797 -1.1518
 2859SOL     OW20035   2.081   0.257   3.004 -0.6550  0.1010 -0.3019
 2859SOL    HW120036   2.064   0.349   3.025  0.3366  0.8303 -2.6491
 2859SOL    HW220037   2.014   0.203   3.046 -3.4844  1.5424 -2.9188
 2860SOL     OW20038   4.535   2.008  14.018  0.1109 -0.5129 -0.0710
 2860SOL    HW120039   4.464   1.979  14.075 -0.7021 -0.3535 -0.9927
 2860SOL    HW220040   4.611   2.005  14.076  2.0840 -0.0325 -2.6329
 2861SOL     OW20041   0.946   0.332   8.798  0.5797 -0.5577 -0.0272
 2861SOL    HW120042   0.922   0.284   8.877  2.8170 -0.4995  0.6820
 2861SOL    HW220043   1.016   0.278   8.763  1.4014  0.1137  0.5606
 2862SOL     OW20044   1.658   1.501   2.045 -0.3734 -0.0814 -0.1313
 2862SOL    HW120045   1.689   1.591   2.033  0.6212 -0.3344  0.4951
 2862SOL    HW220046   1.568   1.520   2.019 -0.5640  3.2609  2.9715
 2863SOL     OW20047   0.613   2.929   5.425  0.3080  0.4995  0.8946
 2863SOL    HW120048   0.695   2.946   5.472  0.8510  0.4559 -0.0291
 2863SOL    HW220049   0.551   2.914   5.497  0.2391 -0.6335  0.6006
 2864SOL     OW20050   0.558   4.567   4.192 -0.2084 -0.9291  0.7816
 2864SOL    HW120051   0.545   4.507   4.118  0.5146  0.5244 -0.5225
 2864SOL    HW220052   0.631   4.526   4.239 -0.1413 -2.4915 -0.6739
 2865SOL     OW20053   1.276   3.344   9.078 -0.0323  0.3482 -0.5277
 2865SOL    HW120054   1.184   3.350   9.052 -0.5783 -1.7406  0.8645
 2865SOL    HW220055   1.291   3.249   9.084 -1.3195  0.0704 -1.7397
 2866SOL     OW20056   3.946   3.506   8.988  0.2132  0.0556  0.0898
 2866SOL    HW120057   3.861   3.463   8.997 -0.0639  0.3120 -1.3573
 2866SOL    HW220058   3.940   3.562   8.911 -0.5236  0.1861  0.2468
 2867SOL     OW20059   0.899   4.408   2.208  0.3994 -0.1754 -0.2294
 2867SOL    HW120060   0.990   4.414   2.181  0.3844 -1.5109 -0.5985
 2867SOL    HW220061   0.894   4.318   2.242  5.3155 -0.1307  0.5791
 2868SOL     OW20062   1.490   1.383   4.208 -0.5949  0.7312 -0.1711
 2868SOL    HW120063   1.554   1.442   4.169  2.1852 -1.3622  1.2073
 2868SOL    HW220064   1.517   1.296   4.177 -1.1214  0.6016 -0.2711
 2869SOL     OW20065   0.944   0.175   7.103 -0.5351  0.8109  0.4455
 2869SOL    HW120066   0.972   0.266   7.101  1.1086  0.2897 -0.0478
 2869SOL    HW220067   0.853   0.188   7.129 -2.0675 -1.5946 -3.5999
 2870SOL     OW20068   2.547   2.133   8.407 -0.5258  0.0428  0.1059
 2870SOL    HW120069   2.511   2.072   8.471 -1.4540  0.7998  0.3118
 2870SOL    HW220070   2.579   2.203   8.464 -2.4661  2.0465 -1.2843
 2871SOL     OW20071   2.088   0.632   9.284  0.3048  0.3565  0.4489
 2871SOL    HW120072   2.108   0.706   9.227 -1.3622 -0.9784 -1.8835
 2871SOL    HW220073   1.993   0.637   9.296  0.5441  1.8655  1.7408
 2872SOL     OW20074   3.484   3.098   3.105  0.0049 -0.0419  0.2956
 2872SOL    HW120075   3.466   3.028   3.168  2.9359  0.6342  1.9052
 2872SOL    HW220076   3.430   3.163   3.149 -3.4647 -2.4622 -0.4209
 2873SOL     OW20077   4.041   0.485  11.948  0.1282  0.5678  0.0419
 2873SOL    HW120078   3.957   0.501  11.904 -1.7095  0.6987  3.5629
 2873SOL    HW220079   4.065   0.403  11.905  1.7400  1.5444 -0.9340
 2874SOL     OW20080   3.710   2.387  17.280  0.5560  0.2350 -0.3157
 2874SOL    HW120081   3.647   2.397  17.351 -0.5437 -1.7116 -1.0148
 2874SOL    HW220082   3.764   2.314  17.310  1.9293  1.5404  0.3828
 2875SOL     OW20083   0.022   4.202   8.564 -0.4986  0.3917  0.3942
 2875SOL    HW120084   0.046   4.192   8.656 -1.4333  0.4562  0.6441
 2875SOL    HW220085   0.098   4.238   8.517 -0.4008  0.9173  0.9492
 2876SOL     OW20086   2.425   4.607  13.503 -0.3627 -0.1815 -0.1743
 2876SOL    HW120087   2.331   4.621  13.512 -0.6974 -2.0555 -0.6959
 2876SOL    HW220088   2.418   4.589  13.409 -4.0324  0.3689 -0.0040
 2877SOL     OW20089   0.910   0.411  10.011 -0.3261  0.1641  0.4676
 2877SOL    HW120090   0.979   0.402   9.945 -1.9735 -0.1135 -1.1986
 2877SOL    HW220091   0.933   0.336  10.066 -0.4690 -0.2858 -0.0819
 2878SOL     OW20092   2.675   3.804   2.848 -0.2807  0.4317 -0.3475
 2878SOL    HW120093   2.594   3.841   2.883 -0.9878  1.4759 -3.0620
 2878SOL    HW220094   2.709   3.871   2.788 -3.4241  1.8568 -0.5282
 2879SOL     OW20095   4.086   2.968   1.741 -0.0703  0.1946 -0.1937
 2879SOL    HW120096   4.091   2.919   1.823  1.2459 -0.4100 -0.6490
 2879SOL    HW220097   4.003   2.939   1.703 -0.8600  0.2922  1.4346
 2880SOL     OW20098   2.304   2.410   6.557  0.3568 -0.0302  0.3111
 2880SOL    HW120099   2.301   2.480   6.623 -1.9031 -0.1801  0.3913
 2880SOL    HW220100   2.399   2.412   6.546  0.0477  0.9521 -2.1271
 2881SOL     OW20101   3.961   1.681   3.668  0.0937 -0.6268 -0.3719
 2881SOL    HW120102   4.006   1.600   3.690  0.1129 -0.7524 -0.8748
 2881SOL    HW220103   4.032   1.743   3.682 -0.2083 -0.6885  1.5025
 2882SOL     OW20104   2.287   2.023   6.788 -0.2230 -0.1118  0.0190
 2882SOL    HW120105   2.274   1.971   6.867  0.4179 -1.2557 -0.6359
 2882SOL    HW220106   2.214   1.998   6.731 -0.1865  0.3357 -0.2297
 2883SOL     OW20107   2.851   4.422   0.034  0.7824  0.5856 -0.6490
 2883SOL    HW120108   2.947   4.422   0.035  0.7815 -0.8342 -0.1172
 2883SOL    HW220109   2.836   4.358   0.104 -0.7520 -1.2798 -2.6508
 2884SOL     OW20110   0.113   2.154  14.880  0.4261 -0.2964 -0.4577
 2884SOL    HW120111   0.146   2.064  14.877  0.2194 -0.3355 -1.7077
 2884SOL    HW220112   0.139   2.169  14.971  2.4646  2.8152 -1.5486
 2885SOL     OW20113   4.594   4.089   4.889 -0.2905 -0.1346 -0.0172
 2885SOL    HW120114   4.637   4.124   4.967 -0.5590 -1.0559  0.5472
 2885SOL    HW220115   4.669   4.059   4.837  0.1543  2.1109 -0.6506
 2886SOL     OW20116   3.119   1.085   1.567 -0.4460  0.1455  0.3059
 2886SOL    HW120117   3.114   1.127   1.653 -1.0280 -0.4511  0.5680
 2886SOL    HW220118   3.145   0.998   1.599  0.4337 -0.3045 -1.6449
 2887SOL     OW20119   2.937   3.969   8.848  0.0990  0.3098  0.6485
 2887SOL    HW120120   2.970   4.047   8.893 -1.1518 -0.0754  2.2363
 2887SOL    HW220121   3.012   3.948   8.793  1.1356  1.3965  1.6479
 2888SOL     OW20122   0.230   1.287  16.705 -0.2048  0.4695  0.3325
 2888SOL    HW120123   0.305   1.312  16.759 -1.8306 -0.9444  3.2208
 2888SOL    HW220124   0.171   1.360  16.724  0.0651 -0.0416  3.0354
 2889SOL     OW20125   3.306   4.546   3.650  0.1046  0.1539  0.6733
 2889SOL    HW120126   3.377   4.484   3.664  0.9638  1.0196  0.1293
 2889SOL    HW220127   3.315   4.569   3.557 -1.4492  1.4878  0.8521
 2890SOL     OW20128   2.357   0.083  17.639 -0.1597  0.6185 -0.8404
 2890SOL    HW120129   2.423   0.034  17.590  0.9042  0.6671  0.5580
 2890SOL    HW220130   2.273   0.083  17.593 -0.7611  1.4929  0.2485
 2891SOL     OW20131   1.341   1.460   0.028  0.4237 -0.5011 -0.0123
 2891SOL    HW120132   1.377   1.373   0.012  0.3133 -0.6605  0.6145
 2891SOL    HW220133   1.248   1.443   0.045  0.2373  0.2608 -0.2315
 2892SOL     OW20134   1.630   3.645   4.088 -0.4219 -0.2602 -0.7424
 2892SOL    HW120135   1.583   3.605   4.015 -1.7211 -2.5752  1.3401
 2892SOL    HW220136   1.593   3.730   4.069  0.8745  0.7348  1.1375
 2893SOL     OW20137   4.107   1.358  11.663 -0.2165  0.6901 -0.1168
 2893SOL    HW120138   4.062   1.442  11.648  0.2891  0.8691 -0.6466
 2893SOL    HW220139   4.072   1.297  11.597  0.1028  1.6167 -1.1543
 2894SOL     OW20140   3.367   1.543   6.573 -0.0719 -0.1718  0.6453
 2894SOL    HW120141   3.409   1.583   6.650 -2.0343  0.5038  1.3909
 2894SOL    HW220142   3.317   1.469   6.608  1.2102 -0.8163  1.1037
 2895SOL     OW20143   1.539   3.567   2.524 -0.5287 -0.2444 -0.0219
 2895SOL    HW120144   1.601   3.640   2.531 -1.0437  0.2858 -1.0258
 2895SOL    HW220145   1.496   3.560   2.610 -0.9403  2.7439  0.0345
 2896SOL     OW20146   3.265   4.653   5.391  0.2356 -0.3850  0.5100
 2896SOL    HW120147   3.196   4.590   5.411 -0.0681 -1.4161 -3.7166
 2896SOL    HW220148   3.237   0.007   5.433 -1.7787 -1.3512  1.0093
 2897SOL     OW20149   1.398   3.865  14.577 -0.0289 -0.2886 -0.2622
 2897SOL    HW120150   1.454   3.796  14.542  1.0407  1.4572 -1.9784
 2897SOL    HW220151   1.425   3.863  14.669 -2.1891 -1.2534  0.3606
 2898SOL     OW20152   2.858   1.319  15.281 -0.1996 -0.1691  0.2765
 2898SOL    HW120153   2.838   1.246  15.339  0.7385  0.2397  1.1154
 2898SOL    HW220154   2.798   1.306  15.208 -0.6021  1.2693  0.3579
 2899SOL     OW20155   1.534   3.087   9.733  0.1881 -0.1664 -0.4324
 2899SOL    HW120156   1.468   3.081   9.801  1.2053 -2.6535  0.3544
 2899SOL    HW220157   1.485   3.113   9.655 -1.0330  1.5037  0.9306
 2900SOL     OW20158   1.507   4.104   7.981  0.5786 -0.2852 -0.0105
 2900SOL    HW120159   1.569   4.036   7.956  0.0923 -0.1421 -1.5610
 2900SOL    HW220160   1.435   4.089   7.919  1.6285  0.9447 -1.5088
 2901SOL     OW20161   3.696   4.621   3.436 -0.9964 -0.3509 -0.3752
 2901SOL    HW120162   3.719   4.676   3.361 -3.0063  0.0165 -0.6994
 2901SOL    HW220163   3.776   4.569   3.449 -1.3529 -0.8102 -0.0303
 2902SOL     OW20164   0.594   0.593   6.782 -0.3914  0.5581 -0.5429
 2902SOL    HW120165   0.552   0.674   6.756 -1.7050  0.3214  0.8039
 2902SOL    HW220166   0.632   0.621   6.865 -1.0320  0.7950 -0.3292
 2903SOL     OW20167   4.364   1.368   7.524  0.0632  0.6643  0.1780
 2903SOL    HW120168   4.317   1.293   7.488 -0.0601  0.3540  0.9792
 2903SOL    HW220169   4.302   1.397   7.591 -1.7766 -2.5835 -0.1073
 2904SOL     OW20170   0.770   2.126   3.929 -0.4333 -0.4802  0.3484
 2904SOL    HW120171   0.841   2.063   3.940  0.6978  0.6660 -0.4429
 2904SOL    HW220172   0.806   2.213   3.946  0.1843 -0.7419  0.3598
 2905SOL     OW20173   0.943   3.938   5.354 -0.0822 -0.0395 -0.4240
 2905SOL    HW120174   0.854   3.907   5.372  0.3452 -0.8304  0.2936
 2905SOL    HW220175   0.992   3.859   5.373  0.8526  0.8998  1.0923
 2906SOL     OW20176   2.201   4.469  13.027  0.0645  0.1719 -0.0470
 2906SOL    HW120177   2.159   4.549  12.995  1.0417  0.2127 -1.2186
 2906SOL    HW220178   2.218   4.431  12.941  1.2100  1.5547 -0.4167
 2907SOL     OW20179   1.556   1.444  16.358  0.2241 -0.1928  0.2284
 2907SOL    HW120180   1.501   1.473  16.285  0.1951 -3.1576 -0.9286
 2907SOL    HW220181   1.501   1.452  16.435 -0.3828 -1.7367 -0.0347
 2908SOL     OW20182   3.704   3.529   9.471  0.3681  0.1993 -0.5307
 2908SOL    HW120183   3.725   3.615   9.507 -3.4003  0.1459  1.8402
 2908SOL    HW220184   3.687   3.550   9.379  1.9734  0.7771 -0.7107
 2909SOL     OW20185   3.909   0.261  14.439  0.4883  0.1301  0.3014
 2909SOL    HW120186   3.992   0.256  14.488 -0.0022 -1.4407  0.9563
 2909SOL    HW220187   3.936   0.309  14.360  0.3747 -0.7299 -0.2537
 2910SOL     OW20188   3.152   1.456   1.428  0.5455 -0.0908 -0.4892
 2910SOL    HW120189   3.199   1.499   1.499  3.6076 -1.9079 -1.4279
 2910SOL    HW220190   3.213   1.432   1.358  1.7181 -1.4176  1.0257
 2911SOL     OW20191   3.294   0.735   5.624 -0.3459  0.5705 -0.5417
 2911SOL    HW120192   3.237   0.658   5.618  0.9449 -0.2935 -1.6340
 2911SOL    HW220193   3.346   0.710   5.548  1.1243 -1.5185  1.1301
 2912SOL     OW20194   0.217   1.723  12.690  0.1894  0.3022 -0.0811
 2912SOL    HW120195   0.284   1.737  12.757 -0.4456 -0.0285  0.6162
 2912SOL    HW220196   0.143   1.760  12.738 -1.2892  0.6750 -2.6365
 2913SOL     OW20197   1.281   0.903   6.239 -0.5134  0.2217  0.1486
 2913SOL    HW120198   1.292   0.972   6.173  1.8671 -0.1634  0.1417
 2913SOL    HW220199   1.281   0.825   6.183 -1.1285 -2.3117  3.7508
 2914SOL     OW20200   4.131   2.270   0.780  0.2612 -0.2887 -0.1922
 2914SOL    HW120201   4.182   2.220   0.717  0.6617 -1.5354  1.1177
 2914SOL    HW220202   4.195   2.326   0.824  0.3115 -0.0834 -0.5260
 2915SOL     OW20203   3.033   1.555   8.931  0.5199 -0.0328  0.3601
 2915SOL    HW120204   3.054   1.462   8.926  0.7024  0.1678 -2.5019
 2915SOL    HW220205   2.957   1.554   8.988 -0.1306 -0.3719 -0.5147
 2916SOL     OW20206   3.304   3.909  13.218 -0.1527  0.7009 -0.1853
 2916SOL    HW120207   3.226   3.867  13.255 -1.2571  2.0457 -0.9912
 2916SOL    HW220208   3.357   3.832  13.198 -3.3257 -1.2447 -1.0175
 2917SOL     OW20209   0.207   3.674   2.224  0.1078 -0.2448  0.2337
 2917SOL    HW120210   0.160   3.666   2.306 -1.5775 -0.2513 -0.7381
 2917SOL    HW220211   0.142   3.676   2.153  1.0522 -1.2813 -0.6651
 2918SOL     OW20212   3.297   3.243   3.836  0.3228  0.4916 -0.2817
 2918SOL    HW120213   3.218   3.210   3.795 -1.0573  0.4920  2.3725
 2918SOL    HW220214   3.340   3.276   3.757  1.0184 -0.6340 -0.3717
 2919SOL     OW20215   2.228   2.779  10.681  0.2130  0.9271  0.4737
 2919SOL    HW120216   2.144   2.794  10.725 -0.4404 -1.4912  0.0407
 2919SOL    HW220217   2.205   2.699  10.635  1.3207  1.4403 -0.9911
 2920SOL     OW20218   1.464   3.995   2.436 -0.0222 -0.0520 -0.0007
 2920SOL    HW120219   1.525   3.934   2.479 -0.7608 -0.1309  0.9459
 2920SOL    HW220220   1.494   3.995   2.346  0.9393 -2.8129  0.2900
 2921SOL     OW20221   3.497   2.212   7.237  0.2791 -0.4367  0.4828
 2921SOL    HW120222   3.577   2.159   7.238 -0.0028 -0.8968 -1.2129
 2921SOL    HW220223   3.461   2.163   7.311  0.6625 -2.7946 -0.8860
 2922SOL     OW20224   2.096   4.481   3.644  0.7055  0.2009  0.0598
 2922SOL    HW120225   2.165   4.519   3.590 -0.5564  0.1526 -1.5863
 2922SOL    HW220226   2.153   4.440   3.709 -1.4049 -1.1917  1.0116
 2923SOL     OW20227   0.366   2.423   7.220 -0.2171 -0.1399 -0.0263
 2923SOL    HW120228   0.307   2.476   7.275 -0.9514 -1.6553  0.6515
 2923SOL    HW220229   0.443   2.476   7.199 -0.7480  0.3479 -0.7482
 2924SOL     OW20230   4.063   1.946   4.191 -0.4902 -0.6227  0.3339
 2924SOL    HW120231   4.074   2.029   4.236 -0.5643  0.0215 -0.8242
 2924SOL    HW220232   4.093   1.959   4.101  0.6497  0.6047  0.9094
 2925SOL     OW20233   3.658   3.819  15.804  0.3871  0.0092  0.2632
 2925SOL    HW120234   3.684   3.905  15.840  0.3661  0.2751 -0.3619
 2925SOL    HW220235   3.573   3.807  15.846  1.2004 -0.4216  1.8150
 2926SOL     OW20236   4.398   2.480  17.338  0.1734 -0.0988 -0.0254
 2926SOL    HW120237   4.455   2.524  17.275 -1.8549  2.1349 -0.2594
 2926SOL    HW220238   4.332   2.450  17.276 -0.1686 -0.6215  0.5880
 2927SOL     OW20239   0.383   3.601   3.368 -0.6528  0.4890 -0.0391
 2927SOL    HW120240   0.378   3.574   3.276  1.2700  2.4671 -0.7252
 2927SOL    HW220241   0.295   3.581   3.400  0.4326 -0.3446  2.4350
 2928SOL     OW20242   4.468   4.278   7.075  0.7474 -0.0326  0.3286
 2928SOL    HW120243   4.428   4.267   6.989 -1.0469  2.7863  0.8176
 2928SOL    HW220244   4.430   4.357   7.111 -2.4002 -1.3201 -0.1967
 2929SOL     OW20245   4.305   1.282   7.106 -0.1689 -0.3558 -0.0650
 2929SOL    HW120246   4.233   1.343   7.120 -1.9709 -2.6122  0.3657
 2929SOL    HW220247   4.374   1.328   7.156  1.8700 -2.7762 -0.6408
 2930SOL     OW20248   1.665   0.661   8.533 -0.0053 -0.1003 -0.4930
 2930SOL    HW120249   1.591   0.719   8.550 -0.6827 -0.9398 -0.5452
 2930SOL    HW220250   1.639   0.587   8.587  0.7196  0.5175  0.6814
 2931SOL     OW20251   1.655   0.882   6.941  0.0076  0.5471 -0.8209
 2931SOL    HW120252   1.602   0.812   6.904 -3.9654  2.7390  0.7943
 2931SOL    HW220253   1.633   0.866   7.033  0.0981 -1.4014 -1.1376
 2932SOL     OW20254   1.622   0.931  11.293 -0.2578  0.6025 -0.0331
 2932SOL    HW120255   1.654   0.841  11.289 -0.0156  0.6964 -0.1609
 2932SOL    HW220256   1.550   0.915  11.355  0.6289 -1.3359  0.5129
 2933SOL     OW20257   2.700   0.179  10.240 -0.0214  0.3695  0.2994
 2933SOL    HW120258   2.635   0.200  10.174 -0.1490  0.6041  0.4997
 2933SOL    HW220259   2.664   0.212  10.322 -2.1757  0.3927 -0.6673
 2934SOL     OW20260   2.397   2.528   2.607  0.0716 -0.0903 -0.6599
 2934SOL    HW120261   2.482   2.506   2.645 -1.3831 -0.8541  2.1591
 2934SOL    HW220262   2.355   2.548   2.691 -0.8182 -0.7199 -0.9489
 2935SOL     OW20263   2.457   3.183   8.066 -0.0033  0.0747  0.3750
 2935SOL    HW120264   2.435   3.194   8.158  0.4726  0.1300  0.4813
 2935SOL    HW220265   2.379   3.210   8.017  1.1661 -1.1801 -2.2038
 2936SOL     OW20266   1.460   1.883   8.938 -0.4221  0.4236 -0.3087
 2936SOL    HW120267   1.379   1.893   8.889  0.1438  1.7219 -0.9812
 2936SOL    HW220268   1.430   1.925   9.019  0.9875 -1.0623  1.0081
 2937SOL     OW20269   3.235   2.725   5.579  0.4138  0.2395 -0.3303
 2937SOL    HW120270   3.191   2.655   5.627 -1.5523  0.2312 -2.1597
 2937SOL    HW220271   3.194   2.724   5.492  1.7292 -2.3672 -0.8852
 2938SOL     OW20272   4.392   1.774  17.526 -0.2312  0.1285  0.1281
 2938SOL    HW120273   4.364   1.766  17.617  2.1137 -0.6781  0.7836
 2938SOL    HW220274   4.309   1.789  17.481 -0.3277  1.4532  0.7594
 2939SOL     OW20275   2.700   2.021   6.147 -0.0268 -0.7044 -0.4366
 2939SOL    HW120276   2.682   2.000   6.239  2.0872  0.4882  0.2579
 2939SOL    HW220277   2.781   2.072   6.159  0.2126 -1.3875  0.8879
 2940SOL     OW20278   2.625   3.073   9.378  0.3010  0.2164 -0.0346
 2940SOL    HW120279   2.658   3.028   9.301 -2.3402 -1.0660 -0.4261
 2940SOL    HW220280   2.530   3.058   9.374  0.4101  0.4294 -3.0633
 2941SOL     OW20281   0.185   2.201   7.702 -0.3545  0.1750  0.2612
 2941SOL    HW120282   0.098   2.199   7.662 -1.0827  0.0307  1.8472
 2941SOL    HW220283   0.231   2.238   7.627  0.5657  1.4840  1.4715
 2942SOL     OW20284   0.489   3.446   1.507  0.4292  0.3098  0.0222
 2942SOL    HW120285   0.493   3.454   1.602  0.0137  0.2177  0.0480
 2942SOL    HW220286   0.463   3.355   1.491 -0.5702  0.4178  1.0880
 2943SOL     OW20287   1.677   1.663   2.580  0.3346  0.3565  0.2161
 2943SOL    HW120288   1.727   1.704   2.651  1.5090 -2.2251  0.8744
 2943SOL    HW220289   1.720   1.702   2.503 -1.4934  0.8293 -0.5667
 2944SOL     OW20290   3.657   0.792  11.747 -0.1502  0.2447 -0.3261
 2944SOL    HW120291   3.663   0.878  11.787  2.7809 -0.8196  1.5484
 2944SOL    HW220292   3.749   0.767  11.758 -0.0259  1.1366  0.6130
 2945SOL     OW20293   1.681   1.317   5.263 -0.4771 -0.5199 -0.6738
 2945SOL    HW120294   1.625   1.323   5.186  3.2733 -0.2710 -3.3793
 2945SOL    HW220295   1.647   1.234   5.297  0.0010 -0.2491  0.4573
 2946SOL     OW20296   3.027   2.388   5.189 -0.2366 -0.0707 -0.2197
 2946SOL    HW120297   2.938   2.377   5.223  0.5454 -1.2485  1.4218
 2946SOL    HW220298   3.059   2.347   5.269  0.2287  1.2498  0.2615
 2947SOL     OW20299   1.726   3.446   7.038 -0.3579 -0.7342 -0.1654
 2947SOL    HW120300   1.810   3.483   7.008  0.1981 -0.1586  2.1256
 2947SOL    HW220301   1.682   3.436   6.954 -0.9756  1.0598 -0.0565
 2948SOL     OW20302   4.374   4.065   7.342 -0.0039  0.2093  0.1267
 2948SOL    HW120303   4.395   4.093   7.253 -2.4496  2.0150  0.1351
 2948SOL    HW220304   4.440   4.118   7.387 -0.2355 -1.0181  1.9208
 2949SOL     OW20305   0.109   1.798   8.070 -0.7120  0.2825  0.2994
 2949SOL    HW120306   0.158   1.856   8.129 -0.7781 -0.2978  0.9273
 2949SOL    HW220307   0.127   1.834   7.983 -2.3096  1.7113  0.5611
 2950SOL     OW20308   0.239   0.304   3.536  0.2504 -0.4260 -0.2131
 2950SOL    HW120309   0.312   0.359   3.563  1.1084 -0.6914 -2.0318
 2950SOL    HW220310   0.193   0.358   3.471 -2.3037 -1.9627  0.3005
 2951SOL     OW20311   0.379   2.610   7.648  0.3433 -0.4268  0.6251
 2951SOL    HW120312   0.471   2.592   7.668  0.9569  2.7302  0.5312
 2951SOL    HW220313   0.345   2.602   7.737 -0.0955  1.6012  0.6292
 2952SOL     OW20314   3.121   3.718   3.331  0.1472 -0.6705 -0.1053
 2952SOL    HW120315   3.033   3.682   3.339 -0.0535  0.0005  0.6504
 2952SOL    HW220316   3.169   3.664   3.394 -0.7025  0.4544  1.4971
 2953SOL     OW20317   4.149   4.156   9.248  0.4044 -0.1762 -0.0458
 2953SOL    HW120318   4.122   4.211   9.321  0.4349 -1.4440  0.9083
 2953SOL    HW220319   4.072   4.099   9.240 -1.0361  1.6230  1.0441
 2954SOL     OW20320   3.589   2.822   8.327  0.2151  0.1360 -0.7500
 2954SOL    HW120321   3.584   2.809   8.232  1.9386 -0.6412 -0.7235
 2954SOL    HW220322   3.508   2.870   8.346 -0.4058 -1.0566 -0.4071
 2955SOL     OW20323   1.538   1.601   3.337  0.2878  0.1325 -0.6951
 2955SOL    HW120324   1.460   1.656   3.328 -0.6995 -1.3491 -1.3819
 2955SOL    HW220325   1.566   1.589   3.246  0.0548 -0.6119 -0.6698
 2956SOL     OW20326   4.227   4.044  13.921  0.3535 -0.1625  0.7901
 2956SOL    HW120327   4.198   4.135  13.925 -0.6225 -0.4037 -0.8303
 2956SOL    HW220328   4.313   4.041  13.964  1.0079  0.7873 -0.4427
 2957SOL     OW20329   4.159   2.168  16.131  0.2823 -0.3267 -0.3358
 2957SOL    HW120330   4.205   2.236  16.179 -0.5640 -1.0044  1.4093
 2957SOL    HW220331   4.196   2.195  16.047 -0.6282 -0.4228 -0.7811
 2958SOL     OW20332   0.965   4.581   8.415  0.4444 -0.6138  0.3480
 2958SOL    HW120333   0.941   4.495   8.379  1.4245  0.5767 -3.1753
 2958SOL    HW220334   0.994   4.619   8.332  0.4824 -1.1439  0.1134
 2959SOL     OW20335   3.974   1.308   6.822 -0.0010  0.0971  0.0561
 2959SOL    HW120336   3.882   1.334   6.819  0.5195  1.5523 -2.7015
 2959SOL    HW220337   3.968   1.233   6.762  1.9988 -0.1209  0.1285
 2960SOL     OW20338   3.032   4.035   5.496 -0.3915  0.1988 -0.3126
 2960SOL    HW120339   3.108   4.005   5.545  0.0772  1.2727 -0.4046
 2960SOL    HW220340   3.048   4.022   5.402  2.3804  0.1255  0.1675
 2961SOL     OW20341   3.688   2.780   2.946 -0.6553 -0.6206 -0.3816
 2961SOL    HW120342   3.635   2.712   2.904  1.4608 -1.5052 -1.6225
 2961SOL    HW220343   3.731   2.840   2.885 -1.3024 -0.1212 -0.3501
 2962SOL     OW20344   2.823   1.674  10.789  0.1591 -0.1354 -0.2495
 2962SOL    HW120345   2.899   1.621  10.766  0.3047 -0.2733  0.5314
 2962SOL    HW220346   2.859   1.752  10.832 -0.8818  0.3293 -0.2216
 2963SOL     OW20347   1.380   2.097   8.210 -0.6906 -0.5838 -0.6810
 2963SOL    HW120348   1.453   2.114   8.150  0.4546 -1.1844  0.5425
 2963SOL    HW220349   1.422   2.142   8.283  0.4159 -2.1202 -0.3680
 2964SOL     OW20350   0.574   0.300   0.588 -0.0898  0.5826  0.7171
 2964SOL    HW120351   0.479   0.291   0.595  0.1073 -1.7175  0.5390
 2964SOL    HW220352   0.592   0.304   0.494  0.8006  0.8201  0.8964
 2965SOL     OW20353   2.997   4.662  10.904  0.3043  0.3042  0.3625
 2965SOL    HW120354   3.011   4.622  10.818  0.6275 -2.9664  1.9245
 2965SOL    HW220355   2.976   0.021  10.869  0.5555  0.4629  0.6020
 2966SOL     OW20356   2.603   1.648   2.018  0.1920  0.4104 -0.3500
 2966SOL    HW120357   2.587   1.724   2.074  1.2203  0.8780 -0.6918
 2966SOL    HW220358   2.699   1.646   2.018  0.1815  0.0465  0.4961
 2967SOL     OW20359   3.405   1.487   3.445 -0.3623 -0.2880 -0.2506
 2967SOL    HW120360   3.462   1.563   3.459 -0.8751  0.8227 -4.2564
 2967SOL    HW220361   3.319   1.524   3.463 -0.4330 -0.1384 -0.8979
 2968SOL     OW20362   0.600   1.503   8.087 -0.1052  0.0555  0.0886
 2968SOL    HW120363   0.618   1.453   8.166  1.9897 -0.8779 -0.9962
 2968SOL    HW220364   0.519   1.459   8.060 -0.3816  2.0103 -2.3698
 2969SOL     OW20365   3.991   0.723   4.961 -0.3437  0.5205  0.2612
 2969SOL    HW120366   4.081   0.750   4.983  0.3098 -2.2678  1.0562
 2969SOL    HW220367   3.951   0.805   4.935  3.8515  2.0564 -1.4681
 2970SOL     OW20368   0.131   3.760   6.960 -0.0275 -0.5415 -0.2924
 2970SOL    HW120369   0.160   3.839   6.915 -0.9364  0.4114  0.7818
 2970SOL    HW220370   0.076   3.807   7.023  0.5470 -0.7645  0.3680
 2971SOL     OW20371   1.673   1.678  14.716  0.2140 -0.0591  0.4514
 2971SOL    HW120372   1.649   1.741  14.784  0.4312  0.9061 -0.3638
 2971SOL    HW220373   1.694   1.604  14.773 -1.4863  0.7157  2.1054
 2972SOL     OW20374   4.195   1.139   7.450  0.2470  0.6424  0.1262
 2972SOL    HW120375   4.172   1.069   7.388  3.0998 -1.0677  0.9897
 2972SOL    HW220376   4.109   1.139   7.493  0.5645  1.5072  0.7398
 2973SOL     OW20377   2.442   4.160   8.639 -0.2222 -0.1801  0.5949
 2973SOL    HW120378   2.476   4.112   8.715 -2.1057 -1.3233  0.7188
 2973SOL    HW220379   2.361   4.202   8.669  0.0728  2.0476 -1.7173
 2974SOL     OW20380   3.622   0.316   0.147 -0.3400 -0.1842  0.2039
 2974SOL    HW120381   3.585   0.237   0.107 -0.1759 -0.9192  1.5154
 2974SOL    HW220382   3.675   0.288   0.222 -1.2204 -0.9367  0.5471
 2975SOL     OW20383   3.128   3.310   7.235 -0.0265  0.2883  0.6595
 2975SOL    HW120384   3.074   3.388   7.217  0.3799  0.1334 -1.2447
 2975SOL    HW220385   3.069   3.260   7.291  0.6058 -1.0193  0.1390
 2976SOL     OW20386   2.943   2.070   5.310 -0.0352 -0.2598  0.6052
 2976SOL    HW120387   2.957   2.143   5.370 -1.2186  0.7467 -0.3464
 2976SOL    HW220388   3.011   2.007   5.334  0.5807 -0.3877 -1.4924
 2977SOL     OW20389   2.755   1.557   8.773  0.3323  0.1589  0.6814
 2977SOL    HW120390   2.788   1.645   8.793 -0.0662  0.3792  0.3549
 2977SOL    HW220391   2.762   1.513   8.857  0.5193  0.3843  0.7859
 2978SOL     OW20392   4.613   2.154   3.490  0.1471  0.1595  0.5416
 2978SOL    HW120393   4.679   2.213   3.453  0.3694 -1.0616 -0.9911
 2978SOL    HW220394   4.610   2.085   3.425 -1.6796 -0.0620  0.8761
 2979SOL     OW20395   4.258   4.188   5.722 -0.6438  0.1398 -0.5354
 2979SOL    HW120396   4.210   4.246   5.780 -1.6065 -2.3575  1.1322
 2979SOL    HW220397   4.257   4.104   5.766  0.4578  0.5114  0.1922
 2980SOL     OW20398   3.644   3.671   7.028 -0.2132  0.2029  0.1938
 2980SOL    HW120399   3.713   3.664   6.963  0.6094 -1.5310  1.2443
 2980SOL    HW220400   3.609   3.755   7.000  1.4356  1.4063  1.7122
 2981SOL     OW20401   1.596   1.212   3.790 -0.2464  0.4996  0.3715
 2981SOL    HW120402   1.650   1.281   3.751 -0.9430  0.8163 -0.0436
 2981SOL    HW220403   1.552   1.176   3.713  0.2005 -0.7292  0.6887
 2982SOL     OW20404   3.462   2.736   8.067  0.1541  0.1904 -0.2008
 2982SOL    HW120405   3.518   2.743   7.989  1.9143 -1.4943  0.9094
 2982SOL    HW220406   3.388   2.792   8.044 -0.2267 -1.1434 -2.2208
 2983SOL     OW20407   3.471   0.615   1.979 -0.3111 -0.8481  0.1647
 2983SOL    HW120408   3.467   0.568   1.896 -1.8076 -0.4855  0.0286
 2983SOL    HW220409   3.381   0.600   2.008 -0.6278  2.4611  0.8767
 2984SOL     OW20410   0.167   2.937   7.001 -0.7890  0.2077 -0.3746
 2984SOL    HW120411   0.247   2.989   6.988  0.1079 -0.8720  0.8026
 2984SOL    HW220412   0.104   3.008   7.010 -0.4001  0.4810  0.1970
 2985SOL     OW20413   0.751   1.797   5.407  0.0507  0.5905 -0.0474
 2985SOL    HW120414   0.670   1.795   5.355 -0.6396 -3.0703  1.1726
 2985SOL    HW220415   0.805   1.856   5.355 -0.2073  0.4721 -0.4520
 2986SOL     OW20416   0.264   0.250   2.322 -0.4571 -0.3913 -0.1177
 2986SOL    HW120417   0.207   0.297   2.384  1.7767  2.5922 -0.3184
 2986SOL    HW220418   0.344   0.239   2.373  0.0041  1.6679 -0.4142
 2987SOL     OW20419   1.133   1.676   4.118 -0.1324 -0.1971 -0.3957
 2987SOL    HW120420   1.132   1.655   4.024 -1.7238  1.2983 -0.6996
 2987SOL    HW220421   1.187   1.605   4.154 -1.9077  0.2008  3.0757
 2988SOL     OW20422   3.091   0.185   9.645  0.3142  0.2337  0.1623
 2988SOL    HW120423   3.100   0.134   9.726 -0.3354  1.9358  1.3020
 2988SOL    HW220424   2.999   0.210   9.656 -0.0929  0.1179 -2.8636
 2989SOL     OW20425   0.146   3.635   6.320 -0.2423  0.1457 -0.1169
 2989SOL    HW120426   0.204   3.558   6.323  0.3205  0.5349 -0.9700
 2989SOL    HW220427   0.070   3.582   6.343 -0.2442  0.2411  0.0976
 2990SOL     OW20428   0.863   1.612   6.939  0.2243  0.1715  0.1442
 2990SOL    HW120429   0.911   1.622   7.022 -0.4478 -1.1968  0.7089
 2990SOL    HW220430   0.889   1.524   6.911 -0.6453  0.2654 -0.9565
 2991SOL     OW20431   0.013   3.639   7.363 -0.1310  0.0168 -0.1634
 2991SOL    HW120432   0.091   3.667   7.315 -0.0082  1.4704  0.9137
 2991SOL    HW220433   0.052   3.608   7.445  0.0251 -0.6506 -0.4833
 2992SOL     OW20434   0.032   2.059   0.068  0.1120 -0.7264 -0.1025
 2992SOL    HW120435   0.015   2.067  17.683 -0.1929  3.5540  0.3155
 2992SOL    HW220436   4.698   1.989   0.090 -0.5086 -0.2713 -0.3494
 2993SOL     OW20437   4.657   0.678   7.293  0.2745  0.4068  0.1812
 2993SOL    HW120438   4.594   0.606   7.284  0.9429  0.0709 -1.7459
 2993SOL    HW220439   4.636   0.696   7.384  3.2367  1.6472  0.6083
 2994SOL     OW20440   1.080   3.097   0.304 -0.5037 -0.1481  0.1837
 2994SOL    HW120441   1.166   3.088   0.346 -1.0384 -3.1896  0.6690
 2994SOL    HW220442   1.073   3.192   0.309 -2.0255 -0.1023 -3.1663
 2995SOL     OW20443   0.002   3.986   3.656 -0.2271 -0.9038  0.0486
 2995SOL    HW120444   4.683   4.022   3.732  1.6495 -2.4771  1.9354
 2995SOL    HW220445   0.008   3.896   3.689 -1.7771 -0.8456  0.4786
 2996SOL     OW20446   4.015   1.212   8.648 -0.1880 -0.2825  0.0277
 2996SOL    HW120447   3.952   1.153   8.687 -0.3481  0.2099  0.5166
 2996SOL    HW220448   4.082   1.155   8.610  0.5686  3.7838 -4.8189
 2997SOL     OW20449   0.101   1.385   0.362  0.1329 -1.1178 -0.7333
 2997SOL    HW120450   0.169   1.419   0.419 -2.4568 -0.4073  1.9403
 2997SOL    HW220451   0.022   1.421   0.403  1.7350 -0.4569  1.7481
 2998SOL     OW20452   3.537   3.582   5.431 -0.5133 -0.0494 -0.1228
 2998SOL    HW120453   3.619   3.631   5.418 -0.5919  0.4658  1.2964
 2998SOL    HW220454   3.572   3.540   5.509 -0.3500  0.2942 -0.0090
 2999SOL     OW20455   1.412   4.607   4.538  0.2135  0.3922 -0.3716
 2999SOL    HW120456   1.420   4.701   4.559 -0.8975  0.2633  0.6651
 2999SOL    HW220457   1.437   4.563   4.619 -2.2773  1.0483  0.7584
 3000SOL     OW20458   3.004   2.297   3.151  0.6933  0.0273  0.3858
 3000SOL    HW120459   2.986   2.286   3.245  1.0637  1.1100  0.5834
 3000SOL    HW220460   2.943   2.228   3.125  2.0973  0.5942 -4.4122
 3001SOL     OW20461   0.325   3.967   9.359 -0.0359  0.4807  0.8733
 3001SOL    HW120462   0.356   4.022   9.431  0.5837  1.0440  0.1797
 3001SOL    HW220463   0.403   3.958   9.304  0.3823 -2.9303  2.0559
 3002SOL     OW20464   3.554   2.484   8.800 -1.1586 -0.1774 -0.1161
 3002SOL    HW120465   3.495   2.450   8.867  1.5613 -1.1200  1.8206
 3002SOL    HW220466   3.622   2.516   8.859 -1.5840  1.5482 -0.5643
 3003SOL     OW20467   4.366   2.611   4.955  0.1020  0.1372 -0.2783
 3003SOL    HW120468   4.323   2.668   4.892 -0.1890 -0.0004 -0.2025
 3003SOL    HW220469   4.364   2.529   4.906 -0.7824  0.3220 -0.5458
 3004SOL     OW20470   1.825   2.288  10.823  0.0161  0.2973 -0.2351
 3004SOL    HW120471   1.849   2.202  10.859 -1.0847 -0.3831 -1.1620
 3004SOL    HW220472   1.768   2.257  10.753  0.7659  2.6788 -1.9056
 3005SOL     OW20473   0.225   1.814   5.851 -0.1847 -0.1101  0.6170
 3005SOL    HW120474   0.260   1.734   5.890 -0.8118 -0.1297  1.1233
 3005SOL    HW220475   0.147   1.773   5.813 -0.5253  2.6141 -1.6223
 3006SOL     OW20476   4.623   1.970   3.296 -0.4852 -0.0398  0.6680
 3006SOL    HW120477   4.621   1.974   3.200  0.1449  2.0466  0.7479
 3006SOL    HW220478   4.546   1.914   3.298 -0.1699 -0.5713 -1.7652
 3007SOL     OW20479   2.074   1.555   8.600  0.4084 -0.1057 -0.7096
 3007SOL    HW120480   2.127   1.627   8.566  0.0967  1.1996  1.5717
 3007SOL    HW220481   2.115   1.534   8.684  0.3320  2.5254 -0.0217
 3008SOL     OW20482   4.638   4.293   6.849  0.0829 -0.2075 -0.4144
 3008SOL    HW120483   4.628   4.350   6.925  1.9335  1.8581 -1.7215
 3008SOL    HW220484   4.721   4.326   6.814 -0.0346  2.1335  1.5505
 3009SOL     OW20485   3.715   0.689  16.207 -0.4769  0.7109 -1.2340
 3009SOL    HW120486   3.780   0.674  16.275 -0.8973  1.1703 -0.7279
 3009SOL    HW220487   3.654   0.618  16.228  2.9114 -1.9773 -0.5155
 3010SOL     OW20488   4.115   2.748   5.013 -0.4584 -0.0203  0.1552
 3010SOL    HW120489   4.083   2.838   5.005  0.1550  0.3597  1.9931
 3010SOL    HW220490   4.030   2.719   4.979  0.5045  0.0831 -2.3523
 3011SOL     OW20491   3.881   3.865  13.618 -0.2770 -0.1135 -0.3361
 3011SOL    HW120492   3.943   3.816  13.564 -0.1437  0.7027 -0.9347
 3011SOL    HW220493   3.897   3.956  13.591  0.7405 -0.6532 -1.5943
 3012SOL     OW20494   1.586   2.668   1.630  0.6485 -0.4945 -0.4131
 3012SOL    HW120495   1.531   2.650   1.707 -1.4241 -1.1016 -2.0350
 3012SOL    HW220496   1.566   2.759   1.608 -1.9892 -1.2066 -0.9715
 3013SOL     OW20497   2.418   2.776   6.891  0.2920 -0.1563 -0.2307
 3013SOL    HW120498   2.470   2.821   6.824  0.1743 -1.0292 -0.9001
 3013SOL    HW220499   2.368   2.717   6.836  0.8144 -0.6050 -0.2228
 3014SOL     OW20500   1.626   2.363   2.082  0.0892  0.2501 -0.5177
 3014SOL    HW120501   1.694   2.400   2.027  0.3879  1.0732  0.3983
 3014SOL    HW220502   1.560   2.321   2.026  0.5387  1.0790 -1.6586
 3015SOL     OW20503   0.023   0.480   3.677  0.4170 -0.1944 -0.8796
 3015SOL    HW120504   4.661   0.446   3.690  0.1149  1.2250  0.8277
 3015SOL    HW220505   0.068   0.399   3.655 -3.1343 -1.8464 -2.0702
 3016SOL     OW20506   4.580   1.241  10.626  0.0047  0.0674 -0.3328
 3016SOL    HW120507   4.560   1.178  10.695 -3.5148  0.3809 -1.0506
 3016SOL    HW220508   4.651   1.200  10.577  0.0606 -0.2899  0.0437
 3017SOL     OW20509   3.990   2.058   1.834  0.2531 -0.9799  0.8542
 3017SOL    HW120510   3.934   2.041   1.759  2.8547 -0.4827 -1.1887
 3017SOL    HW220511   3.926   2.076   1.903  0.8418  0.1153  1.1081
 3018SOL     OW20512   0.284   4.331  13.601 -0.4199 -0.2947  0.4027
 3018SOL    HW120513   0.352   4.381  13.646 -0.1067 -0.1227 -0.2562
 3018SOL    HW220514   0.265   4.386  13.525 -0.5669 -0.8929  0.0024
 3019SOL     OW20515   1.611   2.970   2.441 -0.2058 -0.2188  0.1515
 3019SOL    HW120516   1.668   2.920   2.383  0.5695  0.7329  0.0936
 3019SOL    HW220517   1.538   2.910   2.428  0.2280 -0.7955  0.4059
 3020SOL     OW20518   4.620   2.951   2.819  0.0795 -0.3298  0.2113
 3020SOL    HW120519   4.598   2.900   2.897  0.5082  0.1467  0.6413
 3020SOL    HW220520   4.530   2.956   2.786  0.6812  2.2115 -1.0346
 3021SOL     OW20521   1.665   4.359   3.959 -0.2756  0.7641 -0.0514
 3021SOL    HW120522   1.759   4.342   3.973 -0.4153 -0.2764 -0.3985
 3021SOL    HW220523   1.637   4.394   4.044  2.4601  2.7363  0.0619
 3022SOL     OW20524   1.396   0.102   4.308  0.5134  0.0011  0.0324
 3022SOL    HW120525   1.307   0.073   4.288  1.9194 -3.3297 -1.4521
 3022SOL    HW220526   1.396   0.094   4.403  2.0902 -2.2081 -0.1600
 3023SOL     OW20527   1.825   4.650   2.538 -0.2255 -0.2774 -0.2893
 3023SOL    HW120528   1.885   4.714   2.577 -0.7864  1.0218 -1.5772
 3023SOL    HW220529   1.798   4.701   2.462 -1.5300  0.3187  0.5621
 3024SOL     OW20530   3.994   3.098  13.046  0.7360  0.7947  0.4517
 3024SOL    HW120531   3.995   3.004  13.028  0.0929  0.9858 -0.5487
 3024SOL    HW220532   4.079   3.125  13.012 -0.7860  0.8360 -3.3231
 3025SOL     OW20533   3.882   0.446  17.680  0.3457  0.6699 -0.2379
 3025SOL    HW120534   3.870   0.351  17.692 -0.1218  0.4203 -2.7134
 3025SOL    HW220535   3.962   0.469   0.020 -0.4928  1.3870  0.8043
 3026SOL     OW20536   2.657   2.097  12.697 -0.2184  0.3457  0.6483
 3026SOL    HW120537   2.579   2.106  12.752  0.0336 -0.2303  1.1074
 3026SOL    HW220538   2.617   2.068  12.615 -0.5807 -1.4841  1.4592
 3027SOL     OW20539   1.999   0.739   4.934  0.2461  0.0078 -0.0912
 3027SOL    HW120540   1.997   0.691   5.017 -0.5426 -0.2632 -0.2609
 3027SOL    HW220541   2.056   0.683   4.881  2.3600 -0.6674  2.8530
 3028SOL     OW20542   0.169   1.025   0.567 -0.1559  0.0718 -0.2451
 3028SOL    HW120543   0.244   0.996   0.619 -0.5235 -0.0101  0.2451
 3028SOL    HW220544   0.132   1.096   0.619  1.5719  1.3430 -0.7297
 3029SOL     OW20545   3.603   0.781   4.791 -0.0097  0.0926  0.3777
 3029SOL    HW120546   3.617   0.687   4.802 -1.0589 -0.1857 -0.6587
 3029SOL    HW220547   3.655   0.800   4.713 -0.9627  1.8455  0.1616
 3030SOL     OW20548   1.323   3.184   2.868  0.5534  0.1571 -0.1430
 3030SOL    HW120549   1.273   3.252   2.821 -0.1315  0.5416  1.1551
 3030SOL    HW220550   1.283   3.198   2.953  0.9184 -0.2113  0.0852
 3031SOL     OW20551   3.055   2.974  10.167 -0.4179  0.3760 -0.1708
 3031SOL    HW120552   3.026   2.883  10.179  0.5350  0.1995  0.8907
 3031SOL    HW220553   3.130   2.951  10.112 -0.3899  0.3448 -0.1203
 3032SOL     OW20554   2.018   3.857   9.577 -0.1994  0.1998  0.5111
 3032SOL    HW120555   2.067   3.917   9.634  0.2355 -0.0824  0.4364
 3032SOL    HW220556   1.952   3.921   9.549 -0.6208  0.7663  2.8174
 3033SOL     OW20557   1.659   0.947   6.293 -0.0557 -0.5740  0.2333
 3033SOL    HW120558   1.646   0.864   6.340 -1.9068  0.0289  0.7651
 3033SOL    HW220559   1.667   1.009   6.365 -0.5144 -0.8416  0.5158
 3034SOL     OW20560   0.874   3.405   5.760  0.1196  0.5509 -0.2999
 3034SOL    HW120561   0.843   3.483   5.805  0.0990 -0.8134  2.0055
 3034SOL    HW220562   0.923   3.440   5.686  2.3025  0.8331  1.2877
 3035SOL     OW20563   0.614   4.337  15.161 -0.2285 -0.4007 -0.6019
 3035SOL    HW120564   0.614   4.347  15.256 -0.5272 -0.9670 -0.5455
 3035SOL    HW220565   0.540   4.279  15.144  1.0202 -2.1545  0.0224
 3036SOL     OW20566   2.294   1.753   9.207 -0.7468  0.0310  0.3901
 3036SOL    HW120567   2.285   1.727   9.116 -2.1220 -1.2702  0.9092
 3036SOL    HW220568   2.207   1.788   9.226 -0.8377 -0.3155  0.6073
 3037SOL     OW20569   1.048   2.000   2.374  0.3788  0.4247  0.3307
 3037SOL    HW120570   0.960   2.030   2.350  0.4200 -1.6389 -2.4374
 3037SOL    HW220571   1.090   2.053   2.307  0.6402 -1.4056 -0.9525
 3038SOL     OW20572   4.205   1.471  16.809  0.0934 -0.1593  0.2798
 3038SOL    HW120573   4.110   1.461  16.809  0.0491  0.2803 -1.0927
 3038SOL    HW220574   4.210   1.564  16.787  1.3815 -0.0799  0.9150
 3039SOL     OW20575   1.320   1.129   7.548  0.0167 -0.2697  0.4281
 3039SOL    HW120576   1.238   1.180   7.556 -0.5765 -1.1393 -0.1316
 3039SOL    HW220577   1.367   1.154   7.628  1.0712 -0.2087 -0.2245
 3040SOL     OW20578   4.715   2.671  12.266  0.2114  0.3623 -0.6351
 3040SOL    HW120579   4.631   2.660  12.310  0.2622 -0.6961 -0.8090
 3040SOL    HW220580   4.686   2.620  12.190 -0.1520 -0.4024  0.0203
 3041SOL     OW20581   2.078   2.411   0.466  0.1239 -0.1843  0.1216
 3041SOL    HW120582   2.063   2.420   0.372 -0.7242 -1.8776  0.0859
 3041SOL    HW220583   1.999   2.359   0.480  0.2786 -0.5643 -0.4055
 3042SOL     OW20584   3.813   2.803  15.057  0.2819 -0.1669  0.1285
 3042SOL    HW120585   3.805   2.887  15.103 -1.0059  1.0958 -2.4371
 3042SOL    HW220586   3.907   2.793  15.044  0.4935 -1.7014  2.6751
 3043SOL     OW20587   1.890   3.872   7.176 -0.1964  0.2565 -0.7042
 3043SOL    HW120588   1.876   3.803   7.241  1.4044  1.6270  1.1109
 3043SOL    HW220589   1.940   3.942   7.219 -3.6451  1.9467  0.5886
 3044SOL     OW20590   1.813   1.535  16.341  1.4113  0.3666 -0.1408
 3044SOL    HW120591   1.853   1.449  16.329  2.3297  0.7419  0.2282
 3044SOL    HW220592   1.724   1.511  16.367  1.2018  0.8629 -0.3848
 3045SOL     OW20593   4.363   4.092   1.936 -0.1770  0.0834  0.0816
 3045SOL    HW120594   4.299   4.068   1.870  0.9077 -2.1890 -0.1234
 3045SOL    HW220595   4.328   4.181   1.943  0.0671  0.2418 -0.7172
 3046SOL     OW20596   3.206   2.152   1.596 -0.0631  0.1913 -0.4677
 3046SOL    HW120597   3.130   2.112   1.553  0.4230 -1.2124 -0.0106
 3046SOL    HW220598   3.246   2.205   1.527 -1.3180  0.5494 -0.9165
 3047SOL     OW20599   2.770   2.781   4.375 -0.2165 -0.3426  0.2948
 3047SOL    HW120600   2.788   2.816   4.288 -1.2744  0.5497  0.4250
 3047SOL    HW220601   2.691   2.824   4.409  1.4090 -0.3767  4.1466
 3048SOL     OW20602   3.044   2.940   5.525  0.0295 -0.0460  0.5182
 3048SOL    HW120603   3.136   2.918   5.518 -0.0869 -0.1855 -0.5045
 3048SOL    HW220604   3.022   3.016   5.471  0.6400 -0.1289  0.1573
 3049SOL     OW20605   4.075   3.702  17.693  0.4252 -0.1690 -0.1392
 3049SOL    HW120606   4.099   3.629   0.041  1.8376  0.6344  0.3005
 3049SOL    HW220607   4.085   3.776   0.044  0.8519 -1.9767  2.0111
 3050SOL     OW20608   2.344   4.599   3.441 -0.3987  0.0885 -0.1475
 3050SOL    HW120609   2.378   4.661   3.506 -1.6954  0.9162 -0.2732
 3050SOL    HW220610   2.272   4.645   3.399  0.1695  2.3497  1.3414
 3051SOL     OW20611   2.500   2.885  12.146  0.1995  0.3225 -0.3611
 3051SOL    HW120612   2.536   2.838  12.071 -1.3443  0.5673 -1.2464
 3051SOL    HW220613   2.561   2.959  12.147 -0.5498  0.9589 -1.5790
 3052SOL     OW20614   4.356   0.403   1.513 -0.7091 -0.2493 -0.8736
 3052SOL    HW120615   4.439   0.359   1.496  0.0401  1.2216 -0.9425
 3052SOL    HW220616   4.339   0.438   1.426 -1.0220 -2.4001 -1.6829
 3053SOL     OW20617   3.651   4.629   8.782  0.2666  0.4501  0.0611
 3053SOL    HW120618   3.652   4.691   8.855 -0.3057  0.6733 -0.1260
 3053SOL    HW220619   3.617   4.551   8.826  1.7437  0.4409  1.1851
 3054SOL     OW20620   4.720   4.646   3.395 -0.0820  0.0300 -0.4898
 3054SOL    HW120621   0.055   4.688   3.454 -1.0726 -0.7762  1.1298
 3054SOL    HW220622   4.636   4.683   3.423  0.1731 -1.0850  1.7540
 3055SOL     OW20623   3.381   2.348   7.039  0.0474  0.6098  0.3786
 3055SOL    HW120624   3.293   2.366   7.072 -0.3785  1.0987 -0.9869
 3055SOL    HW220625   3.413   2.280   7.097  1.4244  1.1464  0.2420
 3056SOL     OW20626   2.648   2.205   7.453  0.1655 -0.2905 -0.2615
 3056SOL    HW120627   2.586   2.133   7.443 -1.0277  0.7998 -0.7293
 3056SOL    HW220628   2.730   2.159   7.434  0.2855 -0.2393  0.1256
 3057SOL     OW20629   0.009   3.612  13.462  0.1582 -0.0693  0.2295
 3057SOL    HW120630   4.678   3.655  13.526  1.0524  1.0212  0.3141
 3057SOL    HW220631   0.059   3.684  13.423 -1.9961  0.7578 -1.0345
 3058SOL     OW20632   3.925   1.277   0.866 -0.9225  0.1318  0.2549
 3058SOL    HW120633   3.959   1.328   0.792 -0.7670  1.8300  1.4924
 3058SOL    HW220634   3.969   1.312   0.943  1.9264 -0.0819 -1.3059
 3059SOL     OW20635   0.605   4.181   6.045 -0.2928 -0.3532 -0.0876
 3059SOL    HW120636   0.593   4.246   5.976 -0.2878 -0.4876 -0.2157
 3059SOL    HW220637   0.546   4.207   6.116  1.2617 -1.5368  1.6279
 3060SOL     OW20638   0.859   0.550   6.671  0.2515 -0.0031  0.7042
 3060SOL    HW120639   0.836   0.563   6.579 -0.3486  2.2530  1.1787
 3060SOL    HW220640   0.772   0.563   6.709  0.4238  2.1854  0.3277
 3061SOL     OW20641   3.630   1.904   0.864  0.0734  0.0798 -0.1853
 3061SOL    HW120642   3.689   1.833   0.838  1.2734  0.5780  1.1979
 3061SOL    HW220643   3.589   1.917   0.778 -1.9916 -1.1626  0.6234
 3062SOL     OW20644   4.183   1.465   7.717 -0.3255  0.1220  0.4499
 3062SOL    HW120645   4.162   1.522   7.643 -0.2839 -1.6924 -0.9622
 3062SOL    HW220646   4.145   1.513   7.790  1.3677  0.5428  1.0414
 3063SOL     OW20647   2.638   0.812   3.272  0.4158 -0.1388 -0.0885
 3063SOL    HW120648   2.723   0.784   3.239 -0.0828  0.2153 -1.6932
 3063SOL    HW220649   2.584   0.734   3.258 -0.3845  0.3872  0.0288
 3064SOL     OW20650   3.298   3.385   8.445 -0.3536 -0.2011  0.2292
 3064SOL    HW120651   3.208   3.407   8.420  0.0450 -1.1176 -2.0896
 3064SOL    HW220652   3.351   3.454   8.405 -1.7318  1.5579  1.4494
 3065SOL     OW20653   1.667   2.338   5.116 -0.0451  0.6040  0.2803
 3065SOL    HW120654   1.606   2.402   5.080 -1.6434 -0.7780  0.4913
 3065SOL    HW220655   1.679   2.292   5.033 -0.0333 -1.8883  1.6625
 3066SOL     OW20656   2.738   4.463   5.199 -0.3702  0.2014 -0.0547
 3066SOL    HW120657   2.746   4.505   5.285  0.4282 -1.0286  0.4838
 3066SOL    HW220658   2.714   4.374   5.225 -1.2262 -0.0307 -1.6606
 3067SOL     OW20659   1.300   2.314  10.342 -0.0991 -0.2700  0.1292
 3067SOL    HW120660   1.314   2.254  10.268 -0.5398  2.4603 -2.1430
 3067SOL    HW220661   1.379   2.290  10.391 -0.3197 -0.9591  0.1463
 3068SOL     OW20662   4.709   0.909  12.556 -0.2056  0.1593  0.6258
 3068SOL    HW120663   4.675   0.987  12.600  0.8020  0.9731 -0.0350
 3068SOL    HW220664   0.077   0.925  12.552  0.0710 -1.1636  1.9939
 3069SOL     OW20665   3.258   4.659   6.377 -0.4146  0.5279 -0.7016
 3069SOL    HW120666   3.312   4.678   6.301 -2.5373 -1.5754 -2.7688
 3069SOL    HW220667   3.187   4.720   6.358 -1.6094 -0.9631 -1.0517
 3070SOL     OW20668   2.248   3.202   7.004 -0.3867 -0.0628 -0.7624
 3070SOL    HW120669   2.202   3.192   6.921  1.0337 -0.4842 -1.4884
 3070SOL    HW220670   2.301   3.122   7.011 -1.6069 -0.6207  2.1469
 3071SOL     OW20671   0.314   1.924   1.164 -0.0410  0.3040 -0.1020
 3071SOL    HW120672   0.317   1.854   1.099 -1.0398 -0.1854  0.3859
 3071SOL    HW220673   0.282   1.999   1.114 -0.5657  0.1303 -0.0236
 3072SOL     OW20674   0.733   4.536   9.238 -0.3946  0.6135 -0.0822
 3072SOL    HW120675   0.744   4.553   9.331 -1.1517 -2.7468  0.6166
 3072SOL    HW220676   0.751   4.619   9.193 -1.9018  0.5355 -0.8219
 3073SOL     OW20677   0.464   4.575   6.292  0.1365  0.0128  0.0599
 3073SOL    HW120678   0.525   4.647   6.307 -1.0194  0.7434  1.2094
 3073SOL    HW220679   0.447   4.582   6.198 -0.0325  0.5194  0.1295
 3074SOL     OW20680   2.177   3.489  14.518  0.1039 -0.3401  0.5640
 3074SOL    HW120681   2.195   3.467  14.610 -0.6679 -1.1030  0.5462
 3074SOL    HW220682   2.216   3.574  14.501 -0.6174 -0.1271 -0.0342
 3075SOL     OW20683   0.271   2.706   6.885 -0.2547  0.0468  0.0807
 3075SOL    HW120684   0.274   2.776   6.950 -1.1920  0.2883 -0.1280
 3075SOL    HW220685   0.365   2.701   6.870 -0.5685  1.4209 -2.3954
 3076SOL     OW20686   2.957   1.535   6.547 -0.2447 -0.3999 -0.2577
 3076SOL    HW120687   2.956   1.447   6.584 -1.7584 -0.9818 -1.6721
 3076SOL    HW220688   2.909   1.526   6.464  0.9443 -1.3358 -0.8435
 3077SOL     OW20689   0.541   4.422   3.973  0.0491  0.1965  0.4662
 3077SOL    HW120690   0.629   4.384   3.977  0.2062  0.5195  0.1012
 3077SOL    HW220691   0.482   4.348   3.964  0.2370  0.0357  0.5472
 3078SOL     OW20692   0.265   2.700   6.250 -0.8780  0.2321 -0.5081
 3078SOL    HW120693   0.220   2.635   6.196 -0.8704 -0.1267 -0.0884
 3078SOL    HW220694   0.318   2.636   6.298  0.2048  1.5694  0.0568
 3079SOL     OW20695   4.169   1.915   3.661  0.7869  0.3640  0.7720
 3079SOL    HW120696   4.261   1.923   3.637  0.8552 -1.7808  0.3507
 3079SOL    HW220697   4.138   1.977   3.595 -1.3565 -1.2146  0.3026
 3080SOL     OW20698   3.384   0.334   3.995 -0.3653  0.0691 -0.8940
 3080SOL    HW120699   3.323   0.400   3.962 -1.0375 -1.1563 -2.0953
 3080SOL    HW220700   3.339   0.254   3.969 -1.8122  0.8297 -0.7111
 3081SOL     OW20701   3.510   0.661   5.477 -0.2459 -0.5558 -0.0053
 3081SOL    HW120702   3.584   0.602   5.495 -0.7411 -1.2498 -0.2344
 3081SOL    HW220703   3.535   0.715   5.402  0.3015 -1.7179 -0.6746
 3082SOL     OW20704   0.988   3.063   2.706  0.1871  0.0688 -0.3986
 3082SOL    HW120705   0.958   3.127   2.770  1.2459 -0.1504  0.3251
 3082SOL    HW220706   0.904   3.046   2.662  0.7644  1.3351 -1.9865
 3083SOL     OW20707   3.364   1.901  16.993 -0.1143  0.0975 -0.4277
 3083SOL    HW120708   3.427   1.873  16.928 -0.8366  0.3073 -1.2179
 3083SOL    HW220709   3.335   1.980  16.946  0.8103 -2.1069 -4.6302
 3084SOL     OW20710   1.739   1.120  11.642  0.1157 -0.4639  0.0743
 3084SOL    HW120711   1.694   1.055  11.588 -0.2898 -1.1230  1.2037
 3084SOL    HW220712   1.681   1.118  11.718  0.1954  1.3536  0.1871
 3085SOL     OW20713   3.249   2.242  16.598  0.0650  0.1088  0.4004
 3085SOL    HW120714   3.250   2.164  16.543 -1.0563 -0.4902  1.2381
 3085SOL    HW220715   3.306   2.305  16.553 -1.8947  1.6746  0.1300
 3086SOL     OW20716   4.708   0.193   8.120  0.2374  0.1448 -0.1555
 3086SOL    HW120717   4.690   0.225   8.031 -1.4318 -0.5844 -0.0923
 3086SOL    HW220718   4.640   0.129   8.139 -0.8483  1.8288  1.6140
 3087SOL     OW20719   2.792   3.100  11.153 -0.0904 -0.1609 -0.3061
 3087SOL    HW120720   2.878   3.112  11.114 -1.0531 -0.8010 -2.6777
 3087SOL    HW220721   2.792   3.179  11.207  1.0643 -0.8405  0.6831
 3088SOL     OW20722   0.243   0.233  16.405  0.4557 -0.3240 -0.0386
 3088SOL    HW120723   0.231   0.173  16.479 -1.6821 -0.1509 -0.2570
 3088SOL    HW220724   0.164   0.202  16.361  0.0889 -0.2376  0.5517
 3089SOL     OW20725   1.971   0.380   5.259 -0.6196 -0.0910 -0.7710
 3089SOL    HW120726   2.014   0.464   5.245  0.8869 -0.5553  1.0353
 3089SOL    HW220727   2.001   0.338   5.179  1.5574  0.2516 -0.1329
 3090SOL     OW20728   1.931   3.573   1.751  0.4366  0.4208 -0.1081
 3090SOL    HW120729   2.014   3.576   1.799  0.9630 -1.6747 -0.9167
 3090SOL    HW220730   1.959   3.628   1.677  2.3222 -1.1987 -0.6029
 3091SOL     OW20731   2.945   3.307   1.858 -0.4530 -0.0979  0.0227
 3091SOL    HW120732   3.029   3.329   1.818 -0.5418  0.1393 -0.0339
 3091SOL    HW220733   2.951   3.216   1.886  1.4899  0.1179  0.3767
 3092SOL     OW20734   4.051   3.198   3.331  0.1253  0.1739 -0.6504
 3092SOL    HW120735   4.047   3.107   3.301  3.5550  0.2178 -1.3173
 3092SOL    HW220736   4.143   3.215   3.353 -0.7695  0.7688  2.4611
 3093SOL     OW20737   2.580   1.271  15.181 -0.1047  0.0276 -0.0957
 3093SOL    HW120738   2.643   1.232  15.121 -2.2480 -0.2582 -2.1567
 3093SOL    HW220739   2.541   1.192  15.217 -0.9474 -0.4483 -2.0440
 3094SOL     OW20740   2.514   4.352   3.712  0.2356 -0.1380 -0.6780
 3094SOL    HW120741   2.478   4.287   3.652 -0.8061 -0.0257 -0.1778
 3094SOL    HW220742   2.496   4.434   3.666  2.2891  0.4922 -0.3838
 3095SOL     OW20743   4.182   4.051   3.388  0.0258  0.4292  0.2027
 3095SOL    HW120744   4.090   4.026   3.401 -0.2693  0.7292 -1.2765
 3095SOL    HW220745   4.220   3.965   3.404 -0.5284  0.1973  0.2823
 3096SOL     OW20746   1.730   1.988   7.322  0.0353  0.6178 -0.2502
 3096SOL    HW120747   1.775   2.063   7.283  1.8206  0.1945  0.9772
 3096SOL    HW220748   1.778   1.988   7.405 -1.1219  1.9702  0.4203
 3097SOL     OW20749   1.792   1.390   3.715  0.7165  0.1253  0.7805
 3097SOL    HW120750   1.834   1.404   3.630  0.5324  0.2757  0.7162
 3097SOL    HW220751   1.871   1.358   3.759  1.1355 -0.1331 -0.1669
 3098SOL     OW20752   1.501   3.813   3.660  0.3612 -0.1466  0.1317
 3098SOL    HW120753   1.509   3.905   3.682  3.8056 -0.6114  0.7645
 3098SOL    HW220754   1.458   3.823   3.574 -1.6497 -3.9022  0.6574
 3099SOL     OW20755   4.030   0.213  12.567 -0.0030  0.0328  0.1227
 3099SOL    HW120756   4.012   0.120  12.553 -2.4386  0.3936  0.9112
 3099SOL    HW220757   4.054   0.210  12.660 -1.2430  0.0857  0.4363
 3100SOL     OW20758   4.037   0.065   8.277  0.0901 -0.1878 -0.1344
 3100SOL    HW120759   4.104   0.044   8.342 -0.0638 -2.5845 -0.7669
 3100SOL    HW220760   3.967   0.107   8.326  1.0044  0.0176  0.9989
 3101SOL     OW20761   0.513   1.241   0.498  0.1063 -0.4375 -0.4053
 3101SOL    HW120762   0.594   1.290   0.481  0.1941 -0.5330 -0.2631
 3101SOL    HW220763   0.476   1.259   0.411  0.7561  1.2539 -0.3391
 3102SOL     OW20764   2.393   4.402   3.284  0.0285 -0.3046 -0.4351
 3102SOL    HW120765   2.385   4.473   3.348 -1.4410 -2.8802  2.2462
 3102SOL    HW220766   2.301   4.391   3.257 -0.4799  0.4542  0.9833
 3103SOL     OW20767   0.504   1.822   2.014  0.2333  0.3450  0.1422
 3103SOL    HW120768   0.439   1.871   2.064  1.1262  1.5120  0.1717
 3103SOL    HW220769   0.439   1.776   1.961 -0.0005  2.1390 -1.1365
 3104SOL     OW20770   4.328   3.696   9.237  0.0407  0.3782 -0.2491
 3104SOL    HW120771   4.339   3.694   9.332  0.2754 -0.8826 -0.3056
 3104SOL    HW220772   4.241   3.660   9.223 -0.3489  0.8907  0.8623
 3105SOL     OW20773   4.568   3.532   8.874 -0.1076  0.3029  0.2023
 3105SOL    HW120774   4.492   3.475   8.884  0.8281 -0.7899  1.0099
 3105SOL    HW220775   4.571   3.579   8.958  0.5595 -2.9504  2.0035
 3106SOL     OW20776   0.005   0.191   8.429  0.0008 -0.3093  0.4282
 3106SOL    HW120777   4.660   0.128   8.425 -0.3348  0.1755 -1.1507
 3106SOL    HW220778   0.042   0.164   8.513 -0.1238  0.1907  0.6441
 3107SOL     OW20779   4.307   3.200   2.067  0.6155  0.8506 -0.8306
 3107SOL    HW120780   4.335   3.256   2.140 -0.4974  0.7813 -0.3597
 3107SOL    HW220781   4.331   3.267   2.002 -2.2816  1.5403 -1.1587
 3108SOL     OW20782   3.468   2.683   1.900 -0.5130 -0.2991 -0.3832
 3108SOL    HW120783   3.389   2.734   1.916  0.1234  0.7591 -0.5822
 3108SOL    HW220784   3.485   2.691   1.806 -2.6531  0.9506 -0.6475
 3109SOL     OW20785   0.945   4.516   6.285  0.6653  0.1786 -0.0838
 3109SOL    HW120786   1.033   4.518   6.323  0.4865 -1.1731  0.4191
 3109SOL    HW220787   0.929   4.609   6.269 -1.1925 -0.3747 -1.4313
 3110SOL     OW20788   3.617   2.202  17.115  0.2655 -0.8498  0.1999
 3110SOL    HW120789   3.581   2.125  17.159  1.1447 -0.7481  1.0877
 3110SOL    HW220790   3.649   2.255  17.189  1.9130 -0.8796 -0.5045
 3111SOL     OW20791   0.423   2.677   3.646  0.1421 -0.0606  0.0164
 3111SOL    HW120792   0.386   2.763   3.666  1.1739  0.3660  0.1195
 3111SOL    HW220793   0.339   2.638   3.624 -0.1781  0.4831  0.2646
 3112SOL     OW20794   3.554   2.151   8.623  0.2068 -0.1648 -0.1771
 3112SOL    HW120795   3.635   2.190   8.658  1.0976 -2.8851  0.7800
 3112SOL    HW220796   3.577   2.059   8.611  1.1361  0.1444 -0.8461
 3113SOL     OW20797   1.043   1.265  16.331 -0.1010  0.1638 -0.2730
 3113SOL    HW120798   0.988   1.286  16.406  0.2573 -1.8834  0.5674
 3113SOL    HW220799   0.986   1.216  16.273 -1.2524  2.5513 -1.1343
 3114SOL     OW20800   2.266   3.605   8.961 -0.3434 -0.0317 -0.6389
 3114SOL    HW120801   2.232   3.519   8.935 -2.1467  0.6855 -0.6841
 3114SOL    HW220802   2.347   3.571   8.998  0.0984  0.2244 -1.3812
 3115SOL     OW20803   3.767   4.242   8.574  0.1834 -0.2563 -0.2721
 3115SOL    HW120804   3.747   4.335   8.563  0.4365 -0.3538 -1.6026
 3115SOL    HW220805   3.862   4.244   8.561  0.0493  0.5344 -1.1087
 3116SOL     OW20806   4.562   0.271   4.740  0.3400 -0.0466 -0.4063
 3116SOL    HW120807   4.584   0.280   4.647 -0.8820 -2.2826 -0.9170
 3116SOL    HW220808   4.644   0.303   4.775 -0.4156  2.0566 -0.5916
 3117SOL     OW20809   2.361   4.559   8.448 -0.0311 -0.4229 -0.2997
 3117SOL    HW120810   2.400   4.482   8.407  2.7033 -0.0863  1.6330
 3117SOL    HW220811   2.441   4.601   8.480 -0.0518 -0.7923  0.2366
 3118SOL     OW20812   3.414   1.452  17.704 -0.7507  0.0648  0.0776
 3118SOL    HW120813   3.437   1.453  17.611  1.1050  0.6091  0.5382
 3118SOL    HW220814   3.434   1.360   0.012 -0.9791  0.1696  0.9051
 3119SOL     OW20815   0.467   2.691   8.962  0.3619 -0.1330  0.2764
 3119SOL    HW120816   0.483   2.624   9.028  0.7496  0.3632  0.6813
 3119SOL    HW220817   0.523   2.764   8.985  1.1438 -0.5151 -0.4180
 3120SOL     OW20818   2.275   4.499  16.609 -0.0803  0.4091 -0.1775
 3120SOL    HW120819   2.234   4.561  16.669 -0.6398 -1.1611  1.0491
 3120SOL    HW220820   2.368   4.521  16.620 -0.1954  0.9274 -0.2233
 3121SOL     OW20821   4.312   0.721   4.864 -0.3695 -0.2486  0.1822
 3121SOL    HW120822   4.309   0.792   4.799 -0.4563 -0.5743 -0.1668
 3121SOL    HW220823   4.282   0.776   4.937 -2.2552 -1.8983  0.6405
 3122SOL     OW20824   1.434   3.152  16.496  0.0299  0.7688  0.1144
 3122SOL    HW120825   1.352   3.194  16.523 -0.4745  0.1098 -0.4054
 3122SOL    HW220826   1.494   3.180  16.565  2.8022 -4.5843 -0.1534
 3123SOL     OW20827   0.979   3.543   1.811 -0.7130 -0.4611 -0.0430
 3123SOL    HW120828   0.938   3.462   1.780  0.9143 -1.1401 -0.4290
 3123SOL    HW220829   0.914   3.581   1.870 -1.0868  0.5519 -1.1110
 3124SOL     OW20830   3.365   4.210   6.642  0.2607  0.1976 -0.8920
 3124SOL    HW120831   3.456   4.227   6.665  0.2563 -0.3283 -0.4741
 3124SOL    HW220832   3.366   4.189   6.549  0.0763  1.1076 -1.0983
 3125SOL     OW20833   4.547   1.967   7.894 -0.1844  0.2919  0.4072
 3125SOL    HW120834   4.575   1.998   7.808 -2.2633 -0.2640 -0.4564
 3125SOL    HW220835   4.630   1.924   7.917  0.7571  1.4564 -0.8158
 3126SOL     OW20836   0.131   3.813   9.522 -0.0529 -0.0403 -0.2326
 3126SOL    HW120837   0.166   3.879   9.462 -0.1015  0.2693  0.0844
 3126SOL    HW220838   0.091   3.868   9.589 -1.0565 -0.1728 -0.7221
 3127SOL     OW20839   3.280   2.021   4.810 -0.1466 -0.0983 -0.0188
 3127SOL    HW120840   3.214   1.953   4.825 -0.0893 -0.5594 -1.9128
 3127SOL    HW220841   3.293   2.008   4.716 -2.4109 -0.3103 -0.2924
 3128SOL     OW20842   1.193   3.617   8.931 -0.4731 -0.2136 -0.1031
 3128SOL    HW120843   1.144   3.689   8.890 -0.7836 -0.3263  0.0659
 3128SOL    HW220844   1.232   3.583   8.850 -1.1670  0.2313 -0.6315
 3129SOL     OW20845   0.683   2.510   7.004 -0.4143  1.0473  0.5495
 3129SOL    HW120846   0.717   2.597   6.984 -0.9852  1.2133  0.3038
 3129SOL    HW220847   0.659   2.486   6.914  2.2069 -0.7478  0.3278
 3130SOL     OW20848   0.300   0.267   4.480 -0.5873  0.6665  0.4261
 3130SOL    HW120849   0.229   0.231   4.533  1.5591 -2.8481  0.9131
 3130SOL    HW220850   0.250   0.290   4.402 -0.2607 -1.1071 -0.3104
 3131SOL     OW20851   3.212   3.140   6.063  0.5630  0.1595  0.0221
 3131SOL    HW120852   3.308   3.147   6.069  0.5350  0.2202  0.3799
 3131SOL    HW220853   3.187   3.192   6.139 -1.3417 -0.0302 -0.4885
 3132SOL     OW20854   1.416   4.262   1.925  0.2216  0.3042  0.4978
 3132SOL    HW120855   1.511   4.268   1.917  0.0852  1.6800 -0.0842
 3132SOL    HW220856   1.388   4.237   1.837  2.1446 -1.1340  0.3060
 3133SOL     OW20857   3.862   3.280  14.971 -0.8004  0.1070  0.2698
 3133SOL    HW120858   3.809   3.354  14.941  0.2736  1.1444  0.9596
 3133SOL    HW220859   3.847   3.221  14.897  1.3410  2.6822 -2.1948
 3134SOL     OW20860   2.939   0.247   8.425  0.3826  0.0008  0.3336
 3134SOL    HW120861   2.910   0.285   8.509 -0.9844  1.6022 -0.8674
 3134SOL    HW220862   3.002   0.312   8.394 -0.8631  0.8644 -0.3683
 3135SOL     OW20863   2.403   0.427   5.658 -0.0241 -0.1211 -0.7325
 3135SOL    HW120864   2.413   0.507   5.708  3.4359 -2.0863  1.6917
 3135SOL    HW220865   2.314   0.440   5.626  0.3882  0.6624 -1.5750
 3136SOL     OW20866   1.917   4.107   9.606  0.2646  0.0117  0.0636
 3136SOL    HW120867   1.977   4.144   9.670 -2.2512  2.0300  1.2617
 3136SOL    HW220868   1.911   4.172   9.536 -1.3507 -0.0286  0.1652
 3137SOL     OW20869   2.370   0.613  16.531  0.0752 -0.6137 -0.1006
 3137SOL    HW120870   2.296   0.555  16.546 -1.8908  2.0980  0.7918
 3137SOL    HW220871   2.327   0.683  16.582  0.2385 -0.1469 -0.6035
 3138SOL     OW20872   3.222   4.483  15.827 -0.1888 -0.0832 -0.1663
 3138SOL    HW120873   3.255   4.507  15.914 -1.0995 -1.2891  0.5021
 3138SOL    HW220874   3.131   4.458  15.844 -0.3614  0.9192  0.4032
 3139SOL     OW20875   1.226   3.027   1.964 -0.2790 -0.8594  0.0747
 3139SOL    HW120876   1.197   3.050   1.876  0.5438  0.7339  0.2138
 3139SOL    HW220877   1.238   3.115   2.001  1.0603 -1.5945  1.4005
 3140SOL     OW20878   3.590   0.254   4.996  0.0597  0.4147 -0.8947
 3140SOL    HW120879   3.501   0.220   4.984  0.5416 -0.7787 -1.1663
 3140SOL    HW220880   3.624   0.175   5.038 -0.8453  0.1503 -0.6492
 3141SOL     OW20881   0.644   1.766   3.272  0.8992  0.3524 -0.4609
 3141SOL    HW120882   0.580   1.708   3.230  1.6181 -0.1016 -0.9328
 3141SOL    HW220883   0.626   1.839   3.213 -0.1707  1.1205  0.8130
 3142SOL     OW20884   2.395   3.099   5.729  0.2603  0.5095 -0.4371
 3142SOL    HW120885   2.441   3.110   5.646 -0.2211 -0.9375 -0.8957
 3142SOL    HW220886   2.469   3.082   5.787  1.0519  2.7782 -0.7800
 3143SOL     OW20887   0.044   4.600   8.926 -0.0095 -0.1572 -0.0824
 3143SOL    HW120888   0.099   4.678   8.933 -1.1822  0.6667 -0.0612
 3143SOL    HW220889   0.094   4.537   8.977  1.8325  0.1334 -1.5304
 3144SOL     OW20890   2.273   0.158   2.843  0.3811 -0.0248 -0.1107
 3144SOL    HW120891   2.342   0.155   2.910  0.7654 -0.9877 -0.5428
 3144SOL    HW220892   2.201   0.194   2.894  2.4260  1.3352  1.8354
 3145SOL     OW20893   2.099   4.636   8.479  0.5192 -0.5880  0.3841
 3145SOL    HW120894   2.102   4.675   8.392 -1.1068  1.7319  1.3737
 3145SOL    HW220895   2.194   4.629   8.484  0.5459 -0.2383  0.3600
 3146SOL     OW20896   4.530   1.878  15.895  0.0243  0.2221  0.4965
 3146SOL    HW120897   4.524   1.846  15.984  1.0155  1.0945  0.8743
 3146SOL    HW220898   4.525   1.972  15.916  1.4286 -0.3460  3.2807
 3147SOL     OW20899   1.422   1.152  10.764  0.1137 -0.3837  0.0031
 3147SOL    HW120900   1.352   1.213  10.788  0.1081 -0.6362  0.6118
 3147SOL    HW220901   1.422   1.177  10.671 -1.2721  0.9139  0.3543
 3148SOL     OW20902   2.867   2.909   3.082  0.2059 -0.0594  0.5592
 3148SOL    HW120903   2.879   2.948   2.996  0.1698  2.4690  1.7027
 3148SOL    HW220904   2.842   2.991   3.125  0.7944 -0.2688  1.2974
 3149SOL     OW20905   3.709   3.268   7.652 -0.4579  0.0296  0.5145
 3149SOL    HW120906   3.777   3.262   7.720  0.2329  0.5879 -0.1266
 3149SOL    HW220907   3.640   3.305   7.707 -1.3237 -1.3523  0.3621
 3150SOL     OW20908   3.351   1.218   2.548 -0.4252  0.1172 -0.6291
 3150SOL    HW120909   3.375   1.309   2.568 -1.5045  0.0347  1.0633
 3150SOL    HW220910   3.427   1.195   2.495  0.3856 -0.4007  0.7692
 3151SOL     OW20911   4.700   2.042   6.522  0.0382 -0.1157  0.3410
 3151SOL    HW120912   0.053   2.064   6.475 -1.3125  2.7096 -0.6328
 3151SOL    HW220913   4.629   2.071   6.465 -0.8841  0.6037  1.8409
 3152SOL     OW20914   0.806   4.357   5.876  0.0715  0.3257  0.0875
 3152SOL    HW120915   0.857   4.332   5.953 -0.2935  0.5140  0.3942
 3152SOL    HW220916   0.856   4.438   5.862  1.0303 -0.6887 -2.3116
 3153SOL     OW20917   2.552   1.506   2.400 -0.3739 -0.1875 -0.4046
 3153SOL    HW120918   2.496   1.580   2.377 -1.9402 -1.7638 -1.6534
 3153SOL    HW220919   2.579   1.477   2.313  1.8962 -2.6711  1.1129
 3154SOL     OW20920   0.287   3.419   8.265  0.4479 -0.3092 -0.1824
 3154SOL    HW120921   0.298   3.514   8.274  0.4007 -0.4105  0.9691
 3154SOL    HW220922   0.216   3.405   8.327  0.3383 -0.4641 -0.3421
 3155SOL     OW20923   3.906   4.034   3.440  0.1986  0.0140  0.2048
 3155SOL    HW120924   3.832   4.082   3.403  0.7285 -0.1134 -1.0359
 3155SOL    HW220925   3.864   3.984   3.509  0.8295  0.0851  0.6427
 3156SOL     OW20926   4.452   4.138   4.387 -0.2451 -0.4546  0.7483
 3156SOL    HW120927   4.478   4.228   4.369 -0.0459 -0.8169 -0.7946
 3156SOL    HW220928   4.360   4.154   4.407  0.0667  1.9617  0.2312
 3157SOL     OW20929   1.274   2.223   4.072 -0.6827 -0.6624  0.1230
 3157SOL    HW120930   1.203   2.271   4.114 -1.4953 -1.3951 -0.3992
 3157SOL    HW220931   1.267   2.137   4.114 -1.9777 -0.3582  0.5171
 3158SOL     OW20932   2.470   2.087  13.663 -0.4564 -0.0143 -0.0447
 3158SOL    HW120933   2.450   2.101  13.756 -3.1631  1.7174 -0.8944
 3158SOL    HW220934   2.397   2.135  13.624  0.3267  2.8414  1.9836
 3159SOL     OW20935   3.549   2.158  17.422 -0.0179  0.9976 -0.1650
 3159SOL    HW120936   3.637   2.120  17.427  0.3687  1.4854 -3.4902
 3159SOL    HW220937   3.558   2.228  17.487  0.8663  1.0354 -0.3255
 3160SOL     OW20938   4.477   2.622   7.071  0.4571 -0.6114 -0.5226
 3160SOL    HW120939   4.571   2.640   7.068  0.3714 -0.1618 -0.4941
 3160SOL    HW220940   4.478   2.567   7.150  0.4599 -0.2486 -0.2703
 3161SOL     OW20941   2.693   1.400   1.170 -0.1249 -0.2697  0.5863
 3161SOL    HW120942   2.637   1.459   1.221  0.0698 -0.8025  1.4093
 3161SOL    HW220943   2.769   1.458   1.164 -1.5240  1.1833 -2.5519
 3162SOL     OW20944   3.517   3.674  12.613  0.1516  0.0699 -0.0804
 3162SOL    HW120945   3.566   3.706  12.537 -0.3688 -0.3307 -0.5803
 3162SOL    HW220946   3.429   3.709  12.614 -0.4051 -1.3783  1.5383
 3163SOL     OW20947   2.625   2.343  14.315 -0.0045 -0.0602 -0.4450
 3163SOL    HW120948   2.557   2.282  14.342  0.3927 -1.2551 -2.1439
 3163SOL    HW220949   2.597   2.409  14.378 -1.0644 -1.3536  0.4309
 3164SOL     OW20950   3.779   3.753   9.590 -0.2353 -0.8003 -0.7736
 3164SOL    HW120951   3.719   3.762   9.664  0.2910  2.3475 -0.7408
 3164SOL    HW220952   3.781   3.843   9.557  0.7819  0.3500  2.3449
 3165SOL     OW20953   2.143   3.666   7.220 -0.0564 -0.3757 -0.3074
 3165SOL    HW120954   2.113   3.579   7.193  0.5392 -0.8514  0.5660
 3165SOL    HW220955   2.194   3.698   7.145 -0.2287  1.2935  0.2847
 3166SOL     OW20956   4.545   1.266   6.913 -0.2079  0.0779  0.6410
 3166SOL    HW120957   4.629   1.230   6.883  1.0432  1.3423  2.5880
 3166SOL    HW220958   4.572   1.340   6.967  0.2608  0.2662  0.1439
 3167SOL     OW20959   0.924   1.407  11.046 -0.1480  0.7783 -0.2286
 3167SOL    HW120960   0.959   1.369  10.965 -1.5955 -1.5207  0.2165
 3167SOL    HW220961   1.007   1.428  11.089  0.6876  0.6799 -1.7547
 3168SOL     OW20962   1.168   0.741  17.415  0.0048  0.0069  0.5351
 3168SOL    HW120963   1.227   0.666  17.415 -0.6149 -0.4810 -0.1931
 3168SOL    HW220964   1.110   0.714  17.486  0.3754 -0.0883  0.7984
 3169SOL     OW20965   4.376   0.784   1.259  0.4267  0.4350  0.3829
 3169SOL    HW120966   4.362   0.877   1.280 -0.4285  1.0741 -3.0240
 3169SOL    HW220967   4.423   0.736   1.328 -0.2926  2.1537  2.0881
 3170SOL     OW20968   4.161   0.736  14.576 -0.0815 -0.4659 -0.0349
 3170SOL    HW120969   4.163   0.737  14.480 -2.0012  0.3464 -0.0780
 3170SOL    HW220970   4.179   0.644  14.593  2.7145  0.0673 -0.0941
 3171SOL     OW20971   1.506   4.062  14.914 -0.4138  0.1800 -0.6466
 3171SOL    HW120972   1.508   3.974  14.876  2.9029 -0.0436  0.0642
 3171SOL    HW220973   1.596   4.068  14.946 -0.6503  2.2577 -0.3977
 3172SOL     OW20974   1.984   1.941  10.301 -0.5049 -0.0368  0.0302
 3172SOL    HW120975   2.057   2.002  10.292 -1.5288  1.1662 -0.1364
 3172SOL    HW220976   2.010   1.860  10.258 -1.2486  0.8596 -2.1242
 3173SOL     OW20977   3.951   3.722   7.057 -0.2697 -0.2529 -0.3230
 3173SOL    HW120978   4.010   3.696   6.987 -1.6103 -1.2917 -1.0566
 3173SOL    HW220979   3.936   3.631   7.081  1.6415 -0.2663  0.8565
 3174SOL     OW20980   1.481   2.537   5.041  0.0840 -0.5992 -0.1867
 3174SOL    HW120981   1.390   2.522   5.017 -0.1839 -0.9796  1.0106
 3174SOL    HW220982   1.487   2.632   5.044  1.2619 -0.6913  0.4476
 3175SOL     OW20983   0.641   3.075   1.669 -0.1408 -0.0837 -0.3130
 3175SOL    HW120984   0.676   3.008   1.728  0.1895  1.3923  1.1564
 3175SOL    HW220985   0.690   3.154   1.693  1.1379 -1.1570  0.6402
 3176SOL     OW20986   3.965   3.337   6.128 -0.2479 -0.2027  0.3730
 3176SOL    HW120987   3.922   3.355   6.211  0.8324  0.2315  0.8359
 3176SOL    HW220988   4.039   3.396   6.143  1.0824 -1.3148 -1.7111
 3177SOL     OW20989   2.300   0.221   4.108 -0.1424 -0.7086  0.2480
 3177SOL    HW120990   2.336   0.299   4.150 -0.3383 -1.5325  1.9142
 3177SOL    HW220991   2.238   0.269   4.052 -0.0061  2.2403  2.6287
 3178SOL     OW20992   3.548   1.718   4.861  0.0912  0.1202 -0.0963
 3178SOL    HW120993   3.489   1.778   4.907 -1.9003 -1.2405 -0.8413
 3178SOL    HW220994   3.615   1.701   4.928  0.5064  2.1614  0.0030
 3179SOL     OW20995   0.229   1.707   6.242 -0.3831 -0.6293  0.6291
 3179SOL    HW120996   0.137   1.730   6.226 -0.5769 -2.2039 -0.5570
 3179SOL    HW220997   0.228   1.639   6.309 -0.2905 -1.4692 -0.2175
 3180SOL     OW20998   1.004   1.142   6.994  0.1639  0.3230 -0.1361
 3180SOL    HW120999   0.937   1.074   6.991 -0.3206  0.8093 -0.2095
 3180SOL    HW221000   0.984   1.189   7.075 -3.5456 -1.8476  0.1879
 3181SOL     OW21001   2.790   4.577   5.736  0.1623 -0.2576  0.1834
 3181SOL    HW121002   2.799   4.509   5.802 -1.5813  0.0996  0.7979
 3181SOL    HW221003   2.846   4.641   5.780  0.3205 -0.8132  0.7920
 3182SOL     OW21004   0.121   1.084   5.799  0.1582  0.2374 -0.0432
 3182SOL    HW121005   0.214   1.078   5.817  0.1157  1.9836  0.7622
 3182SOL    HW221006   0.114   1.088   5.704 -0.8610 -1.7902 -0.0728
 3183SOL     OW21007   2.848   0.061  13.690 -0.3025  0.0446 -0.2284
 3183SOL    HW121008   2.911   0.119  13.648 -1.8496  1.1159 -1.0755
 3183SOL    HW221009   2.817   0.008  13.616 -0.8738 -0.0158  0.0567
 3184SOL     OW21010   4.605   2.251   3.747  0.4936 -0.1843  0.2248
 3184SOL    HW121011   4.637   2.176   3.798  2.4443  1.5130  1.5362
 3184SOL    HW221012   4.604   2.216   3.658 -0.1311  1.0100 -0.2329
 3185SOL     OW21013   2.360   2.098   0.926 -0.5506 -0.1079 -0.3087
 3185SOL    HW121014   2.451   2.108   0.953 -1.2556  1.2234  1.5544
 3185SOL    HW221015   2.340   2.032   0.992  0.6322  1.2654  1.4341
 3186SOL     OW21016   3.913   1.503   4.082  0.0698  0.2664  0.3274
 3186SOL    HW121017   3.909   1.597   4.099 -1.1450  0.3453 -0.3895
 3186SOL    HW221018   3.998   1.503   4.039  0.2783  0.4662  0.7372
 3187SOL     OW21019   0.285   1.869   5.200  0.5748 -0.1627 -0.0002
 3187SOL    HW121020   0.189   1.871   5.197  0.6350  0.6161 -1.4425
 3187SOL    HW221021   0.311   1.959   5.181  0.4598 -0.3097 -0.8857
 3188SOL     OW21022   0.813   0.954   8.338 -0.2061 -0.0777 -0.2765
 3188SOL    HW121023   0.889   0.975   8.391 -0.9415  0.7707  0.4418
 3188SOL    HW221024   0.809   0.859   8.351 -0.0083  0.3208  2.5390
 3189SOL     OW21025   1.107   3.588   2.507  0.1355  0.3406 -0.4955
 3189SOL    HW121026   1.132   3.502   2.474  1.8101  0.2578  0.9701
 3189SOL    HW221027   1.013   3.570   2.507  0.0830  0.5315  1.6388
 3190SOL     OW21028   1.469   3.049  12.072 -0.0930 -0.4386 -0.3593
 3190SOL    HW121029   1.385   3.018  12.106 -2.1464  2.1933 -3.0113
 3190SOL    HW221030   1.441   3.077  11.985  0.2345  0.9084 -0.0332
 3191SOL     OW21031   2.476   0.896   5.800 -0.1264  0.0774  0.0902
 3191SOL    HW121032   2.541   0.965   5.816  2.7264 -2.6371  0.3034
 3191SOL    HW221033   2.445   0.880   5.889  0.2823 -1.8899 -0.1261
 3192SOL     OW21034   0.703   1.736   7.982 -0.6642 -0.1455 -0.1304
 3192SOL    HW121035   0.675   1.652   8.018  1.1166 -0.2824  0.9204
 3192SOL    HW221036   0.622   1.785   7.965 -0.5872 -0.9043 -2.5794
 3193SOL     OW21037   1.247   3.180   1.315 -0.0958  0.4667 -0.0190
 3193SOL    HW121038   1.326   3.216   1.274  0.5137  1.2634  1.8983
 3193SOL    HW221039   1.180   3.246   1.302 -1.1986 -0.7390 -0.5350
 3194SOL     OW21040   4.457   2.631   4.111 -0.4099 -0.4720  0.2861
 3194SOL    HW121041   4.368   2.619   4.144 -0.6442  0.8783  0.1499
 3194SOL    HW221042   4.506   2.621   4.192  0.4495 -0.3350 -0.2226
 3195SOL     OW21043   3.962   2.664  16.912 -0.4449  0.3160  0.2191
 3195SOL    HW121044   3.911   2.678  16.992 -1.6740  3.4737 -1.0894
 3195SOL    HW221045   3.898   2.625  16.853  1.0769 -0.9653 -0.5875
 3196SOL     OW21046   1.023   0.985   6.715  0.4477 -0.0614 -0.4621
 3196SOL    HW121047   1.032   0.966   6.621 -1.0477 -1.4578 -0.3183
 3196SOL    HW221048   0.936   1.023   6.705  0.3826  0.4243  2.1644
 3197SOL     OW21049   1.278   2.605   2.761 -0.2979 -0.7226 -0.5259
 3197SOL    HW121050   1.232   2.549   2.698 -2.1099  0.5598 -0.3421
 3197SOL    HW221051   1.229   2.686   2.744  0.2426 -0.5070 -1.0609
 3198SOL     OW21052   3.181   1.337   5.118 -0.2567  0.3844  0.0120
 3198SOL    HW121053   3.235   1.392   5.060 -1.5847 -0.2372 -1.7927
 3198SOL    HW221054   3.146   1.275   5.054 -2.6679  0.0902  1.6542
 3199SOL     OW21055   3.590   0.726   5.229  0.5362 -0.3360  0.2648
 3199SOL    HW121056   3.673   0.678   5.222  1.1934  0.7594  0.4885
 3199SOL    HW221057   3.540   0.681   5.161 -0.5256  0.6828  0.3710
 3200SOL     OW21058   3.002   4.218   8.463  0.6302  0.2362  0.3435
 3200SOL    HW121059   2.950   4.140   8.445 -0.8488  1.5149 -0.9556
 3200SOL    HW221060   3.003   4.236   8.369  2.5512 -0.2535  0.2783
 3201SOL     OW21061   1.291   1.494   6.518  0.1187  0.3115  0.2575
 3201SOL    HW121062   1.325   1.540   6.595  0.5401 -0.0176  0.2687
 3201SOL    HW221063   1.253   1.568   6.470  1.4703  1.1000  0.3945
 3202SOL     OW21064   3.647   0.430   2.163  0.1274 -0.1847  0.4301
 3202SOL    HW121065   3.694   0.381   2.097  0.8684  0.4611  0.4755
 3202SOL    HW221066   3.619   0.507   2.113 -0.4787 -1.1729 -0.7447
 3203SOL     OW21067   2.277   4.573   0.784  0.1734 -0.3279  0.1907
 3203SOL    HW121068   2.199   4.522   0.762 -2.0087  2.8154  0.6602
 3203SOL    HW221069   2.259   4.646   0.726 -0.0272  0.2811  1.0212
 3204SOL     OW21070   1.746   0.632   9.142  0.0507  0.3076 -0.2206
 3204SOL    HW121071   1.744   0.585   9.226 -2.6286  0.1302 -0.3675
 3204SOL    HW221072   1.663   0.678   9.157  0.4537  1.0523 -0.3052
 3205SOL     OW21073   2.116   0.914   6.206 -0.7897 -0.1631 -0.2971
 3205SOL    HW121074   2.123   0.923   6.301  0.4993  2.1412 -0.6072
 3205SOL    HW221075   2.173   0.839   6.192 -1.5147 -0.4628 -1.6445
 3206SOL     OW21076   0.583   4.033  12.737 -0.6016 -0.3987 -0.6182
 3206SOL    HW121077   0.544   4.112  12.701  0.7881  0.4357 -0.2961
 3206SOL    HW221078   0.661   4.069  12.778 -0.8651  1.3367 -1.6655
 3207SOL     OW21079   1.729   3.669   6.280 -0.0873  0.0853 -0.2195
 3207SOL    HW121080   1.720   3.662   6.185  0.8440 -0.4826 -0.2694
 3207SOL    HW221081   1.653   3.714   6.316 -0.5035 -0.0299 -0.9674
 3208SOL     OW21082   1.808   1.968  16.486 -0.1540  0.3134 -0.5390
 3208SOL    HW121083   1.756   2.041  16.452  0.4057  0.9754  0.0410
 3208SOL    HW221084   1.801   1.913  16.408 -0.2621  2.1748 -1.8385
 3209SOL     OW21085   0.660   3.618   6.334  0.0283 -0.1139 -0.5050
 3209SOL    HW121086   0.631   3.596   6.423  0.3991  0.4294 -0.2469
 3209SOL    HW221087   0.738   3.673   6.344  0.3061 -0.6366  0.2380
 3210SOL     OW21088   4.437   3.306   1.757  0.3460 -0.4041 -0.0525
 3210SOL    HW121089   4.436   3.401   1.745 -0.8047 -0.6561 -1.8156
 3210SOL    HW221090   4.517   3.287   1.807  0.3983  3.8491  1.4933
 3211SOL     OW21091   0.666   2.109  17.046  0.4912  0.1241 -0.0323
 3211SOL    HW121092   0.663   2.062  17.129 -0.2379  2.6803  1.4047
 3211SOL    HW221093   0.654   2.198  17.081 -1.3310 -1.2495  2.8401
 3212SOL     OW21094   4.563   2.831   6.009 -0.2408 -0.4106 -0.0255
 3212SOL    HW121095   4.509   2.852   6.085  0.4716  1.2157  0.0469
 3212SOL    HW221096   4.614   2.908   5.984  0.6103 -0.9537  0.0280
 3213SOL     OW21097   0.446   1.821   9.170  0.3344 -0.4829  0.4194
 3213SOL    HW121098   0.443   1.908   9.132  0.8954  0.5319  2.6863
 3213SOL    HW221099   0.465   1.763   9.097 -1.2781  1.4523 -1.5315
 3214SOL     OW21100   4.133   3.247   2.282  0.1606  0.1221 -0.4009
 3214SOL    HW121101   4.160   3.174   2.226 -0.2292 -0.1549 -0.2198
 3214SOL    HW221102   4.114   3.311   2.213 -0.5677  2.2043  1.7229
 3215SOL     OW21103   0.894   3.077   4.302 -0.3074 -0.1237  0.2933
 3215SOL    HW121104   0.930   3.080   4.391  0.7620  0.6239 -0.1557
 3215SOL    HW221105   0.803   3.053   4.318 -0.4723  0.5335  0.3666
 3216SOL     OW21106   3.957   4.712   9.919 -0.2894 -0.5197  0.4719
 3216SOL    HW121107   4.046   0.021   9.914 -0.8461  0.7288 -0.5016
 3216SOL    HW221108   3.966   4.662   9.838  3.2690 -0.9592  1.1200
 3217SOL     OW21109   2.373   3.165   9.854 -0.0157  0.5649 -0.5357
 3217SOL    HW121110   2.445   3.222   9.880  0.7751 -1.6375  2.0483
 3217SOL    HW221111   2.407   3.076   9.856 -1.8980 -0.1656 -0.5628
 3218SOL     OW21112   4.089   4.291   6.260 -0.3412  0.4895  0.1215
 3218SOL    HW121113   4.153   4.358   6.284 -0.5696  0.6164  0.3873
 3218SOL    HW221114   4.005   4.333   6.281 -1.2851 -1.6123  0.6113
 3219SOL     OW21115   0.816   2.869   4.096 -0.2590  0.0562  0.3296
 3219SOL    HW121116   0.841   2.950   4.141  0.2729  0.2939 -0.4008
 3219SOL    HW221117   0.894   2.817   4.118  0.3270  0.3841 -0.9928
 3220SOL     OW21118   3.217   3.133   6.814  0.8335 -0.1323 -0.1066
 3220SOL    HW121119   3.159   3.065   6.848 -0.5632  0.0473 -2.1133
 3220SOL    HW221120   3.242   3.180   6.893  0.5916 -0.4690  0.1723
 3221SOL     OW21121   3.060   0.451   7.721  0.6278  0.1828  0.0001
 3221SOL    HW121122   3.139   0.463   7.669  0.0694  2.5490 -0.2678
 3221SOL    HW221123   3.090   0.388   7.787  2.0502  1.5743  0.6924
 3222SOL     OW21124   3.807   2.854   7.390 -0.2394 -0.0270 -0.4647
 3222SOL    HW121125   3.768   2.835   7.305  0.0293 -1.0215 -0.3579
 3222SOL    HW221126   3.735   2.911   7.418 -0.4279 -0.7255  0.4516
 3223SOL     OW21127   2.941   1.766  17.382 -0.7218  0.2937 -0.1296
 3223SOL    HW121128   2.968   1.779  17.291 -0.2168 -0.5597 -0.0957
 3223SOL    HW221129   2.912   1.675  17.381 -1.0280  0.3635  2.5267
 3224SOL     OW21130   2.213   4.442   4.159 -0.6467  0.3119 -0.1926
 3224SOL    HW121131   2.153   4.506   4.120  1.0455  1.1868 -1.3468
 3224SOL    HW221132   2.186   4.442   4.251 -0.9717 -0.1862 -0.2921
 3225SOL     OW21133   2.874   1.253   5.981 -0.1272 -0.4177  0.1760
 3225SOL    HW121134   2.872   1.195   5.905  1.5794 -0.8288  0.4348
 3225SOL    HW221135   2.942   1.213   6.034  0.7667  1.5004  0.4920
 3226SOL     OW21136   3.378   0.656   2.832  0.0323 -0.2724 -0.2851
 3226SOL    HW121137   3.413   0.604   2.759  1.3579 -1.2551  1.0675
 3226SOL    HW221138   3.296   0.688   2.793 -0.0401  1.1616  1.0640
 3227SOL     OW21139   4.599   1.840  17.354  0.3690  0.6041 -0.3180
 3227SOL    HW121140   4.544   1.798  17.420  1.9512  0.5924  1.0019
 3227SOL    HW221141   4.566   1.803  17.272  2.2064  1.2217 -1.3404
 3228SOL     OW21142   4.680   4.222   6.271 -0.1858  0.6396 -0.1930
 3228SOL    HW121143   4.698   4.212   6.364 -1.3102  2.8130  0.2355
 3228SOL    HW221144   4.604   4.164   6.268  0.6214 -0.4587  0.2964
 3229SOL     OW21145   4.101   3.406   3.882  0.0857 -0.2974 -0.2109
 3229SOL    HW121146   4.094   3.376   3.973  1.1217 -1.3132 -0.4704
 3229SOL    HW221147   4.069   3.497   3.883  1.4782  0.1917  1.1595
 3230SOL     OW21148   0.007   0.328   9.123  0.0020 -0.2460  0.9206
 3230SOL    HW121149   4.679   0.269   9.173  0.6388 -0.4028  1.4434
 3230SOL    HW221150   4.681   0.335   9.044  0.7042  0.6615  0.5260
 3231SOL     OW21151   3.307   2.667   8.754 -0.2294 -0.0950  0.1970
 3231SOL    HW121152   3.359   2.729   8.703 -2.2816  0.8473 -0.7738
 3231SOL    HW221153   3.376   2.609   8.785 -1.1309 -0.1776  2.0115
 3232SOL     OW21154   2.760   2.083  13.688 -0.0387 -0.2886  0.3432
 3232SOL    HW121155   2.668   2.102  13.672  0.5927  0.8952 -1.9042
 3232SOL    HW221156   2.757   2.050  13.778  0.0633  1.4427  0.9758
 3233SOL     OW21157   2.476   1.781   5.002  0.1848  0.2779  0.3292
 3233SOL    HW121158   2.492   1.747   4.914  1.0512 -1.3142  1.1093
 3233SOL    HW221159   2.484   1.875   4.985  1.4772 -0.1372 -1.3230
 3234SOL     OW21160   3.791   1.369  17.696  0.1652 -0.2808 -1.1524
 3234SOL    HW121161   3.724   1.310  17.664 -0.0544  0.1710 -1.5226
 3234SOL    HW221162   3.857   1.311   0.026 -0.1662  0.0505 -0.0771
 3235SOL     OW21163   1.787   2.695   9.366 -0.0140 -0.1922  0.5240
 3235SOL    HW121164   1.797   2.741   9.449  0.3696  1.9572 -0.7030
 3235SOL    HW221165   1.879   2.680   9.344 -0.1553 -0.9571  0.4629
 3236SOL     OW21166   0.668   1.945   8.906  0.2524  0.0050  0.1554
 3236SOL    HW121167   0.633   1.998   8.835 -0.9743  0.8816  1.4033
 3236SOL    HW221168   0.593   1.886   8.915  1.2372 -1.2055  0.4937
 3237SOL     OW21169   0.253   3.895   3.930 -0.1308  0.5177  0.3182
 3237SOL    HW121170   0.201   3.910   4.008 -0.6982 -1.3944  0.2866
 3237SOL    HW221171   0.188   3.909   3.861 -0.5362  1.4440  0.8828
 3238SOL     OW21172   0.114   2.724   4.243 -0.3915 -0.6433  0.3584
 3238SOL    HW121173   0.205   2.716   4.213 -1.1705  1.3871 -2.5653
 3238SOL    HW221174   0.108   2.818   4.256 -2.0263 -0.5528 -1.0214
 3239SOL     OW21175   2.913   4.607  10.039 -0.1479  0.0138 -0.3679
 3239SOL    HW121176   2.942   4.522  10.005  2.8637  1.0420 -0.3356
 3239SOL    HW221177   2.837   4.564  10.077 -1.1361  1.3782 -0.8007
 3240SOL     OW21178   0.336   4.534  13.412 -0.1336  0.7149  0.5151
 3240SOL    HW121179   0.425   4.556  13.382  1.5157 -0.9469  4.2850
 3240SOL    HW221180   0.290   4.604  13.364 -1.9312 -0.1108  1.0374
 3241SOL     OW21181   1.851   2.241   3.068 -0.9358  0.2562 -0.2629
 3241SOL    HW121182   1.804   2.318   3.036  1.4098  1.0685 -1.7898
 3241SOL    HW221183   1.833   2.173   3.003 -0.6915  1.0314 -1.1436
 3242SOL     OW21184   3.127   1.561   2.495  0.5654  0.5728 -0.1298
 3242SOL    HW121185   3.149   1.620   2.422 -0.9392 -0.4853 -1.4424
 3242SOL    HW221186   3.213   1.550   2.536 -0.7580 -1.3457  2.1270
 3243SOL     OW21187   3.034   1.707   2.881 -0.1815 -0.0209  0.2159
 3243SOL    HW121188   3.104   1.771   2.890 -1.3763  1.3759 -0.4683
 3243SOL    HW221189   3.078   1.623   2.890 -0.2312  0.1500  2.0639
 3244SOL     OW21190   3.941   0.696  11.728  0.3671 -0.0030 -0.0543
 3244SOL    HW121191   4.035   0.683  11.727  0.6334  1.9873 -1.1148
 3244SOL    HW221192   3.900   0.617  11.762 -1.2848  1.6303  1.7641
 3245SOL     OW21193   0.586   0.908  17.701 -0.2640 -0.4334 -0.1518
 3245SOL    HW121194   0.617   0.965   0.062 -0.8032 -0.8207  0.3999
 3245SOL    HW221195   0.530   0.847   0.040  0.3629 -1.8361 -1.2148
 3246SOL     OW21196   3.886   2.244  12.309 -0.1648 -0.5598 -0.0584
 3246SOL    HW121197   3.961   2.184  12.304 -0.1308 -0.5094 -0.1531
 3246SOL    HW221198   3.813   2.189  12.278 -1.4680  0.8264  0.5760
 3247SOL     OW21199   2.156   4.285  11.375 -0.7234  0.4224 -0.5078
 3247SOL    HW121200   2.159   4.199  11.417  1.4249  0.2096 -1.1256
 3247SOL    HW221201   2.098   4.278  11.299  0.8395  0.3756 -1.6881
 3248SOL     OW21202   1.730   4.224  14.366  0.1141 -0.0444  0.9711
 3248SOL    HW121203   1.635   4.225  14.354  0.0129 -0.6870  1.7513
 3248SOL    HW221204   1.748   4.131  14.357  3.4403  0.7259 -0.3438
 3249SOL     OW21205   1.765   3.674   8.179 -0.1114 -0.0567  0.0170
 3249SOL    HW121206   1.851   3.667   8.220  0.3371 -0.6109 -1.0090
 3249SOL    HW221207   1.782   3.641   8.090  2.3790  1.2315  0.0088
 3250SOL     OW21208   0.564   0.541   7.098 -0.8021  0.1600 -0.1518
 3250SOL    HW121209   0.639   0.590   7.132 -0.2644 -1.1582  0.5660
 3250SOL    HW221210   0.494   0.571   7.156 -0.2030  0.2795  0.4992
 3251SOL     OW21211   3.840   3.215   1.571 -0.2497 -0.4196  0.7778
 3251SOL    HW121212   3.758   3.207   1.619  0.9424 -0.7557  2.7319
 3251SOL    HW221213   3.883   3.295   1.603 -0.0905 -0.6312  1.0868
 3252SOL     OW21214   2.787   2.911   7.177 -0.0889 -0.2664  0.1131
 3252SOL    HW121215   2.813   2.861   7.099  0.0142  0.7507 -0.4981
 3252SOL    HW221216   2.785   2.998   7.137  0.0145 -1.2934 -2.1333
 3253SOL     OW21217   4.242   2.639   8.620  0.1692  0.0775 -0.0189
 3253SOL    HW121218   4.229   2.564   8.679 -0.0711  0.0934 -0.0522
 3253SOL    HW221219   4.258   2.709   8.684 -3.4108  0.7654  0.1188
 3254SOL     OW21220   3.556   3.126  15.116 -0.2486 -0.2181 -0.4834
 3254SOL    HW121221   3.629   3.099  15.171 -0.1403 -2.3257 -1.6414
 3254SOL    HW221222   3.608   3.141  15.038  0.3607 -0.0808 -0.0526
 3255SOL     OW21223   1.029   0.396   2.352 -0.0246 -0.3676 -0.2021
 3255SOL    HW121224   0.964   0.385   2.283 -2.3999 -1.0317  2.1414
 3255SOL    HW221225   1.069   0.477   2.319  2.1083 -1.7675 -1.0115
 3256SOL     OW21226   0.708   2.583  10.696 -0.2780  0.1602 -0.0711
 3256SOL    HW121227   0.797   2.585  10.731 -0.4910  2.1710  0.3848
 3256SOL    HW221228   0.718   2.647  10.626  0.7174  0.2204  0.1266
 3257SOL     OW21229   2.753   0.801   8.737  0.2371 -0.0048 -0.9953
 3257SOL    HW121230   2.687   0.858   8.696 -2.7584 -1.7117  1.5165
 3257SOL    HW221231   2.823   0.810   8.671  0.6418  1.2689 -0.3888
 3258SOL     OW21232   4.248   2.759   4.720 -0.3690  0.1376  0.3578
 3258SOL    HW121233   4.296   2.763   4.637 -0.8737  0.3385  0.0791
 3258SOL    HW221234   4.224   2.850   4.733 -0.1152  0.1317  0.8604
 3259SOL     OW21235   3.212   4.073  15.749 -0.3179  0.0862 -0.6598
 3259SOL    HW121236   3.252   4.038  15.670  2.1794 -2.0558  1.5253
 3259SOL    HW221237   3.219   3.993  15.801 -0.9963 -1.0165 -2.2693
 3260SOL     OW21238   3.230   1.479   7.237  0.1023  0.6444 -0.6579
 3260SOL    HW121239   3.242   1.524   7.153  3.8657  1.0298  0.0669
 3260SOL    HW221240   3.242   1.548   7.302 -1.8142  0.9640 -0.6391
 3261SOL     OW21241   2.622   2.345   5.839 -0.5796 -0.0478 -0.0810
 3261SOL    HW121242   2.599   2.378   5.926  0.3721 -1.6507  0.7687
 3261SOL    HW221243   2.610   2.426   5.789  0.2556  2.3260  3.5414
 3262SOL     OW21244   3.076   2.806  17.316  0.4010  0.1127 -0.4293
 3262SOL    HW121245   3.094   2.745  17.387  0.7854 -0.7031 -1.2293
 3262SOL    HW221246   3.156   2.859  17.308 -0.6106  1.7260  0.2479
 3263SOL     OW21247   1.067   0.045   9.290  0.1948  0.4397  0.4919
 3263SOL    HW121248   1.050   0.095   9.210 -0.8416  1.3586  1.2781
 3263SOL    HW221249   1.134   4.721   9.244  1.4565  2.3683  0.2385
 3264SOL     OW21250   3.448   3.767   9.017  0.5847 -0.5769  0.2999
 3264SOL    HW121251   3.361   3.807   9.024  1.1173  0.3339  1.8409
 3264SOL    HW221252   3.422   3.675   9.030 -0.3248 -0.1607  1.4231
 3265SOL     OW21253   3.785   0.562  15.031 -0.0785  0.0282  0.5384
 3265SOL    HW121254   3.754   0.562  14.940  0.4981  0.1856  0.3467
 3265SOL    HW221255   3.699   0.564  15.074 -0.2266  0.1737  0.2360
 3266SOL     OW21256   3.543   0.044   0.446  0.1474 -0.4994  0.1020
 3266SOL    HW121257   3.608   0.101   0.406 -1.8966  0.1109 -2.3476
 3266SOL    HW221258   3.515   0.001   0.365  0.3664  0.6600 -0.5821
 3267SOL     OW21259   4.349   1.167   0.526 -0.2615  0.3227 -0.6001
 3267SOL    HW121260   4.443   1.154   0.531 -0.2625  0.3237 -0.5721
 3267SOL    HW221261   4.320   1.078   0.507  0.0762 -0.1003  0.8441
 3268SOL     OW21262   3.450   1.202  12.123  0.2324 -0.0367 -0.1354
 3268SOL    HW121263   3.481   1.244  12.043  0.2562 -1.9487 -1.1398
 3268SOL    HW221264   3.534   1.178  12.163  0.3711  2.0867  0.8521
 3269SOL     OW21265   3.546   3.839   5.559 -0.4128 -0.7095  0.3369
 3269SOL    HW121266   3.519   3.761   5.607  1.2629 -1.9885 -0.7422
 3269SOL    HW221267   3.589   3.887   5.630 -2.9361  0.7428  0.8721
 3270SOL     OW21268   4.507   1.021   8.272 -0.1783  0.3714  0.5952
 3270SOL    HW121269   4.479   0.942   8.320 -1.8050  0.7974  0.3656
 3270SOL    HW221270   4.519   0.986   8.184 -1.2996 -0.9044  0.9505
 3271SOL     OW21271   4.230   4.636  10.323 -0.1891  0.1592  0.3711
 3271SOL    HW121272   4.206   4.543  10.314 -1.7041  0.5492  0.4008
 3271SOL    HW221273   4.145   4.676  10.341  0.3124  1.2057  0.3557
 3272SOL     OW21274   3.325   1.783  10.071  0.4705 -0.7059 -0.6479
 3272SOL    HW121275   3.350   1.862  10.119 -1.6056 -0.7027  0.4350
 3272SOL    HW221276   3.312   1.817   9.982  2.3578  0.6379 -0.4122
 3273SOL     OW21277   3.762   4.489   9.371  0.0487  0.1569 -0.2126
 3273SOL    HW121278   3.785   4.579   9.351 -0.8963  0.5648  0.5213
 3273SOL    HW221279   3.667   4.501   9.365 -0.1436 -0.4054  1.5731
 3274SOL     OW21280   2.393   3.880   7.668 -0.0930  0.0566 -0.4563
 3274SOL    HW121281   2.421   3.960   7.712 -1.3506  0.7231 -0.8604
 3274SOL    HW221282   2.300   3.875   7.693 -0.1845  0.5352 -0.6876
 3275SOL     OW21283   3.421   0.971  17.635 -0.2914 -0.1561  0.2277
 3275SOL    HW121284   3.451   0.889  17.594 -2.7322 -2.3395  2.8969
 3275SOL    HW221285   3.329   0.951  17.652 -0.2936  0.4642  0.9080
 3276SOL     OW21286   4.181   3.887   6.716  0.0611  0.4703  0.6344
 3276SOL    HW121287   4.125   3.894   6.638  0.8175 -0.5443  0.0027
 3276SOL    HW221288   4.205   3.795   6.724 -0.8169 -0.0655 -2.8152
 3277SOL     OW21289   2.743   1.113   3.451  0.4358 -0.3474  0.1801
 3277SOL    HW121290   2.656   1.146   3.426 -0.0063 -2.9627 -1.6986
 3277SOL    HW221291   2.774   1.100   3.362 -0.6432 -1.8399  0.0267
 3278SOL     OW21292   0.296   0.872   8.651 -0.5588 -0.2910 -0.2975
 3278SOL    HW121293   0.390   0.887   8.647 -0.2552 -1.8278  1.2397
 3278SOL    HW221294   0.276   0.831   8.735 -1.7171  0.1861 -0.3316
 3279SOL     OW21295   0.172   4.189   5.938 -0.2079 -0.1270 -0.0432
 3279SOL    HW121296   0.181   4.128   5.865  1.9139 -1.2507  1.1481
 3279SOL    HW221297   0.140   4.136   6.011  0.1728  0.1942  0.3582
 3280SOL     OW21298   3.003   2.800  16.528  0.3396 -0.0673 -0.0680
 3280SOL    HW121299   2.941   2.782  16.598 -1.4627  0.8396 -1.4493
 3280SOL    HW221300   3.033   2.712  16.504  4.8809  1.3903  0.1097
 3281SOL     OW21301   2.005   2.269   4.510 -0.1227 -0.5218  0.3758
 3281SOL    HW121302   1.994   2.339   4.574  0.4958  0.8342 -0.9882
 3281SOL    HW221303   1.925   2.218   4.523 -0.6678 -0.0374 -1.1096
 3282SOL     OW21304   0.356   3.095   5.244 -0.3605  0.5276  0.0686
 3282SOL    HW121305   0.356   3.165   5.179  0.6956 -0.9518 -1.5237
 3282SOL    HW221306   0.368   3.143   5.326 -1.3097  1.3206 -0.2563
 3283SOL     OW21307   0.552   1.877   6.029  0.4872  0.0763  0.1276
 3283SOL    HW121308   0.526   1.893   6.120  1.0032 -1.2655  0.5100
 3283SOL    HW221309   0.548   1.781   6.025 -1.6584  0.2781 -2.4716
 3284SOL     OW21310   0.740   3.211   5.648  0.0509  0.3545 -0.6571
 3284SOL    HW121311   0.797   3.270   5.698 -0.8644 -0.0541  0.8996
 3284SOL    HW221312   0.661   3.252   5.683  0.1176 -0.5544  0.5844
 3285SOL     OW21313   4.186   1.459   2.204  0.2760  0.2535 -0.3169
 3285SOL    HW121314   4.150   1.526   2.147 -0.7183 -0.3237 -0.3635
 3285SOL    HW221315   4.111   1.428   2.255 -0.3207 -1.6568 -2.3838
 3286SOL     OW21316   3.889   3.988   9.549  0.8406 -0.2571 -0.4186
 3286SOL    HW121317   3.863   4.077   9.572 -3.3170 -1.2283 -1.2158
 3286SOL    HW221318   3.932   3.999   9.464  0.0513 -0.8414 -0.8917
 3287SOL     OW21319   4.415   3.613   6.039  0.0283  0.1009  0.0542
 3287SOL    HW121320   4.448   3.694   6.076  0.7729 -1.2108  2.2021
 3287SOL    HW221321   4.484   3.596   5.975 -0.4703  0.2337 -0.5294
 3288SOL     OW21322   3.895   1.003   4.225  0.2992  0.3373 -0.0699
 3288SOL    HW121323   3.808   1.013   4.186  0.4921 -0.0447 -0.5976
 3288SOL    HW221324   3.886   0.907   4.231 -0.2035  0.5727  3.0989
 3289SOL     OW21325   0.465   4.439   2.721  0.6978 -0.0567  0.7375
 3289SOL    HW121326   0.481   4.524   2.760 -0.4995  0.5371 -0.0662
 3289SOL    HW221327   0.545   4.401   2.757  1.2534  1.1848  0.8138
 3290SOL     OW21328   3.086   3.184   3.669 -0.3782 -0.0280 -0.6805
 3290SOL    HW121329   3.016   3.120   3.654 -1.1352  0.0456  2.4983
 3290SOL    HW221330   3.145   3.179   3.594  1.3502  1.0289  0.6010
 3291SOL     OW21331   2.496   4.715   5.821  0.5347 -0.8026 -0.2829
 3291SOL    HW121332   2.497   4.658   5.898  0.5372  0.9234  0.9788
 3291SOL    HW221333   2.405   4.694   5.798  0.0521 -2.7183  3.4270
 3292SOL     OW21334   2.871   1.347   5.513  0.3407 -0.2579 -0.0466
 3292SOL    HW121335   2.843   1.439   5.508 -0.5589 -0.4707  1.0464
 3292SOL    HW221336   2.950   1.343   5.459  0.5968  0.1800  0.2860
 3293SOL     OW21337   0.954   4.387   4.530 -0.0144  0.3397  0.1165
 3293SOL    HW121338   0.994   4.341   4.457  0.9556 -1.0396  1.5140
 3293SOL    HW221339   1.016   4.458   4.547 -0.4019  0.7497 -0.1594
 3294SOL     OW21340   0.931   4.340  14.766  0.2173  0.0676 -0.3476
 3294SOL    HW121341   0.998   4.284  14.806  1.3891  0.6881 -1.4441
 3294SOL    HW221342   0.865   4.328  14.834  0.2454 -1.7228 -0.6355
 3295SOL     OW21343   4.580   1.403   3.127 -0.2378 -0.2873  0.6586
 3295SOL    HW121344   4.516   1.373   3.063  2.5805 -3.8298 -0.4816
 3295SOL    HW221345   4.654   1.411   3.067 -0.1785  1.5223  0.9884
 3296SOL     OW21346   0.319   0.645   5.403  0.0706  0.6640 -0.3302
 3296SOL    HW121347   0.350   0.726   5.443  1.4789  0.3214 -0.7025
 3296SOL    HW221348   0.405   0.612   5.375 -0.4221 -0.7292 -0.1913
 3297SOL     OW21349   3.502   1.666   6.780 -0.0595  0.0620  0.1409
 3297SOL    HW121350   3.538   1.740   6.732  0.1104 -0.0125  0.1524
 3297SOL    HW221351   3.532   1.687   6.868 -0.0156 -0.4099  0.2424
 3298SOL     OW21352   3.933   0.908   0.239 -0.0887  0.0926 -1.0065
 3298SOL    HW121353   3.954   0.941   0.326  1.3946 -1.1746 -0.8689
 3298SOL    HW221354   3.940   0.814   0.253 -0.5426  0.0146 -1.3101
 3299SOL     OW21355   4.529   2.271   7.023 -0.1568 -0.5386  0.0576
 3299SOL    HW121356   4.605   2.312   7.063 -1.4113  1.3503  0.5141
 3299SOL    HW221357   4.536   2.303   6.933 -0.7097  0.3397  0.3298
 3300SOL     OW21358   2.765   1.458   2.576  0.3215 -0.4510 -0.3369
 3300SOL    HW121359   2.706   1.517   2.530 -0.3485  0.6333  1.9224
 3300SOL    HW221360   2.718   1.379   2.548 -2.2011  0.3732  1.5700
 3301SOL     OW21361   1.307   0.385   4.712  0.2209 -0.6891 -0.1472
 3301SOL    HW121362   1.281   0.477   4.700 -0.1339 -0.9711 -1.4677
 3301SOL    HW221363   1.244   0.348   4.650 -1.1142 -0.5121  1.0883
 3302SOL     OW21364   0.010   0.001  13.195 -0.3839  0.2313  0.2839
 3302SOL    HW121365   0.012   0.092  13.226  0.3526 -0.3004  1.8019
 3302SOL    HW221366   4.646   4.700  13.193 -0.4038  0.0231  3.0825
 3303SOL     OW21367   1.463   4.342   9.120  0.0456  0.2603  0.0505
 3303SOL    HW121368   1.415   4.406   9.172 -0.0667 -0.0989  0.3860
 3303SOL    HW221369   1.400   4.271   9.106  3.5530 -2.7845 -0.2760
 3304SOL     OW21370   1.532   2.623  13.080  0.5380  0.4954 -0.3854
 3304SOL    HW121371   1.587   2.567  13.025  0.1914 -0.9305  0.6963
 3304SOL    HW221372   1.454   2.596  13.031  0.7893 -0.1639 -0.4227
 3305SOL     OW21373   2.306   1.760   4.635 -0.0967 -0.0548 -0.5869
 3305SOL    HW121374   2.214   1.739   4.649 -0.3157  0.7406 -0.8438
 3305SOL    HW221375   2.311   1.793   4.546 -0.2619 -1.6491 -1.1894
 3306SOL     OW21376   1.258   2.736   7.416 -0.1733 -0.1198 -0.4776
 3306SOL    HW121377   1.251   2.831   7.403  1.2347 -0.0383 -0.6236
 3306SOL    HW221378   1.244   2.723   7.510  1.1436  0.9893 -0.1357
 3307SOL     OW21379   3.501   3.581   9.917  0.0042  0.2445 -0.2819
 3307SOL    HW121380   3.565   3.509   9.914  0.4954  0.8447 -3.3875
 3307SOL    HW221381   3.493   3.586  10.012 -0.3077 -2.0913 -0.1796
 3308SOL     OW21382   1.907   4.402   4.290  0.6635 -0.0645  0.3809
 3308SOL    HW121383   1.999   4.403   4.317  0.4099  2.3525  1.2286
 3308SOL    HW221384   1.866   4.413   4.376  0.3259  1.3421  0.0365
 3309SOL     OW21385   1.839   0.435   0.514  0.5536  0.0230  0.1871
 3309SOL    HW121386   1.775   0.505   0.504 -0.8658 -1.3078 -0.1295
 3309SOL    HW221387   1.851   0.424   0.608  1.9260  2.1143  0.2552
 3310SOL     OW21388   1.440   2.220  12.976  0.0263  0.3256 -0.3846
 3310SOL    HW121389   1.366   2.214  12.915  0.1630 -4.6155 -0.0972
 3310SOL    HW221390   1.432   2.131  13.011 -1.5974 -0.0505 -1.6742
 3311SOL     OW21391   3.139   4.582  13.546 -0.0197  0.0286  0.1036
 3311SOL    HW121392   3.158   4.496  13.508  1.9003 -0.0280  1.2121
 3311SOL    HW221393   3.048   4.589  13.517 -0.3389  0.1790  1.1335
 3312SOL     OW21394   3.373   3.732   6.661  0.5585 -0.2762 -0.2465
 3312SOL    HW121395   3.344   3.824   6.663  0.3228 -0.3036 -2.0346
 3312SOL    HW221396   3.397   3.716   6.752 -1.5503 -1.2150  0.1467
 3313SOL     OW21397   3.510   1.181   6.548 -0.2813  0.2542  0.2123
 3313SOL    HW121398   3.557   1.131   6.615 -0.6322  1.1683  1.1295
 3313SOL    HW221399   3.428   1.133   6.558  0.4841 -1.3730 -1.1510
 3314SOL     OW21400   1.256   0.831  16.174  0.6098 -0.3078  0.5398
 3314SOL    HW121401   1.242   0.891  16.101  1.9792 -2.9251 -1.8530
 3314SOL    HW221402   1.319   0.769  16.137  0.2975 -0.0282 -0.4446
 3315SOL     OW21403   2.410   4.238   6.389 -0.0806 -0.5975 -0.0307
 3315SOL    HW121404   2.380   4.329   6.389  1.8156  0.0471 -0.7610
 3315SOL    HW221405   2.485   4.241   6.449 -0.9960 -0.7349  1.1188
 3316SOL     OW21406   2.094   0.397   4.403  0.3973  0.0522 -0.7560
 3316SOL    HW121407   2.020   0.337   4.401  1.0056 -0.8021  2.2653
 3316SOL    HW221408   2.112   0.416   4.311  0.9186  0.3466 -0.5967
 3317SOL     OW21409   0.063   4.460   7.278 -0.0337  0.4536  0.4462
 3317SOL    HW121410   0.002   4.528   7.249 -0.0331  0.6953  1.0246
 3317SOL    HW221411   0.038   4.455   7.370 -2.0886  0.5635 -0.1076
 3318SOL     OW21412   0.549   2.603  15.614 -0.3354 -1.2395  0.2448
 3318SOL    HW121413   0.620   2.613  15.551 -0.8121 -1.6748 -0.3595
 3318SOL    HW221414   0.493   2.537  15.574  0.0256  0.4145 -2.9676
 3319SOL     OW21415   1.103   2.533   9.624 -0.4125 -1.1911  0.0022
 3319SOL    HW121416   1.149   2.616   9.636 -2.1458 -0.2470  0.1203
 3319SOL    HW221417   1.018   2.560   9.589 -0.8251  0.2944  2.0905
 3320SOL     OW21418   1.643   0.343   2.469 -0.4766 -0.0236 -0.2058
 3320SOL    HW121419   1.570   0.290   2.438  0.2206 -0.9399 -0.2674
 3320SOL    HW221420   1.677   0.352   2.380  2.8042 -0.8582  0.9641
 3321SOL     OW21421   0.093   3.239   6.990 -0.5094  0.3022  0.3760
 3321SOL    HW121422   4.726   3.229   6.978 -0.5768 -2.1164  2.9576
 3321SOL    HW221423   0.099   3.322   7.036  1.0054  0.8704 -0.8213
 3322SOL     OW21424   2.590   3.637   4.302 -0.1805 -0.3604  0.0568
 3322SOL    HW121425   2.607   3.695   4.227  0.1824  1.6591  1.7132
 3322SOL    HW221426   2.622   3.559   4.257  0.9269 -0.2971  0.7353
 3323SOL     OW21427   3.437   2.256   3.590 -0.4714  0.2181  0.3682
 3323SOL    HW121428   3.377   2.195   3.548 -0.8828 -0.4379  1.9033
 3323SOL    HW221429   3.422   2.225   3.679 -1.8693 -3.0770 -1.0356
 3324SOL     OW21430   4.164   3.216   8.164 -0.3193  0.2897  0.2282
 3324SOL    HW121431   4.138   3.158   8.093  0.3513 -1.9634  1.8253
 3324SOL    HW221432   4.253   3.189   8.184  0.6709  0.9572 -3.3513
 3325SOL     OW21433   0.399   0.986   3.635  0.1941  0.5260 -0.0477
 3325SOL    HW121434   0.446   0.912   3.598 -1.3092  0.5076 -1.9290
 3325SOL    HW221435   0.346   1.014   3.560 -1.5247  0.2931  1.0891
 3326SOL     OW21436   0.786   1.417   3.478  0.3453 -0.3155  0.3275
 3326SOL    HW121437   0.859   1.462   3.435  0.8191 -0.7378  0.6879
 3326SOL    HW221438   0.720   1.416   3.409  2.0512  2.4088 -1.3333
 3327SOL     OW21439   2.844   4.434  12.679  0.2189  0.0494 -0.6032
 3327SOL    HW121440   2.855   4.385  12.597  0.8251 -1.0261  0.1143
 3327SOL    HW221441   2.761   4.477  12.659 -1.4713 -2.2564  1.4340
 3328SOL     OW21442   1.644   4.475  12.720  0.5822  0.6600 -0.0058
 3328SOL    HW121443   1.608   4.541  12.661 -2.1193 -1.9324 -1.2613
 3328SOL    HW221444   1.584   4.479  12.795  2.1365 -0.2376  1.2837
 3329SOL     OW21445   1.953   3.154   4.179  0.0713 -0.6364 -0.4782
 3329SOL    HW121446   1.993   3.198   4.254 -0.2039 -1.3160  0.0751
 3329SOL    HW221447   1.936   3.232   4.127  1.3127 -1.9094 -2.7510
 3330SOL     OW21448   0.400   3.542   5.527 -0.6462  0.5101 -0.7512
 3330SOL    HW121449   0.397   3.449   5.549  3.1791  1.0370  1.8770
 3330SOL    HW221450   0.312   3.567   5.558 -0.3437  1.3908 -0.6092
 3331SOL     OW21451   1.121   2.595  15.211  0.3001 -0.6070  0.0513
 3331SOL    HW121452   1.084   2.662  15.152  0.5699 -2.6252 -2.4015
 3331SOL    HW221453   1.169   2.540  15.149 -0.1323 -1.7315  0.7267
 3332SOL     OW21454   3.155   4.631  16.952  0.5681  0.1378  0.4435
 3332SOL    HW121455   3.104   4.594  17.024 -0.1864  1.1601  0.4344
 3332SOL    HW221456   3.137   4.724  16.964  0.6288 -0.1120  2.4623
 3333SOL     OW21457   4.724   0.575   6.383  0.9150 -0.1027 -0.5446
 3333SOL    HW121458   0.069   0.637   6.376  1.7416 -1.0860 -0.6411
 3333SOL    HW221459   4.663   0.633   6.430 -2.3817 -3.6237 -0.4162
 3334SOL     OW21460   1.890   4.095   2.416 -0.1511  0.0756 -0.0849
 3334SOL    HW121461   1.977   4.125   2.441 -0.1907  0.1106  0.0127
 3334SOL    HW221462   1.829   4.145   2.472 -1.4149 -2.9296  1.2219
 3335SOL     OW21463   4.418   0.789   5.851 -0.3497  0.7704 -0.2357
 3335SOL    HW121464   4.505   0.802   5.814 -0.2066  0.0118 -0.1628
 3335SOL    HW221465   4.390   0.879   5.871  0.2372  1.1768 -1.2329
 3336SOL     OW21466   0.882   1.855   0.595  0.4960 -0.6566  0.0245
 3336SOL    HW121467   0.975   1.871   0.582  0.7809 -1.0794  1.5657
 3336SOL    HW221468   0.889   1.791   0.666 -1.3467 -1.3599 -0.4209
 3337SOL     OW21469   4.227   0.182  13.096  0.1203  0.1379  0.4268
 3337SOL    HW121470   4.178   0.109  13.133  0.6457 -0.5924 -0.3271
 3337SOL    HW221471   4.208   0.251  13.159 -0.5022 -0.6047  1.0560
 3338SOL     OW21472   1.144   4.391   1.397 -0.3829 -0.7647  0.3361
 3338SOL    HW121473   1.227   4.398   1.445  0.0569 -1.2512 -0.3478
 3338SOL    HW221474   1.071   4.384   1.458 -2.1057 -0.6690 -1.7287
 3339SOL     OW21475   1.946   1.188   6.600 -0.5492 -0.2289  0.2303
 3339SOL    HW121476   1.941   1.187   6.695  0.2513  0.0081  0.2756
 3339SOL    HW221477   1.882   1.255   6.574  1.8006  1.5442 -1.0626
 3340SOL     OW21478   1.088   2.677   4.455  0.4224  0.2295  0.2299
 3340SOL    HW121479   1.128   2.613   4.513 -0.1261  0.3831  0.7681
 3340SOL    HW221480   1.005   2.633   4.438  1.3679 -1.9289  1.3413
 3341SOL     OW21481   0.825   0.098  14.916  0.5425  0.5276 -0.4410
 3341SOL    HW121482   0.786   0.025  14.963 -1.2424  1.8191  0.1293
 3341SOL    HW221483   0.879   0.138  14.984  0.8407  0.1290 -0.4477
 3342SOL     OW21484   3.475   1.011   4.871 -0.0195  0.2079 -0.3467
 3342SOL    HW121485   3.535   0.938   4.854  0.9723  0.9916 -0.2820
 3342SOL    HW221486   3.412   0.967   4.928  2.4322 -1.4186  1.1582
 3343SOL     OW21487   2.835   2.068   9.907  0.0624 -0.0319  0.1087
 3343SOL    HW121488   2.783   2.138   9.946 -0.3028 -0.6712  0.7619
 3343SOL    HW221489   2.805   1.994   9.959  0.2108  0.6641  1.1913
 3344SOL     OW21490   2.787   1.387   4.965 -0.6719  0.2574  0.6597
 3344SOL    HW121491   2.825   1.383   4.877  0.7579 -1.6021  1.3477
 3344SOL    HW221492   2.823   1.467   5.002  1.0046 -0.2709  0.1861
 3345SOL     OW21493   4.153   0.698   2.313 -0.3217  0.5928  0.5257
 3345SOL    HW121494   4.129   0.608   2.294 -0.1590  0.3400  1.5064
 3345SOL    HW221495   4.218   0.681   2.380  0.0420 -1.0072 -0.2361
 3346SOL     OW21496   1.206   2.903   1.281 -0.4131 -0.6456  0.1090
 3346SOL    HW121497   1.282   2.855   1.249  0.1389  0.1224  0.2632
 3346SOL    HW221498   1.239   2.989   1.306  0.5758 -0.8857 -0.3612
 3347SOL     OW21499   2.248   4.026   9.402  0.1927 -0.0411  0.1790
 3347SOL    HW121500   2.307   4.100   9.417 -2.2300  1.8070  0.7436
 3347SOL    HW221501   2.258   3.990   9.490  2.2557  0.6602  0.2331
 3348SOL     OW21502   1.830   2.464   8.888 -0.0711  0.3927  0.3544
 3348SOL    HW121503   1.843   2.373   8.861  0.2198  0.5437 -0.0296
 3348SOL    HW221504   1.781   2.452   8.969 -1.0008  0.6040 -0.1730
 3349SOL     OW21505   1.019   2.164   6.550  0.1052  0.1499  0.0504
 3349SOL    HW121506   1.104   2.129   6.522  0.4826  0.6330  0.5890
 3349SOL    HW221507   1.025   2.259   6.540 -3.3637  0.4963  1.3369
 3350SOL     OW21508   2.702   2.101  13.963 -0.3569 -0.5754 -0.0143
 3350SOL    HW121509   2.614   2.140  13.969 -0.0980 -0.3409  2.3638
 3350SOL    HW221510   2.707   2.053  14.045 -1.1912  2.6468  1.9316
 3351SOL     OW21511   2.867   3.540  13.385  0.2677  0.0914  0.2379
 3351SOL    HW121512   2.804   3.546  13.457  0.8219 -0.0964  0.7332
 3351SOL    HW221513   2.944   3.589  13.412  0.6513 -2.5049  3.9057
 3352SOL     OW21514   0.632   3.005   5.785 -0.2760  0.1084 -0.8296
 3352SOL    HW121515   0.545   2.993   5.747 -0.0889 -1.3733 -0.7906
 3352SOL    HW221516   0.673   3.070   5.728  0.2500  1.3576  0.9562
 3353SOL     OW21517   0.844   2.503   4.299  0.5405 -0.0555 -0.4292
 3353SOL    HW121518   0.818   2.550   4.378  0.5331 -0.9509  0.1072
 3353SOL    HW221519   0.881   2.574   4.248 -1.0714  0.8115 -0.3808
 3354SOL     OW21520   4.392   4.564   7.561 -0.2856  0.0459 -0.1042
 3354SOL    HW121521   4.400   4.551   7.655  0.0653  1.7365  0.1097
 3354SOL    HW221522   4.306   4.531   7.534 -0.4220  1.1290 -0.9911
 3355SOL     OW21523   3.486   4.114   2.195 -0.0327  0.7475  0.6718
 3355SOL    HW121524   3.417   4.050   2.177 -0.4632  1.1272  0.9731
 3355SOL    HW221525   3.441   4.191   2.161  1.7775  1.6748  0.3599
 3356SOL     OW21526   1.406   0.865   2.971 -0.2216  0.9766 -0.2171
 3356SOL    HW121527   1.387   0.857   3.064 -2.9538  0.1083 -0.8559
 3356SOL    HW221528   1.494   0.827   2.964 -0.4447  0.8517 -2.3772
 3357SOL     OW21529   1.884   2.438   5.978 -0.5678  0.1282 -0.0161
 3357SOL    HW121530   1.973   2.474   5.977  0.7717 -3.1672  1.9850
 3357SOL    HW221531   1.864   2.423   5.886  3.2792 -0.6088 -0.7315
 3358SOL     OW21532   0.935   2.982   5.029  0.3598  0.6800  0.5094
 3358SOL    HW121533   0.944   2.911   5.093  2.5513  0.1430 -0.4008
 3358SOL    HW221534   1.018   2.981   4.982  0.1899  0.8993  0.2074
 3359SOL     OW21535   2.110   4.372   6.215  0.0488  0.4879 -0.0843
 3359SOL    HW121536   2.152   4.429   6.279 -0.5490  1.7044 -0.7781
 3359SOL    HW221537   2.122   4.417   6.131 -1.6323  2.0835  0.5466
 3360SOL     OW21538   3.656   1.042   6.711 -0.6204  0.4963 -0.5579
 3360SOL    HW121539   3.737   1.092   6.702 -1.4802  2.1002  0.7124
 3360SOL    HW221540   3.687   0.951   6.720 -2.5651 -0.0491  0.8016
 3361SOL     OW21541   3.756   4.492   2.650 -0.1363  0.1984  0.4568
 3361SOL    HW121542   3.680   4.546   2.671  0.0234  1.3209 -1.8371
 3361SOL    HW221543   3.755   4.487   2.554  0.5831  0.7702  0.4256
 3362SOL     OW21544   2.160   4.213   2.887  0.0120 -0.1296  0.3402
 3362SOL    HW121545   2.253   4.212   2.908  0.4479 -2.5699 -1.6261
 3362SOL    HW221546   2.131   4.181   2.973 -3.3868  0.3086 -0.6680
 3363SOL     OW21547   1.791   0.989  12.660  0.3700  0.5609  0.0584
 3363SOL    HW121548   1.711   0.949  12.695  0.7438  0.1706  0.4630
 3363SOL    HW221549   1.850   0.940  12.716  1.6793  0.7571 -1.1473
 3364SOL     OW21550   4.502   1.122   5.718  0.2136 -0.3388 -0.2671
 3364SOL    HW121551   4.473   1.062   5.650 -0.2956  0.0813 -0.4214
 3364SOL    HW221552   4.561   1.170   5.659  0.0461 -0.6957 -0.7212
 3365SOL     OW21553   2.990   2.036   3.971 -0.5851  0.0948  0.0838
 3365SOL    HW121554   2.927   2.108   3.979  0.9778  1.5906 -0.9090
 3365SOL    HW221555   2.955   1.984   3.898 -0.4872  0.2308 -0.0616
 3366SOL     OW21556   3.219   1.550   8.671 -0.6476  0.2842  0.2138
 3366SOL    HW121557   3.165   1.628   8.678 -0.7712  0.2077  0.1108
 3366SOL    HW221558   3.184   1.512   8.751 -2.0852  0.4715 -0.3237
 3367SOL     OW21559   2.223   4.307   3.859  0.6142 -0.2737 -0.2411
 3367SOL    HW121560   2.182   4.227   3.892 -0.8090  0.3265 -0.5670
 3367SOL    HW221561   2.318   4.292   3.856  0.5598 -0.9109  1.3071
 3368SOL     OW21562   2.410   3.426   5.033 -0.2002  0.0939 -0.1858
 3368SOL    HW121563   2.349   3.491   4.998  0.8509  0.5012 -1.2645
 3368SOL    HW221564   2.396   3.442   5.126  1.0433 -3.2054  0.5822
 3369SOL     OW21565   4.301   2.661  12.151  0.5337 -0.1658  0.2344
 3369SOL    HW121566   4.242   2.693  12.219  0.3196 -0.5804  0.2473
 3369SOL    HW221567   4.306   2.730  12.084 -0.5690 -0.7507 -0.4547
 3370SOL     OW21568   1.353   1.708   8.245  0.3936  0.0397 -0.1131
 3370SOL    HW121569   1.404   1.784   8.272  0.5293  0.3943 -1.3884
 3370SOL    HW221570   1.394   1.629   8.282  2.0184  0.8979 -0.0648
 3371SOL     OW21571   0.508   0.800   3.302  0.6476 -0.2746  0.3037
 3371SOL    HW121572   0.484   0.892   3.292  2.7104  0.2196  0.0760
 3371SOL    HW221573   0.516   0.791   3.397  1.0762 -0.5223  0.2435
 3372SOL     OW21574   2.815   3.180   3.147  0.2768  0.3327 -0.2166
 3372SOL    HW121575   2.848   3.226   3.070  0.6032  0.6291  0.0968
 3372SOL    HW221576   2.726   3.215   3.146 -0.1162 -0.6897 -0.7108
 3373SOL     OW21577   3.952   3.015   6.765 -0.2563 -0.8000 -0.3633
 3373SOL    HW121578   4.030   2.960   6.776  0.8850  1.0389  0.6740
 3373SOL    HW221579   3.925   3.026   6.856  2.0906 -1.6611  0.4276
 3374SOL     OW21580   0.475   1.181   2.032 -0.2629 -0.7566 -0.9746
 3374SOL    HW121581   0.469   1.097   1.987 -0.5225 -1.2942  0.0582
 3374SOL    HW221582   0.554   1.223   1.999 -1.2714  0.4469 -1.8633
 3375SOL     OW21583   2.709   2.924   9.591 -0.2929 -0.2608  0.1698
 3375SOL    HW121584   2.799   2.956   9.589 -0.3816  0.0987  1.4660
 3375SOL    HW221585   2.669   2.969   9.517 -0.9851 -0.9727  0.1102
 3376SOL     OW21586   2.434   3.287  14.898 -0.0553 -0.2982 -0.0379
 3376SOL    HW121587   2.397   3.315  14.815 -2.7965  0.2657  1.3966
 3376SOL    HW221588   2.465   3.200  14.872 -0.1276 -0.1010 -0.7954
 3377SOL     OW21589   1.642   1.731   6.562  0.4112  0.4651  0.1023
 3377SOL    HW121590   1.691   1.812   6.581  0.6666 -0.3559  2.8620
 3377SOL    HW221591   1.552   1.761   6.552  0.4119  0.4507  0.0520
 3378SOL     OW21592   2.389   1.034   5.271  0.2266 -0.0919 -0.7004
 3378SOL    HW121593   2.356   1.104   5.328 -0.7305  0.7676 -2.3082
 3378SOL    HW221594   2.333   1.042   5.194 -0.1730  2.4557 -0.1512
 3379SOL     OW21595   1.066   0.844   3.701  0.1373  0.2849  0.1594
 3379SOL    HW121596   1.087   0.759   3.740  0.8590 -0.4238 -1.8180
 3379SOL    HW221597   1.154   0.879   3.689  0.5461 -0.8013  0.0073
 3380SOL     OW21598   4.226   4.009  16.293  0.4244 -0.5256  0.1991
 3380SOL    HW121599   4.302   4.057  16.325  0.5084 -0.5161 -0.0125
 3380SOL    HW221600   4.250   4.014  16.200  0.8356  0.7780  0.3829
 3381SOL     OW21601   3.137   1.724   5.052 -0.1403 -0.2049 -0.1930
 3381SOL    HW121602   3.091   1.779   4.988 -0.3244 -0.7036 -0.4885
 3381SOL    HW221603   3.183   1.660   4.998 -0.3793 -1.6295  1.3142
 3382SOL     OW21604   4.104   1.689   6.539 -0.1272  0.3880  0.1433
 3382SOL    HW121605   4.180   1.640   6.510 -0.8859  0.2485 -1.6523
 3382SOL    HW221606   4.083   1.634   6.614 -0.8235 -0.3272 -0.5634
 3383SOL     OW21607   3.188   2.315  14.303 -0.4560  0.3589  0.1676
 3383SOL    HW121608   3.250   2.315  14.230  0.3271 -1.1892  0.8408
 3383SOL    HW221609   3.240   2.253  14.353  0.2968  1.0789  0.2821
 3384SOL     OW21610   2.090   1.717   6.764  0.3612 -0.3091 -0.9704
 3384SOL    HW121611   1.999   1.695   6.743 -0.3205  3.0018 -1.5767
 3384SOL    HW221612   2.098   1.801   6.719 -0.0493  0.5162  0.5009
 3385SOL     OW21613   1.516   0.717   4.462  0.6021  0.5849 -0.4824
 3385SOL    HW121614   1.558   0.781   4.405  1.1875 -0.2947 -1.0350
 3385SOL    HW221615   1.597   0.672   4.487  1.3311  2.4563  0.4933
 3386SOL     OW21616   3.898   0.185   0.022 -0.0287  0.1561  0.1270
 3386SOL    HW121617   3.822   0.154   0.072 -0.2023  1.1608  0.4839
 3386SOL    HW221618   3.895   0.125  17.657  2.6565  1.0636 -0.7112
 3387SOL     OW21619   1.789   3.745   6.726  0.6107 -0.4248 -0.4503
 3387SOL    HW121620   1.866   3.742   6.783  0.3408 -2.1286 -0.1907
 3387SOL    HW221621   1.808   3.675   6.665  1.0279 -1.2036  0.5793
 3388SOL     OW21622   2.660   2.614   8.941  0.4303 -0.0090  0.2060
 3388SOL    HW121623   2.622   2.701   8.956  1.3763 -0.0347  2.7576
 3388SOL    HW221624   2.727   2.613   9.009  2.0448 -3.5030 -1.4382
 3389SOL     OW21625   4.636   0.310   6.360 -0.2526  0.0099  0.2311
 3389SOL    HW121626   4.690   0.277   6.288 -1.0423  1.2641 -0.9558
 3389SOL    HW221627   4.636   0.402   6.332 -0.2206  0.1038  0.5483
 3390SOL     OW21628   2.705   1.564   4.591  0.0889 -0.2769  0.5712
 3390SOL    HW121629   2.713   1.558   4.496 -0.0986 -2.1754  0.6719
 3390SOL    HW221630   2.724   1.658   4.596  1.0633 -0.4956  1.1213
 3391SOL     OW21631   3.139   0.212   7.124  0.2229 -0.2167 -0.2011
 3391SOL    HW121632   3.151   0.159   7.045 -0.5695 -3.9735  2.1894
 3391SOL    HW221633   3.051   0.178   7.139 -0.3552  1.1919 -0.4673
 3392SOL     OW21634   3.952   4.531   7.307  0.0619  0.7600  0.0947
 3392SOL    HW121635   3.951   4.460   7.242  1.4926  0.6896  0.1454
 3392SOL    HW221636   3.865   4.515   7.343 -0.3238 -0.2079 -1.2647
 3393SOL     OW21637   3.667   1.175   0.952 -0.2578 -0.8090  0.0071
 3393SOL    HW121638   3.749   1.207   0.915  0.6255 -1.3249  1.5149
 3393SOL    HW221639   3.626   1.125   0.882 -3.4099 -0.5384  1.6779
 3394SOL     OW21640   0.161   0.527   8.346  0.6319 -0.1941  0.7414
 3394SOL    HW121641   0.133   0.562   8.261 -0.1280 -0.9313  0.6921
 3394SOL    HW221642   0.182   0.440   8.312  1.9713  0.5370 -0.2914
 3395SOL     OW21643   2.674   2.698   9.878 -0.2269 -0.3903  0.3511
 3395SOL    HW121644   2.659   2.783   9.835  2.1637  0.9840  2.2432
 3395SOL    HW221645   2.598   2.679   9.933  0.4356 -1.3772  0.9154
 3396SOL     OW21646   4.508   2.724  11.834  0.1826 -0.6535  0.5236
 3396SOL    HW121647   4.472   2.647  11.789 -0.1083  0.2183 -0.7422
 3396SOL    HW221648   4.432   2.768  11.870 -0.3420 -0.3492 -0.9653
 3397SOL     OW21649   3.457   1.646   8.588 -0.4432 -0.1852  0.2976
 3397SOL    HW121650   3.376   1.606   8.621  0.2835 -0.9367  1.1805
 3397SOL    HW221651   3.433   1.718   8.531 -0.9465 -1.8037 -1.5244
 3398SOL     OW21652   2.610   4.286   7.480 -0.6674 -0.6352 -0.6781
 3398SOL    HW121653   2.589   4.245   7.564 -0.6578 -2.7315 -1.7154
 3398SOL    HW221654   2.650   4.216   7.429 -0.0787  0.1215 -1.2529
 3399SOL     OW21655   0.300   0.981   9.078  0.6669 -0.1122  0.1426
 3399SOL    HW121656   0.362   1.052   9.058  0.2836  0.0862 -0.3344
 3399SOL    HW221657   0.306   0.927   8.999  2.9862  0.3212  0.0203
 3400SOL     OW21658   0.028   2.725  13.726 -0.3507  0.3975 -1.3452
 3400SOL    HW121659   4.724   2.644  13.767  0.7743  1.0600  0.8346
 3400SOL    HW221660   0.046   2.685  13.640 -0.1331 -1.5666 -0.3903
 3401SOL     OW21661   1.380   1.001   5.440  0.5937 -0.0908  0.0640
 3401SOL    HW121662   1.319   1.061   5.396  1.1727 -0.1119 -0.7709
 3401SOL    HW221663   1.394   1.050   5.521  2.1756  0.3564 -0.4654
 3402SOL     OW21664   3.775   0.605   5.553 -0.0073 -0.1308  0.5106
 3402SOL    HW121665   3.764   0.590   5.647  2.1857 -0.5386  0.6941
 3402SOL    HW221666   3.788   0.699   5.547 -0.5319 -0.1110 -0.4183
 3403SOL     OW21667   0.132   2.132   3.014  0.3988 -0.2258 -0.5787
 3403SOL    HW121668   0.211   2.185   3.002  2.3684 -2.4541  2.5478
 3403SOL    HW221669   0.143   2.058   2.955 -0.0366 -0.7437 -0.0056
 3404SOL     OW21670   1.857   2.046   7.558  0.1985 -0.8299 -0.6871
 3404SOL    HW121671   1.905   2.054   7.640  1.5889  1.2510 -1.6703
 3404SOL    HW221672   1.769   2.075   7.583  0.3459 -0.5814 -0.4625
 3405SOL     OW21673   3.853   1.443   7.648 -0.0439  0.2451 -0.6716
 3405SOL    HW121674   3.774   1.447   7.595 -0.3588 -1.7342 -0.3649
 3405SOL    HW221675   3.820   1.511   7.707  0.0694 -0.8255  0.6318
 3406SOL     OW21676   4.329   1.806   7.533  0.3315 -0.0965 -0.1498
 3406SOL    HW121677   4.295   1.792   7.444 -0.0656 -0.7163  0.1016
 3406SOL    HW221678   4.341   1.900   7.546 -0.7019 -0.1241  1.1111
 3407SOL     OW21679   4.607   0.461   6.082  0.0889 -0.0729 -0.5183
 3407SOL    HW121680   4.701   0.480   6.076 -0.5704  3.5011  0.5738
 3407SOL    HW221681   4.591   0.375   6.045 -0.1933  0.9488 -2.7497
 3408SOL     OW21682   2.678   1.076   3.885  0.1712 -0.0846  0.0317
 3408SOL    HW121683   2.594   1.101   3.847  0.2971  1.7285  0.9650
 3408SOL    HW221684   2.657   0.991   3.922  0.7630 -0.0175  0.5235
 3409SOL     OW21685   0.322   4.465  15.873  0.5323 -0.4043 -0.0333
 3409SOL    HW121686   0.307   4.522  15.797  0.0943 -0.1283  0.2621
 3409SOL    HW221687   0.270   4.510  15.939 -2.4962 -0.9828 -1.9959
 3410SOL     OW21688   4.319   1.152  14.432 -0.3947  0.6169  0.7218
 3410SOL    HW121689   4.390   1.146  14.368  0.7325  0.0168  2.0469
 3410SOL    HW221690   4.248   1.108  14.386 -0.9674  0.5125  1.7097
 3411SOL     OW21691   0.520   1.435   5.374 -0.0582  0.2254  0.2562
 3411SOL    HW121692   0.531   1.361   5.314 -0.1053  1.2372 -0.9978
 3411SOL    HW221693   0.434   1.471   5.352  0.0896  0.6821  0.4366
 3412SOL     OW21694   3.114   2.232   6.610  0.4795 -0.2735 -0.0802
 3412SOL    HW121695   3.018   2.231   6.603  0.3313  1.5309  1.5344
 3412SOL    HW221696   3.140   2.268   6.526  0.0119  0.1666 -0.0369
 3413SOL     OW21697   2.687   3.740   4.060 -0.2256  0.3117 -0.3976
 3413SOL    HW121698   2.661   3.824   4.023 -0.6559  0.4355  0.1942
 3413SOL    HW221699   2.698   3.701   3.973  0.6825  1.3507 -0.7576
 3414SOL     OW21700   0.248   2.120  11.024 -0.1788 -0.0501  0.2507
 3414SOL    HW121701   0.324   2.178  11.028  0.0113 -0.2710 -0.1654
 3414SOL    HW221702   0.199   2.173  10.961  2.1919  0.0981 -1.4770
 3415SOL     OW21703   3.306   1.189   0.830 -0.2559  0.6846  0.1792
 3415SOL    HW121704   3.369   1.228   0.769  0.0586 -0.8041 -0.4499
 3415SOL    HW221705   3.220   1.208   0.793 -0.2136 -1.5534 -1.0697
 3416SOL     OW21706   3.620   3.893   6.196  0.0546  0.0733  0.1408
 3416SOL    HW121707   3.569   3.959   6.148 -2.2159 -1.4540  0.4583
 3416SOL    HW221708   3.559   3.874   6.266 -0.2043 -2.3661 -0.7631
 3417SOL     OW21709   3.929   1.847   0.153 -0.3903  0.4264 -0.1517
 3417SOL    HW121710   3.881   1.888   0.082  0.5205 -1.3254 -1.7670
 3417SOL    HW221711   3.936   1.759   0.118 -0.5086  0.0153  0.8565
 3418SOL     OW21712   0.972   3.291   3.733 -0.3140  0.3002  0.1483
 3418SOL    HW121713   0.997   3.362   3.673 -1.1042  0.4719  0.0180
 3418SOL    HW221714   0.994   3.219   3.674 -1.9068  1.1126 -1.4571
 3419SOL     OW21715   1.677   3.400   3.720 -0.6553 -0.3533 -0.5220
 3419SOL    HW121716   1.694   3.310   3.691  2.2222 -0.5667  1.8954
 3419SOL    HW221717   1.646   3.383   3.809 -0.3137 -1.7092 -0.6576
 3420SOL     OW21718   2.305   4.090   2.256  0.2322 -0.1682 -0.0793
 3420SOL    HW121719   2.331   4.032   2.185  0.2384 -0.9236  0.5361
 3420SOL    HW221720   2.386   4.137   2.270 -0.3268  0.5854  0.5962
 3421SOL     OW21721   4.117   1.396   3.001  0.4295 -0.0272 -0.3901
 3421SOL    HW121722   4.062   1.472   3.019 -2.3330 -2.3676  1.1140
 3421SOL    HW221723   4.068   1.354   2.930  1.0137 -1.1081 -0.1535
 3422SOL     OW21724   2.402   3.567   7.566  0.5601  0.1511  0.7455
 3422SOL    HW121725   2.326   3.509   7.567  1.2501 -0.7559  0.3131
 3422SOL    HW221726   2.402   3.592   7.659  3.1709  0.2268  0.7226
 3423SOL     OW21727   1.386   4.472   5.817 -0.3173 -0.0974 -0.4744
 3423SOL    HW121728   1.445   4.536   5.776 -1.9735  1.4163 -0.5077
 3423SOL    HW221729   1.358   4.428   5.737 -0.2428  0.9178 -1.0565
 3424SOL     OW21730   1.276   4.630   7.209  0.2718 -0.8830  0.2298
 3424SOL    HW121731   1.286   4.537   7.188 -2.0069 -0.9224 -0.6593
 3424SOL    HW221732   1.214   4.655   7.141 -0.0212  0.8033  1.1112
 3425SOL     OW21733   1.088   4.380   2.517  0.0399  0.7115  0.4664
 3425SOL    HW121734   1.097   4.356   2.424  0.0215  2.6744 -0.0354
 3425SOL    HW221735   1.127   4.307   2.566 -1.7920  0.0535  0.9443
 3426SOL     OW21736   1.330   1.532   4.827 -0.4137 -0.1919 -0.1648
 3426SOL    HW121737   1.353   1.439   4.830  0.2078 -0.0307  0.1518
 3426SOL    HW221738   1.236   1.519   4.842 -1.1017  3.3606 -1.4517
 3427SOL     OW21739   3.778   2.765   7.116  0.3535 -0.7279 -0.2174
 3427SOL    HW121740   3.813   2.688   7.160 -0.2257 -1.8014 -1.6538
 3427SOL    HW221741   3.717   2.723   7.056 -0.0686  1.5826 -1.4443
 3428SOL     OW21742   0.823   3.727   7.951  0.2206  0.5195 -0.0368
 3428SOL    HW121743   0.833   3.681   7.868 -1.9879  1.9405 -1.1079
 3428SOL    HW221744   0.806   3.811   7.907 -2.4303 -0.4725 -0.9059
 3429SOL     OW21745   3.877   2.011   6.373  0.2005 -0.0156 -0.1089
 3429SOL    HW121746   3.783   2.001   6.355  0.4652  0.7480 -1.8416
 3429SOL    HW221747   3.915   2.038   6.289 -1.4441  0.9188 -0.5499
 3430SOL     OW21748   4.558   3.747  10.621 -0.6882  0.2775  0.2605
 3430SOL    HW121749   4.470   3.742  10.583  0.9899  0.0946 -3.6736
 3430SOL    HW221750   4.549   3.815  10.688 -0.6170  0.6946 -0.1508
 3431SOL     OW21751   2.019   3.017   2.325 -0.2734 -0.2052  0.0610
 3431SOL    HW121752   1.982   2.933   2.352 -0.3923 -1.2362 -3.3463
 3431SOL    HW221753   1.983   3.028   2.237  1.8933  0.8121 -0.6919
 3432SOL     OW21754   3.852   0.769  15.977  0.8266 -0.0688 -0.2230
 3432SOL    HW121755   3.792   0.723  15.919 -0.8719  0.0903  1.3957
 3432SOL    HW221756   3.810   0.752  16.061 -0.4969  0.2506 -0.8271
 3433SOL     OW21757   0.296   2.951   6.653 -0.2873  0.4739 -0.2392
 3433SOL    HW121758   0.322   3.040   6.629 -0.2334  0.7235  0.7519
 3433SOL    HW221759   0.375   2.906   6.680 -0.8805 -0.9052 -0.7930
 3434SOL     OW21760   4.717   3.621  10.877 -0.1416 -0.3756 -0.2239
 3434SOL    HW121761   0.040   3.622  10.959 -1.1543 -0.5403  0.3924
 3434SOL    HW221762   4.662   3.698  10.884  0.9990  0.6208 -2.2232
 3435SOL     OW21763   2.723   1.532   2.971  0.0768  0.0022  0.2500
 3435SOL    HW121764   2.779   1.485   2.908  1.9417  0.0704  1.8677
 3435SOL    HW221765   2.664   1.458   2.984  2.4080 -1.8232  0.6272
 3436SOL     OW21766   0.842   1.920  16.404  0.2134 -0.3934 -0.4986
 3436SOL    HW121767   0.937   1.914  16.395  0.5351  1.8800  1.3445
 3436SOL    HW221768   0.804   1.922  16.316 -0.7999  0.2798 -0.0493
 3437SOL     OW21769   0.924   1.112  16.139  0.5996 -0.3967 -0.0090
 3437SOL    HW121770   0.957   1.091  16.052  0.5680  0.2279 -0.1747
 3437SOL    HW221771   0.843   1.155  16.112 -1.2883 -2.1166  2.9701
 3438SOL     OW21772   0.402   0.533  14.172 -0.4757  0.3314 -1.0149
 3438SOL    HW121773   0.427   0.624  14.187  0.1658  0.3451 -2.2409
 3438SOL    HW221774   0.465   0.497  14.234 -1.5629  1.1767  0.6085
 3439SOL     OW21775   4.352   2.049   2.186 -0.7587 -0.0454  0.4801
 3439SOL    HW121776   4.328   2.054   2.278 -1.4943 -0.9455  0.3362
 3439SOL    HW221777   4.272   2.025   2.140  0.7036  0.0732 -2.1534
 3440SOL     OW21778   3.688   4.264   4.080 -0.3890 -0.2278  0.3778
 3440SOL    HW121779   3.696   4.243   3.987 -1.9361 -1.9800  0.6418
 3440SOL    HW221780   3.685   4.359   4.080  0.3654 -0.2117 -0.2764
 3441SOL     OW21781   0.801   1.551   5.230 -0.3137  0.1131  0.3129
 3441SOL    HW121782   0.784   1.613   5.160  0.4867  0.6559  0.5949
 3441SOL    HW221783   0.816   1.614   5.301  0.9017  1.4565 -1.1507
 3442SOL     OW21784   4.029   1.505   0.507  0.0375  0.3819 -0.1648
 3442SOL    HW121785   4.094   1.439   0.534 -0.1442 -0.6471 -2.2609
 3442SOL    HW221786   3.994   1.459   0.431 -0.1850  2.9831 -1.6090
 3443SOL     OW21787   0.192   0.843   3.426 -0.5217 -0.0646 -0.0747
 3443SOL    HW121788   0.217   0.786   3.499 -0.1670 -1.1231 -1.0278
 3443SOL    HW221789   0.271   0.895   3.411  1.0781 -2.2498  0.7805
 3444SOL     OW21790   0.764   3.414   7.374 -0.0385  0.5162  0.2136
 3444SOL    HW121791   0.761   3.508   7.357  0.8354  0.5339  0.1552
 3444SOL    HW221792   0.852   3.400   7.408  0.6406 -0.3679 -1.9096
 3445SOL     OW21793   2.745   2.686   4.780  0.1008 -0.0696  0.9751
 3445SOL    HW121794   2.836   2.670   4.805  0.1387 -0.3059  0.6817
 3445SOL    HW221795   2.726   2.608   4.728  1.9280 -0.0214  0.2354
 3446SOL     OW21796   0.436   3.122  10.421 -0.0711 -0.5189  0.5149
 3446SOL    HW121797   0.343   3.144  10.414  0.0414 -0.2602 -0.2180
 3446SOL    HW221798   0.432   3.027  10.424 -1.2356 -0.4340  1.4606
 3447SOL     OW21799   0.157   0.081   1.662  0.0887 -0.1413 -0.3296
 3447SOL    HW121800   0.115   0.078   1.576  2.2347 -0.1053 -1.3725
 3447SOL    HW221801   0.089   0.040   1.716  1.3919  0.0464  1.4315
 3448SOL     OW21802   0.347   0.854   2.377 -0.2767  0.5719 -0.7412
 3448SOL    HW121803   0.300   0.899   2.307 -1.0251  0.1776 -0.4929
 3448SOL    HW221804   0.331   0.917   2.448 -1.5232 -0.4477 -0.1115
 3449SOL     OW21805   1.167   0.578   3.816  0.1136  0.2847 -0.3385
 3449SOL    HW121806   1.220   0.578   3.895 -1.2720  2.1328  0.5929
 3449SOL    HW221807   1.206   0.509   3.762  0.0132  0.5146 -0.7084
 3450SOL     OW21808   1.738   3.810  11.629 -0.1843 -0.6533  0.4071
 3450SOL    HW121809   1.800   3.834  11.698 -0.0586  1.1168 -0.3262
 3450SOL    HW221810   1.787   3.744  11.580  0.6638  0.1313  0.1797
 3451SOL     OW21811   2.853   3.076   9.972  0.0495  0.4167 -0.3070
 3451SOL    HW121812   2.914   3.062  10.045 -0.7869  0.6173  0.4304
 3451SOL    HW221813   2.908   3.106   9.900 -1.1398 -1.1671 -1.8735
 3452SOL     OW21814   0.204   3.852   1.885 -0.4593  0.2280 -0.3291
 3452SOL    HW121815   0.252   3.932   1.907  0.3305 -0.1926 -0.5456
 3452SOL    HW221816   0.274   3.789   1.872  0.5517  1.6572 -1.9178
 3453SOL     OW21817   4.315   0.468  10.839 -0.0661 -0.2815  0.4957
 3453SOL    HW121818   4.392   0.522  10.823 -1.2521  1.6826  1.3475
 3453SOL    HW221819   4.258   0.514  10.777 -0.8814 -1.5921  0.2858
 3454SOL     OW21820   3.783   4.140   7.716 -0.2924 -0.4654 -0.3837
 3454SOL    HW121821   3.876   4.124   7.696 -0.4570  0.6665 -1.9626
 3454SOL    HW221822   3.766   4.068   7.777 -1.0416 -1.2212 -1.5092
 3455SOL     OW21823   3.826   2.457   5.428  0.8696 -0.7693 -0.5540
 3455SOL    HW121824   3.876   2.470   5.508 -0.6319 -1.2352  0.4405
 3455SOL    HW221825   3.745   2.502   5.450  1.2069 -0.6174  0.3612
 3456SOL     OW21826   3.051   0.700   8.172  0.0941 -0.2688  0.2049
 3456SOL    HW121827   2.993   0.746   8.112 -0.5530 -1.6679 -0.2388
 3456SOL    HW221828   3.108   0.767   8.210  1.1959 -0.2730 -1.4881
 3457SOL     OW21829   2.202   0.889  11.968  0.8392 -0.3756  0.0534
 3457SOL    HW121830   2.242   0.813  11.926 -1.8703 -1.6314 -0.2495
 3457SOL    HW221831   2.279   0.945  11.960  1.4932 -1.2221  0.4145
 3458SOL     OW21832   2.067   3.740   9.161  0.0623 -0.7695  0.4506
 3458SOL    HW121833   2.071   3.655   9.206  1.4424  0.3628  2.4362
 3458SOL    HW221834   2.102   3.722   9.074 -1.0759  0.4546 -0.2621
 3459SOL     OW21835   4.035   4.615   5.152  0.5540  0.2521 -0.1777
 3459SOL    HW121836   3.995   4.554   5.091 -0.1228  2.1312 -1.6030
 3459SOL    HW221837   3.987   4.606   5.235  0.6228  0.3016 -0.1326
 3460SOL     OW21838   1.381   0.990   5.955 -0.4030  0.3136 -0.5436
 3460SOL    HW121839   1.403   1.046   5.880  0.5626 -0.6910 -1.0252
 3460SOL    HW221840   1.459   0.935   5.968 -1.1820 -0.8353 -0.6806
 3461SOL     OW21841   2.298   0.754   3.857  0.5939  0.6417  0.5089
 3461SOL    HW121842   2.266   0.841   3.836 -2.0505 -0.0342  1.8695
 3461SOL    HW221843   2.382   0.743   3.812  0.9010  0.3447  1.1588
 3462SOL     OW21844   1.286   4.258   2.314 -0.0976  0.2219  0.0865
 3462SOL    HW121845   1.284   4.181   2.370 -0.3447  0.7274  0.7718
 3462SOL    HW221846   1.348   4.310   2.365  2.2083 -0.7603 -1.7453
 3463SOL     OW21847   0.450   4.325  16.386 -0.3783  0.2751  0.1584
 3463SOL    HW121848   0.450   4.241  16.340 -1.8240 -0.8644  2.2250
 3463SOL    HW221849   0.413   4.293  16.468 -0.7096  0.7457  0.1989
 3464SOL     OW21850   0.309   1.998   3.647 -0.5556 -0.1534  0.0383
 3464SOL    HW121851   0.281   2.087   3.670 -1.3046 -0.5218  0.5670
 3464SOL    HW221852   0.243   1.986   3.579  0.6879 -0.0246 -1.1785
 3465SOL     OW21853   1.862   3.433   8.660 -0.0191 -0.7373  0.0714
 3465SOL    HW121854   1.852   3.453   8.754  0.4950  0.5528 -0.1550
 3465SOL    HW221855   1.913   3.352   8.661  0.4721 -0.4315 -0.8095
 3466SOL     OW21856   2.420   2.635   1.379 -0.5119  0.2982 -0.1778
 3466SOL    HW121857   2.393   2.721   1.412 -0.6637  1.0119 -2.1620
 3466SOL    HW221858   2.499   2.627   1.433 -0.3301 -0.6579 -0.5691
 3467SOL     OW21859   1.086   0.438  17.348 -0.7905  0.1779  0.3132
 3467SOL    HW121860   1.068   0.345  17.363 -1.6610  0.2003 -0.6037
 3467SOL    HW221861   0.996   0.468  17.361 -0.3665  1.9198 -0.8397
 3468SOL     OW21862   0.743   1.865   1.886 -0.4317 -0.4470  0.0402
 3468SOL    HW121863   0.667   1.839   1.937  0.8044  1.9492  3.0982
 3468SOL    HW221864   0.785   1.781   1.871 -0.7144 -0.4346 -0.8242
 3469SOL     OW21865   3.622   4.708   7.246 -0.0836  0.6585 -0.4961
 3469SOL    HW121866   3.706   0.008   7.211  0.9199  0.4191  1.7096
 3469SOL    HW221867   3.653   4.676   7.331 -0.7851 -1.1376 -0.9285
 3470SOL     OW21868   1.446   3.555   9.181  0.2739  0.1469 -0.6406
 3470SOL    HW121869   1.401   3.488   9.130 -0.3371 -2.1915  2.9874
 3470SOL    HW221870   1.372   3.598   9.226  0.6548 -2.0640  2.1234
 3471SOL     OW21871   2.087   3.947   7.548  0.0511  0.7427 -0.2443
 3471SOL    HW121872   2.007   3.983   7.588 -0.0086  1.4383 -0.9926
 3471SOL    HW221873   2.072   3.856   7.525 -1.5900  1.1778 -0.8878
 3472SOL     OW21874   4.360   0.851   8.993 -0.3386  0.3671 -0.2097
 3472SOL    HW121875   4.441   0.864   9.043 -0.5519 -1.3036  0.5689
 3472SOL    HW221876   4.375   0.770   8.944  0.0842 -0.2446  0.9376
 3473SOL     OW21877   2.668   0.411   5.609  0.0991  0.0052  0.2085
 3473SOL    HW121878   2.579   0.413   5.643  0.4971  1.4472  1.1502
 3473SOL    HW221879   2.680   0.317   5.596  0.9068  0.5548 -3.1432
 3474SOL     OW21880   2.488   2.605   8.004 -0.0139  0.4093  0.7023
 3474SOL    HW121881   2.465   2.515   8.026  1.9311  0.0760  1.4118
 3474SOL    HW221882   2.542   2.634   8.078  2.1356  1.3318 -1.2008
 3475SOL     OW21883   3.590   4.638  15.871 -0.0108  0.8569 -0.3288
 3475SOL    HW121884   3.541   4.720  15.875  0.5767  1.3985 -3.5776
 3475SOL    HW221885   3.562   4.591  15.949  1.8725  0.8858  0.3771
 3476SOL     OW21886   2.815   3.712   6.923 -0.3258  0.3075 -0.2073
 3476SOL    HW121887   2.777   3.733   7.008  1.6680 -2.2319  1.2835
 3476SOL    HW221888   2.812   3.803   6.892  0.6186  0.6738  0.7922
 3477SOL     OW21889   3.142   0.704   8.828  0.3628  0.4119 -0.1734
 3477SOL    HW121890   3.145   0.799   8.821 -0.2096  0.4147 -0.4001
 3477SOL    HW221891   3.195   0.681   8.752  0.5657 -0.3266  0.1858
 3478SOL     OW21892   1.114   2.657   6.039  0.4780  0.0099  0.4026
 3478SOL    HW121893   1.082   2.610   6.116 -0.8791 -1.5505 -1.1017
 3478SOL    HW221894   1.149   2.735   6.082 -0.7773  0.5515  0.4522
 3479SOL     OW21895   3.072   3.592  13.135  0.3491  0.0175 -0.7435
 3479SOL    HW121896   3.163   3.622  13.124  0.5147  0.0554  0.6995
 3479SOL    HW221897   3.016   3.669  13.133  2.3699  1.5800  1.3726
 3480SOL     OW21898   4.528   2.315   7.844 -0.2154 -0.2174 -0.0893
 3480SOL    HW121899   4.445   2.302   7.890  0.8566  2.6625  2.6675
 3480SOL    HW221900   4.593   2.329   7.913 -0.8547 -0.2317  0.5169
 3481SOL     OW21901   3.953   4.725   6.316 -0.1059 -0.2378  0.0064
 3481SOL    HW121902   3.986   0.012   6.228 -0.5927  2.5824  0.2663
 3481SOL    HW221903   3.990   0.078   6.355 -0.3788 -1.2236  2.2934
 3482SOL     OW21904   0.776   3.247   8.296  0.7751 -0.3205  0.1823
 3482SOL    HW121905   0.706   3.182   8.284 -0.7362  1.7537 -2.3002
 3482SOL    HW221906   0.723   3.324   8.277  1.3976 -0.0360 -0.3924
 3483SOL     OW21907   0.315   3.028  12.761 -0.4178 -0.4572  0.6983
 3483SOL    HW121908   0.343   2.965  12.828  2.1063 -0.0022  0.0498
 3483SOL    HW221909   0.271   3.087  12.823  0.4352 -0.2825  1.1309
 3484SOL     OW21910   2.954   1.449   7.152  0.3531 -0.3506 -0.0232
 3484SOL    HW121911   3.041   1.458   7.190  0.5985 -1.3650 -0.3370
 3484SOL    HW221912   2.910   1.527   7.186  0.5376 -0.1562 -0.2316
 3485SOL     OW21913   3.359   4.535   5.987 -0.1674  0.0607  0.2031
 3485SOL    HW121914   3.441   4.581   6.005  0.0648 -0.7573  1.2435
 3485SOL    HW221915   3.336   4.589   5.912 -0.0867  0.5903  0.5606
 3486SOL     OW21916   0.097   0.737   1.491 -0.2055  0.4682 -0.5144
 3486SOL    HW121917   0.086   0.656   1.441  2.1519 -0.2176  0.0687
 3486SOL    HW221918   0.174   0.716   1.544 -0.2413  0.4816 -0.4569
 3487SOL     OW21919   3.195   4.124   0.901 -0.0411  0.4221  0.5209
 3487SOL    HW121920   3.188   4.152   0.992 -2.2356  0.0832  0.4592
 3487SOL    HW221921   3.285   4.152   0.883 -0.2392 -0.5281 -1.9542
 3488SOL     OW21922   3.543   1.369   3.963  0.2513  0.1232  0.6557
 3488SOL    HW121923   3.539   1.429   3.888  0.4111 -0.2753  0.3297
 3488SOL    HW221924   3.635   1.344   3.966  0.4253  0.4160 -2.4605
 3489SOL     OW21925   4.273   0.164   6.075 -0.2650  0.0062 -0.0048
 3489SOL    HW121926   4.289   0.192   6.166  2.0253  0.0901 -0.4189
 3489SOL    HW221927   4.360   0.172   6.036 -0.3648 -0.9295 -0.4279
 3490SOL     OW21928   4.548   4.371   4.231  0.0682  0.1575 -0.5408
 3490SOL    HW121929   4.640   4.370   4.258 -0.4293  0.6996  1.1570
 3490SOL    HW221930   4.520   4.432   4.300  2.1511  0.2457  0.2247
 3491SOL     OW21931   0.137   3.152   8.523  0.3718 -0.5592 -0.1116
 3491SOL    HW121932   0.113   3.092   8.593 -0.9197 -0.8380 -0.7957
 3491SOL    HW221933   0.147   3.093   8.448  2.5210 -0.6217  0.2214
 3492SOL     OW21934   4.018   1.052  14.551  0.2598 -0.0698  0.3684
 3492SOL    HW121935   4.011   0.988  14.622  1.0218  0.1553  0.6515
 3492SOL    HW221936   4.078   1.112  14.594  0.7137  0.0334 -0.4167
 3493SOL     OW21937   4.047   2.575  16.639 -0.0954 -0.5842 -0.4143
 3493SOL    HW121938   3.966   2.542  16.677  0.1670 -1.5987 -0.7229
 3493SOL    HW221939   4.050   2.518  16.562 -0.5810  1.2792 -1.8082
 3494SOL     OW21940   3.303   1.280  12.377  0.0926 -0.3563 -0.0191
 3494SOL    HW121941   3.297   1.372  12.351  1.2562 -0.7158 -1.5379
 3494SOL    HW221942   3.267   1.279  12.466 -1.9606  0.3905 -0.8491
 3495SOL     OW21943   0.282   0.132   9.162  0.2357 -0.3219 -0.2870
 3495SOL    HW121944   0.191   0.155   9.182 -0.1966 -2.3119 -0.0269
 3495SOL    HW221945   0.324   0.143   9.248 -0.6032  1.0109 -0.0384
 3496SOL     OW21946   0.892   1.085   2.118  0.4949 -0.1190  0.5472
 3496SOL    HW121947   0.834   1.130   2.056 -1.1782  1.0691  2.9626
 3496SOL    HW221948   0.859   0.998   2.097  0.6989  0.3127 -1.5327
 3497SOL     OW21949   3.311   3.183   1.676 -0.4572  0.3004 -0.1275
 3497SOL    HW121950   3.263   3.262   1.702  0.4300  1.4123 -1.9128
 3497SOL    HW221951   3.400   3.213   1.690 -0.3623  0.9051 -2.0800
 3498SOL     OW21952   1.856   2.121  10.007  0.7159 -0.0564  0.0617
 3498SOL    HW121953   1.931   2.062   9.995  1.3198  0.9609 -1.2681
 3498SOL    HW221954   1.907   2.197  10.036  0.1714  1.0501 -1.8836
 3499SOL     OW21955   3.794   2.307   2.653 -0.4225 -0.0811 -0.0492
 3499SOL    HW121956   3.815   2.226   2.607 -3.2390  0.6020 -2.5546
 3499SOL    HW221957   3.835   2.377   2.602 -2.0886  1.4388  0.7015
 3500SOL     OW21958   3.115   2.404   6.137  0.1033 -0.2452 -0.4554
 3500SOL    HW121959   3.074   2.371   6.056  2.0199  1.8928 -2.3040
 3500SOL    HW221960   3.207   2.402   6.113 -0.2159 -1.4735 -1.5796
 3501SOL     OW21961   2.698   1.500  13.248  0.5588  0.3777  0.5464
 3501SOL    HW121962   2.741   1.542  13.323 -1.9320  1.1778  1.5376
 3501SOL    HW221963   2.636   1.567  13.217 -1.6072 -2.4287 -1.1640
 3502SOL     OW21964   3.936   2.902  10.628 -0.9160  0.3358  0.3581
 3502SOL    HW121965   3.977   2.822  10.662 -2.3515 -0.5319  0.0487
 3502SOL    HW221966   3.846   2.899  10.658 -0.3219 -1.7179  1.9648
 3503SOL     OW21967   4.318   1.666   3.889  0.5466  0.1283  0.7840
 3503SOL    HW121968   4.388   1.727   3.864 -0.7074  0.9043 -0.8776
 3503SOL    HW221969   4.285   1.632   3.805 -0.8318  0.9603  0.9803
 3504SOL     OW21970   2.424   1.799  13.926  0.0147  0.0748 -0.0603
 3504SOL    HW121971   2.431   1.893  13.948 -0.1104  0.0405  0.1265
 3504SOL    HW221972   2.345   1.786  13.874 -0.3799 -0.4298  0.6607
 3505SOL     OW21973   1.544   3.472   5.681  0.4148  0.7185  0.3948
 3505SOL    HW121974   1.600   3.399   5.707 -0.8180 -0.0510  0.8806
 3505SOL    HW221975   1.569   3.541   5.742  2.1055  1.9360 -1.7068
 3506SOL     OW21976   1.961   2.353   0.926  0.6103 -0.0079 -0.2812
 3506SOL    HW121977   2.027   2.343   0.858  0.0764 -0.9638 -0.6594
 3506SOL    HW221978   1.995   2.286   0.984 -0.6683  0.8637  1.4811
 3507SOL     OW21979   3.171   1.946   2.911 -0.1221 -0.4446  0.6807
 3507SOL    HW121980   3.115   2.001   2.856  3.0147  0.3657 -1.7000
 3507SOL    HW221981   3.246   2.006   2.910 -0.0023 -0.6049  0.2670
 3508SOL     OW21982   2.619   2.798   2.563  0.0667  0.0226 -0.4554
 3508SOL    HW121983   2.605   2.873   2.505  1.4489 -0.3503 -1.2575
 3508SOL    HW221984   2.712   2.781   2.545 -0.2158 -0.8295 -1.0927
 3509SOL     OW21985   1.940   0.248   0.720 -0.3246  0.2889 -0.4714
 3509SOL    HW121986   1.897   0.290   0.794  3.3366  2.3118  0.5308
 3509SOL    HW221987   1.869   0.185   0.708  0.3329  0.1027 -3.3345
 3510SOL     OW21988   4.668   3.382   5.517 -0.1105  0.0013  0.3085
 3510SOL    HW121989   4.593   3.349   5.468  0.7763 -2.1722  0.4527
 3510SOL    HW221990   0.015   3.379   5.456 -0.3196  0.9009  0.0003
 3511SOL     OW21991   3.664   2.245   5.432 -0.6708 -0.6360 -0.1314
 3511SOL    HW121992   3.739   2.304   5.421 -1.8116  0.4520 -1.8890
 3511SOL    HW221993   3.590   2.303   5.416  0.9335  1.1667 -0.9665
 3512SOL     OW21994   0.114   2.116   6.821 -0.0810  0.4019 -0.5186
 3512SOL    HW121995   0.136   2.027   6.795  3.1070  0.7403  1.0238
 3512SOL    HW221996   0.042   2.125   6.758  1.4725  1.4206 -2.1657
 3513SOL     OW21997   0.208   2.000  12.238  0.6059  0.0360 -0.1707
 3513SOL    HW121998   0.300   2.016  12.217  0.8775 -1.2844 -0.0217
 3513SOL    HW221999   0.207   1.907  12.260  1.9476 -0.1952 -1.1332
 3514SOL     OW22000   0.585   3.882   2.914  0.2004  0.0505  0.2007
 3514SOL    HW122001   0.648   3.821   2.876  0.9137  0.5035  0.6567
 3514SOL    HW222002   0.511   3.870   2.855 -1.4710 -2.0986  2.6826
 3515SOL     OW22003   3.903   4.088   8.842  0.4213 -0.4003  0.0904
 3515SOL    HW122004   3.810   4.064   8.851 -0.2640  1.4401 -1.9504
 3515SOL    HW222005   3.917   4.104   8.935  2.0584  2.5878 -0.6869
 3516SOL     OW22006   1.433   3.370   6.664  0.4829 -0.3319  0.2886
 3516SOL    HW122007   1.347   3.367   6.706  0.9129  0.0621  1.1970
 3516SOL    HW222008   1.425   3.428   6.588  0.5207  0.4702  0.9005
 3517SOL     OW22009   1.226   2.707   4.063 -0.0219 -0.2669 -0.0364
 3517SOL    HW122010   1.301   2.749   4.104  0.4247 -1.5830  0.4695
 3517SOL    HW222011   1.268   2.670   3.985  0.0908 -0.5750  0.1734
 3518SOL     OW22012   2.853   1.777   1.904 -0.0835  0.0561  0.3273
 3518SOL    HW122013   2.776   1.824   1.872  0.4962 -0.7684 -2.3133
 3518SOL    HW222014   2.890   1.834   1.970 -1.6942 -1.1685  2.3011
 3519SOL     OW22015   2.249   3.146  17.084 -0.1445  0.1792  0.1680
 3519SOL    HW122016   2.335   3.189  17.091 -0.6882  1.2718  0.2420
 3519SOL    HW222017   2.261   3.092  17.007 -0.7498 -0.9496  0.8714
 3520SOL     OW22018   3.946   3.910   5.896 -0.0185 -0.1244 -0.0426
 3520SOL    HW122019   3.969   3.920   5.804 -1.6028  1.9934 -0.1926
 3520SOL    HW222020   3.978   3.993   5.932  1.0562 -0.5559 -0.0097
 3521SOL     OW22021   4.271   0.932   0.357 -0.3684  0.2034 -0.0298
 3521SOL    HW122022   4.182   0.967   0.365  1.1090  3.7522  1.0081
 3521SOL    HW222023   4.303   0.958   0.271 -0.2747  0.2001  0.0041
 3522SOL     OW22024   0.544   3.039  15.947 -0.5312 -0.5831  0.1323
 3522SOL    HW122025   0.591   3.032  16.030  2.2530 -0.5347 -1.4511
 3522SOL    HW222026   0.500   2.955  15.932  3.0856 -2.3756 -0.4830
 3523SOL     OW22027   3.752   1.305   2.044  0.2438 -0.3109  0.2759
 3523SOL    HW122028   3.803   1.304   1.962 -0.2588  0.6796 -0.0461
 3523SOL    HW222029   3.707   1.389   2.045  0.9553  0.0712  0.1954
 3524SOL     OW22030   0.005   2.081   0.878 -0.3695  0.2771 -0.3534
 3524SOL    HW122031   0.078   2.083   0.940 -0.7392 -1.4011  0.1288
 3524SOL    HW222032   0.052   2.066   0.796  0.0970  2.2219 -0.4362
 3525SOL     OW22033   4.461   3.830   7.485  0.4814 -0.0744  0.7856
 3525SOL    HW122034   4.540   3.884   7.495 -1.0076  2.4158 -0.7492
 3525SOL    HW222035   4.394   3.884   7.442 -0.5331 -1.7271  0.2757
 3526SOL     OW22036   4.492   1.937   9.430 -0.5887 -0.4554  0.2019
 3526SOL    HW122037   4.569   1.897   9.469  1.0572  0.8627 -1.7150
 3526SOL    HW222038   4.527   1.948   9.342 -0.9309 -2.0702 -0.1314
 3527SOL     OW22039   0.136   3.801   0.220  0.9062  0.0863  0.0257
 3527SOL    HW122040   0.099   3.889   0.209 -1.1011 -0.4737  2.2268
 3527SOL    HW222041   0.104   3.785   0.309 -1.1014 -0.9932 -0.8967
 3528SOL     OW22042   1.871   3.840   4.882  0.0316 -0.3744  0.3174
 3528SOL    HW122043   1.940   3.904   4.866 -0.8026  0.1470 -1.2122
 3528SOL    HW222044   1.792   3.892   4.869 -0.4550 -1.0087  0.6864
 3529SOL     OW22045   1.461   3.635  15.853 -0.1579  0.0736  0.0806
 3529SOL    HW122046   1.480   3.696  15.781  2.3048 -0.6766  0.0930
 3529SOL    HW222047   1.551   3.613  15.875  0.0252  1.6808  0.9465
 3530SOL     OW22048   2.118   2.618   6.042 -0.4003  0.1287 -0.3189
 3530SOL    HW122049   2.213   2.626   6.054 -0.7856  3.7959  0.3110
 3530SOL    HW222050   2.087   2.688   6.100  3.4915 -0.4821  2.5467
 3531SOL     OW22051   0.822   2.346   8.316 -0.0697  0.6206  0.0468
 3531SOL    HW122052   0.903   2.380   8.279  0.5676 -1.6325 -0.6196
 3531SOL    HW222053   0.791   2.287   8.248  0.4317  0.9670 -0.4816
 3532SOL     OW22054   4.681   0.568   2.326 -0.0119 -0.2212  0.2048
 3532SOL    HW122055   4.609   0.505   2.318 -1.0262  0.5498  3.4117
 3532SOL    HW222056   4.634   0.647   2.352 -0.4549 -0.3649 -0.1550
 3533SOL     OW22057   0.597   2.677   7.909 -0.5810 -0.2194  0.5943
 3533SOL    HW122058   0.606   2.736   7.834 -1.9572 -0.7470  0.0192
 3533SOL    HW222059   0.680   2.629   7.918 -1.3344 -1.3394  1.5795
 3534SOL     OW22060   3.259   3.119   5.790  0.3668  0.2510  0.2770
 3534SOL    HW122061   3.247   3.155   5.878  0.7982  0.9183  0.0618
 3534SOL    HW222062   3.216   3.187   5.738  0.5161  0.5795  0.5799
 3535SOL     OW22063   2.001   4.419  10.480  0.0851 -0.1990 -0.3601
 3535SOL    HW122064   1.906   4.432  10.477 -0.2136 -1.9539  1.1466
 3535SOL    HW222065   2.021   4.401  10.572  0.3930  0.2032 -0.3481
 3536SOL     OW22066   2.412   2.076   4.335  0.5938 -0.1291 -0.7732
 3536SOL    HW122067   2.331   2.119   4.307  1.0808  1.6555  0.5679
 3536SOL    HW222068   2.362   2.011   4.385 -0.6306  0.1740 -1.5918
 3537SOL     OW22069   0.570   0.231   2.689  0.1521  0.0780 -0.3279
 3537SOL    HW122070   0.583   0.140   2.660  2.2199 -0.0552  0.9498
 3537SOL    HW222071   0.476   0.239   2.704 -0.2522  1.7679 -3.8261
 3538SOL     OW22072   1.248   2.996   5.028 -0.2391  0.4589  0.7367
 3538SOL    HW122073   1.285   2.978   5.114  1.2891 -1.5994 -0.3482
 3538SOL    HW222074   1.323   3.031   4.981 -0.2772  1.8723  1.7282
 3539SOL     OW22075   0.469   4.659   4.834 -0.1625 -0.4493  0.0845
 3539SOL    HW122076   0.472   4.587   4.898  1.9631  2.4412  3.2651
 3539SOL    HW222077   0.542   4.629   4.781  1.1682  1.9826  0.5629
 3540SOL     OW22078   3.890   3.136   2.308  0.4653 -0.6047 -0.6675
 3540SOL    HW122079   3.979   3.169   2.314  0.3889 -0.4045 -0.6330
 3540SOL    HW222080   3.858   3.184   2.231  2.4436  0.9307 -0.5110
 3541SOL     OW22081   2.488   3.196   3.677 -0.7260  0.1101 -0.3060
 3541SOL    HW122082   2.563   3.197   3.618  1.0514  1.6424  1.9329
 3541SOL    HW222083   2.521   3.147   3.752  1.3418  2.1393  0.1327
 3542SOL     OW22084   2.223   0.059  13.325 -0.0417  0.2476 -0.2105
 3542SOL    HW122085   2.220   0.081  13.232  0.8349 -0.6931 -0.4677
 3542SOL    HW222086   2.274   0.130  13.362  1.6348 -1.1279  0.1327
 3543SOL     OW22087   2.254   2.789   9.507 -0.2659 -0.3939  0.1968
 3543SOL    HW122088   2.267   2.711   9.561 -0.1661 -0.5258 -0.0184
 3543SOL    HW222089   2.300   2.856   9.558  0.2648 -1.6281  1.3283
 3544SOL     OW22090   0.529   2.132   1.491  0.7845 -0.0728  0.1761
 3544SOL    HW122091   0.625   2.128   1.488  0.6992 -3.1571  0.7574
 3544SOL    HW222092   0.519   2.104   1.582  1.8979 -1.4913 -0.1341
 3545SOL     OW22093   2.421   3.533   1.969  0.1044 -0.5095 -0.2200
 3545SOL    HW122094   2.506   3.532   1.926 -0.2069  0.4803 -0.8499
 3545SOL    HW222095   2.447   3.486   2.048  1.8553  1.1983  0.1942
 3546SOL     OW22096   1.008   0.609  17.611  0.4028  0.2602 -0.7583
 3546SOL    HW122097   1.028   0.516  17.623 -2.2481  0.1043  2.3781
 3546SOL    HW222098   0.912   0.611  17.611  0.3438 -1.5149 -1.9702
 3547SOL     OW22099   2.781   2.407  11.827  0.0579 -0.2745 -0.0248
 3547SOL    HW122100   2.842   2.352  11.777  1.9874  2.0095 -0.1855
 3547SOL    HW222101   2.779   2.488  11.775  1.3988 -0.5678 -0.5426
 3548SOL     OW22102   2.939   0.355   8.680 -0.1816 -0.5842 -0.2523
 3548SOL    HW122103   3.001   0.303   8.731  0.7220  0.3081 -0.4413
 3548SOL    HW222104   2.949   0.433   8.735  2.2183 -2.4242  1.9576
 3549SOL     OW22105   2.638   1.331   0.551  0.4693 -0.1699  0.7874
 3549SOL    HW122106   2.614   1.264   0.615 -1.4250  1.0459  1.3169
 3549SOL    HW222107   2.730   1.353   0.567  0.0075  1.2732  1.4502
 3550SOL     OW22108   2.180   4.376   9.604 -0.2529  0.6707  0.3533
 3550SOL    HW122109   2.097   4.361   9.558 -0.1357 -1.8032  0.9741
 3550SOL    HW222110   2.173   4.313   9.676 -0.5251  0.6003  0.2656
 3551SOL     OW22111   3.292   3.868   4.187  0.5021 -0.3047 -0.2779
 3551SOL    HW122112   3.256   3.795   4.238  0.9465 -1.1741 -1.2080
 3551SOL    HW222113   3.326   3.833   4.105 -2.4036 -1.2000 -1.0784
 3552SOL     OW22114   1.618   3.272   1.052 -0.0470  0.1754  0.2953
 3552SOL    HW122115   1.552   3.206   1.075 -0.5680  1.2945  1.9585
 3552SOL    HW222116   1.621   3.253   0.958  0.0440  0.5116  0.2308
 3553SOL     OW22117   2.258   4.695   2.249  0.1932 -0.0904  0.2085
 3553SOL    HW122118   2.259   0.046   2.304 -1.4341 -1.3167  1.9307
 3553SOL    HW222119   2.224   0.002   2.166 -0.6061 -0.0934  0.5421
 3554SOL     OW22120   1.832   1.792  16.269  0.1310  0.2488 -0.0223
 3554SOL    HW122121   1.812   1.700  16.290 -0.1646  0.2376 -0.3579
 3554SOL    HW222122   1.905   1.787  16.207 -1.3496  1.1467 -1.8261
 3555SOL     OW22123   1.657   1.675   3.034  0.2162 -0.0295 -0.2981
 3555SOL    HW122124   1.700   1.726   2.966 -2.4187  2.0357 -0.4441
 3555SOL    HW222125   1.712   1.599   3.018  1.0471  0.1384  1.7160
 3556SOL     OW22126   2.274   2.075   3.680  0.4590 -0.5378 -0.1309
 3556SOL    HW122127   2.206   2.138   3.657  0.8910 -0.3675 -0.9383
 3556SOL    HW222128   2.277   2.069   3.775 -1.4760  1.4469  0.0374
 3557SOL     OW22129   4.590   2.659  14.059  0.3879 -0.4040 -0.6742
 3557SOL    HW122130   4.606   2.580  14.007 -2.2374 -1.2019 -0.2876
 3557SOL    HW222131   4.673   2.660  14.107 -0.8246 -0.6737  1.4621
 3558SOL     OW22132   3.073   3.178  11.075 -0.1160 -0.8535 -0.3595
 3558SOL    HW122133   3.120   3.229  11.141 -1.4457 -0.9884  0.6888
 3558SOL    HW222134   3.056   3.253  11.019 -1.4523 -1.5818 -0.9218
 3559SOL     OW22135   2.096   4.633   6.708  0.3695  0.1311  0.4849
 3559SOL    HW122136   2.114   4.539   6.703  0.5834  0.0716  2.6065
 3559SOL    HW222137   2.174   4.687   6.697 -0.5309  1.4489  0.5226
 3560SOL     OW22138   0.999   4.331  12.971  0.7458 -0.1227 -0.0238
 3560SOL    HW122139   1.072   4.305  12.914  2.2273  1.2851  1.2576
 3560SOL    HW222140   0.928   4.284  12.926  0.2276  1.5147 -0.9142
 3561SOL     OW22141   2.872   4.629  13.469 -0.6059 -0.1662 -0.0618
 3561SOL    HW122142   2.852   4.641  13.376  2.3458 -0.5801 -0.7434
 3561SOL    HW222143   2.822   4.550  13.491 -0.2494 -0.2658  0.3992
 3562SOL     OW22144   2.809   3.569   2.813 -0.1225  0.3941  0.0405
 3562SOL    HW122145   2.788   3.537   2.725 -1.0461  0.2911  0.2975
 3562SOL    HW222146   2.750   3.644   2.826 -2.2305 -1.4882  1.2212
 3563SOL     OW22147   2.671   2.692   1.534 -0.1212  0.2042 -0.3044
 3563SOL    HW122148   2.710   2.607   1.514  0.5223  0.2444  0.7695
 3563SOL    HW222149   2.668   2.692   1.630  2.9661  1.0110 -0.2239
 3564SOL     OW22150   3.175   4.390   6.548 -0.0652 -0.0068  0.2175
 3564SOL    HW122151   3.235   4.432   6.487 -1.9514 -0.4809 -1.9600
 3564SOL    HW222152   3.231   4.338   6.605  1.0250 -1.6105 -2.3510
 3565SOL     OW22153   2.001   0.318   6.200  0.1209 -0.5795 -0.0900
 3565SOL    HW122154   1.962   0.367   6.128  1.3211  0.1000 -0.2717
 3565SOL    HW222155   1.968   0.230   6.185  0.4785 -0.5635 -0.9555
 3566SOL     OW22156   0.199   0.926   7.638 -1.1543  0.0038  0.0459
 3566SOL    HW122157   0.252   0.976   7.700 -1.5202  0.4418  0.0032
 3566SOL    HW222158   0.176   0.992   7.573 -1.0236  1.2846  1.3028
 3567SOL     OW22159   2.296   2.762  15.726 -0.0674  0.2756  0.1765
 3567SOL    HW122160   2.352   2.706  15.673  0.9893  2.1536 -0.6847
 3567SOL    HW222161   2.334   2.748  15.813 -2.3970  0.9742  1.3054
 3568SOL     OW22162   1.806   1.854   3.796  0.2275 -0.5668 -0.2686
 3568SOL    HW122163   1.771   1.889   3.879 -0.3266 -0.9488 -0.3450
 3568SOL    HW222164   1.856   1.929   3.764 -0.0156 -0.8063 -1.2053
 3569SOL     OW22165   3.499   0.488   5.111 -0.7339  0.4514 -0.4145
 3569SOL    HW122166   3.549   0.409   5.090 -1.2289 -0.0773  0.3921
 3569SOL    HW222167   3.410   0.468   5.081  0.2118 -1.9955 -1.6513
 3570SOL     OW22168   3.605   4.716   6.741 -0.0573 -0.2233 -0.1391
 3570SOL    HW122169   3.538   4.699   6.675  0.1484 -0.5417 -0.2678
 3570SOL    HW222170   3.546   0.025   6.807  0.4680  0.9639 -0.3148
 3571SOL     OW22171   2.604   3.778   7.122 -0.6313  0.2013 -0.6839
 3571SOL    HW122172   2.570   3.729   7.197  0.4362  1.6598  0.7750
 3571SOL    HW222173   2.650   3.846   7.171 -0.0239  1.0274 -2.4059
 3572SOL     OW22174   1.682   0.493   2.887 -0.1617 -0.1222  0.0065
 3572SOL    HW122175   1.746   0.551   2.847 -0.3035 -0.9109 -1.3441
 3572SOL    HW222176   1.626   0.477   2.812  1.1246 -1.1443 -0.7391
 3573SOL     OW22177   2.927   1.721   2.629  0.1686 -0.5536 -0.4157
 3573SOL    HW122178   2.968   1.731   2.715  0.9008 -0.6160 -0.7578
 3573SOL    HW222179   2.967   1.639   2.599  2.8627  0.5059  0.2392
 3574SOL     OW22180   2.262   3.037   3.231 -0.0389 -0.0808  0.3660
 3574SOL    HW122181   2.216   3.061   3.151 -0.4735 -1.3813  0.2317
 3574SOL    HW222182   2.200   3.036   3.303 -0.7420 -0.1269 -0.2450
 3575SOL     OW22183   3.836   1.615   1.019 -0.5518  0.7052  0.2944
 3575SOL    HW122184   3.806   1.706   1.024  0.7878  0.8861  4.1852
 3575SOL    HW222185   3.910   1.631   0.961  0.0359  2.0991  1.4515
 3576SOL     OW22186   3.954   0.811   5.995  0.1200  0.0666 -0.3921
 3576SOL    HW122187   3.862   0.785   5.989  0.1090 -0.2977  1.4929
 3576SOL    HW222188   3.957   0.864   6.074 -0.7090 -0.3519 -0.0807
 3577SOL     OW22189   2.337   0.162   5.567 -0.5128 -0.3585  0.3752
 3577SOL    HW122190   2.279   0.169   5.492  1.1915 -0.3043 -0.9390
 3577SOL    HW222191   2.399   0.233   5.551  1.3691 -1.7675  1.4008
 3578SOL     OW22192   4.548   4.574   1.664 -0.3666  0.6526  0.4302
 3578SOL    HW122193   4.468   4.627   1.667 -0.8545 -0.0328 -0.3906
 3578SOL    HW222194   4.589   4.608   1.743 -1.3208  0.2245  1.0995
 3579SOL     OW22195   0.640   1.946   6.317  0.1251 -0.1314  0.4961
 3579SOL    HW122196   0.707   1.879   6.307  1.4691  0.8838  2.7866
 3579SOL    HW222197   0.695   2.020   6.342  0.9513  0.2159 -2.3357
 3580SOL     OW22198   3.441   3.590   4.975 -0.5513  0.3011 -0.3553
 3580SOL    HW122199   3.370   3.567   4.916 -1.3955  2.2282 -0.0961
 3580SOL    HW222200   3.413   3.675   5.009  1.6665  1.2552 -0.9303
 3581SOL     OW22201   3.851   1.932   7.776  0.0996  0.3408  0.3927
 3581SOL    HW122202   3.865   2.027   7.780 -1.1809  0.3931  3.7666
 3581SOL    HW222203   3.930   1.899   7.734 -0.9335  0.2929 -1.4982
 3582SOL     OW22204   4.269   3.468   6.487  0.1863  0.7960 -0.3651
 3582SOL    HW122205   4.316   3.546   6.516  0.4628  0.4969 -0.0199
 3582SOL    HW222206   4.250   3.422   6.569 -0.9011  0.9202 -0.5459
 3583SOL     OW22207   1.078   2.369   4.206 -0.0971 -0.3754 -0.2963
 3583SOL    HW122208   1.073   2.320   4.288 -0.1310 -1.3480 -0.8669
 3583SOL    HW222209   1.012   2.434   4.227 -1.7242 -2.4186  0.9164
 3584SOL     OW22210   0.804   0.660   2.669 -0.0207  0.0162  0.2411
 3584SOL    HW122211   0.796   0.681   2.575 -1.1062  0.6832  0.4807
 3584SOL    HW222212   0.792   0.565   2.660  0.0091  0.0597 -0.2844
 3585SOL     OW22213   2.420   1.821   8.666 -0.1611  0.0941 -0.3847
 3585SOL    HW122214   2.392   1.764   8.594 -0.9289 -1.4400  1.1175
 3585SOL    HW222215   2.339   1.843   8.711 -0.3958 -3.1425  0.7596
 3586SOL     OW22216   2.179   3.547   2.535  0.2886 -0.0477 -0.1888
 3586SOL    HW122217   2.204   3.488   2.606  1.3098  0.9311  0.2608
 3586SOL    HW222218   2.258   3.600   2.526  1.3264 -1.2417  2.0192
 3587SOL     OW22219   1.999   4.295  11.159  0.3842  0.2975  0.3408
 3587SOL    HW122220   1.907   4.269  11.152  0.0597  1.1734  1.3593
 3587SOL    HW222221   2.013   4.340  11.076 -0.4356 -1.3325 -0.6739
 3588SOL     OW22222   2.499   1.230   2.503 -0.0351 -0.7652  0.4549
 3588SOL    HW122223   2.482   1.302   2.564  0.4967 -1.3928  1.3409
 3588SOL    HW222224   2.541   1.281   2.434 -3.1862  1.1022 -0.0837
 3589SOL     OW22225   2.667   3.592  13.583 -0.0841  0.5856  0.1646
 3589SOL    HW122226   2.678   3.687  13.578 -1.2683  0.7053 -0.1602
 3589SOL    HW222227   2.585   3.578  13.630 -0.9428  1.7153 -0.9752
 3590SOL     OW22228   3.880   4.517   3.922  0.4699 -0.0333 -0.7143
 3590SOL    HW122229   3.947   4.457   3.953  0.1705 -0.0339 -0.0756
 3590SOL    HW222230   3.810   4.509   3.987  0.6464 -1.2256 -0.6715
 3591SOL     OW22231   3.631   1.997  14.498  0.3800  0.8799 -0.6599
 3591SOL    HW122232   3.717   2.022  14.464  0.5935 -0.8624 -1.3869
 3591SOL    HW222233   3.663   1.929  14.557  0.3646 -1.5666 -3.4686
 3592SOL     OW22234   1.622   0.878   7.246 -0.3639 -0.1319  0.6965
 3592SOL    HW122235   1.700   0.881   7.301 -0.8820  0.2274  1.4054
 3592SOL    HW222236   1.579   0.963   7.257 -0.7728 -0.1832 -0.4945
 3593SOL     OW22237   1.156   3.024   7.334 -0.0336  0.1097  0.3742
 3593SOL    HW122238   1.146   3.084   7.408  1.7156  0.8490  0.0267
 3593SOL    HW222239   1.231   3.061   7.287  0.0545 -0.5473  0.0020
 3594SOL     OW22240   2.792   2.620  11.494 -0.3749 -0.2937 -0.8667
 3594SOL    HW122241   2.760   2.648  11.580  0.4279 -0.0756 -0.6329
 3594SOL    HW222242   2.874   2.666  11.478  0.6500 -1.8695 -0.1466
 3595SOL     OW22243   4.532   0.667  11.967  0.2105  0.4945  0.0890
 3595SOL    HW122244   4.561   0.616  11.891  1.6839  0.5668  0.5900
 3595SOL    HW222245   4.438   0.657  11.957 -0.1999  1.5052  2.9182
 3596SOL     OW22246   3.353   2.801   4.051 -0.8759 -0.0083 -0.3727
 3596SOL    HW122247   3.401   2.751   4.117 -0.7788  3.3842  2.1397
 3596SOL    HW222248   3.389   2.780   3.965  0.3058 -1.2583  0.4217
 3597SOL     OW22249   2.818   4.610   0.312  0.1082  0.0860 -0.1654
 3597SOL    HW122250   2.757   4.680   0.289 -1.1708 -0.9908 -0.0222
 3597SOL    HW222251   2.763   4.543   0.272 -0.8266  1.7792 -1.7150
 3598SOL     OW22252   3.295   4.470   8.118 -0.3380  0.1830  0.2507
 3598SOL    HW122253   3.283   4.550   8.170  2.2844 -2.0200  4.3335
 3598SOL    HW222254   3.387   4.453   8.141 -0.7122 -0.1853  1.4957
 3599SOL     OW22255   4.359   1.566   1.913 -0.2500  0.3080 -0.0755
 3599SOL    HW122256   4.366   1.573   1.818 -1.1252 -0.8893 -0.2394
 3599SOL    HW222257   4.273   1.607   1.925 -0.3438 -0.1581  0.8489
 3600SOL     OW22258   1.290   4.246  16.620  0.0074  0.2362 -0.2491
 3600SOL    HW122259   1.265   4.258  16.712 -1.0730 -2.2825 -0.2212
 3600SOL    HW222260   1.205   4.254  16.577  0.3756  0.5747 -0.9175
 3601SOL     OW22261   0.539   0.932   6.519  0.1881  0.3988  0.6090
 3601SOL    HW122262   0.490   0.892   6.591  0.3878 -1.4749 -0.2793
 3601SOL    HW222263   0.560   0.853   6.470 -0.2588  0.2714  0.6228
 3602SOL     OW22264   4.174   1.348   8.314 -0.1489 -0.0004  0.2080
 3602SOL    HW122265   4.118   1.273   8.291 -0.4029  0.3120 -0.2054
 3602SOL    HW222266   4.252   1.327   8.262 -0.4314  0.1891 -0.2956
 3603SOL     OW22267   0.442   3.429  11.528 -0.1068 -0.0373  0.2475
 3603SOL    HW122268   0.434   3.480  11.609 -0.9942 -0.5096  0.4550
 3603SOL    HW222269   0.401   3.348  11.558  1.3928 -1.5867 -1.8530
 3604SOL     OW22270   2.664   1.125   4.517 -0.3848 -0.1118  0.0851
 3604SOL    HW122271   2.653   1.139   4.423 -1.0778  2.4704  0.5724
 3604SOL    HW222272   2.737   1.063   4.512  0.4942  0.7799  1.9622
 3605SOL     OW22273   3.212   0.451   2.550 -0.4032 -0.8058 -0.1462
 3605SOL    HW122274   3.245   0.397   2.622  1.3750  0.1126 -0.2658
 3605SOL    HW222275   3.301   0.478   2.528 -0.9293  1.3058  0.3243
 3606SOL     OW22276   1.872   0.657  10.954 -0.7799  0.4676  0.1287
 3606SOL    HW122277   1.784   0.622  10.939 -0.8479  1.0593 -0.8420
 3606SOL    HW222278   1.886   0.698  10.869  0.0819 -1.6292 -0.7319
 3607SOL     OW22279   2.833   0.606   8.297  0.3126 -0.2014 -0.1692
 3607SOL    HW122280   2.916   0.648   8.275 -0.4123  0.7282 -1.1517
 3607SOL    HW222281   2.820   0.630   8.389 -1.9156 -2.3661  0.0713
 3608SOL     OW22282   1.705   1.043  15.466 -0.1530 -0.3981  0.1962
 3608SOL    HW122283   1.746   1.093  15.537  0.4413 -0.6526  0.0315
 3608SOL    HW222284   1.649   1.114  15.435  0.1519 -0.1821  0.1374
 3609SOL     OW22285   0.176   1.600   7.067 -0.0033 -0.0329  0.4596
 3609SOL    HW122286   0.135   1.673   7.112 -0.9874 -0.6584  0.5624
 3609SOL    HW222287   0.246   1.652   7.028 -1.1319  1.7191  0.8077
 3610SOL     OW22288   2.191   2.377  17.630 -0.6299 -0.4353  0.1891
 3610SOL    HW122289   2.107   2.396  17.673 -0.5994 -0.0695  0.0869
 3610SOL    HW222290   2.212   2.457  17.583 -0.1533 -0.0923  0.9990
 3611SOL     OW22291   2.244   1.940   2.788  0.3845  0.0756 -0.2225
 3611SOL    HW122292   2.202   1.963   2.870 -0.0873 -0.3717 -0.3405
 3611SOL    HW222293   2.279   2.024   2.759  2.5362 -1.2616 -1.5765
 3612SOL     OW22294   1.752   1.818   7.090  0.4876 -0.0251 -0.0655
 3612SOL    HW122295   1.735   1.876   7.164  1.4177  0.8745 -0.5675
 3612SOL    HW222296   1.766   1.744   7.148 -0.9141 -0.2278  0.0165
 3613SOL     OW22297   2.194   1.017   7.651  0.6684  0.2113 -0.5604
 3613SOL    HW122298   2.273   1.060   7.685 -0.9634  1.1903  1.9484
 3613SOL    HW222299   2.171   1.074   7.577  1.4716  1.3287  0.0345
 3614SOL     OW22300   0.778   3.607   5.495  0.4609  0.7198 -0.5856
 3614SOL    HW122301   0.702   3.574   5.446  0.5676 -0.0677 -0.2090
 3614SOL    HW222302   0.842   3.540   5.472 -0.5001 -0.4373  0.1075
 3615SOL     OW22303   1.026   1.558   4.860  0.0212 -0.6007  0.2682
 3615SOL    HW122304   1.008   1.642   4.819  1.0548 -1.5087 -2.0919
 3615SOL    HW222305   0.981   1.509   4.790  1.4352  0.2560 -1.2269
 3616SOL     OW22306   1.684   1.192  12.500  0.0163 -0.4138 -0.3611
 3616SOL    HW122307   1.727   1.126  12.553  0.7298  0.0573 -0.3630
 3616SOL    HW222308   1.767   1.215  12.458  0.6914  0.6541  1.5458
 3617SOL     OW22309   0.250   0.634   3.609 -0.6500 -0.4002 -0.5816
 3617SOL    HW122310   0.308   0.570   3.651  0.1314  0.8284  0.2120
 3617SOL    HW222311   0.170   0.586   3.631 -0.6052 -0.2356 -0.0511
 3618SOL     OW22312   3.183   2.535   9.104  0.4021 -0.2077  0.9673
 3618SOL    HW122313   3.219   2.579   9.181  1.7640  0.0668  0.1772
 3618SOL    HW222314   3.123   2.476   9.149 -0.2126 -0.3809 -0.0859
 3619SOL     OW22315   0.465   2.394  16.121 -0.2227 -0.1194 -0.2576
 3619SOL    HW122316   0.557   2.366  16.122 -0.2623 -0.2394 -0.0720
 3619SOL    HW222317   0.465   2.477  16.073  0.3030  0.0788  0.0808
 3620SOL     OW22318   4.172   1.383  11.995 -0.1083 -0.1597 -0.7060
 3620SOL    HW122319   4.097   1.349  12.044  0.3311  0.6030  0.4958
 3620SOL    HW222320   4.160   1.478  12.002 -1.8117 -0.6919  3.0614
 3621SOL     OW22321   2.853   2.406   8.422 -0.4536  0.1249  0.1584
 3621SOL    HW122322   2.915   2.335   8.439  0.0362  0.2180 -1.2217
 3621SOL    HW222323   2.812   2.403   8.508 -0.5083 -0.3490  0.1151
 3622SOL     OW22324   0.039   3.160   3.660 -0.6756  0.3440 -0.0642
 3622SOL    HW122325   0.022   3.249   3.632  2.3194  0.8871 -0.2058
 3622SOL    HW222326   0.031   3.178   3.754 -1.9381  2.6091 -0.6143
 3623SOL     OW22327   4.401   1.155   9.987 -0.8188  0.2777  0.4626
 3623SOL    HW122328   4.450   1.197   9.917 -0.9540 -0.6806 -0.1946
 3623SOL    HW222329   4.312   1.174   9.957  0.1332 -1.3420 -3.3179
 3624SOL     OW22330   3.853   1.836   7.046  0.1552  0.4968 -0.6293
 3624SOL    HW122331   3.893   1.750   7.056 -0.9585 -0.0177 -0.5259
 3624SOL    HW222332   3.772   1.804   7.006 -0.0818  1.9983 -1.3494
 3625SOL     OW22333   2.582   0.472   2.823 -0.2323  0.8515 -0.0319
 3625SOL    HW122334   2.585   0.566   2.841 -1.0018  0.5504  1.6566
 3625SOL    HW222335   2.513   0.471   2.756  1.2908  1.0885 -1.6297
 3626SOL     OW22336   4.189   3.164   6.210  0.1127  0.1411  0.1698
 3626SOL    HW122337   4.099   3.193   6.194 -0.2165 -0.7763  0.3237
 3626SOL    HW222338   4.233   3.247   6.194  0.2648  0.2262  1.0418
 3627SOL     OW22339   4.281   2.306   8.008  0.0974  0.5275 -0.1567
 3627SOL    HW122340   4.199   2.296   8.056  0.7744 -1.4703  0.6018
 3627SOL    HW222341   4.260   2.235   7.946  2.4406  2.1483 -2.8480
 3628SOL     OW22342   3.674   2.883  10.729  0.0423 -0.3239 -0.2986
 3628SOL    HW122343   3.705   2.837  10.807  1.3033 -0.7767 -1.0702
 3628SOL    HW222344   3.652   2.815  10.665  0.8789  0.8506 -1.8213
 3629SOL     OW22345   0.625   0.900  13.878 -0.8172 -0.2470 -0.2292
 3629SOL    HW122346   0.707   0.886  13.924  0.5255  0.5742 -2.3858
 3629SOL    HW222347   0.634   0.988  13.841  0.3754 -0.8600 -1.3887
 3630SOL     OW22348   2.602   0.548   7.398  0.0575  0.3829  0.3662
 3630SOL    HW122349   2.656   0.507   7.466 -0.5258  1.4082  1.4565
 3630SOL    HW222350   2.614   0.642   7.409  0.3312  0.4329 -0.3797
 3631SOL     OW22351   0.037   1.603   8.358  0.2060  0.3171 -1.0502
 3631SOL    HW122352   0.108   1.668   8.365  1.5894 -1.3654  0.6731
 3631SOL    HW222353   4.694   1.641   8.411 -1.3314  1.1199 -3.6776
 3632SOL     OW22354   2.084   3.282   4.371  0.0607  0.0723 -0.0252
 3632SOL    HW122355   2.126   3.265   4.455  0.4094  2.2173  0.2570
 3632SOL    HW222356   2.074   3.377   4.380  0.0519  0.2302 -1.6829
 3633SOL     OW22357   2.428   1.391   2.699  0.2941 -0.1224 -0.7675
 3633SOL    HW122358   2.452   1.483   2.701  1.7709 -0.5526  0.5797
 3633SOL    HW222359   2.336   1.380   2.673  0.2822 -0.6952 -0.4931
 3634SOL     OW22360   0.669   1.759  17.119  0.1127 -0.6624  0.4658
 3634SOL    HW122361   0.643   1.840  17.162  0.8087 -0.8910  1.3100
 3634SOL    HW222362   0.722   1.719  17.188 -1.9748 -1.7216  1.4616
 3635SOL     OW22363   3.114   4.457   7.926 -0.3176 -0.1600 -0.4473
 3635SOL    HW122364   3.058   4.532   7.945  1.6232  0.2172  3.5489
 3635SOL    HW222365   3.186   4.459   7.988 -1.7415 -4.1838  1.4082
 3636SOL     OW22366   1.044   2.911   3.092 -0.0649 -0.1124 -0.7020
 3636SOL    HW122367   0.953   2.919   3.066 -0.5604  0.7989  1.2437
 3636SOL    HW222368   1.049   2.817   3.110  0.0226  0.0904  0.3471
 3637SOL     OW22369   4.410   1.393   0.338  0.2039 -0.0367  0.3956
 3637SOL    HW122370   4.467   1.328   0.296 -0.3645  0.3716 -1.0221
 3637SOL    HW222371   4.358   1.325   0.381  0.7134 -0.7327 -0.0799
 3638SOL     OW22372   3.552   1.774   7.032  0.2607  0.5965 -0.3551
 3638SOL    HW122373   3.565   1.734   7.118  0.1984 -0.5067 -0.8573
 3638SOL    HW222374   3.538   1.865   7.057 -0.4340 -0.1934  2.1625
 3639SOL     OW22375   4.010   1.080   7.837 -0.6243 -0.2374  0.2512
 3639SOL    HW122376   3.966   1.059   7.920 -3.9416 -0.2400 -1.5071
 3639SOL    HW222377   4.095   1.106   7.871 -0.4391 -0.7356  0.1675
 3640SOL     OW22378   3.295   2.553   4.660  0.0789  0.1463  0.3414
 3640SOL    HW122379   3.274   2.467   4.624 -2.5355  0.1309  1.9011
 3640SOL    HW222380   3.310   2.538   4.754 -1.7752  4.5470  1.3538
 3641SOL     OW22381   1.425   4.704   6.726 -0.2107 -0.6217  0.0038
 3641SOL    HW122382   1.460   4.722   6.639 -0.0536  4.2989  1.1166
 3641SOL    HW222383   1.495   4.644   6.752  2.1251  1.0369 -2.4435
 3642SOL     OW22384   2.316   1.463   2.064  0.2163  0.6151 -0.0476
 3642SOL    HW122385   2.290   1.439   1.975  0.2105 -0.2272  0.1820
 3642SOL    HW222386   2.254   1.524   2.102 -0.2654 -0.7836  1.4108
 3643SOL     OW22387   4.536   4.397   2.229  0.1740  0.2933 -0.0757
 3643SOL    HW122388   4.621   4.440   2.241  0.3140 -0.0847  0.2689
 3643SOL    HW222389   4.555   4.340   2.155  2.3030  0.9411 -0.0139
 3644SOL     OW22390   2.596   4.657   2.892  0.0664  0.0159  0.4667
 3644SOL    HW122391   2.619   4.597   2.962 -1.7715 -0.4779  0.6400
 3644SOL    HW222392   2.683   4.691   2.871  1.0651 -1.9128  1.5188
 3645SOL     OW22393   0.837   3.123  10.134 -0.0912  0.3829 -0.3064
 3645SOL    HW122394   0.827   3.192  10.069 -0.7509  0.6662  0.0948
 3645SOL    HW222395   0.749   3.087  10.139  0.8437 -1.9563 -0.4396
 3646SOL     OW22396   2.355   0.650   8.317 -0.4917 -0.3305  0.2382
 3646SOL    HW122397   2.393   0.621   8.400  0.5987 -1.2913 -0.5775
 3646SOL    HW222398   2.299   0.574   8.300 -0.8285  0.0986 -0.5616
 3647SOL     OW22399   4.097   0.706   0.391  0.5662  0.8241 -0.3113
 3647SOL    HW122400   4.089   0.763   0.468 -0.5713  0.1107  0.0955
 3647SOL    HW222401   4.188   0.679   0.378  0.4493  0.0725  0.4099
 3648SOL     OW22402   0.505   3.266   9.277  0.6441  0.0139 -0.2854
 3648SOL    HW122403   0.511   3.345   9.331  0.4273 -0.4303  0.3962
 3648SOL    HW222404   0.420   3.286   9.236  0.3499 -0.5712  0.0466
 3649SOL     OW22405   1.951   4.394   9.492 -0.3556  0.0633 -0.0376
 3649SOL    HW122406   1.860   4.365   9.482  0.0185 -1.2732  0.4878
 3649SOL    HW222407   1.970   4.418   9.401  0.3157  0.5980  0.2497
 3650SOL     OW22408   1.176   0.416   5.258  0.0864  0.4453  0.1741
 3650SOL    HW122409   1.265   0.444   5.281 -0.4530  0.4485  2.2069
 3650SOL    HW222410   1.149   0.490   5.204 -0.1918  0.6372  0.5828
 3651SOL     OW22411   1.087   4.432   5.963  0.2257  0.3597  0.6385
 3651SOL    HW122412   1.169   4.466   5.927 -0.1236 -1.4813 -1.9181
 3651SOL    HW222413   1.049   4.516   5.991 -1.4825 -0.1140 -0.3244
 3652SOL     OW22414   1.269   2.474   7.364 -0.4388 -0.2008  0.4522
 3652SOL    HW122415   1.200   2.441   7.422 -1.0911 -0.5144 -0.5221
 3652SOL    HW222416   1.245   2.566   7.350  0.9273  0.5066  2.6939
 3653SOL     OW22417   1.978   0.851  15.779 -0.4354 -0.3425  0.0385
 3653SOL    HW122418   1.903   0.809  15.737 -0.7577  0.0137  0.2571
 3653SOL    HW222419   1.978   0.929  15.725  0.8068 -0.6364 -0.3884
 3654SOL     OW22420   1.233   1.727  15.325  0.0434 -0.2779  0.7161
 3654SOL    HW122421   1.206   1.648  15.279  2.7231 -0.7969  0.0218
 3654SOL    HW222422   1.167   1.751  15.390 -0.0324  0.0795  0.5086
 3655SOL     OW22423   0.382   3.044   9.052  0.2330  0.1735 -0.1366
 3655SOL    HW122424   0.374   2.993   9.133 -0.0415  1.6538  0.7608
 3655SOL    HW222425   0.312   3.108   9.066 -0.5415 -0.2279 -2.0806
 3656SOL     OW22426   3.850   2.134  13.752  0.3193 -0.3616  0.6930
 3656SOL    HW122427   3.878   2.072  13.685  0.3927  0.9285 -0.4477
 3656SOL    HW222428   3.919   2.200  13.749  2.4301 -2.5800  0.4526
 3657SOL     OW22429   0.249   3.214   8.818 -0.0887  0.3067 -0.5448
 3657SOL    HW122430   0.301   3.294   8.826  3.2039 -2.0007  1.0838
 3657SOL    HW222431   0.158   3.237   8.837 -0.1433  1.1070 -1.7483
 3658SOL     OW22432   1.679   1.167   0.393 -0.1729 -0.4547 -0.5924
 3658SOL    HW122433   1.591   1.158   0.430 -0.3060  1.4971 -0.4236
 3658SOL    HW222434   1.721   1.081   0.389 -0.0321 -0.4806  1.9350
 3659SOL     OW22435   3.512   3.332   9.550  0.2208  0.2100  0.3304
 3659SOL    HW122436   3.569   3.265   9.587 -0.9620 -0.0791  1.6642
 3659SOL    HW222437   3.578   3.400   9.533  0.8710 -0.5090  0.0068
 3660SOL     OW22438   1.360   3.555  16.107  0.0562  0.2572 -0.1868
 3660SOL    HW122439   1.436   3.585  16.156 -1.1040 -2.0337  2.9817
 3660SOL    HW222440   1.392   3.551  16.017  0.6807 -1.2821  0.1108
 3661SOL     OW22441   3.858   1.286  11.744 -0.4881 -0.2345 -0.2473
 3661SOL    HW122442   3.914   1.219  11.783  1.0389  1.6594  0.8409
 3661SOL    HW222443   3.932   1.340  11.718 -0.2128  0.1214  1.2301
 3662SOL     OW22444   1.278   1.716   9.242 -0.1670  0.4033  0.0768
 3662SOL    HW122445   1.329   1.797   9.237  0.9739 -0.5141 -3.4276
 3662SOL    HW222446   1.213   1.731   9.173 -0.9414 -0.4117  0.6289
 3663SOL     OW22447   3.347   3.915   0.040 -0.4366 -0.2144  0.3966
 3663SOL    HW122448   3.349   3.890  17.656 -1.7710  0.2129  0.2554
 3663SOL    HW222449   3.262   3.958   0.037 -0.0776  0.5615  1.2288
 3664SOL     OW22450   1.185   1.665   7.553  0.2990 -0.4099 -0.3687
 3664SOL    HW122451   1.274   1.683   7.524 -0.2023 -0.0725 -1.7245
 3664SOL    HW222452   1.161   1.600   7.486  0.4001  0.7480 -1.5116
 3665SOL     OW22453   0.672   4.180   7.459  0.3864  0.1074  0.7653
 3665SOL    HW122454   0.611   4.241   7.416 -0.9731 -0.9573  1.2022
 3665SOL    HW222455   0.660   4.099   7.409 -2.4527  0.8221  0.3111
 3666SOL     OW22456   0.381   3.910   5.772  0.5849  0.5951  0.5356
 3666SOL    HW122457   0.290   3.885   5.758  0.3527  1.0761  1.2007
 3666SOL    HW222458   0.382   3.883   5.864  1.1813 -0.5208  0.2063
 3667SOL     OW22459   0.428   3.494   2.259  0.4969 -0.4488  0.0431
 3667SOL    HW122460   0.416   3.425   2.194  0.6099 -1.2528  0.8922
 3667SOL    HW222461   0.363   3.559   2.233  0.8193 -0.1782 -0.0845
 3668SOL     OW22462   3.196   0.853   6.124 -0.4974 -0.5934 -0.5882
 3668SOL    HW122463   3.122   0.799   6.150 -1.2606 -0.1694 -1.8578
 3668SOL    HW222464   3.265   0.824   6.183 -0.2450  0.8746 -0.1461
 3669SOL     OW22465   0.919   3.722   6.338  0.4331 -0.4604 -0.3387
 3669SOL    HW122466   0.954   3.638   6.309  1.1412  0.0879 -1.0575
 3669SOL    HW222467   0.953   3.784   6.274 -0.6392  0.3275 -0.1484
 3670SOL     OW22468   3.580   2.165   6.090  0.1860  0.2548 -0.0219
 3670SOL    HW122469   3.660   2.214   6.067 -1.4494  2.1044 -1.7676
 3670SOL    HW222470   3.548   2.154   6.000 -0.8292 -0.4929  0.4300
 3671SOL     OW22471   1.138   4.255  13.774  0.0672  0.6540  0.0810
 3671SOL    HW122472   1.125   4.334  13.721 -2.2293  0.0422 -0.2818
 3671SOL    HW222473   1.226   4.240  13.739  0.1419  1.7802 -0.2210
 3672SOL     OW22474   4.178   3.892   2.346  0.7365  0.5648  0.1277
 3672SOL    HW122475   4.113   3.865   2.281  1.7440 -0.5151 -0.4212
 3672SOL    HW222476   4.260   3.872   2.302 -1.4006 -1.1497 -3.1142
 3673SOL     OW22477   3.844   1.003   4.951  0.1327 -0.2454 -0.1593
 3673SOL    HW122478   3.793   1.074   4.912  1.6677  0.8925 -0.0873
 3673SOL    HW222479   3.843   1.021   5.045  0.7322  0.3183 -0.2612
 3674SOL     OW22480   2.563   2.495  14.524 -0.4873  0.3242  0.4156
 3674SOL    HW122481   2.534   2.585  14.514 -1.7353 -0.3608 -1.9104
 3674SOL    HW222482   2.559   2.488  14.620 -1.7681 -2.2369  0.1754
 3675SOL     OW22483   0.947   3.700   3.396  0.0988  0.6665  0.2812
 3675SOL    HW122484   0.853   3.718   3.388 -0.0886 -1.0359 -1.2100
 3675SOL    HW222485   0.985   3.717   3.309 -0.5343  1.3277  0.1314
 3676SOL     OW22486   1.030   1.484  17.483 -0.1883 -0.3660 -0.0326
 3676SOL    HW122487   0.997   1.418  17.544 -0.5891 -0.5834 -0.4884
 3676SOL    HW222488   0.996   1.452  17.400 -0.3567 -0.6012  0.1250
 3677SOL     OW22489   0.295   1.685   1.868 -0.2045  0.8441  0.3067
 3677SOL    HW122490   0.280   1.743   1.793  2.0310 -1.6950 -2.1113
 3677SOL    HW222491   0.216   1.630   1.874  0.9232 -0.6725  1.2162
 3678SOL     OW22492   0.075   1.807   7.195  0.1501 -0.0722 -0.1142
 3678SOL    HW122493   0.104   1.898   7.189 -2.2259  0.8402  1.9005
 3678SOL    HW222494   4.712   1.814   7.164 -0.4235  3.5102  2.2992
 3679SOL     OW22495   4.450   0.559   6.702  0.3302 -0.3501  0.3587
 3679SOL    HW122496   4.479   0.592   6.617  2.4834 -1.5563  0.6110
 3679SOL    HW222497   4.405   0.634   6.738  0.6812  1.3054 -2.6093
 3680SOL     OW22498   4.041   1.898   5.504 -0.2709  0.2695  0.0014
 3680SOL    HW122499   4.001   1.985   5.498 -2.0876 -0.5670  0.0821
 3680SOL    HW222500   4.003   1.868   5.587 -0.9025 -1.3909 -0.8874
 3681SOL     OW22501   2.223   0.593   4.850 -0.2358  0.1479  0.2756
 3681SOL    HW122502   2.271   0.629   4.924 -0.5615  0.9907  0.0808
 3681SOL    HW222503   2.233   0.498   4.858  2.5277  0.2062 -2.5299
 3682SOL     OW22504   1.154   0.197   8.672  0.3895  0.5239  0.5713
 3682SOL    HW122505   1.219   0.135   8.704  0.8645  0.3364 -0.7582
 3682SOL    HW222506   1.134   0.174   8.582  1.3660  0.8178  0.2706
 3683SOL     OW22507   1.896   0.796  11.177 -0.3694 -0.3711  0.3025
 3683SOL    HW122508   1.913   0.754  11.093 -0.2631  0.1716  0.0520
 3683SOL    HW222509   1.805   0.770  11.192 -0.8155  1.6599  1.1633
 3684SOL     OW22510   3.065   2.243   7.916 -0.4144  0.0931 -0.0544
 3684SOL    HW122511   2.985   2.201   7.946 -0.4709  1.1465  1.2402
 3684SOL    HW222512   3.043   2.332   7.943 -2.4570 -0.6937  0.8057
 3685SOL     OW22513   0.565   0.006   6.955 -0.6564 -0.2837 -0.1310
 3685SOL    HW122514   0.583   0.092   6.992  0.8362 -0.2084 -1.0055
 3685SOL    HW222515   0.472   0.016   6.939 -0.9386  1.2067  2.4919
 3686SOL     OW22516   3.521   2.343  12.819 -0.4465  0.2715 -0.0379
 3686SOL    HW122517   3.480   2.377  12.740 -0.3202  0.9046  0.1758
 3686SOL    HW222518   3.524   2.250  12.793 -0.6214  0.5516 -1.0492
 3687SOL     OW22519   4.087   3.594   9.215  0.1787 -0.5234 -0.0337
 3687SOL    HW122520   4.047   3.539   9.149  0.0738 -0.0839 -0.3369
 3687SOL    HW222521   4.021   3.640   9.267  1.3449 -0.4433  1.3689
 3688SOL     OW22522   0.472   2.340   8.812 -0.6495  0.2840  0.6392
 3688SOL    HW122523   0.518   2.308   8.890  0.7035  0.3735 -0.1260
 3688SOL    HW222524   0.379   2.338   8.835 -0.6750  2.2289  0.7181
 3689SOL     OW22525   1.601   2.284   4.038  0.7591 -0.0173  0.5601
 3689SOL    HW122526   1.663   2.351   4.009 -0.4946  0.5146 -0.8721
 3689SOL    HW222527   1.526   2.311   3.985  1.0223 -1.2551 -0.4638
 3690SOL     OW22528   3.145   0.960   8.863  0.0565 -0.2979 -0.3942
 3690SOL    HW122529   3.146   1.030   8.798 -0.6998 -0.7537 -0.9006
 3690SOL    HW222530   3.102   1.010   8.933 -0.1257 -2.5374  1.1062
 3691SOL     OW22531   3.478   2.554   2.557 -0.4298 -0.5183  0.3263
 3691SOL    HW122532   3.559   2.598   2.530 -0.9702  0.4166  0.2686
 3691SOL    HW222533   3.497   2.526   2.647 -1.3584 -0.8610  0.4154
 3692SOL     OW22534   1.943   2.806   5.357  0.0245 -0.2031  0.6529
 3692SOL    HW122535   1.922   2.869   5.288 -3.2324  0.8603  2.6066
 3692SOL    HW222536   2.031   2.779   5.332 -0.1305 -0.6198  0.5565
 3693SOL     OW22537   1.818   0.378   8.989 -0.0480 -0.5221  0.0435
 3693SOL    HW122538   1.780   0.457   9.029  0.1473  0.7957 -2.3559
 3693SOL    HW222539   1.818   0.322   9.066 -1.5475  1.3927  1.4496
 3694SOL     OW22540   2.643   2.912   7.472 -0.1732 -0.0679 -0.1611
 3694SOL    HW122541   2.625   2.882   7.383 -0.4589  2.2289 -0.8860
 3694SOL    HW222542   2.736   2.897   7.487 -0.2445 -0.2111  0.1365
 3695SOL     OW22543   3.242   2.868   4.805 -0.2455 -0.0087 -0.0500
 3695SOL    HW122544   3.319   2.815   4.784  0.5796  1.7486 -1.4726
 3695SOL    HW222545   3.268   2.953   4.770  0.9069  0.0319  0.9207
 3696SOL     OW22546   0.786   2.587   3.905 -0.0038 -0.0170  0.2391
 3696SOL    HW122547   0.708   2.552   3.862  0.4146  0.4898 -0.9186
 3696SOL    HW222548   0.830   2.508   3.939  0.1932  0.7810  1.8274
 3697SOL     OW22549   0.105   1.586   9.411  0.7150 -0.0336 -0.6372
 3697SOL    HW122550   0.043   1.602   9.482  1.2682  0.6360 -0.3111
 3697SOL    HW222551   0.061   1.525   9.350  0.0059  0.0153 -0.1758
 3698SOL     OW22552   0.634   1.148   2.421 -0.6525 -0.6576  0.4039
 3698SOL    HW122553   0.563   1.104   2.468 -2.0232  1.7535  0.5942
 3698SOL    HW222554   0.703   1.092   2.456  0.0053  0.3408  0.7232
 3699SOL     OW22555   0.084   2.528   6.813  0.1566 -0.2531  0.0304
 3699SOL    HW122556   0.145   2.594   6.847 -1.5620  0.5126  1.6163
 3699SOL    HW222557   0.147   2.458   6.798  0.4247 -0.2160  0.9830
 3700SOL     OW22558   1.059   4.047   5.114 -0.3864  0.1671  0.1812
 3700SOL    HW122559   1.082   3.959   5.083  0.3489  0.6783 -0.7346
 3700SOL    HW222560   1.006   4.023   5.189 -2.1404 -0.7471 -1.3480
 3701SOL     OW22561   2.053   3.271  10.103  0.6711 -0.4914  0.4730
 3701SOL    HW122562   2.027   3.262  10.011  0.9448  0.8449  0.2553
 3701SOL    HW222563   2.139   3.229  10.109  1.2337  0.7004  0.8548
 3702SOL     OW22564   2.604   0.318   7.737 -0.1119 -0.7258 -0.1150
 3702SOL    HW122565   2.641   0.399   7.702  2.5258 -1.3173  1.3380
 3702SOL    HW222566   2.518   0.311   7.694 -0.1198 -0.7525 -0.0948
 3703SOL     OW22567   4.006   4.129   8.338  0.0288 -0.1570  0.3896
 3703SOL    HW122568   4.033   4.049   8.292  1.8956 -0.3066  1.7664
 3703SOL    HW222569   4.033   4.110   8.428 -0.7548  0.3668  0.7335
 3704SOL     OW22570   2.799   3.711   7.652 -0.8610 -0.0717  0.1145
 3704SOL    HW122571   2.726   3.651   7.671  0.3703 -2.0325 -1.3004
 3704SOL    HW222572   2.868   3.667   7.702  0.0498 -1.9967 -2.7928
 3705SOL     OW22573   2.912   2.311   6.928  1.2149 -0.3325  0.2668
 3705SOL    HW122574   2.946   2.243   6.870  0.8118  0.4767 -0.9252
 3705SOL    HW222575   2.818   2.294   6.935  1.1343 -0.2380 -0.5930
 3706SOL     OW22576   2.792   1.795   9.395 -0.1520  0.0319  0.0171
 3706SOL    HW122577   2.849   1.871   9.408  0.8403 -0.6378 -0.4213
 3706SOL    HW222578   2.860   1.737   9.360 -0.1692 -0.9734  1.6505
 3707SOL     OW22579   3.021   3.114   0.290 -0.0654 -0.4163  0.3339
 3707SOL    HW122580   2.956   3.136   0.223  0.9508  1.0874 -0.1467
 3707SOL    HW222581   3.101   3.083   0.248  1.5610  0.5633  2.7065
 3708SOL     OW22582   2.487   2.978   1.744 -0.2020  0.1342 -0.2139
 3708SOL    HW122583   2.478   2.957   1.652 -3.0734 -1.7947  0.5096
 3708SOL    HW222584   2.451   3.067   1.751  1.0660  0.7996 -2.1092
 3709SOL     OW22585   0.081   4.117   5.265 -0.8146 -0.0081  0.2179
 3709SOL    HW122586   0.086   4.160   5.180 -0.1023 -0.3446  0.0873
 3709SOL    HW222587   0.037   4.037   5.235  0.3858 -1.6064  2.7007
 3710SOL     OW22588   2.301   3.212  10.197 -0.5478 -0.0921  0.4247
 3710SOL    HW122589   2.337   3.152  10.262  0.0819  1.1897  1.2602
 3710SOL    HW222590   2.349   3.183  10.119 -0.8958  0.2827  0.0731
 3711SOL     OW22591   4.700   4.578   6.650 -0.4581  0.4702  1.0598
 3711SOL    HW122592   0.011   4.536   6.573 -1.4770  0.7897  0.3819
 3711SOL    HW222593   4.644   4.650   6.621 -0.6305 -0.6761 -1.4398
 3712SOL     OW22594   0.728   4.506   9.796  0.2109 -0.2988 -0.4853
 3712SOL    HW122595   0.764   4.509   9.884 -0.0004  2.8795 -0.4944
 3712SOL    HW222596   0.722   4.411   9.788  0.9307 -0.1570 -2.7653
 3713SOL     OW22597   4.368   3.450   8.520 -0.0384  0.5868 -0.1325
 3713SOL    HW122598   4.333   3.361   8.525 -0.5334  0.8618  1.4054
 3713SOL    HW222599   4.460   3.437   8.499  0.7579  0.6226  3.3282
 3714SOL     OW22600   1.564   4.372   5.571 -0.4914  0.3571  0.2203
 3714SOL    HW122601   1.557   4.291   5.621 -0.4034 -0.2241 -0.7079
 3714SOL    HW222602   1.577   4.332   5.485  1.6823 -0.2057  0.8078
 3715SOL     OW22603   1.937   1.090   8.262  0.4841  0.2940  0.3991
 3715SOL    HW122604   1.953   1.111   8.170 -0.2081  2.4131  0.7502
 3715SOL    HW222605   2.010   1.030   8.276  0.9033  0.8866  0.7854
 3716SOL     OW22606   1.005   4.225  14.512  0.2090  0.6339  0.3198
 3716SOL    HW122607   1.069   4.184  14.570 -0.4733 -0.5671  0.2252
 3716SOL    HW222608   0.958   4.259  14.589  0.3171  1.3356  0.0738
 3717SOL     OW22609   0.629   0.190   3.100  0.8607  0.2320 -0.6016
 3717SOL    HW122610   0.577   0.228   3.029 -0.3323  1.6958  1.0555
 3717SOL    HW222611   0.564   0.177   3.169 -0.3451  2.1118 -1.3718
 3718SOL     OW22612   3.294   3.428   3.656 -0.4787  0.2494 -0.1211
 3718SOL    HW122613   3.214   3.463   3.616 -0.0180 -1.5896 -2.6995
 3718SOL    HW222614   3.345   3.405   3.578 -1.1663  0.9015 -0.7598
 3719SOL     OW22615   0.149   4.518   5.205 -0.5072 -0.5215 -0.0081
 3719SOL    HW122616   0.200   4.450   5.162  0.7820  1.6870 -1.9022
 3719SOL    HW222617   0.138   4.584   5.137 -1.6089 -1.3369 -0.6129
 3720SOL     OW22618   3.902   1.947   1.561 -0.0913 -0.0392  0.1841
 3720SOL    HW122619   3.935   1.910   1.479  0.1754 -3.0420  1.6377
 3720SOL    HW222620   3.883   2.035   1.528 -0.1577 -0.4454 -0.8631
 3721SOL     OW22621   0.383   0.477   8.813 -0.1073  0.0452 -0.6070
 3721SOL    HW122622   0.328   0.456   8.737 -2.6969 -0.9024  1.5066
 3721SOL    HW222623   0.421   0.394   8.839  0.5062  0.0275 -1.5676
 3722SOL     OW22624   0.993   3.855   3.855 -0.2573 -0.4609  0.5414
 3722SOL    HW122625   1.027   3.766   3.851  0.3259 -0.2019 -0.1868
 3722SOL    HW222626   1.007   3.890   3.767 -1.1293  0.1814  0.6519
 3723SOL     OW22627   2.182   2.447   5.800 -0.1687 -0.3343 -0.0456
 3723SOL    HW122628   2.261   2.467   5.751 -0.3666  0.6061  0.0127
 3723SOL    HW222629   2.165   2.536   5.833  0.2327  0.0632 -0.9279
 3724SOL     OW22630   3.979   1.188   4.416 -0.1363 -0.3856  0.3950
 3724SOL    HW122631   3.965   1.122   4.349 -0.6622 -1.2974  1.3979
 3724SOL    HW222632   3.944   1.137   4.490 -0.2862 -1.0183 -0.1154
 3725SOL     OW22633   3.777   3.011   6.991  0.0867  0.3698 -0.5325
 3725SOL    HW122634   3.686   3.038   6.999  0.0272 -0.3963  1.3638
 3725SOL    HW222635   3.781   2.928   7.039 -1.8069  0.1344 -0.7986
 3726SOL     OW22636   0.878   3.530  11.872  0.3482 -0.0278  0.2046
 3726SOL    HW122637   0.850   3.439  11.857  1.5300 -0.9064  3.2176
 3726SOL    HW222638   0.793   3.570  11.855  0.5012  0.9240  1.6553
 3727SOL     OW22639   0.799   3.094   6.275  0.0480  0.1732  0.0433
 3727SOL    HW122640   0.833   3.052   6.196 -0.6963 -1.9651  0.8573
 3727SOL    HW222641   0.786   3.184   6.245 -1.2987 -0.2850 -0.7466
 3728SOL     OW22642   3.984   3.863   7.588 -0.3439 -0.6170 -0.4286
 3728SOL    HW122643   4.042   3.939   7.584  1.0679 -1.7005 -0.5272
 3728SOL    HW222644   3.994   3.847   7.682 -2.0880 -1.0687 -0.3205
 3729SOL     OW22645   0.562   0.993   0.941 -0.0752 -0.1710 -0.7546
 3729SOL    HW122646   0.631   1.051   0.972 -2.3098  1.3488  1.3881
 3729SOL    HW222647   0.484   1.037   0.975  1.0889  0.8143  0.6678
 3730SOL     OW22648   0.206   3.560   7.552  0.2135 -0.2533  0.0704
 3730SOL    HW122649   0.155   3.479   7.567 -1.1887  0.8586  1.3666
 3730SOL    HW222650   0.280   3.513   7.514  1.6177 -0.0405  2.5533
 3731SOL     OW22651   3.767   3.786   7.330 -0.0585  0.2643  0.0299
 3731SOL    HW122652   3.674   3.809   7.342 -0.1764  0.7464 -1.8094
 3731SOL    HW222653   3.773   3.819   7.240  2.2775 -0.0629  0.0789
 3732SOL     OW22654   2.374   0.452   2.266  0.3446 -0.1237 -0.0513
 3732SOL    HW122655   2.337   0.481   2.183  1.3084  1.1861 -0.0161
 3732SOL    HW222656   2.454   0.503   2.261 -0.8179  1.7975  1.1391
 3733SOL     OW22657   1.930   4.293   4.698 -0.0668 -0.3763 -0.2961
 3733SOL    HW122658   1.841   4.258   4.699 -1.4417  3.1642  0.7850
 3733SOL    HW222659   1.986   4.215   4.696  1.3935  0.6713 -0.7296
 3734SOL     OW22660   0.251   1.550  15.431 -0.1917 -0.5030 -0.4820
 3734SOL    HW122661   0.279   1.493  15.503  1.0580  2.0626  1.0861
 3734SOL    HW222662   0.163   1.513  15.419 -1.8281  2.4586  2.1485
 3735SOL     OW22663   2.299   1.142   7.900  0.1656 -0.4157  0.0040
 3735SOL    HW122664   2.369   1.104   7.954 -0.3788 -1.7257 -0.2073
 3735SOL    HW222665   2.315   1.236   7.899 -0.2284 -0.3471  0.0538
 3736SOL     OW22666   1.482   3.804  15.662  0.5904 -0.3772  0.3239
 3736SOL    HW122667   1.455   3.893  15.642  1.7081 -0.4186 -1.3604
 3736SOL    HW222668   1.567   3.787  15.621  0.1988 -1.5379  0.0024
 3737SOL     OW22669   1.607   3.737  12.431  0.8438 -0.2528  0.4349
 3737SOL    HW122670   1.519   3.722  12.397  0.1646  0.5409  1.8333
 3737SOL    HW222671   1.620   3.654  12.477  0.0269  0.1507  1.4203
 3738SOL     OW22672   4.273   0.175   3.519 -0.4175  0.0344  0.1854
 3738SOL    HW122673   4.270   0.246   3.583  1.8366 -0.1489  0.4915
 3738SOL    HW222674   4.185   0.182   3.482 -0.2480 -4.9925 -1.2122
 3739SOL     OW22675   3.923   3.794   2.665  0.1459 -0.4280 -0.1922
 3739SOL    HW122676   3.946   3.728   2.730 -1.3721 -2.3869 -1.6912
 3739SOL    HW222677   3.971   3.867   2.706 -1.7426 -0.6804  2.4371
 3740SOL     OW22678   2.203   3.604  12.901  0.3368 -0.8119  0.2110
 3740SOL    HW122679   2.192   3.605  12.806  2.6889 -1.3128 -0.0819
 3740SOL    HW222680   2.162   3.522  12.925 -2.9115  0.5069 -0.8270
 3741SOL     OW22681   4.369   0.659   2.471 -0.1788 -0.1340  0.4733
 3741SOL    HW122682   4.405   0.609   2.544  1.8657 -0.1462 -0.5180
 3741SOL    HW222683   4.417   0.740   2.453 -1.0747 -0.2602 -2.4171
 3742SOL     OW22684   0.359   1.135   5.315 -0.1406  0.0319 -0.3552
 3742SOL    HW122685   0.389   1.062   5.260 -0.2438 -1.1370  1.1463
 3742SOL    HW222686   0.434   1.131   5.374 -1.2630 -1.2694  0.9743
 3743SOL     OW22687   2.936   3.789   8.303 -0.0547  0.0525  0.5185
 3743SOL    HW122688   2.885   3.727   8.356  2.0720  0.2688  2.7919
 3743SOL    HW222689   2.941   3.866   8.359 -0.5692 -0.3053  1.0525
 3744SOL     OW22690   1.494   0.724   3.181  0.5549 -0.7305 -0.0064
 3744SOL    HW122691   1.425   0.662   3.204  1.8707 -2.6098 -1.1836
 3744SOL    HW222692   1.573   0.698   3.229  1.6456  1.5244 -0.5714
 3745SOL     OW22693   3.721   3.259   3.824 -0.0991  0.5058  0.0257
 3745SOL    HW122694   3.807   3.217   3.821 -0.4830 -0.4049  1.5777
 3745SOL    HW222695   3.704   3.298   3.738 -0.1581 -0.3432 -0.3510
 3746SOL     OW22696   0.613   3.680  16.339 -0.0541  0.0810  0.2481
 3746SOL    HW122697   0.584   3.632  16.262  1.3977  0.1899 -0.3630
 3746SOL    HW222698   0.683   3.618  16.358 -0.0643  0.4427  1.4601
 3747SOL     OW22699   3.049   4.143   6.483  0.3476 -0.8739 -0.1003
 3747SOL    HW122700   2.981   4.188   6.433  0.5939 -1.4227 -0.9167
 3747SOL    HW222701   3.113   4.211   6.503 -3.7260  2.8866  0.1719
 3748SOL     OW22702   0.075   4.406  14.047  0.4973  0.7953 -0.2120
 3748SOL    HW122703   0.151   4.428  14.101  0.5499 -0.7843  0.3629
 3748SOL    HW222704   0.124   4.383  13.968  1.2039 -1.5112  0.8913
 3749SOL     OW22705   2.628   2.596  14.816 -0.5256  0.5811 -0.7005
 3749SOL    HW122706   2.671   2.670  14.772 -2.0571  0.7424 -1.9179
 3749SOL    HW222707   2.613   2.628  14.905 -2.9677 -1.1537 -0.4804
 3750SOL     OW22708   4.291   0.649  13.548  0.3872  0.3097 -0.3340
 3750SOL    HW122709   4.343   0.720  13.585  0.1027 -0.3467  1.3393
 3750SOL    HW222710   4.276   0.610  13.634 -1.6253 -1.3068 -1.4151
 3751SOL     OW22711   4.442   1.714   2.268 -0.2170  0.0158 -0.0067
 3751SOL    HW122712   4.361   1.732   2.221  0.3311 -1.3734 -1.4930
 3751SOL    HW222713   4.416   1.759   2.349  0.5458 -1.2558  0.9541
 3752SOL     OW22714   3.578   1.867  12.304 -0.3460  0.0176 -0.2940
 3752SOL    HW122715   3.536   1.799  12.252  0.9695 -1.5125  0.6485
 3752SOL    HW222716   3.553   1.848  12.394  1.8428 -1.6584 -0.0428
 3753SOL     OW22717   0.427   4.428   5.761 -0.4321 -0.3517  0.1040
 3753SOL    HW122718   0.372   4.484   5.707 -1.2712  1.4765  2.8720
 3753SOL    HW222719   0.380   4.345   5.758  0.2802 -0.8607  2.7734
 3754SOL     OW22720   2.389   4.242   9.514  0.2102 -0.4511 -0.0265
 3754SOL    HW122721   2.311   4.281   9.554 -0.4904 -1.2411 -0.6217
 3754SOL    HW222722   2.439   4.251   9.595  0.5127  1.9666 -0.4668
 3755SOL     OW22723   2.425   3.299  10.541 -0.2511 -0.0894 -0.2473
 3755SOL    HW122724   2.401   3.348  10.620  0.9150  0.0820 -0.0021
 3755SOL    HW222725   2.349   3.325  10.489 -0.1484 -0.3733 -0.5380
 3756SOL     OW22726   4.627   0.664  14.842 -0.2181  0.4587  0.2320
 3756SOL    HW122727   4.616   0.651  14.748  2.6600  4.1840 -0.6159
 3756SOL    HW222728   4.585   0.585  14.876 -1.7656  0.0941 -2.5093
 3757SOL     OW22729   3.021   2.180   2.255 -0.0669 -0.0113  0.1010
 3757SOL    HW122730   2.996   2.131   2.176 -2.0463  0.3157  0.5112
 3757SOL    HW222731   3.000   2.112   2.318 -1.1791  0.6745  0.4866
 3758SOL     OW22732   4.310   0.685   9.267  0.3388  0.1732 -0.4911
 3758SOL    HW122733   4.354   0.736   9.198  0.8589 -0.6861 -0.8021
 3758SOL    HW222734   4.384   0.630   9.295  1.0740  1.6381  0.4602
 3759SOL     OW22735   1.283   3.909  14.296  0.0512 -0.0767  0.1483
 3759SOL    HW122736   1.311   3.824  14.263 -0.5947  0.0550 -0.7371
 3759SOL    HW222737   1.188   3.898  14.291 -0.2433  1.1561  2.7359
 3760SOL     OW22738   3.902   4.192  13.859  0.6832  0.3253 -0.1516
 3760SOL    HW122739   3.905   4.099  13.878  0.6321 -0.3196 -3.3485
 3760SOL    HW222740   3.908   4.237  13.943  1.0205 -0.4374  0.2250
 3761SOL     OW22741   2.007   3.781   6.950  0.1973 -0.2087  0.1923
 3761SOL    HW122742   2.079   3.836   6.918  0.6100 -0.3596  0.8598
 3761SOL    HW222743   1.988   3.804   7.041 -0.9400  2.8961 -0.8056
 3762SOL     OW22744   1.929   3.175  10.644 -0.3221 -0.4056  0.0978
 3762SOL    HW122745   1.837   3.168  10.669 -0.7249 -0.5147 -1.4154
 3762SOL    HW222746   1.970   3.163  10.730 -2.1534  0.3093  1.0834
 3763SOL     OW22747   3.932   0.291  13.767 -0.2929  0.0133 -0.1063
 3763SOL    HW122748   3.953   0.251  13.851 -0.4124 -0.4544 -0.2971
 3763SOL    HW222749   3.920   0.383  13.791  0.3630  0.5186 -1.6882
 3764SOL     OW22750   3.426   0.443   7.666 -0.3105 -0.0827  0.1913
 3764SOL    HW122751   3.419   0.509   7.736 -1.5621  0.9985 -0.9422
 3764SOL    HW222752   3.369   0.477   7.597 -0.1144 -0.0022  0.0713
 3765SOL     OW22753   0.318   1.376   4.634  0.4184 -0.0371 -0.0248
 3765SOL    HW122754   0.369   1.413   4.705 -0.3995  2.0315 -0.5135
 3765SOL    HW222755   0.373   1.318   4.581  1.1320  0.9571 -0.3602
 3766SOL     OW22756   0.280   2.491   6.472 -0.1808  0.1049 -0.2351
 3766SOL    HW122757   0.320   2.484   6.558  0.3957 -0.3376 -0.5420
 3766SOL    HW222758   0.331   2.424   6.427 -1.5154 -1.8722  1.2507
 3767SOL     OW22759   4.253   1.281   0.051 -0.4391  0.3900 -0.1626
 3767SOL    HW122760   4.296   1.209   0.097  0.4780  0.7505 -0.4532
 3767SOL    HW222761   4.291   1.261  17.675 -1.7082 -0.0819 -0.6097
 3768SOL     OW22762   2.230   3.755  16.157 -0.6264  0.3368 -0.1949
 3768SOL    HW122763   2.319   3.722  16.157 -0.9446 -0.5320  0.9370
 3768SOL    HW222764   2.221   3.764  16.062 -1.3348  3.3160  0.1644
 3769SOL     OW22765   3.090   1.294   8.892 -0.5338  0.1300  0.1924
 3769SOL    HW122766   3.154   1.289   8.963  1.1486  1.4049 -1.2517
 3769SOL    HW222767   3.018   1.257   8.944 -0.4813 -2.3737 -1.5594
 3770SOL     OW22768   2.399   1.037   4.615  0.0705 -0.2911  0.9307
 3770SOL    HW122769   2.401   1.132   4.623  1.5919 -0.5278  3.2008
 3770SOL    HW222770   2.489   1.019   4.586  0.4257  1.2187  1.0956
 3771SOL     OW22771   2.839   0.230   7.850 -0.0635 -0.1230  0.1473
 3771SOL    HW122772   2.839   0.299   7.917  1.0364  0.6628 -0.6564
 3771SOL    HW222773   2.757   0.247   7.804  0.5137  0.3694 -0.6901
 3772SOL     OW22774   3.785   0.908   5.549  0.1731 -0.0861  0.2520
 3772SOL    HW122775   3.761   0.936   5.637 -2.6800 -0.3634 -0.4565
 3772SOL    HW222776   3.728   0.968   5.502  0.0800  0.4597  1.0554
 3773SOL     OW22777   3.109   2.501  11.449 -0.2215 -0.6233 -0.0612
 3773SOL    HW122778   3.054   2.575  11.474  0.5495 -0.6388  1.6374
 3773SOL    HW222779   3.166   2.498  11.526  0.3511  0.1918 -0.4555
 3774SOL     OW22780   2.232   2.317  10.816  0.4086  0.6482 -0.0982
 3774SOL    HW122781   2.293   2.385  10.845  1.5625 -0.3050 -0.2922
 3774SOL    HW222782   2.279   2.239  10.844  1.8920  1.1962 -1.0607
 3775SOL     OW22783   2.631   2.757  14.494 -0.5583 -0.7278 -0.1747
 3775SOL    HW122784   2.714   2.744  14.449 -2.0004 -2.0061 -2.4446
 3775SOL    HW222785   2.646   2.845  14.530 -1.1936 -1.1778  1.1846
 3776SOL     OW22786   0.642   0.887   1.705 -0.1749  0.0970 -0.0330
 3776SOL    HW122787   0.707   0.955   1.688  0.2404 -0.1482  0.5391
 3776SOL    HW222788   0.589   0.919   1.778 -3.7745 -1.1524 -2.0862
 3777SOL     OW22789   4.309   2.118   0.597 -0.1556 -0.2690 -0.4239
 3777SOL    HW122790   4.382   2.132   0.657 -0.9304  0.7544  0.2554
 3777SOL    HW222791   4.337   2.170   0.521  2.3141 -1.3175 -0.2330
 3778SOL     OW22792   3.138   0.863  14.297 -0.4551 -0.3257  0.0129
 3778SOL    HW122793   3.056   0.910  14.306  0.2822  0.4998  2.4470
 3778SOL    HW222794   3.170   0.844  14.385  1.8969 -2.5321 -1.2979
 3779SOL     OW22795   1.231   3.853   2.536  0.6184  0.5771  0.1386
 3779SOL    HW122796   1.308   3.890   2.494  0.4754  1.2169  0.4333
 3779SOL    HW222797   1.222   3.761   2.512  1.6290  1.4531 -3.4689
 3780SOL     OW22798   0.898   1.120   6.300 -0.4283  0.4089 -0.1732
 3780SOL    HW122799   0.865   1.037   6.334 -1.1300 -0.9355 -4.0630
 3780SOL    HW222800   0.810   1.147   6.271 -0.4738  0.1102 -0.3057
 3781SOL     OW22801   2.801   4.716  16.958 -0.3364 -0.5468  0.5175
 3781SOL    HW122802   2.736   0.051  16.990  1.2226  1.2651  0.1634
 3781SOL    HW222803   2.747   4.662  16.900  0.2785  0.1778 -0.7436
 3782SOL     OW22804   2.318   1.044   7.340 -0.2627 -0.2635  0.1634
 3782SOL    HW122805   2.257   1.106   7.379 -0.3784  0.6298 -1.4320
 3782SOL    HW222806   2.402   1.085   7.362  0.3650 -1.2102 -0.4810
 3783SOL     OW22807   2.912   3.354  14.211  0.1334  0.3439  0.1260
 3783SOL    HW122808   2.892   3.280  14.153  0.9065 -0.2000  0.5526
 3783SOL    HW222809   2.908   3.427  14.149  0.0885  0.4129  0.2103
 3784SOL     OW22810   3.955   1.083   6.667 -0.3113 -0.2301  0.3450
 3784SOL    HW122811   3.983   1.028   6.740  0.3658 -0.2474  0.0719
 3784SOL    HW222812   3.926   1.017   6.605 -1.0494  0.2323  0.1858
 3785SOL     OW22813   4.199   3.332   0.579 -0.0884  0.0315  0.1573
 3785SOL    HW122814   4.294   3.341   0.568  0.1898 -2.7368  0.2952
 3785SOL    HW222815   4.192   3.314   0.673 -0.2595  0.3621  0.2081
 3786SOL     OW22816   0.737   4.616   0.822  0.9788 -0.1998  0.0014
 3786SOL    HW122817   0.661   4.673   0.835  0.9739  0.0155 -0.9156
 3786SOL    HW222818   0.791   4.674   0.768 -2.0257 -0.0738 -2.8998
 3787SOL     OW22819   4.056   3.900   5.636 -0.3145 -0.0254 -0.3061
 3787SOL    HW122820   4.116   3.931   5.568 -0.0710  0.6947  0.2370
 3787SOL    HW222821   4.069   3.805   5.641  3.1036  0.2839 -2.7344
 3788SOL     OW22822   4.077   2.704   7.187  0.3645 -0.1111  0.6635
 3788SOL    HW122823   4.011   2.635   7.188  2.0809 -1.7442  1.2535
 3788SOL    HW222824   4.134   2.663   7.121 -1.6919 -1.0355 -0.5348
 3789SOL     OW22825   3.965   3.432   9.578 -0.0195 -0.1480  0.0169
 3789SOL    HW122826   3.932   3.343   9.566  2.0285 -0.5547 -2.4000
 3789SOL    HW222827   3.883   3.482   9.579  1.0546  1.6102  0.6949
 3790SOL     OW22828   1.068   3.080   9.322  0.5218 -0.3861  0.3248
 3790SOL    HW122829   1.085   3.153   9.382 -0.8203 -0.5003  0.8506
 3790SOL    HW222830   1.111   3.107   9.241  3.0143  1.4320  2.2602
 3791SOL     OW22831   1.798   0.999  10.841  0.3429  0.3430 -0.1948
 3791SOL    HW122832   1.831   0.926  10.788 -0.1066 -1.3438  1.8459
 3791SOL    HW222833   1.879   1.045  10.862  0.4144  0.8973 -1.6877
 3792SOL     OW22834   1.066   0.445   2.842  0.3548  0.2518 -0.1120
 3792SOL    HW122835   1.099   0.535   2.846  1.0681  0.0588 -1.6419
 3792SOL    HW222836   1.109   0.409   2.764  0.6401  0.5498 -0.0943
 3793SOL     OW22837   1.230   2.768   9.686  0.0478 -0.1074 -0.1120
 3793SOL    HW122838   1.284   2.847   9.691 -1.9244  1.2516 -0.5376
 3793SOL    HW222839   1.240   2.731   9.774 -1.0181 -1.0482 -0.3848
 3794SOL     OW22840   1.067   4.344   7.618 -0.2203  0.2301  0.7337
 3794SOL    HW122841   1.138   4.372   7.676  1.5444  2.1693 -2.3165
 3794SOL    HW222842   1.063   4.413   7.551 -1.2431  0.4108  0.9808
 3795SOL     OW22843   3.118   3.439   9.025 -0.5771  0.5362  0.2357
 3795SOL    HW122844   3.204   3.457   9.062  0.9926 -1.5377 -2.4237
 3795SOL    HW222845   3.095   3.523   8.986 -1.6735  1.5124  2.9800
 3796SOL     OW22846   1.255   1.871   8.490  0.9803 -0.6443  0.0260
 3796SOL    HW122847   1.188   1.805   8.511 -1.0117  1.8744  1.5281
 3796SOL    HW222848   1.205   1.947   8.517 -0.7793 -2.3532  1.6210
 3797SOL     OW22849   2.377   0.568   2.655 -0.5220 -0.0637  0.3702
 3797SOL    HW122850   2.352   0.486   2.613 -0.9474 -0.3742  1.2486
 3797SOL    HW222851   2.373   0.628   2.581  2.5522  1.5689  1.5031
 3798SOL     OW22852   2.002   1.163  10.909  0.7887 -0.0598  0.5585
 3798SOL    HW122853   1.989   1.239  10.966 -0.1119 -0.2351  0.5958
 3798SOL    HW222854   2.076   1.190  10.856  1.2406 -0.6750  0.8824
 3799SOL     OW22855   3.231   3.919   9.107 -0.0779  0.6924  0.2628
 3799SOL    HW122856   3.215   3.912   9.201 -1.1174  0.8852  0.1070
 3799SOL    HW222857   3.215   4.011   9.083  0.9272  0.2823 -1.9745
 3800SOL     OW22858   0.024   3.734   0.981  0.0828 -0.3776 -0.7123
 3800SOL    HW122859   0.072   3.666   1.027  0.2331  0.6829  0.7091
 3800SOL    HW222860   4.671   3.745   1.033  0.5157 -0.0813 -0.1099
 3801SOL     OW22861   1.791   4.153   8.803 -0.0719  0.1662  0.1194
 3801SOL    HW122862   1.808   4.177   8.711  0.9043 -0.6914  0.0760
 3801SOL    HW222863   1.719   4.213   8.823 -0.5891 -0.9700  1.6325
 3802SOL     OW22864   3.478   2.138  14.929 -0.0913 -0.0229  0.1837
 3802SOL    HW122865   3.386   2.127  14.953 -0.1405 -0.3711 -0.1675
 3802SOL    HW222866   3.487   2.233  14.929  2.1167 -0.2286 -1.1009
 3803SOL     OW22867   3.797   2.034   6.785 -0.2998  0.0448 -0.1195
 3803SOL    HW122868   3.869   2.082   6.744  0.1438  0.0774  0.6887
 3803SOL    HW222869   3.823   1.950   6.747  1.4295  0.4477  0.1497
 3804SOL     OW22870   3.889   4.158   4.280 -0.2132  0.0621 -0.1400
 3804SOL    HW122871   3.815   4.184   4.225 -0.0014 -2.4903 -1.6389
 3804SOL    HW222872   3.882   4.221   4.351 -0.1974 -0.8837  0.7012
 3805SOL     OW22873   0.878   0.996   5.326 -0.4215 -0.0298 -0.4867
 3805SOL    HW122874   0.827   0.917   5.311  0.8418 -0.5109 -2.2256
 3805SOL    HW222875   0.962   0.950   5.325 -1.4410 -1.9683  1.9267
 3806SOL     OW22876   4.603   1.781   9.116 -0.9534  0.3699 -0.1258
 3806SOL    HW122877   4.603   1.744   9.028  0.3102 -1.0763  0.4737
 3806SOL    HW222878   4.543   1.855   9.111 -0.3416  0.9766  1.2700
 3807SOL     OW22879   4.484   3.637   7.653 -0.0440  0.2638 -0.4790
 3807SOL    HW122880   4.499   3.697   7.580 -0.2374  0.6677 -0.1839
 3807SOL    HW222881   4.564   3.639   7.705  0.4614 -0.2024 -1.2462
 3808SOL     OW22882   4.415   0.048  11.366 -0.2004 -0.2574 -0.3233
 3808SOL    HW122883   4.507   0.032  11.388 -0.1230  0.4333 -0.1283
 3808SOL    HW222884   4.422   0.134  11.324  0.4379 -1.0870 -1.8979
 3809SOL     OW22885   1.086   0.160  10.018  0.4012 -0.3097  0.1929
 3809SOL    HW122886   1.092   0.065  10.012  0.4305 -0.1074 -2.8446
 3809SOL    HW222887   1.170   0.187  10.055 -0.0274 -1.3351  1.9078
 3810SOL     OW22888   3.239   1.854   6.230 -0.5786 -0.1489  0.1750
 3810SOL    HW122889   3.322   1.834   6.186 -0.6429 -0.3538  0.1521
 3810SOL    HW222890   3.224   1.773   6.277 -2.3604 -0.1726 -0.4299
 3811SOL     OW22891   0.530   3.257  10.959  0.3307  0.0433  0.4312
 3811SOL    HW122892   0.590   3.307  11.014  1.2406 -0.0252 -0.5126
 3811SOL    HW222893   0.454   3.315  10.950  0.7098  0.4831  0.0965
 3812SOL     OW22894   4.157   1.526   0.889  0.1218 -0.0523  0.6355
 3812SOL    HW122895   4.182   1.617   0.874 -0.0120 -0.0861  0.2069
 3812SOL    HW222896   4.150   1.498   0.797  3.1446  1.5789 -0.1068
 3813SOL     OW22897   2.450   1.661   7.428  0.2854 -0.3966 -0.1865
 3813SOL    HW122898   2.452   1.733   7.365 -0.5606 -1.1150 -1.0553
 3813SOL    HW222899   2.459   1.696   7.516  0.0860  0.2576 -0.4295
 3814SOL     OW22900   0.797   0.116   9.353 -0.1160 -0.3296  0.0713
 3814SOL    HW122901   0.825   0.199   9.315  0.0437 -1.1589 -1.6613
 3814SOL    HW222902   0.883   0.073   9.353 -0.0077 -0.1149  0.5691
 3815SOL     OW22903   0.640   3.893   5.683 -0.2134 -0.4012 -0.9289
 3815SOL    HW122904   0.564   3.898   5.741 -0.5224 -1.6905 -1.2292
 3815SOL    HW222905   0.650   3.987   5.667 -0.2995 -0.0795  0.9790
 3816SOL     OW22906   0.702   1.903  14.810  0.1996  0.3459 -0.0057
 3816SOL    HW122907   0.612   1.934  14.825  0.6950  0.4545  2.7800
 3816SOL    HW222908   0.726   1.901  14.903 -1.2974 -2.5195  0.3395
 3817SOL     OW22909   2.122   3.960  11.792 -0.1443 -0.0644 -0.3910
 3817SOL    HW122910   2.116   4.039  11.845  0.9274 -1.4553  1.7819
 3817SOL    HW222911   2.189   3.905  11.832 -1.0348 -0.2529  0.8102
 3818SOL     OW22912   3.904   2.006  11.950  0.5853  0.4507  0.3735
 3818SOL    HW122913   3.849   1.942  11.904  0.3782  0.7656  0.1799
 3818SOL    HW222914   3.846   2.042  12.016 -0.5976  0.2114 -0.5319
 3819SOL     OW22915   3.004   2.666   9.676 -0.6770 -0.4543 -0.1351
 3819SOL    HW122916   2.941   2.651   9.747  0.7368 -1.3469  0.9246
 3819SOL    HW222917   3.084   2.697   9.718 -0.5039 -1.4008  0.2314
 3820SOL     OW22918   4.571   0.746   6.516  0.2530  0.3713  0.4034
 3820SOL    HW122919   4.570   0.829   6.563 -2.0635  0.1272  0.7817
 3820SOL    HW222920   4.586   0.790   6.433  1.8875  0.1190  0.5621
 3821SOL     OW22921   0.492   1.227   3.831 -0.0962  0.1068 -0.2774
 3821SOL    HW122922   0.569   1.176   3.804 -0.9263 -1.6332  0.6605
 3821SOL    HW222923   0.500   1.308   3.781  1.0369 -0.1135 -0.4522
 3822SOL     OW22924   2.545   2.031   7.147  0.0568 -0.2338 -0.3098
 3822SOL    HW122925   2.608   1.965   7.116  1.5655  1.4697 -0.8919
 3822SOL    HW222926   2.575   2.110   7.101  0.2508 -0.0642  0.1137
 3823SOL     OW22927   2.840   2.722  16.709  0.1798 -0.0161 -1.3171
 3823SOL    HW122928   2.751   2.694  16.686 -0.0750 -0.2401 -0.0770
 3823SOL    HW222929   2.832   2.675  16.792  0.7681 -0.9435 -1.7878
 3824SOL     OW22930   2.379   4.396   5.465  0.3241 -0.3114 -0.4204
 3824SOL    HW122931   2.454   4.360   5.513 -0.8640 -2.0790  0.0846
 3824SOL    HW222932   2.346   4.460   5.528 -0.4920  0.4146 -1.5963
 3825SOL     OW22933   4.601   2.628   4.327 -0.3303  0.0161 -0.0754
 3825SOL    HW122934   4.691   2.646   4.299 -0.1483 -0.8952 -0.0848
 3825SOL    HW222935   4.580   2.698   4.390  0.4811 -0.6984  0.9850
 3826SOL     OW22936   3.255   3.661   1.414 -0.6878  0.2612  0.3378
 3826SOL    HW122937   3.239   3.726   1.346 -0.9155  0.9509  1.0500
 3826SOL    HW222938   3.192   3.693   1.479  1.0647 -0.3802  2.3787
 3827SOL     OW22939   4.622   0.093   2.108  0.3904  0.3188  0.3907
 3827SOL    HW122940   4.694   0.153   2.125  0.2124  1.3227 -2.3571
 3827SOL    HW222941   4.603   0.040   2.185  2.3322 -0.8310  0.0641
 3828SOL     OW22942   0.803   1.473   0.195 -0.0772  0.0914 -0.1460
 3828SOL    HW122943   0.814   1.566   0.174  1.5897  0.1792  1.0924
 3828SOL    HW222944   0.713   1.464   0.162 -0.7417  1.1044  1.3696
 3829SOL     OW22945   2.893   3.342  10.709  0.5264 -0.6445  0.6320
 3829SOL    HW122946   2.895   3.248  10.728 -0.5353 -0.2967  2.3982
 3829SOL    HW222947   2.939   3.382  10.783  0.5099 -0.2299  0.4177
 3830SOL     OW22948   2.234   3.066   9.018 -0.0974 -0.0272  0.4835
 3830SOL    HW122949   2.155   3.120   9.020  0.1431  0.3459 -0.7224
 3830SOL    HW222950   2.276   3.082   8.934 -1.2637 -1.7512 -0.4376
 3831SOL     OW22951   1.037   2.438  12.707 -0.3767 -0.1429  0.7106
 3831SOL    HW122952   1.012   2.479  12.790 -1.3028 -0.5535  0.6336
 3831SOL    HW222953   1.086   2.361  12.734 -0.2416  0.2325  1.5277
 3832SOL     OW22954   1.241   2.212  12.762 -0.0849 -0.1895 -0.1511
 3832SOL    HW122955   1.217   2.121  12.745  1.9079 -0.1562 -3.2162
 3832SOL    HW222956   1.326   2.208  12.718  1.0362 -0.0028  2.0359
 3833SOL     OW22957   2.040   2.994   9.435 -0.2595  0.9542 -0.1271
 3833SOL    HW122958   2.117   3.034   9.476 -0.2344 -2.2671  2.9912
 3833SOL    HW222959   2.028   2.924   9.499  0.1061  2.0959  1.1928
 3834SOL     OW22960   4.618   3.591  14.943 -0.2899  0.4368 -0.2122
 3834SOL    HW122961   4.612   3.588  15.038 -2.1774  0.0298 -0.3387
 3834SOL    HW222962   4.564   3.514  14.926 -0.8663  0.2320  2.6877
 3835SOL     OW22963   2.957   2.971   8.234  0.0268  0.0365  0.3688
 3835SOL    HW122964   2.917   2.886   8.220 -2.0403  1.5017 -2.5275
 3835SOL    HW222965   3.034   2.970   8.176  1.4152 -2.0331  2.2351
 3836SOL     OW22966   1.385   3.741   3.413  0.2375 -0.2499 -0.2583
 3836SOL    HW122967   1.381   3.652   3.377  1.8381 -1.0912  1.6035
 3836SOL    HW222968   1.346   3.793   3.343  1.5493 -1.6251 -2.0083
 3837SOL     OW22969   1.166   2.931   0.029  0.5274 -0.3668 -0.2707
 3837SOL    HW122970   1.154   2.976   0.112 -1.4314 -1.7711  0.2141
 3837SOL    HW222971   1.192   3.005  17.684  1.5886 -1.7832 -1.7033
 3838SOL     OW22972   0.697   2.771   2.379  0.0123 -0.0551  0.1813
 3838SOL    HW122973   0.778   2.723   2.395 -0.4980 -0.3584  1.9032
 3838SOL    HW222974   0.727   2.860   2.399 -2.1146  0.4136  1.3272
 3839SOL     OW22975   2.516   2.082   6.659 -0.7064  0.2655 -0.3099
 3839SOL    HW122976   2.479   2.113   6.577  2.1270  2.0822 -0.8864
 3839SOL    HW222977   2.433   2.056   6.699  0.6173 -1.6317  1.2342
 3840SOL     OW22978   2.666   4.141   7.905 -0.6323  0.1528 -0.0965
 3840SOL    HW122979   2.690   4.132   7.997  0.5472  0.5442 -0.3594
 3840SOL    HW222980   2.705   4.065   7.862 -3.3949 -2.0675  1.4116
 3841SOL     OW22981   2.607   0.785   8.423  0.2275 -0.5539 -0.3495
 3841SOL    HW122982   2.621   0.725   8.350  1.1493 -1.8139  0.8598
 3841SOL    HW222983   2.521   0.761   8.457  0.6377 -2.4224 -0.6017
 3842SOL     OW22984   1.478   3.874   5.607 -0.6744  0.2230 -0.0905
 3842SOL    HW122985   1.439   3.812   5.668  0.6647 -0.8736 -0.3383
 3842SOL    HW222986   1.554   3.825   5.575 -0.5441 -0.1366  0.7701
 3843SOL     OW22987   0.604   2.521   8.324  0.2508 -0.1900  0.9045
 3843SOL    HW122988   0.667   2.450   8.337  0.3410 -0.9092 -3.4648
 3843SOL    HW222989   0.565   2.517   8.412 -0.4600  0.4588  0.6107
 3844SOL     OW22990   4.579   0.253  10.602 -0.0623  0.0396 -0.4085
 3844SOL    HW122991   4.566   0.327  10.543  4.1379  1.0529 -0.0618
 3844SOL    HW222992   4.549   0.187  10.539 -1.9864 -0.9237  1.4988
 3845SOL     OW22993   2.241   2.866   0.249 -0.1302  0.8642  0.2037
 3845SOL    HW122994   2.211   2.812   0.321 -2.0675 -0.8258 -1.8929
 3845SOL    HW222995   2.221   2.815   0.171 -1.4139 -0.0057  1.1140
 3846SOL     OW22996   4.626   3.401   8.446  0.0246  0.5477 -0.9360
 3846SOL    HW122997   4.684   3.332   8.416 -0.1791 -1.7247  3.8001
 3846SOL    HW222998   4.690   3.453   8.494  1.6167 -0.3535 -2.0773
 3847SOL     OW22999   0.124   1.241   7.865 -0.3750 -0.3416  0.0156
 3847SOL    HW123000   0.056   1.217   7.802  0.4730  0.8672 -1.3751
 3847SOL    HW223001   0.090   1.323   7.901  2.9405 -0.4501  3.3319
 3848SOL     OW23002   4.673   0.355   1.467 -0.1642  0.1825  0.2492
 3848SOL    HW123003   4.639   0.312   1.546  1.1872 -3.0184 -0.8744
 3848SOL    HW223004   0.000   0.281   1.439  0.4606  0.3392  1.0365
 3849SOL     OW23005   3.753   1.907   1.193  0.1126  0.2711 -0.4766
 3849SOL    HW123006   3.710   1.990   1.211  0.7135  1.0658 -2.7843
 3849SOL    HW223007   3.686   1.850   1.231  1.7925 -1.2806  0.1826
 3850SOL     OW23008   0.336   1.039   6.814  0.4006 -0.4147  0.4838
 3850SOL    HW123009   0.264   1.048   6.876 -2.4345 -1.9050 -2.5934
 3850SOL    HW223010   0.384   1.120   6.830 -1.0699  0.1613  1.9583
 3851SOL     OW23011   0.738   1.588   4.457  0.7128  0.3526 -0.3503
 3851SOL    HW123012   0.673   1.659   4.454 -1.4387 -1.4868  2.0859
 3851SOL    HW223013   0.702   1.526   4.394  0.2144 -0.7602  1.0400
 3852SOL     OW23014   4.278   2.105  17.565  0.2436 -0.4509  0.4686
 3852SOL    HW123015   4.325   2.185  17.590  1.1118 -0.4359 -1.2274
 3852SOL    HW223016   4.340   2.077  17.498 -0.6639  0.2787 -0.6736
 3853SOL     OW23017   3.245   4.262   5.377 -0.0334 -0.0763  0.0229
 3853SOL    HW123018   3.321   4.319   5.363 -1.5076  1.5476 -1.4354
 3853SOL    HW223019   3.276   4.194   5.437  1.0947  1.1101  0.7668
 3854SOL     OW23020   1.738   2.290   2.604 -0.0579  0.2006  0.1479
 3854SOL    HW123021   1.773   2.379   2.602 -0.8669  0.5740  3.4573
 3854SOL    HW223022   1.646   2.313   2.591 -0.5321 -0.3366  2.4772
 3855SOL     OW23023   2.489   3.517   8.706  0.8728  0.4059 -0.3617
 3855SOL    HW123024   2.482   3.571   8.785 -0.9338  0.2401 -0.3967
 3855SOL    HW223025   2.525   3.433   8.733 -1.3332 -0.7835 -1.1111
 3856SOL     OW23026   1.363   4.403   6.571 -0.1571 -0.3371 -1.1922
 3856SOL    HW123027   1.398   4.328   6.523 -1.7926 -1.9229  0.1232
 3856SOL    HW223028   1.432   4.425   6.634  0.7271  0.6501 -2.4957
 3857SOL     OW23029   4.298   0.292   6.908  0.3961  0.5423 -0.3132
 3857SOL    HW123030   4.294   0.283   7.003 -2.3771  2.8214 -0.2473
 3857SOL    HW223031   4.371   0.352   6.896  0.1290  0.9013 -0.1494
 3858SOL     OW23032   1.014   1.281   7.243  0.9369  0.6378  0.0672
 3858SOL    HW123033   0.950   1.269   7.314  0.1760  0.2217 -0.6857
 3858SOL    HW223034   1.067   1.341   7.295  0.3801  1.2212 -0.0341
 3859SOL     OW23035   1.288   3.350  16.269  0.2620  0.1240 -0.0142
 3859SOL    HW123036   1.307   3.390  16.354  1.9132 -1.1351  0.2095
 3859SOL    HW223037   1.359   3.387  16.215 -1.1106  3.5339  0.4926
 3860SOL     OW23038   1.099   3.359   2.811 -0.0132  0.2242  0.2695
 3860SOL    HW123039   1.021   3.314   2.842  1.5240 -3.5604 -1.4495
 3860SOL    HW223040   1.089   3.350   2.717  1.8391 -0.2231  0.1049
 3861SOL     OW23041   0.378   4.191   4.017  0.0010 -0.0129  0.6964
 3861SOL    HW123042   0.315   4.205   3.946  1.3128 -4.6496 -1.3411
 3861SOL    HW223043   0.330   4.238   4.085 -0.4017 -0.3068  0.6119
 3862SOL     OW23044   1.096   1.327  14.283  0.4259  0.4308 -0.4301
 3862SOL    HW123045   1.146   1.398  14.242 -1.9080  0.4335 -3.2904
 3862SOL    HW223046   1.061   1.373  14.359 -0.0100 -0.8905  0.1749
 3863SOL     OW23047   4.297   3.124   6.803 -0.0068 -0.1997 -0.3677
 3863SOL    HW123048   4.288   3.218   6.815  0.3375 -0.2260  0.1176
 3863SOL    HW223049   4.232   3.092   6.865  0.3881  1.1957  0.7620
 3864SOL     OW23050   4.407   3.432  14.908  0.8979  0.3140 -0.7776
 3864SOL    HW123051   4.371   3.449  14.821 -0.7054  0.0368 -0.1531
 3864SOL    HW223052   4.335   3.410  14.967  0.6626  3.5915  0.1713
 3865SOL     OW23053   4.706   3.666   7.828  0.6807  0.3157  0.3802
 3865SOL    HW123054   0.054   3.606   7.824 -0.9886 -1.8238  1.1640
 3865SOL    HW223055   0.001   3.716   7.906 -2.2289  0.4387  1.1041
 3866SOL     OW23056   2.693   2.292   2.438  0.0254  0.0729 -0.7260
 3866SOL    HW123057   2.688   2.270   2.345  0.5981  0.6287 -0.8864
 3866SOL    HW223058   2.657   2.380   2.430 -1.0781 -0.4720 -1.8127
 3867SOL     OW23059   4.158   2.567   4.428  0.3287 -0.0164  0.1968
 3867SOL    HW123060   4.146   2.552   4.334  0.1644  1.6806 -0.0555
 3867SOL    HW223061   4.198   2.654   4.432  0.4843 -0.0303 -1.0191
 3868SOL     OW23062   3.611   4.405   8.351  0.4805 -0.0209 -0.3602
 3868SOL    HW123063   3.660   4.463   8.410 -2.7382  2.4683 -0.0852
 3868SOL    HW223064   3.592   4.466   8.279 -0.7637  1.1165  0.9414
 3869SOL     OW23065   4.496   0.021   3.571  0.1310  0.2832  0.3135
 3869SOL    HW123066   4.465   4.704   3.650  1.7964 -2.3442 -0.5148
 3869SOL    HW223067   4.411   0.060   3.546 -1.0548 -3.8587 -2.0815
 3870SOL     OW23068   3.097   0.060   8.633 -0.9396 -0.2652 -0.0595
 3870SOL    HW123069   3.048   0.105   8.563 -0.6094  1.2068  0.6494
 3870SOL    HW223070   3.033   4.726   8.668 -1.7788  0.4841 -0.2806
 3871SOL     OW23071   0.185   2.568   3.594  0.4007  0.0812  0.1489
 3871SOL    HW123072   0.129   2.522   3.655  1.2395  0.0313  0.8774
 3871SOL    HW223073   0.200   2.517   3.514  1.8544  0.4482  0.1784
 3872SOL     OW23074   4.622   0.537   5.631 -0.4886 -0.5310  0.3386
 3872SOL    HW123075   4.534   0.537   5.669 -0.1187 -1.7072  1.1968
 3872SOL    HW223076   4.657   0.617   5.669 -0.7474 -1.0145  1.6070
 3873SOL     OW23077   1.828   3.003   7.770  0.2187  0.0580 -0.4166
 3873SOL    HW123078   1.851   2.911   7.754 -2.1208 -0.6036 -0.0212
 3873SOL    HW223079   1.747   3.002   7.822  0.5890 -0.0414  0.1642
 3874SOL     OW23080   2.967   2.362   4.292  0.6396  0.3196  0.8871
 3874SOL    HW123081   3.038   2.340   4.352  0.6756 -2.3674 -0.1091
 3874SOL    HW223082   3.011   2.424   4.234 -1.0033 -1.5541 -2.3885
 3875SOL     OW23083   0.823   2.035   5.267 -0.1334  0.1443 -0.4396
 3875SOL    HW123084   0.844   2.121   5.231  0.5177 -0.0539 -0.5293
 3875SOL    HW223085   0.735   2.053   5.300 -0.9305  0.4000 -2.6615
 3876SOL     OW23086   2.927   3.032   5.207 -0.5031 -0.1713  0.1412
 3876SOL    HW123087   2.989   3.100   5.233 -1.7136 -0.1056  2.9052
 3876SOL    HW223088   2.986   2.969   5.167 -0.4721  1.0287 -1.7345
 3877SOL     OW23089   2.921   0.018   7.129  0.0824 -0.5910  0.8854
 3877SOL    HW123090   2.879   0.027   7.214 -1.3934  0.1471  0.0800
 3877SOL    HW223091   2.848   0.041   7.072 -0.0367  0.6169  1.5201
 3878SOL     OW23092   2.165   3.031  13.735 -0.0181  0.4043  0.2348
 3878SOL    HW123093   2.109   3.009  13.810  1.2444 -0.1686  1.0198
 3878SOL    HW223094   2.132   3.117  13.713 -0.7304  0.1886  0.4652
 3879SOL     OW23095   4.554   0.083  14.810  0.3932  0.7603 -0.1046
 3879SOL    HW123096   4.627   0.139  14.785  0.5852 -0.9908 -3.4797
 3879SOL    HW223097   4.598   0.003  14.838 -1.6646 -0.5214 -0.5040
 3880SOL     OW23098   2.720   1.006  13.515 -0.1735 -0.2945  0.5374
 3880SOL    HW123099   2.719   1.081  13.457 -0.5308 -2.3231 -2.0739
 3880SOL    HW223100   2.787   0.951  13.473 -0.7037  0.0679 -0.7805
 3881SOL     OW23101   1.481   2.551   7.833 -0.1110 -0.4325  0.0487
 3881SOL    HW123102   1.391   2.525   7.813 -0.5010  0.4647  0.6333
 3881SOL    HW223103   1.465   2.609   7.907 -0.1696 -1.2036  0.6387
 3882SOL     OW23104   2.412   0.665   8.582 -0.7353 -0.0760  0.2906
 3882SOL    HW123105   2.439   0.737   8.639 -0.9231  0.7144 -0.6087
 3882SOL    HW223106   2.326   0.659   8.623  0.0159 -0.3680  1.8517
 3883SOL     OW23107   1.355   1.077  12.231  0.2501 -0.4317 -0.1084
 3883SOL    HW123108   1.287   1.123  12.279 -0.5233  0.9177 -2.4919
 3883SOL    HW223109   1.319   1.080  12.142  1.7588 -1.3135 -0.7443
 3884SOL     OW23110   2.999   0.886   1.062  0.0761 -0.5739  0.2781
 3884SOL    HW123111   3.094   0.891   1.060  0.1155 -0.7178  1.7795
 3884SOL    HW223112   2.985   0.955   1.126 -2.0271 -0.8487  0.1370
 3885SOL     OW23113   4.102   4.122   7.498 -0.2794 -0.3542 -0.2231
 3885SOL    HW123114   4.132   4.191   7.558  3.4694 -0.6762 -1.6938
 3885SOL    HW223115   4.177   4.113   7.440  0.1671  0.2112  0.2584
 3886SOL     OW23116   1.273   2.372   6.331 -0.1263 -0.1270  0.2132
 3886SOL    HW123117   1.356   2.377   6.380 -0.6219  0.1825  1.0301
 3886SOL    HW223118   1.305   2.373   6.241  2.3573  0.1455  1.0716
 3887SOL     OW23119   4.600   4.011   8.401  0.3397 -0.0793  0.2458
 3887SOL    HW123120   4.602   4.083   8.464 -0.6451 -1.7947  2.2699
 3887SOL    HW223121   4.507   3.991   8.396 -0.0482  2.3301 -2.0560
 3888SOL     OW23122   0.562   2.518   1.190 -0.2269 -0.3960  0.3970
 3888SOL    HW123123   0.481   2.540   1.236 -1.0351 -0.9451 -0.7842
 3888SOL    HW223124   0.532   2.449   1.132  0.7567 -0.4393 -0.0600
 3889SOL     OW23125   2.469   2.551   3.947  0.0375  0.2585 -0.3932
 3889SOL    HW123126   2.478   2.624   4.009 -1.3489  0.8393 -0.8645
 3889SOL    HW223127   2.557   2.514   3.948  0.1687  0.5346 -1.0554
 3890SOL     OW23128   3.501   2.782   3.803 -0.3709  0.3379  0.0640
 3890SOL    HW123129   3.581   2.826   3.830  0.0349  0.3267 -1.0986
 3890SOL    HW223130   3.496   2.791   3.707  0.8824 -2.2315 -0.2387
 3891SOL     OW23131   2.468   2.842   7.684 -0.0629 -0.1625  0.0579
 3891SOL    HW123132   2.495   2.770   7.626  1.6109 -0.2177  0.8998
 3891SOL    HW223133   2.533   2.906   7.654  0.0373 -0.6462 -0.7638
 3892SOL     OW23134   4.552   4.280   7.383  0.2975 -0.6376 -0.3669
 3892SOL    HW123135   4.521   4.361   7.422 -0.4227 -1.6880  1.2799
 3892SOL    HW223136   4.519   4.279   7.293 -1.3213 -1.4202  0.2229
 3893SOL     OW23137   0.290   4.237   7.841 -0.3404  0.1603 -0.0513
 3893SOL    HW123138   0.212   4.288   7.818 -0.3430  0.4823  0.7014
 3893SOL    HW223139   0.336   4.305   7.889  0.0044 -0.9218  1.1681
 3894SOL     OW23140   3.901   1.843   6.623 -0.4690 -0.7572 -0.0494
 3894SOL    HW123141   3.923   1.907   6.556 -2.0256  1.7539  1.8449
 3894SOL    HW223142   3.972   1.780   6.614 -0.9318 -1.2539 -0.2476
 3895SOL     OW23143   0.890   0.025   7.950  0.4999 -0.8083  0.5322
 3895SOL    HW123144   0.807   0.066   7.976  0.9769 -0.6035  1.7174
 3895SOL    HW223145   0.919   0.092   7.887 -1.3923 -0.2524  0.2440
 3896SOL     OW23146   2.032   1.798   9.642  0.1149  0.1992  0.2001
 3896SOL    HW123147   1.984   1.719   9.615  1.9423 -0.4969 -0.9640
 3896SOL    HW223148   1.978   1.858   9.590 -1.5168 -1.9093 -0.5649
 3897SOL     OW23149   4.164   3.855   3.955  0.1543  0.1676  0.6497
 3897SOL    HW123150   4.111   3.776   3.941 -0.1511  0.7619 -1.5278
 3897SOL    HW223151   4.166   3.902   3.872  1.5507 -1.5692 -0.2993
 3898SOL     OW23152   2.900   1.377   2.807 -0.2640  0.4764  0.6142
 3898SOL    HW123153   2.879   1.291   2.772  1.9629  0.2184 -0.0700
 3898SOL    HW223154   2.889   1.429   2.727  0.4565  0.1885  0.3291
 3899SOL     OW23155   3.866   2.859   2.351 -0.2368 -0.9391  0.2744
 3899SOL    HW123156   3.870   2.949   2.320 -1.4111 -0.4295  1.6596
 3899SOL    HW223157   3.772   2.851   2.339 -0.7037  1.4603  2.4763
 3900SOL     OW23158   0.153   0.526   8.977  0.6314 -0.1576 -0.0428
 3900SOL    HW123159   0.108   0.490   9.053 -1.3406  0.4323 -0.9541
 3900SOL    HW223160   0.236   0.479   8.986  1.5663  1.5127  0.0715
 3901SOL     OW23161   3.282   2.226   9.195 -0.1132  0.3884 -0.3215
 3901SOL    HW123162   3.315   2.136   9.192  0.6638  0.5890  2.1005
 3901SOL    HW223163   3.196   2.212   9.156  0.7755 -0.5212 -1.9752
 3902SOL     OW23164   2.950   4.180   2.510  0.5596  0.0431 -0.5296
 3902SOL    HW123165   2.922   4.191   2.420 -2.8158  0.4864  0.5750
 3902SOL    HW223166   2.973   4.269   2.536  3.0977 -0.5057 -0.8187
 3903SOL     OW23167   1.485   1.427   2.930  0.3464 -0.1721  0.1929
 3903SOL    HW123168   1.470   1.451   2.838 -0.0435 -1.4929 -0.0962
 3903SOL    HW223169   1.503   1.510   2.973 -2.0167  1.0540 -1.1694
 3904SOL     OW23170   1.529   1.705  16.031  0.1359  0.3654 -0.1844
 3904SOL    HW123171   1.506   1.692  15.939  0.5227 -1.6448  0.0020
 3904SOL    HW223172   1.590   1.632  16.042 -1.2648 -0.9915 -1.4160
 3905SOL     OW23173   3.103   2.618   5.050 -0.6156 -0.4673  0.1082
 3905SOL    HW123174   3.073   2.545   5.103  1.5690 -0.3008  1.5607
 3905SOL    HW223175   3.055   2.611   4.967 -1.1057  1.8418  0.1967
 3906SOL     OW23176   3.390   0.100   2.496 -0.0984  0.1095  0.3983
 3906SOL    HW123177   3.374   0.148   2.414  0.7664  0.7386  0.6006
 3906SOL    HW223178   3.388   0.166   2.566 -1.1086  1.1679 -0.6157
 3907SOL     OW23179   0.262   2.034   5.460 -0.1831 -0.3010  0.0964
 3907SOL    HW123180   0.246   2.078   5.377 -0.3424 -0.6813 -0.0752
 3907SOL    HW223181   0.203   1.958   5.457 -2.0227  1.1402  0.0625
 3908SOL     OW23182   1.013   2.881   6.962 -0.4183  0.2813  0.0496
 3908SOL    HW123183   1.089   2.826   6.939 -0.0090  0.5626  0.7119
 3908SOL    HW223184   1.047   2.968   6.942 -0.1733  0.1135 -0.2659
 3909SOL     OW23185   0.356   0.860   8.215 -0.1927 -0.3305 -0.0584
 3909SOL    HW123186   0.268   0.866   8.176 -0.0336 -1.7104 -0.6626
 3909SOL    HW223187   0.336   0.856   8.308  2.0338  1.0267  0.4742
 3910SOL     OW23188   2.212   2.605  11.432  0.0496  0.1713  0.1831
 3910SOL    HW123189   2.258   2.590  11.514 -0.1169  2.1131  0.6333
 3910SOL    HW223190   2.248   2.687  11.399 -0.7074  1.2745  2.1145
 3911SOL     OW23191   3.473   4.441   3.056  0.0974  0.7269  0.2015
 3911SOL    HW123192   3.483   4.400   3.142  1.2839  0.2144 -0.1892
 3911SOL    HW223193   3.555   4.487   3.038  1.5553 -1.9709  0.0593
 3912SOL     OW23194   1.155   3.155   5.796  0.2410  0.8225  0.5540
 3912SOL    HW123195   1.106   3.236   5.811 -1.2147  0.2090 -0.8473
 3912SOL    HW223196   1.244   3.169   5.828  0.4493  0.0691  0.2840
 3913SOL     OW23197   1.872   4.150   4.170  0.0093 -0.3023 -0.2567
 3913SOL    HW123198   1.778   4.161   4.157  0.7753  2.3214 -3.5555
 3913SOL    HW223199   1.895   4.227   4.222  1.6029 -1.2016  0.3513
 3914SOL     OW23200   4.421   4.332   8.839 -0.3437 -1.1546 -0.0839
 3914SOL    HW123201   4.419   4.409   8.896 -1.5740 -0.6321 -0.8581
 3914SOL    HW223202   4.344   4.287   8.874 -0.3963 -1.4510 -0.5824
 3915SOL     OW23203   0.371   2.843  17.413  0.2364 -0.4570 -0.3555
 3915SOL    HW123204   0.412   2.901  17.477  0.9652 -0.8013 -0.5077
 3915SOL    HW223205   0.282   2.878  17.423  0.1433 -0.0370 -2.6626
 3916SOL     OW23206   2.169   0.041   5.239 -0.2785 -0.4293 -0.1028
 3916SOL    HW123207   2.254   4.725   5.245  0.0007  0.1100 -0.1091
 3916SOL    HW223208   2.127   4.703   5.183  0.5760 -1.2021  0.1496
 3917SOL     OW23209   0.855   2.072   6.732 -0.0834  0.5595 -0.4579
 3917SOL    HW123210   0.921   2.104   6.671  1.5807 -1.6290  0.1940
 3917SOL    HW223211   0.908   1.998   6.762  1.4342  1.2696 -1.3995
 3918SOL     OW23212   2.605   2.128   4.572  0.1230 -0.5878  0.0694
 3918SOL    HW123213   2.518   2.168   4.563  0.0297 -1.4316 -2.6728
 3918SOL    HW223214   2.625   2.117   4.479  0.0835  1.8684 -0.2125
 3919SOL     OW23215   1.251   1.412  10.645  0.0225  0.4806 -0.0070
 3919SOL    HW123216   1.198   1.432  10.568  0.8403  0.8790 -0.4687
 3919SOL    HW223217   1.298   1.495  10.645  2.1206 -0.7106 -1.4452
 3920SOL     OW23218   2.990   4.265  16.048 -0.4192 -0.2069 -0.0937
 3920SOL    HW123219   3.008   4.329  16.116  3.0251  1.1713 -2.3297
 3920SOL    HW223220   3.074   4.224  16.027 -0.8004 -1.9350  1.7013
 3921SOL     OW23221   2.346   4.059   6.204  0.6558 -0.1815  0.3461
 3921SOL    HW123222   2.254   4.034   6.209 -0.1301  2.8428  0.5733
 3921SOL    HW223223   2.347   4.134   6.263  2.3965  0.3804 -0.4035
 3922SOL     OW23224   2.251   0.863   4.320  0.1957 -0.1759  0.4971
 3922SOL    HW123225   2.205   0.782   4.338 -0.9509  0.2408 -0.5528
 3922SOL    HW223226   2.332   0.832   4.279 -0.1357  0.9736 -1.0299
 3923SOL     OW23227   0.591   3.250  17.647  0.2838  0.2208  0.2792
 3923SOL    HW123228   0.579   3.336  17.687 -1.1288 -0.6056  1.5766
 3923SOL    HW223229   0.677   3.228  17.684  0.6496 -0.9768 -1.2915
 3924SOL     OW23230   4.526   2.329   0.984  0.1270  0.3168 -0.0730
 3924SOL    HW123231   4.483   2.413   0.967  1.0467  1.2983  2.4002
 3924SOL    HW223232   4.576   2.342   1.064 -0.7116 -2.1683  0.8358
 3925SOL     OW23233   0.695   1.539   3.707 -0.1821 -0.1685 -0.1859
 3925SOL    HW123234   0.728   1.480   3.639 -1.0158 -1.4889  0.5654
 3925SOL    HW223235   0.632   1.592   3.657 -0.2981  0.6663  0.8416
 3926SOL     OW23236   3.735   4.158   3.259 -0.2579  0.4070  0.3907
 3926SOL    HW123237   3.697   4.087   3.207  1.9029  0.8158 -1.7227
 3926SOL    HW223238   3.783   4.209   3.194 -0.2322 -1.0437 -0.7359
 3927SOL     OW23239   3.453   2.776   3.514  0.1628 -0.5189 -0.2631
 3927SOL    HW123240   3.419   2.838   3.450  0.8256 -0.4689 -0.5722
 3927SOL    HW223241   3.387   2.711   3.492  0.1497 -0.1082 -1.4567
 3928SOL     OW23242   4.213   4.108  17.376  0.0363 -0.3873 -0.3463
 3928SOL    HW123243   4.246   4.135  17.462  0.9853 -0.6422 -0.6321
 3928SOL    HW223244   4.149   4.040  17.400  0.5679 -1.5227 -2.1611
 3929SOL     OW23245   2.077   4.199   2.130 -0.1077 -0.1247  0.3227
 3929SOL    HW123246   2.083   4.282   2.176 -0.8653 -1.9648  3.7618
 3929SOL    HW223247   2.160   4.157   2.153  0.5241  1.2759  0.5832
 3930SOL     OW23248   3.724   1.370   0.502 -0.0941 -0.7947 -0.8878
 3930SOL    HW123249   3.784   1.359   0.428  0.1118 -1.4727 -0.6161
 3930SOL    HW223250   3.678   1.451   0.480 -0.6329 -0.9096 -0.1892
 3931SOL     OW23251   1.804   1.857   4.451 -0.3190  0.1982 -0.0534
 3931SOL    HW123252   1.788   1.838   4.544 -1.4190  0.6440 -0.1607
 3931SOL    HW223253   1.724   1.825   4.411 -0.1672  0.9731 -0.9857
 3932SOL     OW23254   3.475   3.070   2.835 -0.9855  0.0732  0.1600
 3932SOL    HW123255   3.428   2.987   2.836 -0.0548 -0.4521  0.4455
 3932SOL    HW223256   3.505   3.080   2.925  2.8474  1.0366 -1.2356
 3933SOL     OW23257   1.587   2.127   8.018 -0.1471 -0.4170 -0.4423
 3933SOL    HW123258   1.602   2.093   7.930 -1.7437 -0.8176 -0.5531
 3933SOL    HW223259   1.624   2.214   8.001 -1.6654  0.7038  1.9095
 3934SOL     OW23260   1.984   3.714   4.591 -0.0499  0.1111 -0.2313
 3934SOL    HW123261   1.919   3.664   4.542  0.7719 -0.1773 -1.0309
 3934SOL    HW223262   1.945   3.705   4.678  1.0365  0.8779  0.3366
 3935SOL     OW23263   2.037   1.712   4.662 -0.6929 -0.0503  0.1311
 3935SOL    HW123264   1.947   1.744   4.654 -1.3535 -1.6350  1.2488
 3935SOL    HW223265   2.026   1.617   4.657  0.2255 -0.0724 -1.3969
 3936SOL     OW23266   1.540   3.947  17.292  0.3590  0.7290 -0.0422
 3936SOL    HW123267   1.477   4.001  17.244  0.6159 -0.7140 -1.9787
 3936SOL    HW223268   1.605   3.933  17.223  0.4386 -1.7014  0.5303
 3937SOL     OW23269   2.980   1.128   8.129 -0.2184  0.4455  0.0973
 3937SOL    HW123270   2.941   1.047   8.097 -1.1672  1.7242 -1.9969
 3937SOL    HW223271   3.072   1.127   8.102 -0.0257 -1.7228  0.8733
 3938SOL     OW23272   3.899   4.691   2.036 -1.0623  0.3146  0.7521
 3938SOL    HW123273   3.945   4.671   2.118  1.2357 -0.3680 -0.6911
 3938SOL    HW223274   3.812   4.708   2.071 -3.2867 -1.7802 -3.7739
 3939SOL     OW23275   1.495   1.273   5.063  0.1677 -0.3081  0.4532
 3939SOL    HW123276   1.430   1.256   5.131  0.9316 -1.5591  0.8723
 3939SOL    HW223277   1.430   1.281   4.994 -0.9126  0.2074  1.5273
 3940SOL     OW23278   0.445   1.677  16.269  0.1013 -0.1395 -0.2450
 3940SOL    HW123279   0.519   1.624  16.300 -0.3554  0.2432  1.5351
 3940SOL    HW223280   0.491   1.717  16.195  0.0932 -3.5009 -2.0614
 3941SOL     OW23281   4.447   1.145  10.860 -0.2484 -0.0026 -0.4610
 3941SOL    HW123282   4.481   1.206  10.926 -0.8698  1.6641 -1.6916
 3941SOL    HW223283   4.370   1.196  10.836  0.8467  1.0545 -1.6802
 3942SOL     OW23284   0.531   0.162   7.332 -0.2278 -0.1941 -0.1648
 3942SOL    HW123285   0.563   0.079   7.368 -0.9723 -0.6332 -0.4990
 3942SOL    HW223286   0.478   0.127   7.260  0.7074 -1.4086 -0.2849
 3943SOL     OW23287   4.084   4.110   8.625  0.2184 -0.4054  0.5790
 3943SOL    HW123288   4.016   4.116   8.692  0.6198 -1.7570  1.1111
 3943SOL    HW223289   4.146   4.052   8.668  0.3008 -0.5126  0.3194
 3944SOL     OW23290   0.181   1.402  12.914  0.5645  0.3415  0.1079
 3944SOL    HW123291   0.142   1.490  12.909 -0.4729 -0.1116  0.1994
 3944SOL    HW223292   0.136   1.360  12.840  1.6339  2.5376 -1.8044
 3945SOL     OW23293   2.828   3.585  15.010  0.3577  0.3465 -0.0411
 3945SOL    HW123294   2.794   3.498  14.987  1.2189  0.3565 -1.3452
 3945SOL    HW223295   2.846   3.625  14.925  0.9786  1.5232  0.6422
 3946SOL     OW23296   3.959   2.436   5.665  0.0354  0.0510  0.0221
 3946SOL    HW123297   4.009   2.411   5.742 -1.9556 -0.4119  1.1605
 3946SOL    HW223298   3.912   2.508   5.709  0.4330  0.8180 -0.8119
 3947SOL     OW23299   2.898   1.281   7.817  0.0744 -0.7144 -0.1990
 3947SOL    HW123300   2.965   1.228   7.774  0.9487  1.4209 -1.4823
 3947SOL    HW223301   2.820   1.250   7.772 -0.4493  1.6720 -0.9555
 3948SOL     OW23302   1.277   1.624  16.159  0.2375  0.0743  0.1152
 3948SOL    HW123303   1.336   1.561  16.117 -0.3933 -2.1874  2.5337
 3948SOL    HW223304   1.262   1.583  16.245  1.2526  1.1084  0.7866
 3949SOL     OW23305   0.046   3.345  10.876  0.4114 -0.2379  0.0627
 3949SOL    HW123306   0.119   3.338  10.937 -0.3704 -0.4105  0.9671
 3949SOL    HW223307   0.035   3.439  10.857 -0.3399 -0.2550  0.3984
 3950SOL     OW23308   1.617   2.580   8.741  0.1626 -0.0836 -0.0068
 3950SOL    HW123309   1.617   2.676   8.739 -2.9782 -0.0401  4.2937
 3950SOL    HW223310   1.709   2.561   8.722  0.4901  0.9004  0.5925
 3951SOL     OW23311   0.428   3.315   6.778  0.0977  0.6679  0.0504
 3951SOL    HW123312   0.463   3.397   6.813 -1.4188  0.8227  1.2327
 3951SOL    HW223313   0.503   3.286   6.726  1.7376 -1.0221  3.2950
 3952SOL     OW23314   4.418   0.787  15.387  0.1308  0.3147  0.2184
 3952SOL    HW123315   4.407   0.754  15.476 -1.8108  1.5711  0.4585
 3952SOL    HW223316   4.458   0.872  15.403  1.3897 -0.3886  0.8007
 3953SOL     OW23317   1.649   3.313   2.828  0.3803 -0.0696 -0.2659
 3953SOL    HW123318   1.560   3.334   2.857  0.5063  0.1163 -0.0167
 3953SOL    HW223319   1.628   3.288   2.738  0.1952  0.6625 -0.4294
 3954SOL     OW23320   0.291   0.153  17.186 -0.2009  0.6385 -0.0440
 3954SOL    HW123321   0.371   0.189  17.225 -1.5707  2.8506  0.7812
 3954SOL    HW223322   0.233   0.230  17.185 -1.2861 -0.1987 -0.8460
 3955SOL     OW23323   2.072   3.862  12.295  0.2160  0.5738 -0.0703
 3955SOL    HW123324   2.086   3.871  12.389  0.9105  2.3693 -0.3508
 3955SOL    HW223325   2.144   3.918  12.266 -1.8207  1.8006 -2.7933
 3956SOL     OW23326   4.124   3.795  14.742  0.2831 -0.5928  0.3937
 3956SOL    HW123327   4.146   3.830  14.655  2.7747  1.1916  1.7666
 3956SOL    HW223328   4.203   3.745  14.762  0.4599 -0.5394 -0.1629
 3957SOL     OW23329   0.746   3.271   9.470  0.0344 -0.5972  0.3054
 3957SOL    HW123330   0.688   3.347   9.481 -2.1969 -2.5328  1.9721
 3957SOL    HW223331   0.738   3.225   9.554 -0.1018 -0.2766  0.4697
 3958SOL     OW23332   2.976   1.301   3.097 -0.7702  0.8284 -0.1322
 3958SOL    HW123333   3.004   1.220   3.055 -1.1098  1.0140 -0.7195
 3958SOL    HW223334   2.989   1.361   3.023 -3.4558  0.3583 -0.9710
 3959SOL     OW23335   0.662   0.169   7.666 -0.5324  0.2791  0.0920
 3959SOL    HW123336   0.581   0.118   7.666 -1.0695  1.1158 -0.9044
 3959SOL    HW223337   0.657   0.212   7.581 -3.5173 -2.1460 -0.9542
 3960SOL     OW23338   3.472   3.430  17.124  0.3535 -0.3963 -1.5697
 3960SOL    HW123339   3.390   3.429  17.173  1.4983  0.6343  0.3458
 3960SOL    HW223340   3.502   3.519  17.144  0.4358 -0.4519 -1.4475
 3961SOL     OW23341   3.464   1.365   0.330  0.1507  0.1694  0.3869
 3961SOL    HW123342   3.381   1.390   0.290  1.2543 -1.4990 -3.0280
 3961SOL    HW223343   3.452   1.277   0.295 -3.9331  1.1319 -0.5988
 3962SOL     OW23344   0.871   2.794   9.185 -0.5135  0.1117  0.2787
 3962SOL    HW123345   0.935   2.729   9.215 -0.2162  0.5300  0.5485
 3962SOL    HW223346   0.860   2.839   9.269  1.6971  0.5234  0.3419
 3963SOL     OW23347   0.435   3.940   6.483  0.2043  0.4070 -0.1391
 3963SOL    HW123348   0.511   3.889   6.510 -2.3330 -1.3830  3.4984
 3963SOL    HW223349   0.454   4.021   6.531  3.3690 -1.6247  1.9690
 3964SOL     OW23350   0.708   2.783   4.747 -0.0398  0.0039  0.2088
 3964SOL    HW123351   0.655   2.743   4.815 -0.4732 -5.3488 -3.3515
 3964SOL    HW223352   0.786   2.742   4.784  0.7484  0.2185 -1.2088
 3965SOL     OW23353   0.239   2.866   9.729  0.3886 -0.1876 -0.0518
 3965SOL    HW123354   0.275   2.778   9.724 -0.5436 -0.6085  0.9323
 3965SOL    HW223355   0.310   2.896   9.786 -0.3734  0.3695  0.6013
 3966SOL     OW23356   3.305   2.993   8.957  0.2344  0.0727 -0.0994
 3966SOL    HW123357   3.219   3.005   8.997  0.6044  1.6752  0.1933
 3966SOL    HW223358   3.322   2.900   8.971 -1.9507 -0.5206 -1.4901
 3967SOL     OW23359   3.282   3.098   5.191 -0.2447  0.4343 -0.2823
 3967SOL    HW123360   3.375   3.075   5.182  0.0639  1.7785 -0.6231
 3967SOL    HW223361   3.242   3.015   5.167  0.7565 -0.0505 -0.2518
 3968SOL     OW23362   4.050   2.094   8.577 -0.2509 -0.3222 -0.2559
 3968SOL    HW123363   4.013   2.013   8.542 -1.1833 -0.2990  0.6865
 3968SOL    HW223364   4.133   2.051   8.598  0.6554  2.1594  1.2794
 3969SOL     OW23365   3.931   1.949   2.757 -0.0198  0.3095 -0.7675
 3969SOL    HW123366   3.886   1.874   2.797  2.2708 -0.8838 -0.4478
 3969SOL    HW223367   3.875   2.023   2.782 -0.4128 -1.5420  3.9238
 3970SOL     OW23368   3.710   3.747   7.654 -0.5354 -0.5057 -0.4281
 3970SOL    HW123369   3.654   3.791   7.719 -1.3524 -0.9773 -0.8186
 3970SOL    HW223370   3.636   3.712   7.606 -1.2761 -2.0943  1.8694
 3971SOL     OW23371   3.197   0.831   1.618 -0.0152  0.3697  0.1850
 3971SOL    HW123372   3.147   0.787   1.688  1.6439 -1.4629  0.2062
 3971SOL    HW223373   3.157   0.791   1.541  0.5598  0.8451 -0.3543
 3972SOL     OW23374   3.348   4.024   5.506 -0.4897 -0.3939 -0.0426
 3972SOL    HW123375   3.428   3.980   5.536 -0.5125 -1.2421 -1.2202
 3972SOL    HW223376   3.324   3.955   5.444  0.4989 -0.6105 -0.1932
 3973SOL     OW23377   1.992   2.490  11.503 -0.2708 -0.4573  0.6695
 3973SOL    HW123378   2.076   2.523  11.471 -1.4039 -0.0781 -1.9138
 3973SOL    HW223379   1.991   2.539  11.586 -0.6247  0.6098  0.0339
 3974SOL     OW23380   3.530   1.224   2.349 -0.1170  0.3076  0.2242
 3974SOL    HW123381   3.469   1.253   2.281  0.5938 -0.0450 -0.5517
 3974SOL    HW223382   3.618   1.254   2.329 -0.5092  1.6110  0.4274
 3975SOL     OW23383   1.769   2.770   3.651  0.0210  0.2402 -0.0637
 3975SOL    HW123384   1.712   2.696   3.671  1.6895 -1.5413 -2.0619
 3975SOL    HW223385   1.718   2.810   3.580 -2.6760 -2.0450  0.6019
 3976SOL     OW23386   2.839   2.895   7.747  0.3098  0.3700  0.3679
 3976SOL    HW123387   2.795   2.810   7.756 -0.8284  0.9166 -0.0384
 3976SOL    HW223388   2.774   2.933   7.689  0.3551  0.5861  0.4597
 3977SOL     OW23389   2.113   0.141   3.811 -0.0722 -0.0880  0.2151
 3977SOL    HW123390   2.068   0.185   3.738  1.7353  1.6140  0.1343
 3977SOL    HW223391   2.187   0.101   3.763  0.4346 -0.0587  0.9787
 3978SOL     OW23392   2.110   2.735   7.548  0.4031 -0.5241  0.2217
 3978SOL    HW123393   2.158   2.817   7.559 -1.1675  0.5699 -1.2480
 3978SOL    HW223394   2.055   2.734   7.626  0.9138 -0.3419  0.5919
 3979SOL     OW23395   4.570   3.535  15.652  0.4059  0.1183 -0.0590
 3979SOL    HW123396   4.630   3.603  15.623  0.4302 -0.1876 -0.7185
 3979SOL    HW223397   4.488   3.555  15.608  0.8144  0.8202 -0.5036
 3980SOL     OW23398   0.790   2.918   5.991 -0.2030  0.0647  0.4032
 3980SOL    HW123399   0.732   2.952   5.922 -0.6675 -0.1455  0.6881
 3980SOL    HW223400   0.859   2.911   5.926 -0.1645  0.9104  0.3471
 3981SOL     OW23401   1.132   2.356  17.569 -0.0716 -0.4216 -0.3579
 3981SOL    HW123402   1.166   2.382  17.654 -0.3379 -0.2612 -0.2997
 3981SOL    HW223403   1.203   2.298  17.541  0.3969  0.4842 -1.0203
 3982SOL     OW23404   4.381   0.215   3.895  0.4417 -0.4830 -0.0986
 3982SOL    HW123405   4.367   0.282   3.962  2.4322  2.0149 -2.2022
 3982SOL    HW223406   4.357   0.133   3.940  1.4425  0.6106  2.4057
 3983SOL     OW23407   0.592   3.832   7.569 -0.6386 -0.1191 -0.3812
 3983SOL    HW123408   0.574   3.862   7.480 -0.3064  0.2368 -0.3291
 3983SOL    HW223409   0.687   3.838   7.579 -0.8577  1.7107  0.5152
 3984SOL     OW23410   0.893   4.008   0.039 -0.0059  0.2338  0.0760
 3984SOL    HW123411   0.881   4.065  17.672 -1.4079  1.5858  1.3048
 3984SOL    HW223412   0.811   3.997   0.087  0.1459 -1.5705 -0.0956
 3985SOL     OW23413   1.269   2.911   6.019  0.2583 -0.6103  0.1813
 3985SOL    HW123414   1.306   2.997   6.039 -2.4891  1.4150 -3.4679
 3985SOL    HW223415   1.334   2.879   5.956  1.5845  2.1967  0.0843
 3986SOL     OW23416   0.927   1.343   0.863 -0.6745  0.3734  0.4394
 3986SOL    HW123417   0.843   1.374   0.898 -1.3489  0.3586 -1.1379
 3986SOL    HW223418   0.944   1.269   0.921  0.5072 -0.4772 -0.9801
 3987SOL     OW23419   4.271   3.195   5.499  0.3481 -0.1200  0.4498
 3987SOL    HW123420   4.215   3.155   5.432  0.5715 -0.2069  0.3177
 3987SOL    HW223421   4.314   3.118   5.537 -0.1295 -0.2031  0.8327
 3988SOL     OW23422   1.431   3.607  14.463  0.1924  0.2738 -0.0891
 3988SOL    HW123423   1.366   3.607  14.392 -1.6027 -1.7709  1.6040
 3988SOL    HW223424   1.471   3.522  14.445  1.3891  0.4419  1.8099
 3989SOL     OW23425   2.633   4.710   2.444  0.0180  0.0726  0.6879
 3989SOL    HW123426   2.675   4.624   2.434  3.8548  1.7305  2.8387
 3989SOL    HW223427   2.675   0.034   2.375  1.2425 -2.5475 -0.5345
 3990SOL     OW23428   1.526   4.574   8.416  0.5014 -0.6625 -0.0540
 3990SOL    HW123429   1.545   4.633   8.344 -3.5447  0.6141 -0.0633
 3990SOL    HW223430   1.431   4.568   8.407  0.4712  0.2805 -0.3897
 3991SOL     OW23431   3.710   0.385   8.934 -0.1400 -0.0023  0.3678
 3991SOL    HW123432   3.704   0.290   8.949  0.4378 -0.1056 -0.0672
 3991SOL    HW223433   3.623   0.412   8.907 -0.3883 -0.0010  1.1522
 3992SOL     OW23434   1.852   2.192   9.067 -0.4171 -0.5330  1.4114
 3992SOL    HW123435   1.893   2.238   9.140 -0.2617 -1.5296  1.9599
 3992SOL    HW223436   1.923   2.135   9.038 -2.5451 -1.5739 -1.8026
 3993SOL     OW23437   4.564   3.225  17.385 -0.5496 -0.1270 -0.9194
 3993SOL    HW123438   4.622   3.272  17.325 -0.7371  1.6825  0.3461
 3993SOL    HW223439   4.540   3.149  17.331  1.8910  0.0866 -2.2968
 3994SOL     OW23440   2.230   1.138   6.081 -0.2297 -0.2304 -0.4817
 3994SOL    HW123441   2.166   1.072   6.109 -2.3755  1.7434 -0.7964
 3994SOL    HW223442   2.246   1.119   5.988  1.7489 -0.9193  0.0150
 3995SOL     OW23443   0.905   1.740   3.740 -0.2964 -0.0340  0.0038
 3995SOL    HW123444   0.862   1.815   3.700  0.7425  1.3845  1.5379
 3995SOL    HW223445   0.832   1.679   3.745  2.3885 -3.3972 -1.3500
 3996SOL     OW23446   0.696   0.687   4.885  0.0695 -0.2457  0.1411
 3996SOL    HW123447   0.730   0.612   4.835 -0.3497 -0.2748 -0.0970
 3996SOL    HW223448   0.774   0.736   4.911 -1.0293  2.9280 -2.5341
 3997SOL     OW23449   1.198   3.702   1.774 -0.2387 -0.0217 -0.4734
 3997SOL    HW123450   1.251   3.642   1.828 -1.3831  0.6857  1.4158
 3997SOL    HW223451   1.124   3.642   1.766 -0.4069  0.2886 -1.1783
 3998SOL     OW23452   0.553   1.554  15.833 -0.0677  0.3552 -0.1211
 3998SOL    HW123453   0.644   1.532  15.856  0.1813  0.9454 -0.5603
 3998SOL    HW223454   0.541   1.480  15.774  1.3599  1.3230 -1.6140
 3999SOL     OW23455   0.288   0.425   7.819  0.2637 -0.2278 -0.0385
 3999SOL    HW123456   0.192   0.423   7.813  0.2334  1.0353  0.0323
 3999SOL    HW223457   0.301   0.501   7.762 -1.2679 -0.0201 -0.1008
 4000SOL     OW23458   4.041   3.751   7.875 -0.0387 -0.0259  0.2269
 4000SOL    HW123459   3.989   3.683   7.916  1.3189 -0.7071  0.8393
 4000SOL    HW223460   4.127   3.710   7.859 -0.7689 -2.2287  2.0052
 4001SOL     OW23461   1.472   3.399   0.352  0.9411  0.0171  0.0157
 4001SOL    HW123462   1.431   3.485   0.342 -2.0138 -1.3886 -0.0927
 4001SOL    HW223463   1.563   3.422   0.332  1.5764 -2.4419  0.1135
 4002SOL     OW23464   0.774   3.317   0.221 -0.1260 -0.3511  0.0325
 4002SOL    HW123465   0.864   3.320   0.254  0.2360 -0.5602 -0.9199
 4002SOL    HW223466   0.789   3.277   0.135  0.1368 -0.9159  0.3424
 4003SOL     OW23467   2.387   0.140   6.641 -0.7306 -0.5290 -0.4071
 4003SOL    HW123468   2.367   0.232   6.658 -1.3362 -0.6667 -0.3752
 4003SOL    HW223469   2.384   0.100   6.728  1.3822  1.0224  0.3737
 4004SOL     OW23470   4.640   3.727   8.337  0.7357  0.5202 -0.0880
 4004SOL    HW123471   4.693   3.797   8.375 -1.1743  0.7189  2.1549
 4004SOL    HW223472   4.553   3.760   8.358  0.8496  0.5509  0.3332
 4005SOL     OW23473   0.289   2.153  14.610 -0.4607 -0.3525  0.0013
 4005SOL    HW123474   0.322   2.230  14.564  2.1217 -1.4129  0.0879
 4005SOL    HW223475   0.220   2.188  14.666  0.3322  0.8650  0.2236
 4006SOL     OW23476   3.219   2.104   5.922 -0.3081  0.3259 -0.4193
 4006SOL    HW123477   3.158   2.177   5.923 -0.9280 -0.2208  3.5976
 4006SOL    HW223478   3.183   2.061   6.000  0.2901 -0.5838 -0.6393
 4007SOL     OW23479   2.205   0.874   9.241 -0.5391 -0.4160  0.5701
 4007SOL    HW123480   2.180   0.942   9.305  1.7219  0.1239  0.8677
 4007SOL    HW223481   2.298   0.892   9.227 -0.7495  0.9581  0.9307
 4008SOL     OW23482   0.055   0.399   0.613  0.0046  0.9799  0.9229
 4008SOL    HW123483   0.150   0.394   0.606  0.0179  1.7102  0.6026
 4008SOL    HW223484   0.031   0.351   0.535  2.4533 -1.6480  1.8001
 4009SOL     OW23485   1.055   1.982   3.876  0.1283 -0.3154 -0.6580
 4009SOL    HW123486   1.048   1.903   3.823  0.3088  0.4445 -1.8137
 4009SOL    HW223487   1.120   2.027   3.823 -0.4725  1.6384  0.2201
 4010SOL     OW23488   3.189   2.329   8.288  0.0616  1.1790  0.5514
 4010SOL    HW123489   3.182   2.291   8.200  0.4744 -1.6581  1.7723
 4010SOL    HW223490   3.137   2.260   8.328 -0.8056 -0.2167 -2.9274
 4011SOL     OW23491   3.895   3.020   3.894 -0.1505  0.1454 -0.0013
 4011SOL    HW123492   3.884   3.053   3.983 -0.1579 -1.1917  0.4882
 4011SOL    HW223493   3.990   3.019   3.902 -0.2394  0.9162  1.1454
 4012SOL     OW23494   3.298   2.656   2.282  0.0502  0.0035 -0.0200
 4012SOL    HW123495   3.222   2.700   2.243 -1.1285 -2.1445 -0.1270
 4012SOL    HW223496   3.335   2.613   2.205  0.5191  0.1952  0.0982
 4013SOL     OW23497   0.358   2.636   1.319 -0.3150  0.4428  0.0609
 4013SOL    HW123498   0.266   2.654   1.336 -0.9960 -1.7034 -1.3816
 4013SOL    HW223499   0.405   2.693   1.381  0.8802 -1.2979  0.7780
 4014SOL     OW23500   3.653   3.919   5.805 -0.0226 -0.5044  0.5063
 4014SOL    HW123501   3.744   3.921   5.835  0.3524 -1.6222 -0.5391
 4014SOL    HW223502   3.632   4.012   5.821  2.9282  0.1790  0.3151
 4015SOL     OW23503   0.723   0.471   8.945  0.9933 -0.8765  0.5648
 4015SOL    HW123504   0.780   0.489   8.871 -1.3144  2.0535 -0.5285
 4015SOL    HW223505   0.769   0.500   9.024 -0.9044 -0.8125  1.6522
 4016SOL     OW23506   1.103   2.118   6.209  0.3912 -0.0079  0.1643
 4016SOL    HW123507   1.057   2.036   6.187 -1.0069  0.8415 -0.0822
 4016SOL    HW223508   1.060   2.193   6.168  0.9413  1.0003  1.4539
 4017SOL     OW23509   2.947   2.767   1.790  0.0206  0.5013 -0.2968
 4017SOL    HW123510   3.029   2.788   1.745  0.1921 -1.5396 -0.9422
 4017SOL    HW223511   2.974   2.698   1.851  0.8272  1.3493  0.3193
 4018SOL     OW23512   1.552   1.124   8.928  0.3690  0.5096  0.4899
 4018SOL    HW123513   1.601   1.166   8.999  0.1466 -0.5919  1.2931
 4018SOL    HW223514   1.500   1.198   8.898 -0.4285 -0.3678 -0.2603
 4019SOL     OW23515   0.704   0.515   0.263  0.1769 -0.4345 -0.5236
 4019SOL    HW123516   0.672   0.602   0.287 -2.1047 -1.4904  0.1876
 4019SOL    HW223517   0.786   0.501   0.311 -0.2252 -1.7214 -0.2134
 4020SOL     OW23518   3.125   1.729   2.276  0.9293  0.2369 -0.7944
 4020SOL    HW123519   3.198   1.789   2.290 -0.7586  2.1639 -0.2972
 4020SOL    HW223520   3.108   1.724   2.182  1.0200  1.3552 -0.8599
 4021SOL     OW23521   3.218   2.469   2.767 -0.0044  0.3803  0.4027
 4021SOL    HW123522   3.230   2.562   2.748 -1.4418  0.7696  1.4207
 4021SOL    HW223523   3.177   2.436   2.687 -1.3753  0.9651  0.8753
 4022SOL     OW23524   3.707   0.027  11.478 -0.5461  0.0072  0.1126
 4022SOL    HW123525   3.687   4.681  11.419 -0.5504 -0.8530  1.1601
 4022SOL    HW223526   3.630   0.027  11.535 -1.6766  2.5241 -1.4546
 4023SOL     OW23527   1.106   2.581   0.091  0.0237 -0.1531 -0.6424
 4023SOL    HW123528   1.037   2.610   0.031 -1.0546  0.3882  0.8656
 4023SOL    HW223529   1.093   2.630   0.172  0.7797  0.5580 -0.9489
 4024SOL     OW23530   2.985   1.867  17.119 -0.3011  0.2453 -0.0299
 4024SOL    HW123531   3.036   1.947  17.134  0.4512 -0.2057 -0.2029
 4024SOL    HW223532   2.997   1.862  17.025  3.2641 -0.3043  0.4525
 4025SOL     OW23533   2.632   2.879  15.558  0.5165 -0.2624  0.1477
 4025SOL    HW123534   2.687   2.801  15.551 -0.4431 -0.9212 -0.0274
 4025SOL    HW223535   2.554   2.843  15.600  0.9882 -0.1361  1.1190
 4026SOL     OW23536   3.782   0.844   4.543  0.4938 -0.4146  0.0384
 4026SOL    HW123537   3.845   0.822   4.475  1.4366  1.5317  0.2826
 4026SOL    HW223538   3.698   0.853   4.497  0.0142  0.2517  1.0432
 4027SOL     OW23539   1.113   4.305  15.064  0.5851  0.3078 -0.0777
 4027SOL    HW123540   1.139   4.376  15.122 -0.5505 -0.3821  1.2790
 4027SOL    HW223541   1.018   4.313  15.066  0.3987 -1.6784 -0.7686
 4028SOL     OW23542   2.408   1.235  13.167  0.0635 -0.0099 -0.2153
 4028SOL    HW123543   2.340   1.296  13.194 -0.0134  0.3590 -1.2566
 4028SOL    HW223544   2.415   1.252  13.073 -3.2517 -0.0698 -0.4548
 4029SOL     OW23545   0.692   2.778   9.880  0.3259  0.3525 -0.8920
 4029SOL    HW123546   0.752   2.725   9.932 -2.0293 -2.9661 -1.4971
 4029SOL    HW223547   0.761   2.834   9.844  1.4858 -1.3325 -1.3009
 4030SOL     OW23548   2.335   2.171   0.053 -0.3434 -0.4971 -0.4837
 4030SOL    HW123549   2.288   2.103   0.005 -2.4257  1.1460 -0.7511
 4030SOL    HW223550   2.280   2.248   0.040  0.7952  0.0675 -1.8826
 4031SOL     OW23551   3.000   3.543   7.169 -0.0749  0.0652 -0.5832
 4031SOL    HW123552   2.914   3.509   7.145 -0.3245  0.5095 -0.3356
 4031SOL    HW223553   2.990   3.613   7.234  0.8838 -1.5014  1.2525
 4032SOL     OW23554   2.476   2.516   3.138  0.4854  0.1134 -0.6786
 4032SOL    HW123555   2.566   2.546   3.126  0.5709  0.3987  0.6997
 4032SOL    HW223556   2.480   2.425   3.107 -0.3464 -0.3749  0.6414
 4033SOL     OW23557   3.434   3.401   2.954 -0.5920 -0.3090  0.1708
 4033SOL    HW123558   3.491   3.391   3.030  0.5435  0.9026 -0.5135
 4033SOL    HW223559   3.351   3.434   2.988  0.6995  2.7580  0.3094
 4034SOL     OW23560   0.318   3.299   5.603  0.1448  0.4807  0.5586
 4034SOL    HW123561   0.280   3.301   5.515  1.0918  0.1379  0.1410
 4034SOL    HW223562   0.242   3.258   5.643  0.2128 -0.6634 -0.4633
 4035SOL     OW23563   2.644   3.825   2.254 -0.3000 -0.1461  0.4794
 4035SOL    HW123564   2.694   3.876   2.190  0.3776 -1.4264 -0.0152
 4035SOL    HW223565   2.679   3.737   2.248  0.5639  0.3192 -1.5493
 4036SOL     OW23566   1.419   2.069   8.658 -0.5050 -0.1989 -0.2425
 4036SOL    HW123567   1.388   2.116   8.735  0.8791  1.8764 -0.9771
 4036SOL    HW223568   1.357   1.995   8.658  0.8804 -1.3400 -3.5244
 4037SOL     OW23569   1.182   1.437   2.926 -0.4004  0.4639 -0.0168
 4037SOL    HW123570   1.124   1.470   2.994  0.7469  1.6043  0.4118
 4037SOL    HW223571   1.264   1.451   2.974 -0.8303  2.3915  0.1170
 4038SOL     OW23572   0.086   4.132  13.556  0.4743  0.0304 -0.1951
 4038SOL    HW123573   0.096   4.047  13.513 -0.3082  1.3407 -2.9585
 4038SOL    HW223574   0.169   4.169  13.527  0.7256  0.2964  0.8802
 4039SOL     OW23575   3.705   3.036   6.194 -0.3149  0.4247 -0.2474
 4039SOL    HW123576   3.729   2.988   6.115 -1.2178  2.1960 -1.5831
 4039SOL    HW223577   3.793   3.067   6.217 -0.1745  1.3678 -2.0639
 4040SOL     OW23578   2.524   1.528   3.489 -0.2576 -0.3630  0.1630
 4040SOL    HW123579   2.601   1.577   3.460 -0.3892  0.5043  1.2796
 4040SOL    HW223580   2.552   1.474   3.563 -0.2124  1.1980  1.2857
 4041SOL     OW23581   0.472   4.326   7.360  0.3855  0.1218  0.5720
 4041SOL    HW123582   0.413   4.251   7.352  0.6790  0.0128 -0.5031
 4041SOL    HW223583   0.412   4.396   7.338 -1.5655 -1.7349  0.0277
 4042SOL     OW23584   1.602   1.222  13.991 -0.5359  0.1269 -0.9430
 4042SOL    HW123585   1.587   1.143  14.044  1.9454  1.4110  1.6671
 4042SOL    HW223586   1.652   1.285  14.042  1.3247 -0.4886 -1.9917
 4043SOL     OW23587   2.582   2.797   3.045  0.2117  0.4996 -0.5323
 4043SOL    HW123588   2.663   2.746   3.052 -0.1086 -0.2077 -2.1060
 4043SOL    HW223589   2.606   2.880   3.087 -2.1013  1.2238 -0.6074
 4044SOL     OW23590   3.767   0.406   3.030  0.0293  0.3693  0.5031
 4044SOL    HW123591   3.775   0.501   3.016  3.3112 -0.1112 -0.6844
 4044SOL    HW223592   3.684   0.385   2.986  0.8488 -1.8823  0.0358
 4045SOL     OW23593   0.586   1.518   1.196  0.7066  0.0401  0.4292
 4045SOL    HW123594   0.539   1.554   1.271 -0.5612 -0.5550 -0.0958
 4045SOL    HW223595   0.516   1.530   1.133 -1.5813  2.4417  3.4336
 4046SOL     OW23596   3.129   1.597  14.260  0.5925 -0.7239 -0.1897
 4046SOL    HW123597   3.097   1.670  14.207  1.6680 -0.3408 -0.3130
 4046SOL    HW223598   3.088   1.604  14.346  0.9993  0.2198 -0.0774
 4047SOL     OW23599   4.344   1.491  10.509 -0.2366  0.2113 -0.0030
 4047SOL    HW123600   4.381   1.403  10.500  0.0812  0.3062  0.3557
 4047SOL    HW223601   4.362   1.506  10.602 -1.2234 -1.1204  0.3964
 4048SOL     OW23602   2.492   4.073   8.879  0.5069  0.3106  1.0565
 4048SOL    HW123603   2.556   4.022   8.929 -0.1038 -1.3829  0.0871
 4048SOL    HW223604   2.414   4.027   8.907  0.6737  0.0809  1.1442
 4049SOL     OW23605   4.156   1.777   1.122 -0.2935  0.0590 -0.0886
 4049SOL    HW123606   4.108   1.757   1.042  0.0207  0.9881 -0.4960
 4049SOL    HW223607   4.201   1.857   1.098  2.3539 -0.9121  1.5660
 4050SOL     OW23608   4.586   0.874   9.239 -0.2407 -0.6270  0.1496
 4050SOL    HW123609   4.676   0.877   9.206  0.0618  1.4792  1.1438
 4050SOL    HW223610   4.586   0.792   9.288 -1.6507  0.5189  2.0790
 4051SOL     OW23611   1.694   1.178   7.014 -0.4599 -0.1352  0.0068
 4051SOL    HW123612   1.736   1.169   7.100 -1.7850  1.6768  0.8515
 4051SOL    HW223613   1.616   1.122   7.019  0.9539 -2.0059  1.0193
 4052SOL     OW23614   1.396   0.844   6.493  0.0915 -0.0466  0.6645
 4052SOL    HW123615   1.372   0.839   6.400 -0.7897  0.3994  0.8653
 4052SOL    HW223616   1.464   0.776   6.499 -1.4728 -1.8780 -2.2165
 4053SOL     OW23617   1.374   1.778   4.930  0.0851  0.4202  0.8777
 4053SOL    HW123618   1.431   1.810   4.860  1.1929 -1.0427  1.1255
 4053SOL    HW223619   1.338   1.700   4.888 -0.2162  0.4919  1.0028
 4054SOL     OW23620   1.603   0.947   9.801  0.3544  0.0920 -0.2839
 4054SOL    HW123621   1.556   0.876   9.757 -0.8540 -0.1654  1.4425
 4054SOL    HW223622   1.604   0.909   9.889 -0.3209  1.8174  0.4664
 4055SOL     OW23623   1.397   4.314   3.029 -0.8506  0.0489 -0.2830
 4055SOL    HW123624   1.470   4.355   2.984 -2.3656  0.9307 -1.9193
 4055SOL    HW223625   1.348   4.393   3.053 -1.1902 -0.1879 -0.1910
 4056SOL     OW23626   3.121   3.962   9.697  0.0321 -0.3145 -0.1142
 4056SOL    HW123627   3.098   4.055   9.690 -0.3215 -0.3312  0.8633
 4056SOL    HW223628   3.215   3.975   9.709  0.2133 -0.9091 -0.8849
 4057SOL     OW23629   1.734   1.766   3.416  0.2266 -0.1615  0.2191
 4057SOL    HW123630   1.668   1.836   3.424  0.5717  0.2134 -0.2093
 4057SOL    HW223631   1.682   1.688   3.399  0.6741 -0.5010  0.4042
 4058SOL     OW23632   4.147   1.900   4.662  0.8957  0.0856  0.0155
 4058SOL    HW123633   4.086   1.874   4.593  0.4657  1.9812 -0.3322
 4058SOL    HW223634   4.116   1.840   4.729  0.5310  1.8460  1.4240
 4059SOL     OW23635   0.629   3.001   8.200 -0.3529  0.5684 -0.1445
 4059SOL    HW123636   0.576   2.988   8.278  2.0025  0.1628  1.4026
 4059SOL    HW223637   0.634   2.909   8.174  1.3594  0.7051 -0.3337
 4060SOL     OW23638   3.847   1.771   4.113  0.2967 -0.0235  0.0921
 4060SOL    HW123639   3.761   1.788   4.153  1.0485  3.6748  0.1925
 4060SOL    HW223640   3.901   1.839   4.153 -0.2073 -0.3658  1.3398
 4061SOL     OW23641   2.592   3.910   4.810 -0.1929 -0.3616  0.6986
 4061SOL    HW123642   2.593   3.815   4.817  0.3405 -0.4763 -0.9723
 4061SOL    HW223643   2.673   3.929   4.762  0.1126  1.7513  2.0392
 4062SOL     OW23644   1.697   0.418   9.314  0.6581 -0.4302 -0.1485
 4062SOL    HW123645   1.622   0.364   9.288  1.4647 -0.5491 -2.1838
 4062SOL    HW223646   1.743   0.379   9.388 -0.2962  0.0423  0.6921
 4063SOL     OW23647   1.456   3.227   4.230  0.2926 -0.5616 -0.4409
 4063SOL    HW123648   1.441   3.145   4.277 -0.6244 -0.9730 -1.4456
 4063SOL    HW223649   1.546   3.253   4.248 -0.4908  1.7183  0.0802
 4064SOL     OW23650   4.684   1.188   7.210  0.2136  0.3911  0.6801
 4064SOL    HW123651   0.029   1.237   7.169 -0.2237  1.5517  1.3032
 4064SOL    HW223652   4.626   1.250   7.254  0.1876 -0.1401  1.3753
 4065SOL     OW23653   2.910   2.025   9.410 -0.5513 -0.6626  0.2779
 4065SOL    HW123654   2.853   2.102   9.409  1.2589  0.6973 -0.0269
 4065SOL    HW223655   2.957   2.047   9.490 -1.0100  2.4043 -0.2765
 4066SOL     OW23656   3.477   2.867   8.654  0.1533  0.6735  0.3709
 4066SOL    HW123657   3.430   2.950   8.663  2.2654  1.6667  2.4170
 4066SOL    HW223658   3.569   2.893   8.643  1.1381 -2.8681  0.3479
 4067SOL     OW23659   3.599   2.597   6.411  0.4632  0.4954  0.2830
 4067SOL    HW123660   3.648   2.580   6.331  1.5887 -2.6925  1.6582
 4067SOL    HW223661   3.674   2.613   6.468 -0.7633 -0.1920  2.1068
 4068SOL     OW23662   2.411   1.987  10.377  0.2636 -0.6515  0.2255
 4068SOL    HW123663   2.440   2.048  10.445 -0.1079  1.5868 -1.6177
 4068SOL    HW223664   2.487   1.932  10.359 -0.1124 -0.5236 -1.8269
 4069SOL     OW23665   3.848   3.641   5.856 -0.1968  0.3572  0.0869
 4069SOL    HW123666   3.867   3.628   5.763 -0.5411 -1.5036  0.2651
 4069SOL    HW223667   3.919   3.700   5.879 -0.2174 -0.8981  3.3922
 4070SOL     OW23668   3.627   4.010   6.555  0.3159  0.3703 -0.4911
 4070SOL    HW123669   3.692   3.979   6.491 -1.4785 -1.3457 -1.4827
 4070SOL    HW223670   3.696   4.059   6.599 -1.1631  3.6343 -1.8365
 4071SOL     OW23671   1.553   2.934   0.166  0.3206  0.2143  0.3004
 4071SOL    HW123672   1.589   3.015   0.202  0.0830  0.6747 -0.4792
 4071SOL    HW223673   1.623   2.873   0.145 -1.7520 -1.8696 -0.6385
 4072SOL     OW23674   3.067   2.002   8.169  0.0312  0.3901  0.4063
 4072SOL    HW123675   2.996   1.948   8.204 -0.7923  0.6713 -0.8212
 4072SOL    HW223676   3.014   2.050   8.105 -0.9515  0.5299  1.3271
 4073SOL     OW23677   2.225   3.033  17.443 -0.4363  0.4523  0.3133
 4073SOL    HW123678   2.189   3.081  17.368  0.3305 -0.2976 -0.5272
 4073SOL    HW223679   2.209   2.943  17.413  1.2607 -0.2312  1.4908
 4074SOL     OW23680   4.475   3.793   9.944  0.2132  0.1619 -0.4344
 4074SOL    HW123681   4.537   3.758   9.880  1.3698  2.5108 -0.5897
 4074SOL    HW223682   4.523   3.780  10.026  0.4318 -2.3968 -0.9693
 4075SOL     OW23683   3.949   3.182   5.649 -0.8495 -0.0316 -0.2799
 4075SOL    HW123684   4.001   3.143   5.719 -1.8800  0.2140  0.6371
 4075SOL    HW223685   3.869   3.207   5.696 -1.5229 -0.7325 -1.0701
 4076SOL     OW23686   0.673   1.137   2.930  0.0766 -0.1655  0.4281
 4076SOL    HW123687   0.742   1.110   2.990 -0.9168 -2.7286  0.4103
 4076SOL    HW223688   0.604   1.078   2.960  0.5923 -0.5435  0.8675
 4077SOL     OW23689   3.882   4.113   4.757 -0.1706 -0.2283  0.6371
 4077SOL    HW123690   3.962   4.159   4.734 -0.8612  0.7016  0.1307
 4077SOL    HW223691   3.839   4.176   4.815 -0.8618 -0.1198  0.0014
 4078SOL     OW23692   0.593   2.491   5.261 -0.3903  0.0820  0.1326
 4078SOL    HW123693   0.615   2.398   5.259 -0.4614  0.0932 -2.2961
 4078SOL    HW223694   0.646   2.522   5.187  3.1869 -4.8551  0.6376
 4079SOL     OW23695   0.171   3.422   5.860  0.0426 -0.2355 -0.3201
 4079SOL    HW123696   0.078   3.401   5.865  0.4598 -1.7921  0.8918
 4079SOL    HW223697   0.198   3.413   5.952  0.3224 -0.4470 -0.4208
 4080SOL     OW23698   0.634   0.033   9.705 -0.0770 -0.1230 -0.0200
 4080SOL    HW123699   0.662   0.093   9.775 -1.0297  1.8972 -1.3742
 4080SOL    HW223700   0.623   4.681   9.759  1.0610 -0.9918 -1.0760
 4081SOL     OW23701   1.314   1.770   5.662  0.7761  0.0596  0.6493
 4081SOL    HW123702   1.372   1.788   5.736  1.4470  1.0300 -0.1165
 4081SOL    HW223703   1.369   1.786   5.586 -2.0459  2.3793 -0.9271
 4082SOL     OW23704   0.425   4.151  11.677 -0.2808  0.1189  0.3540
 4082SOL    HW123705   0.510   4.195  11.681  0.7515 -1.8122 -0.1547
 4082SOL    HW223706   0.368   4.214  11.633 -0.2618 -0.5239 -0.5974
 4083SOL     OW23707   0.788   1.568   1.882  0.3051 -0.6313  0.5975
 4083SOL    HW123708   0.715   1.552   1.941  0.8948 -2.0460  0.9275
 4083SOL    HW223709   0.752   1.554   1.794  1.1339 -0.8623  0.2949
 4084SOL     OW23710   2.923   1.855   5.793 -0.1543  0.0495 -0.0780
 4084SOL    HW123711   2.968   1.927   5.837 -0.3328 -0.7366  1.3584
 4084SOL    HW223712   2.857   1.901   5.740 -0.7825 -1.8868 -0.9693
 4085SOL     OW23713   0.289   2.018   2.705 -0.0665 -0.0986  0.0324
 4085SOL    HW123714   0.373   2.001   2.664  0.5816  1.7917  0.5447
 4085SOL    HW223715   0.288   2.114   2.709 -2.0775 -0.2096  2.0627
 4086SOL     OW23716   2.702   0.976   8.242 -0.1298  0.2475 -0.1520
 4086SOL    HW123717   2.721   1.049   8.301  1.2853  0.4342 -0.8242
 4086SOL    HW223718   2.650   0.923   8.302  0.5791 -0.1247  0.1418
 4087SOL     OW23719   2.498   1.955   7.404 -0.0259 -0.3545  0.5348
 4087SOL    HW123720   2.502   1.978   7.311 -3.9573 -0.2723  0.4064
 4087SOL    HW223721   2.404   1.954   7.422 -0.3635  1.0304 -1.2480
 4088SOL     OW23722   1.619   2.291   5.816  0.1040  0.2921 -0.3753
 4088SOL    HW123723   1.623   2.380   5.782  5.1741  0.2079  0.0036
 4088SOL    HW223724   1.652   2.240   5.741  2.9988  3.0273 -0.9675
 4089SOL     OW23725   1.123   0.144   8.396 -0.3527 -0.0760 -0.3612
 4089SOL    HW123726   1.117   0.086   8.321  0.3959  1.1408 -1.3554
 4089SOL    HW223727   1.202   0.194   8.379  0.0255 -0.8230 -0.7524
 4090SOL     OW23728   1.398   2.622   1.829 -0.7367  0.0618 -0.0769
 4090SOL    HW123729   1.378   2.696   1.886  3.4743 -0.5523  2.2364
 4090SOL    HW223730   1.352   2.553   1.877 -1.0066 -0.6525 -1.3576
 4091SOL     OW23731   0.759   4.361   6.694 -0.0350 -0.0884 -0.0118
 4091SOL    HW123732   0.742   4.406   6.612  0.5922 -0.8808 -0.5744
 4091SOL    HW223733   0.784   4.437   6.747 -2.3151 -0.2964  1.3949
 4092SOL     OW23734   0.594   4.672   5.251 -0.0146  0.0904 -0.6588
 4092SOL    HW123735   0.540   4.602   5.216  1.1678  0.6316 -3.5485
 4092SOL    HW223736   0.531   0.016   5.254  0.8943  0.8144  1.4042
 4093SOL     OW23737   4.673   0.610   4.353  0.1028  0.0008  0.3793
 4093SOL    HW123738   4.585   0.624   4.317  0.8173  2.8436 -0.3218
 4093SOL    HW223739   4.681   0.685   4.413  1.8365  0.5899 -0.5672
 4094SOL     OW23740   1.732   3.758   5.366 -0.0244 -0.2163 -0.1502
 4094SOL    HW123741   1.750   3.713   5.283 -0.1590 -1.1873  0.3516
 4094SOL    HW223742   1.693   3.837   5.329  0.8704 -0.1445 -0.9380
 4095SOL     OW23743   2.587   2.263   5.065 -0.0995 -0.3087  0.0986
 4095SOL    HW123744   2.587   2.225   4.977 -1.0712 -0.5108  0.1780
 4095SOL    HW223745   2.570   2.181   5.112 -0.9817 -0.0753  0.1984
 4096SOL     OW23746   3.421   0.854   3.440  0.0609 -0.1714 -0.2042
 4096SOL    HW123747   3.461   0.892   3.362 -3.4252  2.4095 -0.7147
 4096SOL    HW223748   3.367   0.787   3.398 -0.6883  0.5562 -0.3908
 4097SOL     OW23749   0.886   1.270   6.017  0.3076  0.0616  0.5766
 4097SOL    HW123750   0.852   1.252   6.105  2.1328 -0.7118  1.1354
 4097SOL    HW223751   0.978   1.288   6.034  0.3512  0.0650  0.3400
 4098SOL     OW23752   3.915   3.355   2.716  0.2653  0.3345  0.0102
 4098SOL    HW123753   3.831   3.361   2.669  1.2943  0.3384 -1.8515
 4098SOL    HW223754   3.933   3.262   2.704 -0.9069  0.1184 -0.1140
 4099SOL     OW23755   4.293   0.218   8.534  0.1280 -0.5563  0.0704
 4099SOL    HW123756   4.247   0.234   8.616 -0.8015  2.0921 -0.9721
 4099SOL    HW223757   4.253   0.294   8.492  2.6709  1.0193  0.5044
 4100SOL     OW23758   4.469   2.390   5.746 -0.3572  0.1240 -0.2569
 4100SOL    HW123759   4.475   2.378   5.841  0.8130 -3.2559 -0.7851
 4100SOL    HW223760   4.486   2.484   5.737  2.2341 -0.3054  0.0435
 4101SOL     OW23761   3.244   2.498   1.667 -0.5813 -0.1760  0.1692
 4101SOL    HW123762   3.312   2.564   1.683  1.4905 -1.3707 -3.6652
 4101SOL    HW223763   3.277   2.452   1.590 -1.2732 -0.8685  0.3005
 4102SOL     OW23764   3.019   2.019   7.164 -0.3840  0.0767  0.1556
 4102SOL    HW123765   3.075   1.947   7.195  0.8132  1.2704  0.7337
 4102SOL    HW223766   3.001   1.984   7.076  0.1158 -1.0604  0.4977
 4103SOL     OW23767   2.835   1.692   7.249 -0.0198 -0.2873 -0.0269
 4103SOL    HW123768   2.783   1.618   7.281 -0.3758  0.5525  1.3352
 4103SOL    HW223769   2.832   1.755   7.321 -1.3421 -0.4790  0.0855
 4104SOL     OW23770   2.378   0.231   1.974  0.0996  0.1163  0.2274
 4104SOL    HW123771   2.440   0.236   1.901  0.0313 -0.3621  0.1386
 4104SOL    HW223772   2.353   0.324   1.973 -1.2123 -0.2936 -2.3578
 4105SOL     OW23773   0.627   0.288   9.187  0.0180 -0.0683  0.5469
 4105SOL    HW123774   0.714   0.327   9.197 -0.3099  0.2978  2.0363
 4105SOL    HW223775   0.642   0.199   9.157  0.0946  0.4631 -0.9826
 4106SOL     OW23776   2.769   4.702   9.803  0.2002  0.4748 -0.2582
 4106SOL    HW123777   2.841   4.664   9.853 -0.0777 -0.9024 -0.8817
 4106SOL    HW223778   2.806   0.062   9.787  1.1387  0.3364  1.1593
 4107SOL     OW23779   1.478   2.700   0.484  0.2796 -0.4024 -0.3535
 4107SOL    HW123780   1.556   2.663   0.444  0.7563  0.7125 -0.4749
 4107SOL    HW223781   1.422   2.706   0.406  0.5428  1.9314 -0.3766
 4108SOL     OW23782   0.929   1.645   8.070  0.2876 -0.0080  0.2047
 4108SOL    HW123783   0.852   1.698   8.046 -1.2551 -0.9048  3.1066
 4108SOL    HW223784   0.995   1.677   8.009  0.6544 -0.4852  0.3540
 4109SOL     OW23785   2.594   3.096   6.875 -0.1589 -0.8866  0.0701
 4109SOL    HW123786   2.669   3.038   6.884  2.4397  2.3435 -0.5531
 4109SOL    HW223787   2.538   3.067   6.946  0.2847  0.3182  0.9153
 4110SOL     OW23788   2.290   3.287   2.355 -0.5052 -0.0261  0.0476
 4110SOL    HW123789   2.296   3.309   2.448  1.6066  0.4920 -0.2039
 4110SOL    HW223790   2.208   3.331   2.332  0.6859  1.9779 -0.3387
 4111SOL     OW23791   1.572   4.449   6.754 -0.2868  0.1862 -0.6878
 4111SOL    HW123792   1.576   4.410   6.842 -0.8411  0.8497 -0.3710
 4111SOL    HW223793   1.664   4.446   6.729  0.1383  2.4169  0.6664
 4112SOL     OW23794   1.031   3.555   1.170  0.4982 -0.2095 -0.6368
 4112SOL    HW123795   1.047   3.606   1.249  1.9173 -0.1731 -0.9534
 4112SOL    HW223796   0.940   3.577   1.149  1.4187  2.1571 -2.0503
 4113SOL     OW23797   3.963   1.762   5.931 -0.7222  0.3846  0.2348
 4113SOL    HW123798   3.955   1.759   6.027  0.1149  1.3637  0.3356
 4113SOL    HW223799   3.919   1.846   5.918 -0.1786  0.5431 -0.5259
 4114SOL     OW23800   1.707   3.531  12.609 -0.5987 -0.1362 -0.0520
 4114SOL    HW123801   1.693   3.462  12.545  1.7965  1.9235 -2.7786
 4114SOL    HW223802   1.714   3.484  12.692  3.1058  1.5013  0.5657
 4115SOL     OW23803   0.444   1.490   7.775 -0.0109  0.4963 -0.2981
 4115SOL    HW123804   0.384   1.458   7.708 -1.1819  0.6083  0.6958
 4115SOL    HW223805   0.385   1.534   7.836 -0.5006 -1.1778  0.4246
 4116SOL     OW23806   2.817   4.543   3.373  0.3348  0.5281  0.0140
 4116SOL    HW123807   2.815   4.595   3.293 -0.9811 -1.4023 -1.2355
 4116SOL    HW223808   2.761   4.467   3.356 -1.2992  1.5361  0.8905
 4117SOL     OW23809   3.012   2.766  11.490  0.0590  0.2710  0.2458
 4117SOL    HW123810   3.013   2.852  11.448 -1.2809 -0.7292 -1.8413
 4117SOL    HW223811   3.043   2.791  11.578  0.2695 -0.7058  0.4452
 4118SOL     OW23812   3.347   4.096   8.828  0.3439 -0.1556 -0.5360
 4118SOL    HW123813   3.434   4.128   8.801  0.6025 -1.6327 -1.4639
 4118SOL    HW223814   3.355   4.006   8.798 -0.1780  0.2301 -1.8434
 4119SOL     OW23815   0.491   3.127   2.356 -0.2585  0.2441  0.3649
 4119SOL    HW123816   0.546   3.193   2.397 -2.1509  1.4541  0.9550
 4119SOL    HW223817   0.479   3.161   2.268  0.6279 -0.7877 -0.1665
 4120SOL     OW23818   4.183   3.443  17.022  0.4884  0.2491  0.0336
 4120SOL    HW123819   4.131   3.487  17.089 -0.2850 -1.1474  0.3580
 4120SOL    HW223820   4.143   3.483  16.944 -1.2676 -1.5071  0.0212
 4121SOL     OW23821   4.267   4.173  17.628  0.1087 -0.0790 -0.1429
 4121SOL    HW123822   4.273   4.194   0.012  0.8446  2.1307 -0.6871
 4121SOL    HW223823   4.185   4.125  17.633  0.9446 -1.0713  3.6756
 4122SOL     OW23824   3.467   0.549   0.995  0.7999 -0.8260 -0.4890
 4122SOL    HW123825   3.400   0.570   0.930 -0.3830  0.3078  1.0989
 4122SOL    HW223826   3.503   0.635   1.012  1.0232 -1.1592  0.7495
 4123SOL     OW23827   2.117   0.471  17.525  0.3107 -0.5062 -0.4163
 4123SOL    HW123828   2.175   0.424  17.584  2.3617  0.9068 -1.2993
 4123SOL    HW223829   2.062   0.513  17.592  1.0703  0.3313 -0.3122
 4124SOL     OW23830   3.165   0.609   2.219  0.0994 -0.3333 -0.4965
 4124SOL    HW123831   3.113   0.532   2.245  0.8037 -1.0526 -1.2319
 4124SOL    HW223832   3.183   0.586   2.128  1.6441  0.4701 -0.3957
 4125SOL     OW23833   4.408   3.918   2.178 -0.2596 -0.3709  0.0518
 4125SOL    HW123834   4.440   3.852   2.117  1.0480  0.1239  0.2112
 4125SOL    HW223835   4.377   3.986   2.118  0.5974  1.2978  1.5044
 4126SOL     OW23836   0.132   3.994  16.434 -0.3579 -0.1603 -0.6373
 4126SOL    HW123837   0.049   4.016  16.391 -1.1597  0.8149  1.4044
 4126SOL    HW223838   0.122   3.913  16.483 -0.8798 -0.9488 -2.0583
 4127SOL     OW23839   3.626   2.677  15.777 -0.1029 -0.0248 -0.2073
 4127SOL    HW123840   3.538   2.652  15.750  1.1250 -2.1768 -2.1125
 4127SOL    HW223841   3.600   2.768  15.793  0.8685  0.1133  0.6390
 4128SOL     OW23842   2.673   0.349   3.587 -0.1889  0.2113 -0.2665
 4128SOL    HW123843   2.766   0.367   3.604 -0.5483  1.8575 -0.0834
 4128SOL    HW223844   2.676   0.341   3.491  2.2288 -2.0985 -0.0010
 4129SOL     OW23845   2.869   2.870   1.384 -0.0804  0.0583 -0.1756
 4129SOL    HW123846   2.944   2.816   1.410 -1.5444 -2.5267 -1.3237
 4129SOL    HW223847   2.798   2.817   1.419 -0.0096 -0.7907 -1.3057
 4130SOL     OW23848   1.233   3.023  14.094  0.8968  0.5243 -0.5128
 4130SOL    HW123849   1.161   2.961  14.083  1.8417 -0.0848 -3.3329
 4130SOL    HW223850   1.271   3.027  14.006  1.7703 -0.2480 -0.1685
 4131SOL     OW23851   3.208   0.327   9.451 -0.9066  0.5365 -0.5490
 4131SOL    HW123852   3.137   0.290   9.399 -1.1652  1.8602 -1.1409
 4131SOL    HW223853   3.191   0.280   9.533  1.0423 -1.1013 -1.0827
 4132SOL     OW23854   3.907   0.100   7.269 -0.3682  0.6535  0.1508
 4132SOL    HW123855   3.889   0.151   7.348  0.2500 -1.1690  1.4716
 4132SOL    HW223856   3.948   0.023   7.308 -0.4278  1.1461  1.2083
 4133SOL     OW23857   3.771   2.171  16.880  0.5580 -0.0196 -0.7721
 4133SOL    HW123858   3.712   2.148  16.808  1.1923  0.7235 -1.5350
 4133SOL    HW223859   3.715   2.163  16.957 -1.3605  3.2942 -1.8019
 4134SOL     OW23860   4.513   3.054   3.804 -0.2352 -0.1583 -0.8909
 4134SOL    HW123861   4.566   2.981   3.837  0.1640  0.7054  0.3708
 4134SOL    HW223862   4.487   3.029   3.715 -2.2219  1.0389 -0.6503
 4135SOL     OW23863   3.727   3.645   5.035  0.3735  0.2759  0.4157
 4135SOL    HW123864   3.644   3.618   4.997 -0.8188  1.6153  2.0553
 4135SOL    HW223865   3.767   3.558   5.033  1.1592  0.6393  0.4315
 4136SOL     OW23866   4.567   1.602   5.131  0.1943  0.3382 -0.0483
 4136SOL    HW123867   4.537   1.693   5.133 -1.3155 -0.1731  0.8012
 4136SOL    HW223868   4.660   1.612   5.151 -0.1671 -1.7632  2.6507
 4137SOL     OW23869   1.250   3.149  17.601 -0.3284 -0.8317 -0.3295
 4137SOL    HW123870   1.176   3.148  17.540 -0.8922 -0.3749  0.3449
 4137SOL    HW223871   1.247   3.234  17.646  0.7826  0.2887 -2.3604
 4138SOL     OW23872   0.940   3.167  12.985  0.0811 -0.4516  0.5582
 4138SOL    HW123873   0.923   3.096  12.924 -0.9961  1.1484 -1.0054
 4138SOL    HW223874   0.978   3.233  12.926 -1.2851  0.1577  0.3633
 4139SOL     OW23875   0.642   1.642  14.792 -0.4007  0.4959 -0.6518
 4139SOL    HW123876   0.650   1.737  14.784  0.0282  0.4007 -1.3844
 4139SOL    HW223877   0.736   1.624  14.800 -0.5160 -0.1411 -0.6941
 4140SOL     OW23878   1.139   3.406  13.537 -0.0129  0.4153  0.2022
 4140SOL    HW123879   1.149   3.437  13.447 -2.1051  0.2590 -0.0839
 4140SOL    HW223880   1.056   3.359  13.531 -0.7106  1.4523  1.7107
 4141SOL     OW23881   0.018   2.985   5.918 -0.1385  0.1029 -0.1123
 4141SOL    HW123882   0.106   2.974   5.953  0.0756 -1.6784 -1.2425
 4141SOL    HW223883   0.042   3.052   5.854  1.6476 -0.6987 -0.2865
 4142SOL     OW23884   0.921   1.451   3.124  0.0387 -0.3022  0.0148
 4142SOL    HW123885   0.846   1.447   3.065  0.2655  1.2929 -0.3865
 4142SOL    HW223886   0.912   1.533   3.172  0.6885 -0.4062  0.3226
 4143SOL     OW23887   0.134   4.530   4.769  0.0828  0.4373  0.9585
 4143SOL    HW123888   0.127   4.567   4.857  1.6394 -0.1601  1.3217
 4143SOL    HW223889   0.224   4.507   4.747  0.9292  1.3556  3.4722
 4144SOL     OW23890   2.187   4.156   5.656 -0.4801  0.7712 -0.0215
 4144SOL    HW123891   2.206   4.123   5.568  0.9213  0.2070  0.4908
 4144SOL    HW223892   2.260   4.212   5.681 -0.2671  0.1649  0.7187
 4145SOL     OW23893   3.026   3.185  10.322  0.0754  0.5170  0.0949
 4145SOL    HW123894   3.112   3.227  10.308 -0.0436  0.3818 -1.0268
 4145SOL    HW223895   3.049   3.100  10.286  1.6812  1.5443 -1.3063
 4146SOL     OW23896   4.380   2.266   5.519  0.3772 -0.2957 -0.3178
 4146SOL    HW123897   4.411   2.304   5.601  0.3236  0.4410 -0.6385
 4146SOL    HW223898   4.290   2.297   5.528  0.1342 -1.2952  0.8398
 4147SOL     OW23899   2.039   2.131   5.552  0.6318 -0.4349 -0.1039
 4147SOL    HW123900   1.974   2.061   5.545 -0.2477  0.2875  0.8869
 4147SOL    HW223901   2.040   2.177   5.468 -1.8452  0.8851  0.5819
 4148SOL     OW23902   3.458   3.750   7.280 -0.2882  0.5288  0.3055
 4148SOL    HW123903   3.465   3.656   7.297  0.7573  0.5374 -0.1151
 4148SOL    HW223904   3.363   3.757   7.268 -0.3680 -1.1610  0.0417
 4149SOL     OW23905   1.630   0.408  15.138 -0.4962 -0.1672  0.1785
 4149SOL    HW123906   1.599   0.392  15.049  3.4796  1.9400 -1.5996
 4149SOL    HW223907   1.680   0.489  15.131  1.1771 -0.8029  4.2889
 4150SOL     OW23908   3.435   0.206   8.361 -0.3010 -0.1923 -0.3170
 4150SOL    HW123909   3.416   0.216   8.454 -0.9456  3.1923 -0.8382
 4150SOL    HW223910   3.383   0.128   8.341 -1.8117  0.6978  0.2210
 4151SOL     OW23911   2.268   2.721  16.902  0.0908  0.1074 -0.0568
 4151SOL    HW123912   2.287   2.627  16.907  2.3185  0.5724  0.5267
 4151SOL    HW223913   2.298   2.747  16.989 -3.2078 -0.7065  1.3254
 4152SOL     OW23914   0.941   2.774  17.683  0.1409  0.0694 -0.1371
 4152SOL    HW123915   1.024   2.822  17.684 -0.3810  0.9474  0.9411
 4152SOL    HW223916   0.898   2.815   0.049  2.0608  3.2019 -0.7359
 4153SOL     OW23917   4.249   3.681  15.098 -0.7457  0.3883 -0.5109
 4153SOL    HW123918   4.159   3.704  15.073 -1.3694  0.4419  1.7743
 4153SOL    HW223919   4.247   3.587  15.115  2.1874  0.7278  1.6541
 4154SOL     OW23920   4.381   2.648   3.318 -0.2964 -0.0417 -0.3817
 4154SOL    HW123921   4.412   2.717   3.260  0.1090  1.2803  1.4254
 4154SOL    HW223922   4.466   2.612   3.344 -1.0425 -0.2309  1.8802
 4155SOL     OW23923   4.019   3.475   0.439  0.5336  0.0928 -0.2596
 4155SOL    HW123924   4.096   3.465   0.495  1.9729  1.4559 -1.9855
 4155SOL    HW223925   3.961   3.408   0.475 -0.5925  0.8842 -0.6033
 4156SOL     OW23926   2.777   4.408   8.202 -0.8021 -0.2427 -0.1715
 4156SOL    HW123927   2.719   4.332   8.213 -1.9011  0.2695 -2.3927
 4156SOL    HW223928   2.719   4.482   8.186  1.5194  1.3715 -1.1550
 4157SOL     OW23929   3.652   0.109  15.627 -0.4972 -0.0660  0.0570
 4157SOL    HW123930   3.628   0.092  15.718  0.7930  1.1859  0.6370
 4157SOL    HW223931   3.582   0.163  15.590 -0.4909 -0.3728 -0.3941
 4158SOL     OW23932   3.976   0.983   3.000  0.0544 -0.0722 -0.4514
 4158SOL    HW123933   4.069   1.003   3.006  0.1125 -0.3453 -0.4581
 4158SOL    HW223934   3.977   0.962   2.906 -1.5405 -0.3273 -0.4181
 4159SOL     OW23935   2.374   2.759  13.577  0.1007 -0.6743  0.0569
 4159SOL    HW123936   2.370   2.700  13.502 -0.7048  0.8341 -1.0903
 4159SOL    HW223937   2.438   2.720  13.637 -1.4626 -0.2663  2.0099
 4160SOL     OW23938   0.371   2.522   4.165  0.1058 -0.2294  0.3710
 4160SOL    HW123939   0.413   2.491   4.245 -0.0120  1.2078  1.0055
 4160SOL    HW223940   0.448   2.573   4.137  0.4692 -1.2771 -0.5053
 4161SOL     OW23941   0.120   1.131   1.966 -0.4300 -0.1557 -0.5806
 4161SOL    HW123942   0.025   1.117   1.967 -0.6440  1.1899 -1.5498
 4161SOL    HW223943   0.136   1.170   1.880 -0.0595  2.1149  0.5399
 4162SOL     OW23944   1.239   4.177   9.058 -0.0965  0.1697 -0.6853
 4162SOL    HW123945   1.191   4.238   9.003 -1.1351 -1.8140 -1.9823
 4162SOL    HW223946   1.169   4.138   9.111 -1.1085 -0.0538 -2.1899
 4163SOL     OW23947   0.162   2.747   9.464  0.0318  0.3753  0.0433
 4163SOL    HW123948   0.078   2.791   9.453 -0.7586 -0.9636  0.6887
 4163SOL    HW223949   0.169   2.779   9.554  0.6406  0.0256  0.1216
 4164SOL     OW23950   4.710   3.752  15.572 -0.5639 -0.2801 -0.5956
 4164SOL    HW123951   0.054   3.780  15.630 -0.3353 -0.4243 -0.8079
 4164SOL    HW223952   4.682   3.829  15.523  1.1463 -0.0290 -1.1477
 4165SOL     OW23953   1.443   0.121   2.644  0.5708 -0.4376 -0.2061
 4165SOL    HW123954   1.350   0.121   2.619  1.3095  0.0221 -2.9963
 4165SOL    HW223955   1.449   0.211   2.675  0.0076 -0.7886  0.9266
 4166SOL     OW23956   3.511   1.360   7.855  0.3125  0.3275  0.3769
 4166SOL    HW123957   3.542   1.445   7.885 -1.1912  1.3665 -1.0319
 4166SOL    HW223958   3.588   1.303   7.863 -0.3200 -0.5512  0.1675
 4167SOL     OW23959   4.189   2.248   7.405 -0.3808  0.1927  0.2827
 4167SOL    HW123960   4.196   2.276   7.314  0.7171 -1.6433 -0.1983
 4167SOL    HW223961   4.113   2.191   7.402  0.1224 -0.4266 -0.8785
 4168SOL     OW23962   0.481   1.900   7.830  0.4522  0.7705 -0.3025
 4168SOL    HW123963   0.536   1.851   7.769 -0.7181  1.8635 -2.2110
 4168SOL    HW223964   0.437   1.834   7.883  0.9507 -0.6323 -1.6442
 4169SOL     OW23965   1.370   4.013   5.965 -0.5049 -0.0573 -0.1815
 4169SOL    HW123966   1.290   4.044   5.922 -1.1827 -2.4911 -0.6818
 4169SOL    HW223967   1.431   4.060   5.908 -0.1318 -1.2859 -0.7882
 4170SOL     OW23968   2.413   2.327   4.544 -0.1152  0.1474 -0.3044
 4170SOL    HW123969   2.424   2.369   4.459 -0.1131 -1.1884 -0.9643
 4170SOL    HW223970   2.324   2.291   4.542 -0.7224  1.4811  3.5175
 4171SOL     OW23971   0.633   1.481   2.673 -0.4756  0.9331 -0.1933
 4171SOL    HW123972   0.563   1.415   2.675 -0.0508  0.4542 -1.0764
 4171SOL    HW223973   0.594   1.563   2.644 -0.6256  1.0629  0.3779
 4172SOL     OW23974   1.036   0.758   4.427 -0.1254  0.1717  0.1783
 4172SOL    HW123975   0.950   0.733   4.459  0.6600 -0.6200  1.6836
 4172SOL    HW223976   1.088   0.702   4.485  1.3548  1.7700  0.4010
 4173SOL     OW23977   0.594   1.040   4.649  0.5330 -0.1576 -0.1334
 4173SOL    HW123978   0.510   1.005   4.680  0.6311 -2.5248 -2.5780
 4173SOL    HW223979   0.569   1.071   4.563 -2.5709 -0.6877  0.5626
 4174SOL     OW23980   2.634   0.179   5.977 -0.0812  0.1810 -0.6734
 4174SOL    HW123981   2.594   0.104   5.933  0.9534  0.6854 -2.4613
 4174SOL    HW223982   2.722   0.142   5.980 -0.1822  0.0708  0.7404
 4175SOL     OW23983   1.607   4.188   8.250 -0.7615 -0.6354  0.0226
 4175SOL    HW123984   1.569   4.193   8.162  0.7709 -0.3050 -0.6228
 4175SOL    HW223985   1.636   4.098   8.238  0.3882 -0.3953  1.0752
 4176SOL     OW23986   1.588   3.473  16.272 -0.5626 -0.1603 -0.0259
 4176SOL    HW123987   1.664   3.519  16.310  0.7452 -1.4635 -1.0543
 4176SOL    HW223988   1.528   3.492  16.344  2.3714  0.0223  2.3950
 4177SOL     OW23989   0.711   0.802  17.450 -0.1859 -0.0465  0.2027
 4177SOL    HW123990   0.746   0.864  17.387 -3.8123  2.3960  0.6163
 4177SOL    HW223991   0.664   0.860  17.511  1.5368  1.2666  0.2616
 4178SOL     OW23992   4.620   2.631   6.174  0.3624 -0.3876 -0.1237
 4178SOL    HW123993   4.604   2.687   6.098 -0.2511 -0.6892 -0.2143
 4178SOL    HW223994   4.692   2.681   6.214  1.7779 -2.6328  0.1634
 4179SOL     OW23995   2.409   3.566   6.397  0.2518  0.2480  0.3231
 4179SOL    HW123996   2.441   3.478   6.380 -1.1836 -0.4800  1.4278
 4179SOL    HW223997   2.447   3.609   6.320  0.1873  0.0763  0.1942
 4180SOL     OW23998   4.628   0.918   6.305 -0.9548  0.1201 -0.4096
 4180SOL    HW123999   4.683   0.903   6.228 -2.5294 -0.3881 -1.4223
 4180SOL    HW224000   4.547   0.883   6.268 -0.5741 -1.3224  0.1284
 4181SOL     OW24001   0.720   0.244   9.875 -0.2575 -0.2575 -0.3726
 4181SOL    HW124002   0.783   0.302   9.918  1.5867  0.0732 -3.5245
 4181SOL    HW224003   0.690   0.194   9.951  2.0243  1.1644  1.4807
 4182SOL     OW24004   2.561   0.749   1.550  0.3123 -0.0531 -0.6236
 4182SOL    HW124005   2.514   0.833   1.557  1.2265  0.5528 -1.6816
 4182SOL    HW224006   2.649   0.771   1.518  0.0287 -1.0789 -2.1153
 4183SOL     OW24007   3.365   1.986   2.063  0.4454 -0.5558 -0.4135
 4183SOL    HW124008   3.274   1.961   2.081 -0.3143  1.3012 -1.6844
 4183SOL    HW224009   3.364   1.994   1.968 -3.0469 -0.7683 -0.4030
 4184SOL     OW24010   4.161   2.968   2.159 -0.1507 -0.3450 -0.1168
 4184SOL    HW124011   4.120   2.915   2.090 -1.3053  0.7930 -0.2887
 4184SOL    HW224012   4.200   3.040   2.109  0.9932 -0.5763  0.4421
 4185SOL     OW24013   2.889   4.140   2.239  0.7627 -0.8682  0.4216
 4185SOL    HW124014   2.910   4.046   2.238 -1.4192 -1.3595  1.4960
 4185SOL    HW224015   2.802   4.148   2.200 -0.3996 -0.0084  3.2010
 4186SOL     OW24016   4.188   3.208   9.808 -0.3011 -0.3499  0.3237
 4186SOL    HW124017   4.171   3.129   9.756  1.6298 -2.2208  2.5475
 4186SOL    HW224018   4.200   3.170   9.895 -0.9165 -1.1932  0.0407
 4187SOL     OW24019   2.472   3.412   7.189 -0.3939  1.0705 -0.0145
 4187SOL    HW124020   2.461   3.332   7.240 -2.3531  2.7213  2.1505
 4187SOL    HW224021   2.421   3.470   7.245 -1.5778 -0.9397  0.9737
 4188SOL     OW24022   4.031   2.261   8.103 -0.5304 -0.1632 -0.4076
 4188SOL    HW124023   3.972   2.187   8.086  0.9072 -1.3808 -0.1159
 4188SOL    HW224024   3.965   2.324   8.131 -0.8498  0.0985 -1.7325
 4189SOL     OW24025   0.679   4.160   0.854 -0.1309 -0.1919 -0.3417
 4189SOL    HW124026   0.646   4.227   0.793  1.3260  1.6777  0.8981
 4189SOL    HW224027   0.737   4.206   0.915 -1.5093  0.8554  0.1794
 4190SOL     OW24028   2.974   2.541   2.033 -0.5748 -0.6482  0.1352
 4190SOL    HW124029   3.037   2.472   2.014 -1.1662 -1.3018  0.5722
 4190SOL    HW224030   3.006   2.575   2.117  1.9023  2.5899 -2.1179
 4191SOL     OW24031   1.997   0.893   5.489  0.4033 -0.3958 -0.8037
 4191SOL    HW124032   2.051   0.872   5.413  2.6434  0.0975  0.6491
 4191SOL    HW224033   2.018   0.987   5.495  0.1758 -0.3417 -0.8646
 4192SOL     OW24034   1.356   3.045   1.513  0.0163 -0.2807  0.3527
 4192SOL    HW124035   1.311   3.099   1.447 -0.9404  2.0489  2.9203
 4192SOL    HW224036   1.417   2.996   1.458 -0.2858  1.0566 -1.1886
 4193SOL     OW24037   0.271   3.720   8.555  0.3008 -0.0767  0.2194
 4193SOL    HW124038   0.256   3.730   8.649 -0.4458 -2.2670  0.3371
 4193SOL    HW224039   0.249   3.628   8.546 -1.0889 -0.0003  2.6400
 4194SOL     OW24040   2.205   2.806  10.163 -0.2333 -0.1477  0.5754
 4194SOL    HW124041   2.239   2.891  10.189  0.4850 -0.5244  0.8720
 4194SOL    HW224042   2.114   2.831  10.146 -0.4010 -1.7838 -1.0254
 4195SOL     OW24043   4.523   1.789   1.166  0.1791 -0.1251  0.1486
 4195SOL    HW124044   4.552   1.807   1.256  2.5584 -1.9154 -0.2421
 4195SOL    HW224045   4.529   1.877   1.129 -2.3696  1.2533  3.0092
 4196SOL     OW24046   0.734   3.912   4.635  0.6554  0.4042  0.2045
 4196SOL    HW124047   0.689   3.961   4.704  0.6628  0.5534  0.1030
 4196SOL    HW224048   0.740   3.979   4.567  1.3172 -0.8802 -1.0025
 4197SOL     OW24049   3.189   1.665   9.138  0.1402 -0.2133 -0.2559
 4197SOL    HW124050   3.178   1.623   9.052  0.4055 -0.9600  0.0808
 4197SOL    HW224051   3.281   1.690   9.133  0.2000 -0.0082  1.8679
 4198SOL     OW24052   3.968   1.594  16.570  0.6973  0.0006 -0.1316
 4198SOL    HW124053   4.027   1.664  16.543  1.6862 -1.6848 -2.3520
 4198SOL    HW224054   3.962   1.541  16.491  2.2172  2.2273 -1.7252
 4199SOL     OW24055   3.708   2.372  12.469 -0.5598 -0.1422 -0.0083
 4199SOL    HW124056   3.768   2.339  12.402  0.4898 -1.0139  1.3461
 4199SOL    HW224057   3.673   2.291  12.507  1.5593 -1.6347 -1.2974
 4200SOL     OW24058   2.963   2.609  14.032 -0.5181 -0.4875 -0.3893
 4200SOL    HW124059   2.927   2.525  14.004 -1.9064  0.3971 -1.2356
 4200SOL    HW224060   2.937   2.674  13.967  1.0741  0.5405 -0.0022
 4201SOL     OW24061   0.386   3.027   3.463 -0.5848 -0.0414 -0.3561
 4201SOL    HW124062   0.303   3.011   3.508  0.6908 -1.1135  1.5902
 4201SOL    HW224063   0.418   2.943   3.433 -3.2319 -1.1762 -0.0614
 4202SOL     OW24064   3.353   4.686   6.644  0.0426  0.1257 -0.3545
 4202SOL    HW124065   3.341   4.659   6.553  0.8655  2.4397 -1.1503
 4202SOL    HW224066   3.307   0.043   6.642 -0.9618 -0.4713 -2.3615
 4203SOL     OW24067   1.683   1.954  10.228  0.0706  0.1297  0.5618
 4203SOL    HW124068   1.772   1.983  10.210 -0.0205 -0.0229 -0.1011
 4203SOL    HW224069   1.676   1.861  10.208 -2.8638  0.3020  0.6867
 4204SOL     OW24070   4.105   0.457   4.560  0.2287 -0.3574  0.2276
 4204SOL    HW124071   4.049   0.523   4.601  0.2558  0.2552 -0.7140
 4204SOL    HW224072   4.038   0.396   4.530 -0.0253 -1.5123  3.1273
 4205SOL     OW24073   3.121   4.524  13.985 -0.9374  0.1295 -0.6145
 4205SOL    HW124074   3.031   4.530  13.953 -1.7284  1.4977  1.9224
 4205SOL    HW224075   3.091   4.509  14.074 -2.2016 -2.5298 -1.4637
 4206SOL     OW24076   3.720   0.253  10.056  1.1686  0.3014 -0.0398
 4206SOL    HW124077   3.636   0.229  10.016  1.8717 -1.7941 -0.2718
 4206SOL    HW224078   3.777   0.181  10.030 -1.5389 -2.3541  1.2854
 4207SOL     OW24079   0.299   1.989   8.116  0.4019 -0.3014  0.3295
 4207SOL    HW124080   0.356   2.054   8.156 -1.7322  1.0973  1.0901
 4207SOL    HW224081   0.360   1.929   8.073  2.2001  1.2138  0.7841
 4208SOL     OW24082   4.009   1.316   3.721  0.0605 -0.4367  0.4016
 4208SOL    HW124083   4.013   1.221   3.709  1.2287 -0.0940 -2.1303
 4208SOL    HW224084   4.085   1.335   3.665 -0.2442  2.3327  0.9513
 4209SOL     OW24085   2.698   0.186   3.161 -0.1270 -0.0706 -0.0520
 4209SOL    HW124086   2.716   0.268   3.205 -0.6230 -0.2400  0.4594
 4209SOL    HW224087   2.612   0.196   3.120  0.4591 -2.0220 -1.7889
 4210SOL     OW24088   3.104   0.218  11.179 -0.6809  0.0987  0.0121
 4210SOL    HW124089   3.047   0.142  11.172  0.5621 -1.0382  2.0955
 4210SOL    HW224090   3.188   0.171  11.182 -0.9365 -0.5218 -2.4617
 4211SOL     OW24091   1.281   2.287   4.439 -0.5595  0.3917  0.2483
 4211SOL    HW124092   1.341   2.331   4.379 -1.5232  1.6995  0.2605
 4211SOL    HW224093   1.258   2.358   4.498 -4.1174  0.3833 -1.1815
 4212SOL     OW24094   0.084   3.550  11.388 -0.1249  0.2521 -0.1099
 4212SOL    HW124095   0.103   3.526  11.478 -0.2921  0.9103  0.1050
 4212SOL    HW224096   4.720   3.581  11.390  0.4115  1.6428  2.7946
 4213SOL     OW24097   3.042   0.569   4.178  0.4546  0.0349  0.6188
 4213SOL    HW124098   3.077   0.657   4.195  1.1570 -0.2043  0.3995
 4213SOL    HW224099   3.102   0.513   4.229 -1.0785 -1.7016  0.4893
 4214SOL     OW24100   1.604   3.920   4.355  0.1161 -0.6575 -0.1731
 4214SOL    HW124101   1.523   3.869   4.355  0.0306 -0.5444 -1.8537
 4214SOL    HW224102   1.588   3.969   4.274 -0.3122 -0.0228  0.2924
 4215SOL     OW24103   4.423   3.116   4.047  0.2888 -0.4203  0.2138
 4215SOL    HW124104   4.421   3.212   4.053 -2.0482 -0.4063 -0.6043
 4215SOL    HW224105   4.473   3.091   3.969 -2.7503 -1.4496 -1.4069
 4216SOL     OW24106   2.716   1.856   3.973 -0.0259  0.1525  0.1982
 4216SOL    HW124107   2.639   1.800   3.968 -0.1709  0.4152 -0.4537
 4216SOL    HW224108   2.674   1.929   4.019  0.8801 -0.4810  2.0556
 4217SOL     OW24109   3.241   0.607   3.268 -0.3979  0.0923 -0.1501
 4217SOL    HW124110   3.157   0.589   3.310 -1.1766 -0.5435 -1.9474
 4217SOL    HW224111   3.217   0.618   3.176  1.4409  0.7869 -0.5529
 4218SOL     OW24112   1.939   4.537  11.011 -0.3358  0.3486  0.0896
 4218SOL    HW124113   2.006   4.591  11.055  0.1373 -0.2204  0.0658
 4218SOL    HW224114   1.891   4.611  10.973 -0.5260  0.4993  0.6258
 4219SOL     OW24115   1.101   2.049   8.582 -0.1797  0.4449  0.1000
 4219SOL    HW124116   1.013   2.071   8.551  0.0707  0.4350 -0.6288
 4219SOL    HW224117   1.125   2.131   8.624  1.1297  0.7417 -1.2252
 4220SOL     OW24118   4.501   2.194  13.810 -0.3532 -0.7001 -0.3466
 4220SOL    HW124119   4.536   2.155  13.890 -0.5407  0.4545  0.2959
 4220SOL    HW224120   4.424   2.140  13.792 -0.6111 -0.0350 -1.2057
 4221SOL     OW24121   3.905   3.326   5.295  0.3379  0.0674 -0.4658
 4221SOL    HW124122   3.875   3.405   5.340  2.0140  0.6730 -0.4082
 4221SOL    HW224123   3.884   3.351   5.205 -2.0404  0.1062  0.0928
 4222SOL     OW24124   1.584   1.156  11.052  0.5681  0.3854  0.2595
 4222SOL    HW124125   1.597   1.246  11.082  0.7519  0.4078  0.1109
 4222SOL    HW224126   1.602   1.107  11.132  1.1634  1.2747  0.6737
 4223SOL     OW24127   3.546   0.748   0.148  0.3146  0.1185  0.6264
 4223SOL    HW124128   3.642   0.751   0.151  0.3099 -1.3611  2.6234
 4223SOL    HW224129   3.515   0.824   0.100  2.1338  0.6998  0.3586
 4224SOL     OW24130   0.511   1.324   4.131  0.1772  0.7508 -0.0985
 4224SOL    HW124131   0.587   1.349   4.183  0.4358 -0.0139 -0.0992
 4224SOL    HW224132   0.487   1.411   4.099 -2.3762  0.8185  2.0921
 4225SOL     OW24133   0.346   4.043   1.546  0.0567 -0.2393 -0.3783
 4225SOL    HW124134   0.253   4.059   1.566  0.0645 -0.6417 -0.0356
 4225SOL    HW224135   0.339   3.974   1.481 -0.2143  0.0094 -0.6124
 4226SOL     OW24136   3.621   2.882   5.679 -0.0157  0.2962 -0.0092
 4226SOL    HW124137   3.603   2.971   5.646  0.7937 -0.2651 -1.9951
 4226SOL    HW224138   3.534   2.850   5.701 -0.4110  2.6847  1.9078
 4227SOL     OW24139   3.115   0.423   8.340 -0.1352 -0.3099 -0.0210
 4227SOL    HW124140   3.199   0.443   8.383 -0.3940 -0.2969  0.4822
 4227SOL    HW224141   3.122   0.477   8.261 -2.9226  1.9125  1.2693
 4228SOL     OW24142   4.672   1.615  16.063  0.3282 -0.0229  0.3201
 4228SOL    HW124143   4.723   1.656  16.133 -0.3112  0.4789  0.4921
 4228SOL    HW224144   4.650   1.530  16.100 -0.6783  0.1584  0.1244
 4229SOL     OW24145   3.543   1.740   2.722  0.2279 -0.5608 -0.5484
 4229SOL    HW124146   3.510   1.829   2.706 -0.2377 -1.0971 -2.5332
 4229SOL    HW224147   3.630   1.740   2.682 -0.4492 -2.4582 -1.9894
 4230SOL     OW24148   1.415   3.629   0.085  0.9085 -0.4210 -0.2896
 4230SOL    HW124149   1.396   3.615   0.177 -0.8872  1.1096 -0.4291
 4230SOL    HW224150   1.373   3.714   0.074 -0.3241 -0.8211  1.4929
 4231SOL     OW24151   2.692   1.844   3.181  0.1690 -0.4179  0.2536
 4231SOL    HW124152   2.642   1.866   3.260  0.0884 -0.5889  0.2498
 4231SOL    HW224153   2.634   1.868   3.110  1.8759  2.4742 -0.1699
 4232SOL     OW24154   0.472   1.052   7.492 -0.3137  0.0280 -0.1794
 4232SOL    HW124155   0.523   1.124   7.527  0.3880 -1.8959  2.7655
 4232SOL    HW224156   0.418   1.020   7.564 -0.4281  0.8670  0.1084
 4233SOL     OW24157   1.871   3.024   9.225 -0.0507  0.3302  0.1078
 4233SOL    HW124158   1.789   3.058   9.260 -0.3299 -2.4385  2.1028
 4233SOL    HW224159   1.920   3.004   9.305 -0.3224  0.2812  0.2625
 4234SOL     OW24160   3.055   1.673   8.407  0.4990 -0.7017 -0.1242
 4234SOL    HW124161   2.990   1.652   8.339  1.0874 -0.0832 -0.8819
 4234SOL    HW224162   3.130   1.676   8.348  0.6629 -0.7806  0.0807
 4235SOL     OW24163   3.848   0.462   7.763 -0.2314  0.0069 -0.0569
 4235SOL    HW124164   3.801   0.511   7.831  0.3822 -0.0884  0.4348
 4235SOL    HW224165   3.856   0.373   7.796 -2.6067 -0.1558  0.1072
 4236SOL     OW24166   1.963   4.002   9.182  0.0255 -0.4951  0.5225
 4236SOL    HW124167   1.999   4.037   9.263 -2.1371 -1.5605  1.9604
 4236SOL    HW224168   1.994   3.911   9.182  1.1920 -0.0894 -1.6917
 4237SOL     OW24169   2.855   0.191  10.019 -0.0682 -0.2698  0.2535
 4237SOL    HW124170   2.878   0.100   9.998  1.6586  0.0272  0.8603
 4237SOL    HW224171   2.790   0.183  10.089  0.1674 -0.6789  0.4275
 4238SOL     OW24172   1.411   0.689  14.423 -0.4763  0.3722  0.1937
 4238SOL    HW124173   1.418   0.783  14.408 -1.8609  0.4148 -0.1447
 4238SOL    HW224174   1.372   0.688  14.510  0.8052 -0.7129  0.7518
 4239SOL     OW24175   0.802   2.425   2.832  0.2188  0.0248 -0.1547
 4239SOL    HW124176   0.770   2.471   2.910  0.1980  0.0139 -0.1569
 4239SOL    HW224177   0.744   2.454   2.762 -0.6519  0.9255  0.9346
 4240SOL     OW24178   4.011   4.426  12.883  0.0046  0.3008 -0.4774
 4240SOL    HW124179   3.964   4.486  12.826 -1.1519 -1.1175 -1.0154
 4240SOL    HW224180   4.075   4.389  12.822  0.2532 -1.2723  0.7266
 4241SOL     OW24181   3.535   0.827   7.542  0.3825 -0.1721 -0.3343
 4241SOL    HW124182   3.578   0.912   7.544  0.6348 -0.2921 -0.6842
 4241SOL    HW224183   3.457   0.840   7.595 -0.7490 -1.8505 -1.5919
 4242SOL     OW24184   3.414   3.449  16.843 -0.1800 -0.0166 -0.6124
 4242SOL    HW124185   3.435   3.462  16.936 -0.7474 -0.4926 -0.4143
 4242SOL    HW224186   3.447   3.361  16.823  2.4880  1.2058 -1.5082
 4243SOL     OW24187   1.772   4.633   8.557 -0.2828 -0.9325 -0.1424
 4243SOL    HW124188   1.790   4.570   8.626 -0.3349 -0.1671  0.5621
 4243SOL    HW224189   1.682   4.617   8.527 -0.7555 -0.5438  1.0678
 4244SOL     OW24190   0.156   2.477   6.129 -0.0944 -0.3450 -0.1849
 4244SOL    HW124191   0.226   2.412   6.129  1.1998  1.0543 -2.4548
 4244SOL    HW224192   0.080   2.431   6.164 -1.0045 -0.4721 -2.3591
 4245SOL     OW24193   3.334   1.597   7.715 -0.3958 -0.2828  0.0743
 4245SOL    HW124194   3.244   1.564   7.704 -0.6137  0.7596 -1.1674
 4245SOL    HW224195   3.332   1.631   7.805 -0.7596  1.1514 -0.4867
 4246SOL     OW24196   0.195   4.019   6.182  0.1826  0.6545  0.2292
 4246SOL    HW124197   0.290   4.016   6.179  0.0759 -2.3012 -0.6003
 4246SOL    HW224198   0.175   4.026   6.276  1.0602 -1.1704  0.5431
 4247SOL     OW24199   4.153   4.159  15.538 -0.4612  0.9668  0.3556
 4247SOL    HW124200   4.102   4.232  15.505 -0.3672  0.9826  0.2462
 4247SOL    HW224201   4.088   4.089  15.524  1.1307 -0.2385 -1.0241
 4248SOL     OW24202   3.957   0.386   8.754 -0.8100  0.0820  0.0660
 4248SOL    HW124203   3.899   0.416   8.824 -0.4486  0.7693  0.0723
 4248SOL    HW224204   3.931   0.297   8.733 -0.7476 -0.2000  1.2031
 4249SOL     OW24205   2.927   3.269   2.601  0.0102 -0.5068  0.4349
 4249SOL    HW124206   2.878   3.273   2.684  1.7037  3.1882  1.2818
 4249SOL    HW224207   2.996   3.335   2.608 -1.1014  0.6382  0.6093
 4250SOL     OW24208   4.566   4.434   0.232  0.1528  0.2030 -0.3648
 4250SOL    HW124209   4.484   4.412   0.277  1.6428  0.7391  2.6032
 4250SOL    HW224210   4.539   4.402   0.146 -1.3829 -0.0210  0.1916
 4251SOL     OW24211   4.145   3.519   9.761 -0.7398 -0.3170 -0.4451
 4251SOL    HW124212   4.165   3.430   9.791 -0.8261 -0.0662  0.3746
 4251SOL    HW224213   4.074   3.510   9.698  1.4083 -1.6648 -2.6722
 4252SOL     OW24214   1.795   3.939  14.260 -0.0742 -0.1799 -0.1442
 4252SOL    HW124215   1.844   3.912  14.337 -1.0127  2.2157  1.2832
 4252SOL    HW224216   1.707   3.907  14.280 -0.8308  1.4735 -0.8740
 4253SOL     OW24217   0.540   3.616   5.775  0.4878 -0.0961  0.3567
 4253SOL    HW124218   0.538   3.636   5.681  0.6521 -1.2517  0.1141
 4253SOL    HW224219   0.474   3.678   5.804  2.3512  2.2942 -0.4418
 4254SOL     OW24220   4.108   4.347  11.609  0.0883  0.0130 -0.2608
 4254SOL    HW124221   4.118   4.372  11.701 -1.4253  0.2202 -0.1606
 4254SOL    HW224222   4.185   4.383  11.565  0.6271 -1.1913 -0.2916
 4255SOL     OW24223   4.612   1.377  16.155 -0.4027 -0.3589 -0.0670
 4255SOL    HW124224   4.635   1.290  16.189  1.4422  0.1992  0.1251
 4255SOL    HW224225   4.555   1.354  16.081  0.8837  0.7111 -1.3955
 4256SOL     OW24226   2.598   2.681   9.532 -0.1626 -0.3391 -0.1099
 4256SOL    HW124227   2.641   2.759   9.567  0.1362 -0.6752  0.2694
 4256SOL    HW224228   2.590   2.705   9.440  1.1796 -1.3135 -0.4783
 4257SOL     OW24229   4.565   0.571   8.201 -0.5987  0.6114 -0.0925
 4257SOL    HW124230   4.561   0.477   8.185 -0.4170  1.1783 -3.5758
 4257SOL    HW224231   4.572   0.612   8.115  0.0497  1.2449  0.2681
 4258SOL     OW24232   0.532   0.283   4.390 -0.2971  0.2194  0.0351
 4258SOL    HW124233   0.443   0.264   4.420  0.6719  0.3801  2.9952
 4258SOL    HW224234   0.576   0.228   4.455  0.8918 -0.2809 -1.1860
 4259SOL     OW24235   0.016   0.701  15.093 -0.2276  0.5203  0.2341
 4259SOL    HW124236   4.704   0.675  15.010  0.5221  0.8715 -0.2230
 4259SOL    HW224237   4.668   0.696  15.152 -1.0559 -1.0638 -0.9659
 4260SOL     OW24238   3.365   4.224   7.208  0.5223 -0.2971  0.5370
 4260SOL    HW124239   3.313   4.289   7.255 -0.0395  1.1131 -2.0845
 4260SOL    HW224240   3.317   4.145   7.234 -0.5023  0.0848 -0.2163
 4261SOL     OW24241   0.516   2.400   2.749  0.7813 -0.0721 -0.5050
 4261SOL    HW124242   0.531   2.492   2.727 -0.6780  0.6235  1.3994
 4261SOL    HW224243   0.428   2.384   2.714  0.8636 -1.9671  0.1810
 4262SOL     OW24244   4.520   1.807   4.647  0.1432 -0.6441  0.4488
 4262SOL    HW124245   4.592   1.869   4.634  0.3151 -0.6595  1.3440
 4262SOL    HW224246   4.463   1.851   4.710 -0.6709  0.7695 -1.2827
 4263SOL     OW24247   0.829   1.849   5.666 -0.3507  0.1980  0.2350
 4263SOL    HW124248   0.829   1.831   5.572 -1.6959 -2.7956  0.8032
 4263SOL    HW224249   0.733   1.855   5.673 -0.5296  1.3817 -3.0146
 4264SOL     OW24250   3.542   1.382   6.391  0.1481 -0.0069  0.1719
 4264SOL    HW124251   3.523   1.316   6.458 -0.6211 -0.5484 -0.5798
 4264SOL    HW224252   3.483   1.453   6.416 -0.0280 -0.0100 -0.2300
 4265SOL     OW24253   1.362   4.409   3.415  0.2078  0.0197  0.4139
 4265SOL    HW124254   1.297   4.339   3.401  0.6039 -0.5164  1.2709
 4265SOL    HW224255   1.312   4.459   3.479 -0.3628 -1.1949  0.9138
 4266SOL     OW24256   0.678   4.156   5.707  0.1231 -0.4042  0.1722
 4266SOL    HW124257   0.750   4.167   5.769  0.1668  0.5989 -0.0539
 4266SOL    HW224258   0.604   4.184   5.761 -1.1208 -0.4050 -1.5337
 4267SOL     OW24259   4.098   1.668  15.834  0.0612  0.2121 -0.1040
 4267SOL    HW124260   4.177   1.689  15.785 -0.4467  0.9681 -0.5908
 4267SOL    HW224261   4.031   1.720  15.790 -1.3006 -3.5346 -2.4226
 4268SOL     OW24262   1.903   2.727   5.629  0.7887 -0.2416  0.3827
 4268SOL    HW124263   1.899   2.632   5.623  0.9618 -0.2725  0.7170
 4268SOL    HW224264   1.915   2.757   5.539  1.4056 -0.0932  0.5126
 4269SOL     OW24265   0.572   0.653  16.098 -0.2758  0.6910 -0.1379
 4269SOL    HW124266   0.600   0.643  16.007 -1.6187 -0.1377 -0.4517
 4269SOL    HW224267   0.604   0.572  16.139  0.0940  0.9884  0.1633
 4270SOL     OW24268   2.079   0.613   2.513 -0.2632 -0.2356  0.1436
 4270SOL    HW124269   2.035   0.608   2.428  0.0147  4.1942 -0.2576
 4270SOL    HW224270   2.145   0.680   2.492 -0.1563 -0.6187 -0.7618
 4271SOL     OW24271   4.344   4.294   3.246 -0.1408 -0.5830 -0.6393
 4271SOL    HW124272   4.290   4.215   3.252  2.2877 -2.1641  0.4515
 4271SOL    HW224273   4.274   4.353   3.219  1.7547  2.5717  1.3464
 4272SOL     OW24274   1.127   1.708   5.317  0.1175 -0.2279  0.0691
 4272SOL    HW124275   1.064   1.724   5.247  0.3639 -0.0368 -0.1049
 4272SOL    HW224276   1.118   1.795   5.355 -0.9072 -0.1815 -0.2695
 4273SOL     OW24277   1.833   2.193   7.210 -0.1373  0.1575 -0.1529
 4273SOL    HW124278   1.911   2.186   7.155  0.1353  0.3415  0.2073
 4273SOL    HW224279   1.843   2.287   7.228  0.2264  0.2455 -0.8133
 4274SOL     OW24280   2.441   2.193   3.479 -0.3518 -0.1464  0.8588
 4274SOL    HW124281   2.375   2.212   3.413 -0.5252 -0.9490  0.8038
 4274SOL    HW224282   2.379   2.179   3.551 -3.4914 -1.5768 -2.1626
 4275SOL     OW24283   2.803   1.233   7.355 -0.0655  0.0572  0.1052
 4275SOL    HW124284   2.842   1.290   7.421 -1.1180  0.4749  0.3772
 4275SOL    HW224285   2.803   1.284   7.274  2.0225  1.5279  1.0156
 4276SOL     OW24286   4.442   0.726   7.537 -0.3895  0.8773 -0.3455
 4276SOL    HW124287   4.353   0.745   7.567 -0.7473 -2.8459  1.0664
 4276SOL    HW224288   4.417   0.658   7.475  1.7879  1.1876 -1.5369
 4277SOL     OW24289   0.230   4.531   5.499  1.1362 -0.7204 -0.4788
 4277SOL    HW124290   0.223   4.521   5.404 -1.7663 -1.1678 -0.2214
 4277SOL    HW224291   0.138   4.521   5.521  0.9096  0.2035 -0.9805
 4278SOL     OW24292   2.143   2.107   9.411  0.0114 -0.3732  0.2870
 4278SOL    HW124293   2.153   2.201   9.424 -0.2704 -0.2353 -0.4648
 4278SOL    HW224294   2.054   2.092   9.445  0.4622  1.4879  2.2748
 4279SOL     OW24295   1.454   3.517   2.779 -0.7040  0.0184 -0.1485
 4279SOL    HW124296   1.383   3.522   2.844  0.2468  1.0693  0.8045
 4279SOL    HW224297   1.522   3.578   2.807 -0.1892 -0.9336  0.6681
 4280SOL     OW24298   0.705   3.061   7.858  0.3100  0.1132  0.3345
 4280SOL    HW124299   0.616   3.036   7.833  0.1918  0.6318  0.2457
 4280SOL    HW224300   0.700   3.156   7.860  1.9123  0.1443  2.1999
 4281SOL     OW24301   2.649   0.898  13.763  0.0592 -0.1102  0.2425
 4281SOL    HW124302   2.642   0.963  13.694 -0.3450 -0.7060 -0.2826
 4281SOL    HW224303   2.632   0.814  13.719  0.3300  0.9353 -1.8471
 4282SOL     OW24304   0.904   2.275   8.562 -0.4879  0.2975 -0.2185
 4282SOL    HW124305   0.860   2.192   8.548 -1.8970  0.7654  1.4252
 4282SOL    HW224306   0.867   2.318   8.485  1.5964 -1.2416 -2.0789
 4283SOL     OW24307   2.545   0.802  15.443 -0.2301 -0.1572 -0.1530
 4283SOL    HW124308   2.503   0.745  15.380 -1.8830 -0.5057  1.2495
 4283SOL    HW224309   2.635   0.771  15.450 -0.0301  0.3194 -0.6507
 4284SOL     OW24310   1.704   4.328   0.376  0.0758  0.9762 -0.1482
 4284SOL    HW124311   1.714   4.368   0.289  1.6096 -0.8180 -0.8041
 4284SOL    HW224312   1.684   4.401   0.434 -1.7131  0.6834 -0.3684
 4285SOL     OW24313   3.490   4.579   9.046 -0.0977  0.1289  0.4236
 4285SOL    HW124314   3.467   4.584   9.138  2.8207 -1.5886  1.2382
 4285SOL    HW224315   3.558   4.513   9.036  0.6057  1.0364 -0.8015
 4286SOL     OW24316   0.617   3.013   4.353  0.2594 -0.2671  0.1018
 4286SOL    HW124317   0.556   3.074   4.395  0.1258 -0.1725 -0.2291
 4286SOL    HW224318   0.576   3.009   4.267  0.7484  1.0713 -0.1921
 4287SOL     OW24319   2.848   0.049   2.878 -0.0574 -0.3546  0.3773
 4287SOL    HW124320   2.830   0.141   2.859  2.2247  0.8657  4.1047
 4287SOL    HW224321   2.891   0.040   2.793 -0.4835  0.0299  0.1242
 4288SOL     OW24322   4.133   4.438  10.820  0.3970  0.5553  0.5101
 4288SOL    HW124323   4.201   4.422  10.755  2.1430  1.3011  2.1667
 4288SOL    HW224324   4.067   4.370  10.803  1.5995 -0.4413 -0.1675
 4289SOL     OW24325   4.506   2.450   1.449  0.2785 -0.0688  0.1011
 4289SOL    HW124326   4.567   2.506   1.498  0.2448  2.6260 -2.9382
 4289SOL    HW224327   4.521   2.379   1.512 -1.0088 -0.9653 -0.5976
 4290SOL     OW24328   2.893   1.858   3.750  0.1130 -0.6457  0.6085
 4290SOL    HW124329   2.886   1.779   3.697  2.6734 -1.4213  1.4110
 4290SOL    HW224330   2.829   1.852   3.820 -0.6471  1.1453  0.0655
 4291SOL     OW24331   3.179   0.947   2.943  0.2747 -0.2735 -0.5588
 4291SOL    HW124332   3.087   0.925   2.957  0.5753 -0.2700  1.4249
 4291SOL    HW224333   3.186   0.975   2.851  1.4757  0.6986 -0.1832
 4292SOL     OW24334   0.291   1.800   1.625 -0.4055 -0.3182  0.3942
 4292SOL    HW124335   0.266   1.785   1.534  1.3486  2.9122 -0.6368
 4292SOL    HW224336   0.263   1.888   1.651 -0.2241 -0.6713  1.7919
 4293SOL     OW24337   0.285   1.972  14.335 -0.0711  0.5119 -0.4714
 4293SOL    HW124338   0.351   1.903  14.327 -1.8733 -1.2127 -0.3250
 4293SOL    HW224339   0.287   1.990  14.429  0.6163 -1.9586 -0.0170
 4294SOL     OW24340   4.305   3.042  15.006  0.3987 -0.3954  0.8761
 4294SOL    HW124341   4.351   2.972  14.960 -1.2645 -1.6425  1.1202
 4294SOL    HW224342   4.244   3.077  14.941 -0.1495 -1.4309  0.8414
 4295SOL     OW24343   2.122   2.316   9.790 -0.5357  0.3281 -0.8389
 4295SOL    HW124344   2.156   2.233   9.825  1.2700  1.8205  0.9469
 4295SOL    HW224345   2.045   2.281   9.747 -0.0058 -2.5877  0.5623
 4296SOL     OW24346   2.139   1.982   8.775  0.1180 -0.1449 -0.3073
 4296SOL    HW124347   2.101   2.003   8.690 -1.5542 -1.6174  0.0830
 4296SOL    HW224348   2.115   1.891   8.789  0.2776 -0.0300  0.7314
 4297SOL     OW24349   1.382   1.756   5.201  0.6013  0.2368 -0.2447
 4297SOL    HW124350   1.396   1.760   5.107  1.6105  2.5690  0.0067
 4297SOL    HW224351   1.292   1.722   5.211  0.8304 -0.1347  0.5606
 4298SOL     OW24352   1.984   2.532   6.918  0.1329 -0.3085  0.3983
 4298SOL    HW124353   2.069   2.518   6.961  1.0346 -0.2875 -1.3494
 4298SOL    HW224354   1.963   2.440   6.905 -0.3366 -0.0940 -0.3161
 4299SOL     OW24355   0.714   3.578   2.253 -0.5368 -0.6131 -0.5879
 4299SOL    HW124356   0.621   3.557   2.264 -1.2278  2.2376 -1.1023
 4299SOL    HW224357   0.748   3.541   2.334  2.6201 -0.6377 -1.9335
 4300SOL     OW24358   0.895   3.828   5.634 -0.4808  0.0452 -0.2365
 4300SOL    HW124359   0.875   3.740   5.603 -0.1522 -0.4866  1.0573
 4300SOL    HW224360   0.808   3.867   5.642 -1.0057 -1.5559  1.7664
 4301SOL     OW24361   3.372   2.623   6.912  0.4263  0.5261  0.1326
 4301SOL    HW124362   3.438   2.593   6.974  1.8780  1.4742 -0.9671
 4301SOL    HW224363   3.304   2.555   6.909  1.2061 -0.4187  4.3493
 4302SOL     OW24364   2.831   1.628   5.463 -0.7562 -0.3806  0.4293
 4302SOL    HW124365   2.751   1.635   5.409 -0.8792 -2.2992  0.3620
 4302SOL    HW224366   2.892   1.667   5.400  2.0908 -1.4807  2.5286
 4303SOL     OW24367   1.976   3.439   3.047 -0.2430  0.1258  0.4066
 4303SOL    HW124368   1.975   3.353   3.004  0.8371 -0.1814  0.9631
 4303SOL    HW224369   1.935   3.494   2.981  2.6555  1.3755 -0.3533
 4304SOL     OW24370   1.949   0.171   9.759  0.6062 -0.3219 -0.2248
 4304SOL    HW124371   1.898   0.133   9.830  0.0229 -0.0038 -0.4687
 4304SOL    HW224372   1.941   0.264   9.779 -0.7947 -0.7260  1.1125
 4305SOL     OW24373   0.393   2.083   9.101 -0.5967 -0.4186 -0.3195
 4305SOL    HW124374   0.339   2.153   9.064  1.0376  0.8421 -0.3549
 4305SOL    HW224375   0.471   2.138   9.114  0.2261 -1.6582 -0.0408
 4306SOL     OW24376   0.479   0.365   0.286  0.6159  0.2054 -0.2803
 4306SOL    HW124377   0.488   0.301   0.216  2.8481  2.5226 -2.1047
 4306SOL    HW224378   0.558   0.417   0.269 -1.1679  1.7221 -3.8883
 4307SOL     OW24379   4.096   1.299  10.649 -0.0674 -0.5697 -0.0928
 4307SOL    HW124380   4.085   1.382  10.603  0.6400 -0.9286 -0.9004
 4307SOL    HW224381   4.110   1.240  10.575 -0.6402  1.8773 -2.1480
 4308SOL     OW24382   1.494   4.637   7.608  0.4120 -0.1698  0.1332
 4308SOL    HW124383   1.418   4.694   7.622  0.6465  0.0343  0.5666
 4308SOL    HW224384   1.534   4.679   7.532  3.5801  1.0759  2.5264
 4309SOL     OW24385   0.274   3.399   3.110 -0.4355  0.1612  0.1997
 4309SOL    HW124386   0.288   3.360   3.023 -0.2253 -0.9488  0.7337
 4309SOL    HW224387   0.202   3.348   3.146 -2.1859  2.6650  0.2194
 4310SOL     OW24388   1.366   2.102   7.702  0.4169  0.5978 -0.2606
 4310SOL    HW124389   1.446   2.150   7.681  1.1878 -0.6257 -0.1229
 4310SOL    HW224390   1.305   2.126   7.633  1.3820  2.1050 -0.5954
 4311SOL     OW24391   2.948   0.088   0.432  0.2233 -0.7095 -0.5495
 4311SOL    HW124392   2.914   0.019   0.374  0.4118 -2.5621  1.5428
 4311SOL    HW224393   2.931   0.045   0.516 -0.1814  0.6579  0.0682
 4312SOL     OW24394   1.290   3.322  14.449 -0.0829 -0.3425 -0.0086
 4312SOL    HW124395   1.347   3.272  14.391  0.3738  1.0875 -0.7743
 4312SOL    HW224396   1.230   3.371  14.393 -0.4945  1.6113  2.1377
 4313SOL     OW24397   0.797   4.228   6.952  0.0579  0.2753 -0.2490
 4313SOL    HW124398   0.760   4.260   6.870  1.6743  1.1283 -0.6461
 4313SOL    HW224399   0.864   4.294   6.968 -0.7725  1.0739 -0.0836
 4314SOL     OW24400   3.644   3.610   3.867  0.0404  0.0281 -0.0680
 4314SOL    HW124401   3.647   3.536   3.927  0.2976 -1.0154 -1.3728
 4314SOL    HW224402   3.618   3.683   3.923  0.5069  0.4407 -0.3870
 4315SOL     OW24403   3.495   4.221   2.452  0.5016  0.1927 -0.1510
 4315SOL    HW124404   3.511   4.200   2.360 -1.8138  3.2339 -1.2382
 4315SOL    HW224405   3.580   4.211   2.496 -0.4632 -1.7404  1.2566
 4316SOL     OW24406   2.562   3.093   4.185  0.0370  0.6289  0.7688
 4316SOL    HW124407   2.486   3.037   4.193 -0.8983  1.9498  1.1802
 4316SOL    HW224408   2.534   3.150   4.113  1.5556 -2.6114 -2.3940
 4317SOL     OW24409   3.471   2.596  14.218  0.1309  0.4790 -0.2986
 4317SOL    HW124410   3.531   2.653  14.170  1.4975  0.2940  1.1817
 4317SOL    HW224411   3.382   2.617  14.189  1.2406  0.5510 -3.5826
 4318SOL     OW24412   2.208   1.681   2.723  0.0397  0.1924 -0.2888
 4318SOL    HW124413   2.284   1.623   2.720  1.1348  1.6591 -0.9869
 4318SOL    HW224414   2.237   1.764   2.762  2.0249 -1.1113  1.0228
 4319SOL     OW24415   0.791   3.001   4.566 -0.3002  0.2352 -0.0158
 4319SOL    HW124416   0.726   3.000   4.496 -0.6276 -0.3051  0.2906
 4319SOL    HW224417   0.742   2.939   4.621 -1.5520  0.3951 -0.9574
 4320SOL     OW24418   3.414   0.347   2.666 -0.4164 -0.2157 -0.4463
 4320SOL    HW124419   3.399   0.309   2.753 -0.6175 -0.5219 -0.6133
 4320SOL    HW224420   3.509   0.360   2.673 -0.6200  0.3847  1.0857
 4321SOL     OW24421   2.152   4.328   4.427  0.0128 -1.1302  0.4462
 4321SOL    HW124422   2.245   4.307   4.441 -0.6045 -2.4656  2.4394
 4321SOL    HW224423   2.119   4.243   4.454 -1.7353  0.1499  2.3365
 4322SOL     OW24424   3.210   2.026   1.315  0.0725  0.2024 -0.1211
 4322SOL    HW124425   3.156   1.990   1.245 -0.8917  0.4807  0.4841
 4322SOL    HW224426   3.136   2.051   1.370 -0.2830 -0.8837 -0.1139
 4323SOL     OW24427   3.615   1.020   2.785 -0.1384  0.4725 -0.0693
 4323SOL    HW124428   3.552   0.966   2.736  1.6153 -0.0976 -1.6841
 4323SOL    HW224429   3.692   1.021   2.729 -1.9399  0.4846 -2.5635
 4324SOL     OW24430   0.780   0.855   4.256 -0.2676 -0.2652  0.2425
 4324SOL    HW124431   0.819   0.859   4.169  0.6697 -0.3066  0.6698
 4324SOL    HW224432   0.748   0.944   4.270  1.3387  0.6343 -1.8963
 4325SOL     OW24433   1.423   1.805   6.261  0.1464  0.5473 -0.2022
 4325SOL    HW124434   1.425   1.734   6.196  0.3468 -1.7106  2.2730
 4325SOL    HW224435   1.342   1.786   6.309  0.4225 -1.0647 -0.3666
 4326SOL     OW24436   1.123   2.300   3.184 -0.1097 -0.1398  0.3241
 4326SOL    HW124437   1.130   2.316   3.090 -0.5000  1.0676  0.5044
 4326SOL    HW224438   1.171   2.373   3.222 -0.9734  0.7821 -0.3586
 4327SOL     OW24439   4.013   0.854  15.512  0.0495  0.3032 -0.1116
 4327SOL    HW124440   4.063   0.894  15.441 -2.3506  0.1964 -1.8760
 4327SOL    HW224441   4.085   0.825  15.569 -0.4148 -1.5100 -0.4596
 4328SOL     OW24442   0.438   4.496   7.754 -0.2563 -0.1439  0.5255
 4328SOL    HW124443   0.384   4.521   7.678  0.1687 -1.0340 -0.0642
 4328SOL    HW224444   0.425   4.575   7.807 -1.6405 -0.2528  0.3665
 4329SOL     OW24445   0.178   1.847   4.051 -0.3354  0.1211  0.4812
 4329SOL    HW124446   0.130   1.823   3.972 -2.2985  0.2254  1.6336
 4329SOL    HW224447   0.174   1.772   4.110 -0.7817 -0.1064  0.1604
 4330SOL     OW24448   0.872   4.057   8.793  0.5107  0.4101 -0.0865
 4330SOL    HW124449   0.784   4.090   8.809  0.2986  0.9414 -2.3416
 4330SOL    HW224450   0.894   4.107   8.715 -2.0190  1.6464 -0.0039
 4331SOL     OW24451   0.832   1.744   2.506 -0.0205 -0.1059 -0.1687
 4331SOL    HW124452   0.868   1.679   2.446 -0.9399 -1.1262  0.3895
 4331SOL    HW224453   0.763   1.786   2.454 -0.4005  0.5397  0.8623
 4332SOL     OW24454   3.445   1.242   5.764 -0.2872  0.1859  0.0620
 4332SOL    HW124455   3.362   1.275   5.799  0.1921  3.8331 -2.2185
 4332SOL    HW224456   3.412   1.162   5.723  1.4364 -2.4361  3.7676
 4333SOL     OW24457   3.934   1.568   5.758  0.2504 -0.5230 -0.2825
 4333SOL    HW124458   3.914   1.508   5.830  1.4211  1.7869  1.9621
 4333SOL    HW224459   3.925   1.653   5.800  2.7953 -0.4713  0.1697
 4334SOL     OW24460   1.494   0.297   9.189 -0.0318  0.4149  0.6003
 4334SOL    HW124461   1.450   0.219   9.155 -0.1135 -0.1856  2.0614
 4334SOL    HW224462   1.532   0.337   9.111 -0.6231 -0.4873 -0.1475
 4335SOL     OW24463   0.493   1.549   5.128 -0.8976  0.7839 -0.6799
 4335SOL    HW124464   0.524   1.635   5.156 -2.2602  1.4738 -1.3106
 4335SOL    HW224465   0.546   1.495   5.187 -0.3348  2.4752  0.3743
 4336SOL     OW24466   1.173   0.524   6.047 -0.0902  0.1386  0.6789
 4336SOL    HW124467   1.121   0.495   5.973  2.8175  0.4994 -1.5120
 4336SOL    HW224468   1.167   0.619   6.045 -2.0000 -0.0784 -2.7045
 4337SOL     OW24469   3.287   0.474   4.758  0.4196 -0.1376  0.1857
 4337SOL    HW124470   3.323   0.410   4.697  1.2217  0.5879 -0.1032
 4337SOL    HW224471   3.221   0.417   4.798  0.1663 -0.1669 -0.2702
 4338SOL     OW24472   3.071   2.129   2.721  1.0916  0.1278 -0.2169
 4338SOL    HW124473   3.047   2.212   2.679  0.6799  1.0258  1.7802
 4338SOL    HW224474   3.049   2.063   2.655 -1.5702  2.6902 -1.8910
 4339SOL     OW24475   0.808   3.441   3.071  0.6348  0.5104 -0.1566
 4339SOL    HW124476   0.714   3.423   3.075  0.2195  2.8135  0.0031
 4339SOL    HW224477   0.817   3.522   3.021 -0.0873 -0.4850 -1.8884
 4340SOL     OW24478   2.463   2.715   4.731 -0.9139 -0.3547 -0.4220
 4340SOL    HW124479   2.439   2.766   4.809 -0.2194  0.2544 -0.6018
 4340SOL    HW224480   2.558   2.704   4.740 -0.8067  0.3224 -0.7182
 4341SOL     OW24481   2.551   1.706  13.089 -0.4544  0.5455  0.3780
 4341SOL    HW124482   2.505   1.702  13.005 -0.1984  4.2863  0.0542
 4341SOL    HW224483   2.494   1.767  13.138 -2.1293 -0.2599 -0.5798
 4342SOL     OW24484   1.972   4.651   7.420  0.2983  0.5148 -0.5788
 4342SOL    HW124485   1.977   4.608   7.335  0.7496 -0.6959  0.0642
 4342SOL    HW224486   1.955   4.573   7.472 -1.0402  1.6483  0.7095
 4343SOL     OW24487   3.361   0.220   3.605 -0.1786  0.0473  0.0696
 4343SOL    HW124488   3.395   0.142   3.649 -0.7260  0.6715  1.5783
 4343SOL    HW224489   3.344   0.185   3.517 -1.1439  3.3373 -1.0510
 4344SOL     OW24490   1.499   2.135   7.183  0.6272 -0.8048 -0.1227
 4344SOL    HW124491   1.425   2.080   7.209 -1.5354  1.4230 -1.4346
 4344SOL    HW224492   1.571   2.080   7.212  1.7697  0.3449 -0.8154
 4345SOL     OW24493   1.943   1.747   3.249 -0.4566  0.0370  0.2395
 4345SOL    HW124494   2.009   1.702   3.302 -0.0506  1.6777  1.1065
 4345SOL    HW224495   1.872   1.750   3.313 -0.2723  4.2995  0.2182
 4346SOL     OW24496   3.688   1.238   4.924 -0.4429 -0.7048  0.3484
 4346SOL    HW124497   3.703   1.291   4.846  0.0426 -1.5826 -0.1502
 4346SOL    HW224498   3.603   1.197   4.912 -1.0928 -0.0534  2.7546
 4347SOL     OW24499   2.114   3.593  17.571  0.0669  0.0361  0.1279
 4347SOL    HW124500   2.064   3.660  17.618 -1.1704  0.6317 -2.0415
 4347SOL    HW224501   2.182   3.578  17.637  1.4452  1.8460 -0.8970
 4348SOL     OW24502   0.213   4.678   6.362  1.0984 -0.0164 -0.2415
 4348SOL    HW124503   0.282   4.615   6.380  1.8105  0.7068 -0.4862
 4348SOL    HW224504   0.146   4.614   6.336 -0.0157  1.0550 -0.0318
 4349SOL     OW24505   3.058   2.687   1.483 -0.3396 -0.4998 -0.6854
 4349SOL    HW124506   3.116   2.618   1.514  1.7275  1.6765  0.3689
 4349SOL    HW224507   3.100   2.764   1.522  0.8392  0.1825 -3.2686
 4350SOL     OW24508   4.407   2.251  12.244 -0.4814  0.4303  0.2259
 4350SOL    HW124509   4.347   2.312  12.288  0.1158  0.6894  0.6860
 4350SOL    HW224510   4.407   2.287  12.156 -0.3958  0.5802  0.2871
 4351SOL     OW24511   4.704   0.564   9.527 -0.6351 -0.0292 -0.7735
 4351SOL    HW124512   4.679   0.591   9.616 -1.2494 -0.4237 -0.8276
 4351SOL    HW224513   0.009   0.476   9.545  1.6134  1.2358  1.4788
 4352SOL     OW24514   2.025   4.641   5.567 -0.3366  0.7406 -0.0197
 4352SOL    HW124515   1.984   4.586   5.634 -0.3988 -0.3514 -0.9553
 4352SOL    HW224516   1.982   4.601   5.491  0.0485 -1.2795  0.8380
 4353SOL     OW24517   0.474   3.543   7.818  0.1007 -0.1823  0.1117
 4353SOL    HW124518   0.412   3.512   7.884 -0.2534  2.5785  1.0515
 4353SOL    HW224519   0.464   3.636   7.835 -0.2310 -0.3952  1.0846
 4354SOL     OW24520   1.568   4.358   8.634 -0.4143  0.3249 -0.4156
 4354SOL    HW124521   1.515   4.372   8.555  1.4915 -0.6849 -1.8917
 4354SOL    HW224522   1.507   4.317   8.695  1.0341 -0.6479  0.3922
 4355SOL     OW24523   0.047   0.654   2.882 -0.2345 -0.0815  0.4046
 4355SOL    HW124524   0.078   0.687   2.967 -0.4710 -0.8589  0.7934
 4355SOL    HW224525   4.698   0.710   2.873  0.5284  1.1842  1.8855
 4356SOL     OW24526   2.769   0.299  12.891 -0.1940 -0.0264  0.0045
 4356SOL    HW124527   2.802   0.297  12.801 -0.2333 -1.8880  0.0296
 4356SOL    HW224528   2.807   0.379  12.925  0.7325  0.0870 -1.2696
 4357SOL     OW24529   4.465   3.152   4.755  0.0211  0.2348 -0.2069
 4357SOL    HW124530   4.384   3.107   4.777 -0.5773  0.6239 -1.5516
 4357SOL    HW224531   4.532   3.096   4.793 -2.4847 -2.2990  0.4810
 4358SOL     OW24532   2.286   3.280   7.373  0.3946  0.0389  0.3654
 4358SOL    HW124533   2.215   3.245   7.428 -0.6585 -0.0742 -1.0506
 4358SOL    HW224534   2.231   3.323   7.307  1.5348  0.6900 -0.1426
 4359SOL     OW24535   4.657   0.787  16.867 -0.4794  0.5040 -0.1713
 4359SOL    HW124536   4.572   0.823  16.840  0.4654 -0.5778 -4.5644
 4359SOL    HW224537   4.671   0.825  16.954  2.4512  0.1763 -0.5321
 4360SOL     OW24538   3.456   2.325   8.230  0.2521 -0.1453  0.8995
 4360SOL    HW124539   3.481   2.365   8.313  0.9667  0.2440  0.4933
 4360SOL    HW224540   3.364   2.351   8.233 -0.4766 -2.4314 -1.1442
 4361SOL     OW24541   2.940   3.118   5.726  0.0592 -0.1987 -0.2775
 4361SOL    HW124542   2.914   3.045   5.783  2.0000 -0.6442  0.0420
 4361SOL    HW224543   2.976   3.063   5.657  1.5404 -0.7831  0.9570
 4362SOL     OW24544   4.585   0.291   8.848 -0.2528 -1.1420  0.6740
 4362SOL    HW124545   4.628   0.345   8.782 -0.9917 -1.5307 -0.1141
 4362SOL    HW224546   4.641   0.217   8.825  0.8493 -1.0551  3.1136
 4363SOL     OW24547   3.715   1.734   6.441 -0.0007 -0.2083  0.1609
 4363SOL    HW124548   3.770   1.750   6.518 -0.4464  1.6599  0.0912
 4363SOL    HW224549   3.636   1.784   6.462 -0.0497 -0.5025  0.6902
 4364SOL     OW24550   2.321   2.588  14.865 -0.2522  0.0836 -0.0824
 4364SOL    HW124551   2.400   2.595  14.918 -1.1343  0.8941  1.1259
 4364SOL    HW224552   2.290   2.677  14.877  0.3268  0.4227 -1.0884
 4365SOL     OW24553   1.887   1.737  16.687 -1.0633  0.4752 -0.5574
 4365SOL    HW124554   1.847   1.812  16.643 -1.5449 -0.2972 -1.4496
 4365SOL    HW224555   1.922   1.786  16.761 -1.6360 -1.2397  0.8578
 4366SOL     OW24556   3.963   1.460  17.356 -0.3080  0.3152 -0.1009
 4366SOL    HW124557   4.020   1.442  17.430 -0.6134 -0.8041 -0.1390
 4366SOL    HW224558   3.922   1.541  17.388 -0.2357  0.1225  0.4648
 4367SOL     OW24559   4.525   0.726   0.686 -0.0421 -0.1208 -0.3392
 4367SOL    HW124560   4.572   0.676   0.619 -0.4580  0.3595 -0.9902
 4367SOL    HW224561   4.454   0.770   0.641  0.0040  0.1404 -0.1563
 4368SOL     OW24562   2.286   2.924   8.408  0.0102 -0.7121 -0.3212
 4368SOL    HW124563   2.219   2.977   8.450 -0.1863  0.8614 -2.6296
 4368SOL    HW224564   2.315   2.854   8.467 -0.5963 -0.5875  0.1249
 4369SOL     OW24565   4.383   3.334   7.060 -0.0598 -0.3413 -0.2781
 4369SOL    HW124566   4.392   3.330   7.155 -0.9726  0.0268 -0.1761
 4369SOL    HW224567   4.453   3.273   7.036 -1.1302 -1.4752 -0.5515
 4370SOL     OW24568   3.514   2.784   6.040  0.1389 -0.3290 -0.0234
 4370SOL    HW124569   3.584   2.822   5.988 -0.4821 -0.2403 -0.7893
 4370SOL    HW224570   3.441   2.796   5.979  1.7104  0.7201 -1.6968
 4371SOL     OW24571   2.558   2.758   7.267 -0.2743  0.8413  0.1104
 4371SOL    HW124572   2.544   2.665   7.251  2.5080  0.3032  0.7073
 4371SOL    HW224573   2.625   2.779   7.202 -0.7425 -3.6187 -1.8052
 4372SOL     OW24574   1.625   0.956   8.289 -0.3653 -0.2266 -0.3754
 4372SOL    HW124575   1.584   0.950   8.376 -0.5978 -0.6021 -0.5093
 4372SOL    HW224576   1.704   1.003   8.314 -0.8991  0.6643 -0.3731
 4373SOL     OW24577   0.197   1.063   3.808 -0.4669 -0.7445 -0.6497
 4373SOL    HW124578   0.196   1.158   3.819 -0.2342 -0.7296 -0.7829
 4373SOL    HW224579   0.257   1.049   3.735 -1.0477  0.4235 -1.3506
 4374SOL     OW24580   2.491   2.215  15.158 -0.3336 -0.1743 -0.1528
 4374SOL    HW124581   2.506   2.264  15.238  1.7734  0.0306 -0.6570
 4374SOL    HW224582   2.418   2.249  15.106  0.1822  0.5475 -0.4148
 4375SOL     OW24583   4.006   4.678  12.579 -0.0495 -0.0966  0.0164
 4375SOL    HW124584   3.963   4.611  12.525 -1.9474  0.3409  0.9789
 4375SOL    HW224585   4.100   4.661  12.580 -0.2318 -1.3437 -3.3057
 4376SOL     OW24586   0.012   3.654   0.734  0.2982  0.0312  0.0411
 4376SOL    HW124587   0.016   3.690   0.823 -1.1387 -0.2017  0.2105
 4376SOL    HW224588   0.104   3.639   0.717  0.7139  1.0751  1.3241
 4377SOL     OW24589   3.640   2.113   1.724  0.2269  0.3380 -0.1125
 4377SOL    HW124590   3.548   2.107   1.752  0.5412 -0.9437  0.6334
 4377SOL    HW224591   3.625   2.101   1.630 -2.1461  2.3956 -0.0062
 4378SOL     OW24592   3.924   0.077   3.974 -0.8502 -0.0713  0.5105
 4378SOL    HW124593   3.889   0.078   3.885  1.3482  0.9172 -0.3490
 4378SOL    HW224594   3.961   4.716   3.977  1.0714  0.8215  2.9161
 4379SOL     OW24595   0.798   0.469   4.728 -0.4941  0.8391  0.6853
 4379SOL    HW124596   0.834   0.462   4.640 -1.7499 -0.1990  0.2504
 4379SOL    HW224597   0.866   0.422   4.776 -2.7088 -0.4098  2.6218
 4380SOL     OW24598   1.147   3.563   0.197 -0.2044  0.2459  0.4890
 4380SOL    HW124599   1.113   3.646   0.165 -0.7414 -0.9372 -2.0671
 4380SOL    HW224600   1.221   3.590   0.251 -2.5251  3.7948  1.8962
 4381SOL     OW24601   0.225   4.561   8.264  0.1260  0.6602  0.0217
 4381SOL    HW124602   0.320   4.560   8.271  0.1538 -0.5946 -0.4877
 4381SOL    HW224603   0.209   4.546   8.171 -0.3248  0.9583  0.0500
 4382SOL     OW24604   3.612   0.059  12.352 -0.0528 -0.1919  0.0080
 4382SOL    HW124605   3.619   0.146  12.314  0.4427 -0.5860 -0.7969
 4382SOL    HW224606   3.614   0.002  12.275 -0.0345 -1.2642  0.8043
 4383SOL     OW24607   1.847   0.532  16.507  0.1795 -0.4017  0.2873
 4383SOL    HW124608   1.829   0.626  16.506  0.3231 -0.3808 -0.7192
 4383SOL    HW224609   1.779   0.507  16.569  0.2809  0.9505  0.9290
 4384SOL     OW24610   4.279   3.972   5.496 -0.0303 -0.2523  0.7321
 4384SOL    HW124611   4.345   3.990   5.564  1.0630 -0.9068 -0.1652
 4384SOL    HW224612   4.324   3.921   5.429  0.7973 -0.1187  1.1846
 4385SOL     OW24613   4.658   3.635  12.549 -0.1630  0.6195 -0.0479
 4385SOL    HW124614   4.660   3.616  12.643  3.5144 -2.8459 -0.7986
 4385SOL    HW224615   0.003   3.697  12.543  0.8054 -0.3490  1.6934
 4386SOL     OW24616   1.301   0.573   3.324  0.1047  0.7613  0.0982
 4386SOL    HW124617   1.206   0.565   3.330 -0.0022  0.3998 -2.0601
 4386SOL    HW224618   1.325   0.540   3.410 -0.0984 -0.2344 -0.2205
 4387SOL     OW24619   0.974   3.701  14.282 -0.4574  1.0089 -0.0385
 4387SOL    HW124620   0.973   3.607  14.267 -1.3814  1.0920 -0.5509
 4387SOL    HW224621   1.056   3.708  14.331 -0.4269 -2.1535  0.3608
 4388SOL     OW24622   3.331   1.134   0.266 -0.3212 -0.6740  0.5436
 4388SOL    HW124623   3.364   1.071   0.330 -1.3452 -0.1935  1.5525
 4388SOL    HW224624   3.266   1.080   0.221 -0.3446 -0.0239 -0.2026
 4389SOL     OW24625   0.444   3.234   2.114 -0.2653 -0.0360 -0.1793
 4389SOL    HW124626   0.351   3.248   2.098 -0.2592 -1.6266 -1.5033
 4389SOL    HW224627   0.467   3.166   2.051 -3.3826 -0.8938 -0.3994
 4390SOL     OW24628   1.605   2.919   7.402  0.1271  0.0168 -0.2266
 4390SOL    HW124629   1.542   2.960   7.342  0.8216 -0.6205 -1.4033
 4390SOL    HW224630   1.595   2.827   7.377 -0.0704 -0.5293  1.8504
 4391SOL     OW24631   2.379   3.670   4.735 -0.0551  0.6420  0.0097
 4391SOL    HW124632   2.462   3.641   4.773 -0.4389  2.8304  2.5505
 4391SOL    HW224633   2.394   3.686   4.642  0.2934 -0.6757 -0.1511
 4392SOL     OW24634   1.611   1.779   8.674  0.2403  0.1103  0.0064
 4392SOL    HW124635   1.584   1.689   8.693 -1.0797 -0.0098 -2.5137
 4392SOL    HW224636   1.569   1.828   8.745 -1.7648 -0.3083 -0.8992
 4393SOL     OW24637   3.088   2.370   4.912  1.0671 -0.4105  0.1766
 4393SOL    HW124638   3.176   2.404   4.898  1.0542 -0.0590  0.9871
 4393SOL    HW224639   3.088   2.381   5.007  1.9686 -0.7380  0.2204
 4394SOL     OW24640   4.400   2.364  17.609  0.1998  0.6308 -0.5630
 4394SOL    HW124641   4.388   2.425  17.536  4.1159  0.4324 -1.3708
 4394SOL    HW224642   4.430   2.430  17.672  1.4002 -1.3177  0.9027
 4395SOL     OW24643   3.443   4.146  13.173 -0.1861 -0.4025 -0.0344
 4395SOL    HW124644   3.399   4.073  13.216  0.7881 -0.2213  1.2438
 4395SOL    HW224645   3.434   4.222  13.229  0.8322 -0.7022  0.5353
 4396SOL     OW24646   1.828   4.386   6.687 -0.1357  0.0918 -0.0841
 4396SOL    HW124647   1.830   4.434   6.604  1.4986 -4.0873 -2.4486
 4396SOL    HW224648   1.902   4.326   6.677  0.9629  1.0711  2.1899
 4397SOL     OW24649   2.261   0.335   4.936 -0.4681  0.4109  0.4081
 4397SOL    HW124650   2.319   0.264   4.910  1.0552  1.7845  0.0882
 4397SOL    HW224651   2.318   0.382   4.997 -2.0138  1.4230  1.0848
 4398SOL     OW24652   2.480   2.390   4.272  0.3533 -0.1295 -0.1579
 4398SOL    HW124653   2.482   2.295   4.266  1.4594 -0.1698  0.7206
 4398SOL    HW224654   2.572   2.414   4.286  0.7289 -1.4015 -0.5129
 4399SOL     OW24655   1.601   1.166   4.056  0.9899  0.6575 -0.2850
 4399SOL    HW124656   1.689   1.133   4.074 -0.1326 -2.2454 -0.1047
 4399SOL    HW224657   1.608   1.194   3.965  0.4807 -1.0061 -0.8254
 4400SOL     OW24658   2.960   0.380  14.260  0.3548  0.2516 -0.4103
 4400SOL    HW124659   2.976   0.474  14.248 -0.8796  0.6090  0.8255
 4400SOL    HW224660   3.021   0.367  14.333  1.1040  4.0481 -0.3810
 4401SOL     OW24661   4.242   1.071  14.878  0.0935  0.0201  0.3142
 4401SOL    HW124662   4.275   0.984  14.856  0.1173  0.1719 -0.2697
 4401SOL    HW224663   4.197   1.093  14.796 -1.8280 -0.1534  1.3253
 4402SOL     OW24664   3.576   1.180  17.685  0.0043  0.0489 -0.6994
 4402SOL    HW124665   3.624   1.123   0.037  0.4655  0.7408 -0.4105
 4402SOL    HW224666   3.517   1.108  17.663  2.2319 -2.2350  0.6716
 4403SOL     OW24667   1.551   0.192   5.186 -0.9372 -0.1074  0.9261
 4403SOL    HW124668   1.529   0.250   5.113 -0.5892  0.0409  0.9383
 4403SOL    HW224669   1.625   0.142   5.151 -0.4329  1.1479  0.2307
 4404SOL     OW24670   3.700   4.176  14.459  0.0446  0.3995  0.2503
 4404SOL    HW124671   3.672   4.102  14.514  2.0205  0.1158  0.8612
 4404SOL    HW224672   3.614   4.216  14.444 -0.0323 -0.5068 -1.7618
 4405SOL     OW24673   0.448   1.136   8.018 -0.2879 -0.2731  0.1409
 4405SOL    HW124674   0.419   1.219   8.055 -1.4762 -0.9766  0.7704
 4405SOL    HW224675   0.488   1.096   8.095 -1.6685 -0.3551  0.8013
 4406SOL     OW24676   3.560   1.700   3.472  0.2063 -0.3778  0.2685
 4406SOL    HW124677   3.624   1.686   3.403  0.3076  0.3017  0.2193
 4406SOL    HW224678   3.576   1.793   3.492  1.8156 -0.1456 -2.1640
 4407SOL     OW24679   0.070   3.388  12.484  0.4266 -0.1350  0.1416
 4407SOL    HW124680   0.028   3.327  12.544  0.3331  1.2373  1.4526
 4407SOL    HW224681   0.032   3.474  12.502  1.7143  0.5557 -0.4287
 4408SOL     OW24682   2.174   3.802   2.733 -0.5048  0.3083 -0.3627
 4408SOL    HW124683   2.097   3.859   2.738  1.3852  2.9945 -1.4539
 4408SOL    HW224684   2.146   3.730   2.676  1.1695  0.1391 -0.9794
 4409SOL     OW24685   4.433   0.881  14.750 -0.0114  0.0856 -0.3030
 4409SOL    HW124686   4.413   0.796  14.789  0.7115  1.0143  2.0743
 4409SOL    HW224687   4.459   0.851  14.663  1.0121  1.2740 -0.4150
 4410SOL     OW24688   1.923   2.530   7.217  0.3314  0.4185  0.2438
 4410SOL    HW124689   2.014   2.501   7.206 -0.3562 -1.3181 -1.0023
 4410SOL    HW224690   1.926   2.610   7.269 -1.6614  0.2920  0.5412
 4411SOL     OW24691   1.785   1.108   8.786 -0.6686 -0.3514  0.1455
 4411SOL    HW124692   1.787   1.025   8.738 -1.1857  0.6169 -1.5346
 4411SOL    HW224693   1.704   1.108   8.838  0.4492 -1.2565  1.9027
 4412SOL     OW24694   0.962   3.501   4.504  0.3665  0.3845  0.3927
 4412SOL    HW124695   0.906   3.530   4.576 -3.3122 -0.0600 -2.3132
 4412SOL    HW224696   0.909   3.440   4.453 -1.7767 -1.0631  4.3349
 4413SOL     OW24697   0.723   4.180   9.181  0.6715 -0.1569 -0.0369
 4413SOL    HW124698   0.743   4.099   9.132  0.2093 -0.8892  0.9889
 4413SOL    HW224699   0.632   4.205   9.165  0.8796 -0.1825 -1.3012
 4414SOL     OW24700   4.703   1.008  14.960 -0.3146  0.4961 -0.0785
 4414SOL    HW124701   4.638   0.944  14.928  0.1951  0.2995 -0.7262
 4414SOL    HW224702   4.689   1.082  14.900  0.8889 -1.1835 -2.4518
 4415SOL     OW24703   0.679   1.828   7.665  0.2370  0.0869  0.6514
 4415SOL    HW124704   0.747   1.887   7.633  1.0648 -0.7008  0.9355
 4415SOL    HW224705   0.723   1.791   7.742 -0.7884 -0.8551  0.7871
 4416SOL     OW24706   0.700   3.016   7.355  0.0928  0.2999 -0.3434
 4416SOL    HW124707   0.765   2.998   7.287 -0.6916 -2.5061 -0.3664
 4416SOL    HW224708   0.618   3.040   7.312  0.3699  1.3373 -0.2924
 4417SOL     OW24709   1.840   3.612   3.876 -0.7265  0.0105  0.4418
 4417SOL    HW124710   1.771   3.656   3.927  0.1478  1.6333  0.2126
 4417SOL    HW224711   1.819   3.655   3.794  0.4061  2.9255  1.6796
 4418SOL     OW24712   3.815   3.304   0.562 -0.0920  0.0898  0.2817
 4418SOL    HW124713   3.766   3.285   0.642 -0.5249 -1.1031 -0.2756
 4418SOL    HW224714   3.823   3.214   0.530 -2.9757  0.3462 -1.1193
 4419SOL     OW24715   3.236   2.624  14.043  0.2357 -0.1477 -0.7216
 4419SOL    HW124716   3.247   2.604  13.950  1.8474 -1.5041 -0.2430
 4419SOL    HW224717   3.142   2.642  14.051  0.0472 -1.1091 -0.7790
 4420SOL     OW24718   0.763   0.645   0.031  0.2908 -0.4331 -0.2042
 4420SOL    HW124719   0.756   0.591   0.110  1.0227  0.4055  0.4329
 4420SOL    HW224720   0.674   0.681   0.033  1.3774  2.3542 -2.7282
 4421SOL     OW24721   2.705   3.199   2.731  0.1528 -0.2588 -0.1760
 4421SOL    HW124722   2.691   3.282   2.686  0.7797 -0.4773 -0.7728
 4421SOL    HW224723   2.617   3.174   2.760  0.3105  2.7960  2.9291
 4422SOL     OW24724   2.898   2.888   5.914 -0.3280 -0.0426  0.4991
 4422SOL    HW124725   2.967   2.824   5.931  0.9755  0.7626 -1.6735
 4422SOL    HW224726   2.911   2.959   5.977 -0.3892  0.1323  0.3144
 4423SOL     OW24727   1.539   0.026   8.217  0.1273  0.4829  0.1175
 4423SOL    HW124728   1.583   0.064   8.141  1.0876 -1.5682 -0.3471
 4423SOL    HW224729   1.484   0.098   8.247  2.7266  3.0429 -1.3079
 4424SOL     OW24730   4.414   1.457   4.341  0.2852  0.5625  0.0485
 4424SOL    HW124731   4.430   1.411   4.424  1.5454 -0.0541 -0.5400
 4424SOL    HW224732   4.318   1.452   4.347  0.2947  0.4930  0.1529
 4425SOL     OW24733   2.495   0.542   6.878 -0.3462  0.0143  0.8644
 4425SOL    HW124734   2.472   0.452   6.901  2.3365 -0.2818  2.4150
 4425SOL    HW224735   2.534   0.563   6.963  3.2264  0.1331 -0.8196
 4426SOL     OW24736   3.449   0.382   8.075 -0.6037  0.0151  0.0292
 4426SOL    HW124737   3.475   0.329   8.150  1.8069 -0.5676 -1.2251
 4426SOL    HW224738   3.479   0.326   8.003 -0.2387 -0.6114  0.6673
 4427SOL     OW24739   2.659   1.854  14.997 -0.1197  0.0769 -0.0676
 4427SOL    HW124740   2.676   1.769  14.956 -0.1684  0.8508 -1.7019
 4427SOL    HW224741   2.740   1.890  15.033 -1.0867  1.1582  1.0708
 4428SOL     OW24742   3.560   4.139   9.639 -0.7160 -0.7463 -0.7105
 4428SOL    HW124743   3.466   4.151   9.624 -0.8003 -0.0248  0.3655
 4428SOL    HW224744   3.585   4.231   9.633 -1.1268 -0.7708 -2.8668
 4429SOL     OW24745   0.111   1.354   2.339  0.6924  0.4293 -0.3010
 4429SOL    HW124746   0.186   1.379   2.284  1.7484 -0.1047  0.8930
 4429SOL    HW224747   0.065   1.437   2.343  0.5793  0.2933  0.9431
 4430SOL     OW24748   4.651   3.119   6.693 -0.3146 -0.6538 -0.0207
 4430SOL    HW124749   0.001   3.173   6.674  1.4852 -3.1167  0.3482
 4430SOL    HW224750   4.686   3.035   6.721 -1.6726 -1.4921 -0.8618
 4431SOL     OW24751   0.262   2.686  11.611 -0.6032  0.0343  0.3451
 4431SOL    HW124752   0.200   2.727  11.551 -0.3542  0.0982  0.1295
 4431SOL    HW224753   0.336   2.678  11.550 -0.4119  2.2236  0.2896
 4432SOL     OW24754   4.662   4.439  13.556 -0.2305 -0.2765  0.1719
 4432SOL    HW124755   4.618   4.362  13.519 -0.0367 -0.4289  0.2578
 4432SOL    HW224756   4.599   4.509  13.542  0.5029  0.3919  0.2677
 4433SOL     OW24757   4.012   1.624   7.203 -0.2914 -0.4030  0.1450
 4433SOL    HW124758   4.030   1.541   7.158  2.9139  0.5567 -0.3141
 4433SOL    HW224759   3.923   1.604   7.233 -0.6620 -0.4926 -0.9913
 4434SOL     OW24760   0.829   3.690  10.851 -0.1127 -0.4681  0.5608
 4434SOL    HW124761   0.870   3.630  10.914 -0.5757 -0.2613  1.0600
 4434SOL    HW224762   0.744   3.654  10.827  0.8418 -1.6113 -1.0683
 4435SOL     OW24763   3.605   1.823  16.834  0.1676 -0.2294  0.5842
 4435SOL    HW124764   3.700   1.832  16.839  0.0779  0.9997  0.0593
 4435SOL    HW224765   3.578   1.906  16.795  0.9536  0.4249  1.4433
 4436SOL     OW24766   1.457   1.892   2.883 -0.3124  0.6273  0.3032
 4436SOL    HW124767   1.484   1.934   2.965  0.2112 -0.4740  0.6946
 4436SOL    HW224768   1.532   1.885   2.823 -0.2833  1.1162  0.2819
 4437SOL     OW24769   0.137   3.042   8.121  0.6074  0.3122  0.3804
 4437SOL    HW124770   0.193   2.969   8.095  0.3089 -0.2185  1.2253
 4437SOL    HW224771   0.208   3.105   8.136  0.4012  0.6720 -0.1345
 4438SOL     OW24772   1.693   1.785   5.237 -0.2670 -0.0619 -0.4290
 4438SOL    HW124773   1.615   1.734   5.260 -0.4467  0.2196 -0.4181
 4438SOL    HW224774   1.644   1.866   5.222 -1.5727 -1.1082 -1.7223
 4439SOL     OW24775   3.724   4.221   6.681  0.1583 -0.0165  0.3335
 4439SOL    HW124776   3.712   4.316   6.681  1.0311  0.0864  2.5845
 4439SOL    HW224777   3.803   4.218   6.628 -0.9444 -1.5882 -1.2229
 4440SOL     OW24778   3.645   3.050   7.510  0.2583  0.0064 -0.2806
 4440SOL    HW124779   3.674   3.139   7.528 -1.2205  0.4961 -0.2891
 4440SOL    HW224780   3.573   3.065   7.449 -0.5298 -0.8631  0.4343
 4441SOL     OW24781   2.338   2.121   2.412  0.0755  0.3892 -0.2773
 4441SOL    HW124782   2.274   2.109   2.343  0.6537 -1.1854 -0.5337
 4441SOL    HW224783   2.411   2.154   2.358 -0.1148  0.0526 -0.7338
 4442SOL     OW24784   3.493   0.114   5.354 -0.1078 -0.3468 -0.2248
 4442SOL    HW124785   3.469   0.198   5.393 -0.9029 -0.1771 -1.0659
 4442SOL    HW224786   3.403   0.079   5.354  0.6963 -2.4013  1.7771
 4443SOL     OW24787   2.232   2.600  12.448 -0.2001  0.0683  0.4236
 4443SOL    HW124788   2.237   2.534  12.378 -0.4613 -0.1025  0.5695
 4443SOL    HW224789   2.239   2.673  12.386 -1.6107  0.3338  0.5658
 4444SOL     OW24790   2.564   4.521   1.176  0.4778  0.6896  0.3798
 4444SOL    HW124791   2.597   4.606   1.204 -0.4981  1.0220  0.5167
 4444SOL    HW224792   2.475   4.547   1.150 -0.8757 -2.7352  1.5844
 4445SOL     OW24793   2.116   3.027   4.845  0.2238 -0.3009 -0.2786
 4445SOL    HW124794   2.194   3.045   4.792 -1.3935 -0.0367 -2.6091
 4445SOL    HW224795   2.103   3.110   4.890  0.9544  0.4949 -1.5110
 4446SOL     OW24796   2.470   1.635   5.491 -0.0854  0.6543 -0.4676
 4446SOL    HW124797   2.527   1.684   5.550 -0.3320  1.5066 -0.9356
 4446SOL    HW224798   2.510   1.647   5.405 -0.1690  0.1948 -0.5725
 4447SOL     OW24799   3.688   4.527   4.112 -0.3387  0.0211 -0.1658
 4447SOL    HW124800   3.627   4.577   4.058 -0.1036  2.3161  1.7019
 4447SOL    HW224801   3.648   4.544   4.198  1.4498 -0.4933  0.7674
 4448SOL     OW24802   1.133   3.042  16.412  0.0827  0.2380  0.1518
 4448SOL    HW124803   1.069   2.972  16.427  0.2508 -0.1547 -1.0365
 4448SOL    HW224804   1.080   3.073  16.339  1.1367  1.3702 -0.1255
 4449SOL     OW24805   1.602   1.563  17.520 -0.0092 -0.4806  0.9490
 4449SOL    HW124806   1.680   1.574  17.574 -0.6953 -0.1998  1.8819
 4449SOL    HW224807   1.537   1.536  17.585 -0.2578 -2.0252  0.0675
 4450SOL     OW24808   0.022   0.229  15.416 -0.2815  0.6466  0.0458
 4450SOL    HW124809   4.654   0.217  15.424 -0.3981  1.9786  0.7085
 4450SOL    HW224810   0.022   0.324  15.402 -2.9644  0.4106 -1.7562
 4451SOL     OW24811   0.885   0.833   5.613  0.0131  0.2298  0.0632
 4451SOL    HW124812   0.878   0.925   5.586  0.6211  0.0669 -0.6513
 4451SOL    HW224813   0.902   0.798   5.525  0.5785  1.0880 -0.1684
 4452SOL     OW24814   2.816   3.941   2.057  0.1462  0.3065 -0.0235
 4452SOL    HW124815   2.810   3.876   1.987  0.4044  0.4658 -0.1889
 4452SOL    HW224816   2.845   4.020   2.013  1.1139 -0.0537 -0.0307
 4453SOL     OW24817   4.264   3.513   2.718  0.3755  0.5048 -0.0549
 4453SOL    HW124818   4.342   3.566   2.736 -0.8800  1.6599  2.1274
 4453SOL    HW224819   4.242   3.539   2.629  0.1302  0.3472 -0.0408
 4454SOL     OW24820   1.861   4.670   5.205 -0.5422 -0.1159 -0.6589
 4454SOL    HW124821   1.917   4.714   5.269 -1.0021 -0.8694  0.2641
 4454SOL    HW224822   1.842   4.591   5.256  2.2566 -0.3049  0.1202
 4455SOL     OW24823   3.806   1.550   6.895  1.0291  0.1891  0.7840
 4455SOL    HW124824   3.728   1.530   6.843  1.4574  0.9423 -0.1512
 4455SOL    HW224825   3.804   1.478   6.958 -0.4523  0.5981  1.1976
 4456SOL     OW24826   2.810   0.431   8.093  0.6143 -0.1058 -0.3997
 4456SOL    HW124827   2.822   0.488   8.169  0.0374  0.8494 -1.0298
 4456SOL    HW224828   2.851   0.478   8.021 -1.1504  1.4282 -0.3836
 4457SOL     OW24829   1.597   0.012   8.761  0.4593  0.4891  0.1967
 4457SOL    HW124830   1.667   0.043   8.703  0.8141  1.1718  0.9972
 4457SOL    HW224831   1.638   4.716   8.844 -2.9430 -2.8727  0.9553
 4458SOL     OW24832   2.660   3.421   4.115 -0.1752 -0.2119 -0.2745
 4458SOL    HW124833   2.671   3.331   4.083  1.4345 -0.5728  1.3385
 4458SOL    HW224834   2.729   3.457   4.060 -1.7630  2.6115 -0.4161
 4459SOL     OW24835   1.639   0.314   5.540  0.1241 -0.1514 -0.1890
 4459SOL    HW124836   1.669   0.370   5.469  0.8157 -0.3371 -0.0405
 4459SOL    HW224837   1.629   0.391   5.597  0.5912 -0.1609 -0.0907
 4460SOL     OW24838   3.579   3.132   5.630  0.4097 -0.0018 -0.1869
 4460SOL    HW124839   3.502   3.181   5.603  0.8274  0.7096 -0.0797
 4460SOL    HW224840   3.615   3.213   5.667  0.1700  1.0540 -2.2887
 4461SOL     OW24841   2.930   4.103  15.723  0.3423  0.1771  0.2225
 4461SOL    HW124842   2.901   4.190  15.749  0.1980  0.6497 -1.5307
 4461SOL    HW224843   3.024   4.093  15.740 -0.0950 -5.1072 -0.3562
 4462SOL     OW24844   0.215   4.714  15.367 -0.4833 -0.1097  0.3237
 4462SOL    HW124845   0.172   0.063  15.407  1.3552  0.4633  1.2069
 4462SOL    HW224846   0.212   0.014  15.275 -0.8795 -3.1568 -0.5637
 4463SOL     OW24847   2.756   4.464   2.710  1.3519 -0.6277  0.5760
 4463SOL    HW124848   2.665   4.456   2.680  1.6766  0.5979 -0.7231
 4463SOL    HW224849   2.742   4.446   2.803 -0.0802 -0.8556  0.3249
 4464SOL     OW24850   1.225   4.076   4.827 -0.3995  0.6385 -0.0364
 4464SOL    HW124851   1.171   4.154   4.835 -1.5668 -0.3200  1.4027
 4464SOL    HW224852   1.155   4.025   4.787 -0.5088 -0.1426  1.1567
 4465SOL     OW24853   3.330   1.501   4.950 -0.3057 -0.1828 -0.0368
 4465SOL    HW124854   3.402   1.533   4.896  1.3074 -0.7164  1.7880
 4465SOL    HW224855   3.266   1.473   4.884 -0.4563  0.8931 -0.3425
 4466SOL     OW24856   2.070   0.407  17.271  0.4559 -0.4648  0.3008
 4466SOL    HW124857   2.102   0.435  17.356  1.9754 -1.6487  0.1157
 4466SOL    HW224858   2.031   0.488  17.238  0.1694 -1.3052 -1.4682
 4467SOL     OW24859   3.938   4.007   3.787 -0.0052  0.1504 -0.0248
 4467SOL    HW124860   3.985   4.090   3.798 -0.0339  0.5402 -2.7668
 4467SOL    HW224861   3.894   4.003   3.872 -2.2817 -0.1119 -1.2356
 4468SOL     OW24862   3.267   2.872  15.983  0.0915 -0.5085  0.1984
 4468SOL    HW124863   3.213   2.950  15.989 -0.2655 -0.7302 -0.1268
 4468SOL    HW224864   3.233   2.825  16.059 -0.5056  1.7158  1.2671
 4469SOL     OW24865   1.137   1.630   3.848 -0.2301 -0.5866  0.0439
 4469SOL    HW124866   1.122   1.536   3.837  1.6932 -0.7220 -1.3030
 4469SOL    HW224867   1.061   1.659   3.799 -1.3444 -1.2847  1.3514
 4470SOL     OW24868   2.171   3.720   5.422 -0.1275  0.3452  0.1425
 4470SOL    HW124869   2.228   3.656   5.465 -0.9370 -0.5499 -0.1155
 4470SOL    HW224870   2.116   3.739   5.498 -2.8158 -0.4110 -1.6154
 4471SOL     OW24871   2.928   1.750   6.700  0.8481  0.2127  0.4781
 4471SOL    HW124872   2.939   1.684   6.632  4.0947 -0.6348  1.7946
 4471SOL    HW224873   2.899   1.820   6.641 -0.7351 -3.1887 -2.7643
 4472SOL     OW24874   4.487   2.986  12.760 -0.0379 -0.2862  0.5270
 4472SOL    HW124875   4.443   2.915  12.714 -0.4033  2.2649 -2.9971
 4472SOL    HW224876   4.578   2.961  12.750  0.7371  3.2464 -1.3013
 4473SOL     OW24877   1.356   0.006  11.103 -0.2278  0.1863  0.1468
 4473SOL    HW124878   1.287   4.692  11.155  0.6499 -0.3671  0.8773
 4473SOL    HW224879   1.317   0.090  11.079  1.0464  0.0587 -2.4710
 4474SOL     OW24880   1.912   0.743   4.233  0.2619 -0.3890 -0.5261
 4474SOL    HW124881   1.997   0.742   4.189  0.2464 -1.4467 -0.5240
 4474SOL    HW224882   1.868   0.663   4.201  1.4776 -0.6481 -1.5466
 4475SOL     OW24883   2.193   3.757  17.341 -0.1096 -0.3340  0.1360
 4475SOL    HW124884   2.241   3.821  17.394  0.5329  1.6344 -2.8131
 4475SOL    HW224885   2.183   3.692  17.410 -1.3080 -1.1049 -0.7617
 4476SOL     OW24886   2.452   2.958  14.732  0.1172  0.2624 -0.4529
 4476SOL    HW124887   2.427   3.049  14.717  0.3097 -0.3133 -4.2969
 4476SOL    HW224888   2.496   2.977  14.815 -0.2266 -2.4988  0.3468
 4477SOL     OW24889   2.168   1.350   6.901 -0.1414  0.0585  0.5354
 4477SOL    HW124890   2.117   1.404   6.962  1.0714  0.9951  0.7117
 4477SOL    HW224891   2.113   1.271   6.901  1.1506 -0.8284 -0.1401
 4478SOL     OW24892   1.061   4.690   8.181 -0.7072  0.1745 -0.1139
 4478SOL    HW124893   0.988   4.705   8.121 -0.4917  2.0732  0.0849
 4478SOL    HW224894   1.140   4.695   8.128  1.8234 -0.5985  3.5631
 4479SOL     OW24895   4.403   0.920   3.218 -0.0705  0.0118  0.2023
 4479SOL    HW124896   4.317   0.933   3.176 -1.6483  0.2746  3.5623
 4479SOL    HW224897   4.375   0.860   3.286  0.9971  0.0096  0.6323
 4480SOL     OW24898   2.282   1.897  12.492  0.1521  0.2942 -0.2995
 4480SOL    HW124899   2.280   1.924  12.400  1.0893 -0.3712 -0.5165
 4480SOL    HW224900   2.370   1.859  12.499  0.9666  1.9857 -1.4866
 4481SOL     OW24901   2.127   0.248   5.408  0.1440 -0.1303 -0.1738
 4481SOL    HW124902   2.052   0.292   5.370  0.6762 -1.0312 -2.2619
 4481SOL    HW224903   2.139   0.175   5.347 -0.2650  2.3312 -3.1526
 4482SOL     OW24904   4.556   2.244   1.643 -0.8369  0.1417 -0.5578
 4482SOL    HW124905   4.549   2.213   1.733  1.7490 -0.0313 -0.4292
 4482SOL    HW224906   4.651   2.240   1.639 -0.9770 -2.0105 -1.7002
 4483SOL     OW24907   3.610   2.143   3.934  0.3998 -0.1686  0.3056
 4483SOL    HW124908   3.671   2.099   3.875 -0.5514 -0.2169 -0.6250
 4483SOL    HW224909   3.534   2.155   3.877  0.1372 -1.2881  0.4156
 4484SOL     OW24910   2.415   1.748   2.378 -0.3210  0.4215 -0.3071
 4484SOL    HW124911   2.324   1.772   2.392 -1.2156 -1.2903 -3.3270
 4484SOL    HW224912   2.451   1.771   2.464  0.3381  0.9333 -0.7278
 4485SOL     OW24913   2.916   0.231   2.030  0.3098  0.4889 -0.1683
 4485SOL    HW124914   2.943   0.164   1.968  1.6448  1.3660 -0.5339
 4485SOL    HW224915   2.824   0.204   2.039 -0.0122  1.3965 -0.7163
 4486SOL     OW24916   0.027   0.226  13.336 -0.5696  0.1184  0.4653
 4486SOL    HW124917   0.058   0.175  13.411  0.5830  0.4467  0.2125
 4486SOL    HW224918   0.039   0.315  13.370  0.3953 -0.1800  0.8937
 4487SOL     OW24919   1.970   3.475   9.224  0.1172  0.3440 -0.2003
 4487SOL    HW124920   1.978   3.528   9.304 -2.7750 -0.0689  0.3653
 4487SOL    HW224921   1.874   3.475   9.224  0.1147 -0.8041  0.8450
 4488SOL     OW24922   0.121   4.381   5.756 -0.4419 -0.4501  0.0315
 4488SOL    HW124923   0.157   4.319   5.819  0.7963  0.4395  0.1877
 4488SOL    HW224924   0.110   4.326   5.678  0.3850 -1.1518  0.4159
 4489SOL     OW24925   4.592   1.365   4.901 -0.4812 -1.1840 -0.4448
 4489SOL    HW124926   4.549   1.387   4.983  0.6753  1.7584 -0.5989
 4489SOL    HW224927   4.582   1.443   4.846 -1.5736  0.0532  1.5064
 4490SOL     OW24928   4.332   2.464   8.947  0.3374 -0.0261 -0.3133
 4490SOL    HW124929   4.339   2.398   8.878 -0.4456  0.6719 -1.0534
 4490SOL    HW224930   4.385   2.534   8.909 -1.1507  0.7592 -0.9241
 4491SOL     OW24931   3.829   0.075   9.353 -0.3485 -0.1679 -0.3312
 4491SOL    HW124932   3.884   0.142   9.393  1.9425 -2.2320 -0.0302
 4491SOL    HW224933   3.788   0.115   9.276  1.7465  1.1993 -0.7248
 4492SOL     OW24934   2.876   2.698   2.416 -0.4393  0.2699  0.2106
 4492SOL    HW124935   2.929   2.628   2.379  0.9751  1.2535  0.3509
 4492SOL    HW224936   2.860   2.761   2.345 -0.0189  1.2178  0.9496
 4493SOL     OW24937   0.289   4.425  10.781  0.2807 -0.3522  0.0871
 4493SOL    HW124938   0.355   4.457  10.720 -0.4530 -2.9467 -2.0521
 4493SOL    HW224939   0.233   4.370  10.728  2.4429 -1.6439 -0.8632
 4494SOL     OW24940   2.808   3.333  11.309  0.6575 -0.3923 -0.6574
 4494SOL    HW124941   2.821   3.428  11.306  1.1695 -0.4677 -0.8640
 4494SOL    HW224942   2.862   3.291  11.376  1.3026  1.3584 -0.0924
 4495SOL     OW24943   1.741   1.362   6.612 -0.0735 -0.1232  0.2715
 4495SOL    HW124944   1.769   1.453   6.601  0.5688 -0.1028  2.0006
 4495SOL    HW224945   1.669   1.362   6.675 -1.0885  1.2876 -0.8845
 4496SOL     OW24946   3.053   3.966   5.206 -0.6703  0.1244 -0.2433
 4496SOL    HW124947   3.095   3.915   5.137  1.1807  3.1485 -1.3364
 4496SOL    HW224948   2.963   3.932   5.204 -0.4050 -0.6091  0.3333
 4497SOL     OW24949   3.847   1.675   6.184 -0.0299 -0.0113  0.4294
 4497SOL    HW124950   3.815   1.708   6.268  1.2107  1.9368  0.1256
 4497SOL    HW224951   3.769   1.624   6.160  0.9134 -0.3650 -1.8149
 4498SOL     OW24952   1.854   0.883   7.617  0.9897  0.1826  0.4038
 4498SOL    HW124953   1.787   0.834   7.664  0.4322  1.3217  0.7729
 4498SOL    HW224954   1.933   0.839   7.649  0.7053 -1.2284 -0.8022
 4499SOL     OW24955   1.771   3.482   7.690 -0.5626 -0.0178  0.1875
 4499SOL    HW124956   1.806   3.404   7.733 -0.3271 -0.9062 -1.6113
 4499SOL    HW224957   1.772   3.444   7.602 -1.6207 -0.9153  0.5672
 4500SOL     OW24958   3.382   2.596  10.418 -0.0028  0.5202  0.1109
 4500SOL    HW124959   3.292   2.614  10.444  0.1978 -1.7808  2.2985
 4500SOL    HW224960   3.367   2.561  10.330 -2.5187 -2.2150  1.6484
 4501SOL     OW24961   0.608   2.820   8.677 -0.0055  0.7075 -0.0285
 4501SOL    HW124962   0.585   2.846   8.588  0.5289 -0.2617 -0.4537
 4501SOL    HW224963   0.550   2.875   8.729 -0.0858  0.3367  0.2768
 4502SOL     OW24964   2.862   2.056  12.877  0.1816 -0.9272 -0.8326
 4502SOL    HW124965   2.826   2.113  12.946 -0.6900 -1.4169 -0.8890
 4502SOL    HW224966   2.783   2.049  12.823 -0.3346 -1.1540 -0.0448
 4503SOL     OW24967   0.626   3.609   1.768 -0.0615 -0.4532 -0.2475
 4503SOL    HW124968   0.701   3.628   1.713 -0.2368  2.5369  0.5761
 4503SOL    HW224969   0.671   3.612   1.853 -0.6109 -1.1263  0.0754
 4504SOL     OW24970   0.005   3.300   8.895  0.1069  0.2073 -0.1830
 4504SOL    HW124971   0.010   3.358   8.971  2.7420 -0.4455  0.1390
 4504SOL    HW224972   4.658   3.334   8.846  0.8313  1.8708 -0.1096
 4505SOL     OW24973   4.143   1.516  16.082 -0.3806 -0.1850  0.1166
 4505SOL    HW124974   4.105   1.586  16.135 -0.2370  1.2823 -1.7299
 4505SOL    HW224975   4.123   1.541  15.992 -3.8191 -3.4022 -0.0176
 4506SOL     OW24976   0.286   1.925   7.476  0.3791  0.6408 -0.9447
 4506SOL    HW124977   0.316   2.007   7.515 -1.8232  1.1761 -0.3678
 4506SOL    HW224978   0.296   1.948   7.384 -1.3302 -1.3197 -1.6238
 4507SOL     OW24979   0.492   4.230   1.653  0.7175  0.0131  0.4614
 4507SOL    HW124980   0.451   4.150   1.621 -1.9627  1.2315  0.7869
 4507SOL    HW224981   0.536   4.193   1.730 -1.5016 -0.6175  1.4210
 4508SOL     OW24982   2.906   0.577   5.874  0.1447 -0.1988  0.5731
 4508SOL    HW124983   2.867   0.649   5.824 -2.7384 -1.0031  1.6705
 4508SOL    HW224984   2.842   0.579   5.944 -1.3501 -1.9005 -0.7605
 4509SOL     OW24985   4.455   3.895   7.069  0.5456  0.4427  0.5371
 4509SOL    HW124986   4.547   3.875   7.085  0.7591  1.5449  0.6539
 4509SOL    HW224987   4.410   3.822   7.113 -0.3632  0.9420  0.4298
 4510SOL     OW24988   1.060   3.741   2.731 -0.0722  0.0997 -0.2111
 4510SOL    HW124989   1.104   3.825   2.720  0.8952 -0.4354 -0.4052
 4510SOL    HW224990   1.087   3.694   2.652  0.7368 -0.2435  0.2699
 4511SOL     OW24991   4.468   0.735   0.966  0.1491 -0.2377  0.2535
 4511SOL    HW124992   4.471   0.649   1.009  0.5526 -1.4945 -2.2980
 4511SOL    HW224993   4.485   0.719   0.873 -0.6573 -1.0970  0.2515
 4512SOL     OW24994   0.505   1.822   4.708  0.8270 -1.0456 -0.2957
 4512SOL    HW124995   0.434   1.884   4.690  3.1046  1.1871 -1.5528
 4512SOL    HW224996   0.471   1.766   4.778 -1.1022  1.5547  0.8588
 4513SOL     OW24997   3.027   0.083   3.331  0.3105 -0.5191  0.5947
 4513SOL    HW124998   2.982   0.041   3.257 -0.4464 -2.7572  2.3318
 4513SOL    HW224999   3.017   0.176   3.307  1.6294 -0.7764 -0.9062
 4514SOL     OW25000   3.112   4.137   7.513 -0.1389  0.2035  0.0756
 4514SOL    HW125001   3.076   4.199   7.450  0.7306  1.6032  0.9361
 4514SOL    HW225002   3.100   4.183   7.597  3.6272 -0.3696  0.9009
 4515SOL     OW25003   0.004   0.902   7.136 -0.3128  0.3231 -0.1471
 4515SOL    HW125004   4.679   0.981   7.153 -0.3453  0.2122  0.2776
 4515SOL    HW225005   4.699   0.846   7.207 -0.9576 -0.4676 -1.0700
 4516SOL     OW25006   3.862   0.042   1.359 -0.6215 -0.8255  0.0345
 4516SOL    HW125007   3.920   4.692   1.360  3.4026  2.1406 -2.8982
 4516SOL    HW225008   3.862   0.071   1.450  0.6080  1.5734 -0.7220
 4517SOL     OW25009   2.111   1.060   1.557 -0.3068  0.1406  0.1265
 4517SOL    HW125010   2.099   1.124   1.487  1.3548  1.1619  0.7586
 4517SOL    HW225011   2.021   1.030   1.569  0.1373 -0.4995  1.8781
 4518SOL     OW25012   2.029   3.974   5.132  0.3334 -0.5362  0.1418
 4518SOL    HW125013   2.018   4.046   5.195  2.9955 -1.6110  1.8534
 4518SOL    HW225014   2.014   4.026   5.053 -0.3813  1.4636  1.5950
 4519SOL     OW25015   3.119   0.453   3.930  0.1204  0.4913  0.3673
 4519SOL    HW125016   3.095   0.497   4.012  0.0390 -1.5682  1.4374
 4519SOL    HW225017   3.101   0.518   3.861  0.3899  0.6454  0.4414
 4520SOL     OW25018   1.399   2.275   3.862  0.0952 -0.3335  0.5925
 4520SOL    HW125019   1.348   2.254   3.940 -0.8909  2.6041  0.7420
 4520SOL    HW225020   1.414   2.190   3.820  0.7357 -1.1202  2.4104
 4521SOL     OW25021   1.457   0.780  17.653  0.5160  0.0550 -0.1369
 4521SOL    HW125022   1.419   0.865  17.632  0.3312 -0.0480 -0.2212
 4521SOL    HW225023   1.373   0.737  17.674  0.7267 -1.2779 -1.9929
 4522SOL     OW25024   4.282   0.694   3.958  0.7435 -1.0797 -0.2792
 4522SOL    HW125025   4.272   0.722   4.049  0.9349 -0.1183 -0.5525
 4522SOL    HW225026   4.377   0.689   3.950  1.0471 -1.3556  3.4454
 4523SOL     OW25027   0.076   1.777   4.867 -0.2079  0.7809  0.0114
 4523SOL    HW125028   0.067   1.781   4.771  1.5961 -1.1170 -0.2535
 4523SOL    HW225029   0.120   1.692   4.876 -0.8145  0.4493 -0.1877
 4524SOL     OW25030   0.766   2.545   3.077  0.0826 -0.3729 -0.3634
 4524SOL    HW125031   0.688   2.597   3.096  0.5341 -0.6653  2.2991
 4524SOL    HW225032   0.775   2.488   3.153  0.4597 -0.8317 -0.7442
 4525SOL     OW25033   3.148   1.763   3.905  0.4398 -0.1674  0.3660
 4525SOL    HW125034   3.133   1.686   3.850  0.6553  1.4750 -1.9646
 4525SOL    HW225035   3.078   1.821   3.876 -0.7931 -1.4007  0.8916
 4526SOL     OW25036   3.673   0.017   2.205  0.5262  0.2103 -0.3183
 4526SOL    HW125037   3.718   0.100   2.223 -0.1695  0.7327 -0.9766
 4526SOL    HW225038   3.607   0.040   2.139  2.4183 -0.8067 -2.5567
 4527SOL     OW25039   1.957   1.297  13.510 -0.2579  0.6223  0.4566
 4527SOL    HW125040   1.943   1.212  13.467 -1.0973 -0.9431  3.8602
 4527SOL    HW225041   2.052   1.310  13.499 -0.4552  2.6807  1.2107
 4528SOL     OW25042   4.021   0.278   7.094 -0.1472  0.0738  0.3109
 4528SOL    HW125043   3.936   0.306   7.061  0.2318 -0.2850 -0.9971
 4528SOL    HW225044   4.001   0.200   7.146 -1.4107  1.2278  1.5271
 4529SOL     OW25045   4.279   2.970   4.207  0.3738 -0.5769 -0.2129
 4529SOL    HW125046   4.222   2.927   4.143 -0.9804 -0.1175  0.6761
 4529SOL    HW225047   4.348   3.009   4.155 -0.3650  0.8923 -0.0763
 4530SOL     OW25048   3.714   2.018   7.205 -0.3136  0.1857  0.4415
 4530SOL    HW125049   3.804   1.991   7.184  0.1069  1.0608  1.1027
 4530SOL    HW225050   3.693   2.042   7.115  0.4617 -0.3730  0.1128
 4531SOL     OW25051   2.813   2.139   5.723 -0.1370 -0.5382  0.4440
 4531SOL    HW125052   2.736   2.190   5.750 -0.3086  0.6969 -2.4244
 4531SOL    HW225053   2.771   2.081   5.659  2.0035 -1.2834 -0.2812
 4532SOL     OW25054   0.317   0.562   3.360  0.3199 -0.2535 -0.1829
 4532SOL    HW125055   0.223   0.570   3.344  0.2606  1.4122  1.0758
 4532SOL    HW225056   0.325   0.594   3.449  0.3477  1.2160 -0.7176
 4533SOL     OW25057   0.032   1.854   7.540 -0.8338  0.0410 -0.5905
 4533SOL    HW125058   0.108   1.861   7.482  0.0722 -0.7081  0.4936
 4533SOL    HW225059   4.706   1.931   7.518  0.3393  0.6473 -1.2468
 4534SOL     OW25060   3.617   2.170   2.139 -0.5937 -0.4974  0.2522
 4534SOL    HW125061   3.548   2.111   2.169 -2.5360  1.8762  0.3992
 4534SOL    HW225062   3.595   2.244   2.196 -1.4774 -1.5469  1.2861
 4535SOL     OW25063   3.929   0.087   1.706  0.1406  0.6030  0.4114
 4535SOL    HW125064   3.942   0.050   1.794 -0.4353 -0.9131 -0.1481
 4535SOL    HW225065   4.012   0.132   1.690  0.5762  0.0609  1.1468
 4536SOL     OW25066   3.981   1.111  16.984  0.7206 -0.1208  0.3991
 4536SOL    HW125067   4.012   1.185  17.037 -0.4541  0.7694 -0.1465
 4536SOL    HW225068   4.023   1.132  16.900  1.1948  4.6052  1.8084
 4537SOL     OW25069   1.428   3.065   8.149  0.2637  0.5525  1.0108
 4537SOL    HW125070   1.385   3.130   8.094  0.9332 -1.5697 -2.0083
 4537SOL    HW225071   1.368   3.069   8.224 -0.7666  1.7459  0.1166
 4538SOL     OW25072   4.643   1.190  16.802  0.1643  0.2449  0.1728
 4538SOL    HW125073   4.642   1.283  16.781 -0.0016 -0.1702 -1.7190
 4538SOL    HW225074   4.650   1.197  16.897  0.5898  0.0817  0.1546
 4539SOL     OW25075   0.436   2.938   9.908 -0.2555 -0.5274  0.2218
 4539SOL    HW125076   0.481   3.021   9.891  1.7622 -1.4328  1.1212
 4539SOL    HW225077   0.512   2.881   9.920  0.2764 -0.1036 -1.1513
 4540SOL     OW25078   4.559   4.574   8.723  0.6134  0.3257 -0.0035
 4540SOL    HW125079   4.611   4.581   8.803  2.3814 -0.1087 -1.1183
 4540SOL    HW225080   4.545   4.481   8.705  0.8712  0.1788  0.5485
 4541SOL     OW25081   2.510   0.935  13.344  0.0390 -0.0247  0.4140
 4541SOL    HW125082   2.558   0.973  13.418  0.9940 -0.3975 -0.0185
 4541SOL    HW225083   2.467   0.864  13.392 -1.7742  1.3566  0.8265
 4542SOL     OW25084   2.108   0.139   4.633 -0.3782  0.1082 -0.2799
 4542SOL    HW125085   2.158   0.143   4.551  0.1859 -1.4703 -0.0187
 4542SOL    HW225086   2.096   0.044   4.640  0.7713  0.1216  1.9985
 4543SOL     OW25087   0.241   0.733   0.491 -0.3678 -0.2148  0.5874
 4543SOL    HW125088   0.330   0.702   0.508 -0.0377 -0.3167 -1.3272
 4543SOL    HW225089   0.249   0.756   0.399  1.0171  0.4720  0.8804
 4544SOL     OW25090   4.606   1.777   3.105  0.2073  0.0384  0.4400
 4544SOL    HW125091   4.548   1.843   3.068  0.1539 -1.1050 -1.5265
 4544SOL    HW225092   4.551   1.716   3.155 -1.0073  0.7907  0.0232
 4545SOL     OW25093   0.099   3.903   2.377 -0.5414 -0.3204  0.0553
 4545SOL    HW125094   0.089   3.808   2.370 -0.0332 -0.1099 -3.4209
 4545SOL    HW225095   0.051   3.918   2.296  0.4195  1.4717 -0.1800
 4546SOL     OW25096   0.637   3.233   5.333 -0.4085  0.2171  0.0089
 4546SOL    HW125097   0.712   3.183   5.364 -0.3112  0.8903  0.8603
 4546SOL    HW225098   0.600   3.163   5.280 -0.9224 -0.5582  1.4227
 4547SOL     OW25099   2.245   2.341   3.352 -0.3053  0.0828  0.0515
 4547SOL    HW125100   2.240   2.342   3.256  0.9470  1.4495  0.0050
 4547SOL    HW225101   2.293   2.423   3.366  0.7773 -0.1208 -2.5194
 4548SOL     OW25102   2.620   0.743   0.593 -0.2648 -0.0880  0.1132
 4548SOL    HW125103   2.671   0.814   0.632  1.0223 -1.4087  0.7858
 4548SOL    HW225104   2.669   0.734   0.511 -0.6052 -1.7694  0.0876
 4549SOL     OW25105   4.041   3.041   5.013 -0.0740  0.2898 -0.3345
 4549SOL    HW125106   3.991   2.977   5.064  0.1375  0.6628  0.3335
 4549SOL    HW225107   3.979   3.113   5.005 -2.0838 -1.3799  0.2034
 4550SOL     OW25108   0.315   2.647   4.612  0.4955 -0.0203 -0.1286
 4550SOL    HW125109   0.289   2.738   4.626  1.7591 -0.0730  2.5486
 4550SOL    HW225110   0.376   2.654   4.539  0.3478 -0.3741 -0.2826
 4551SOL     OW25111   3.159   0.682  11.534 -0.2737  0.0845  0.4855
 4551SOL    HW125112   3.111   0.659  11.613 -0.1158  0.3335  0.6507
 4551SOL    HW225113   3.177   0.774  11.554  0.3140 -0.4811  2.5419
 4552SOL     OW25114   4.335   2.348   4.836  0.5104  0.1184 -0.2445
 4552SOL    HW125115   4.258   2.292   4.845  0.4313 -0.4297 -4.1823
 4552SOL    HW225116   4.331   2.363   4.741  0.2818  0.3495 -0.1976
 4553SOL     OW25117   3.797   1.276   3.932  0.0562  0.6690  0.5001
 4553SOL    HW125118   3.824   1.348   3.989  1.7769  2.6059 -2.7854
 4553SOL    HW225119   3.845   1.302   3.854  2.6464  0.3132  1.9597
 4554SOL     OW25120   0.561   3.951   3.466 -0.0892 -0.3085  0.6563
 4554SOL    HW125121   0.613   3.883   3.423 -1.2553 -0.9337  0.2294
 4554SOL    HW225122   0.493   3.957   3.399 -0.8979  0.3746  1.5337
 4555SOL     OW25123   4.191   1.128   6.440 -0.3973 -0.3189  0.4951
 4555SOL    HW125124   4.171   1.079   6.361  1.4017  1.7994 -1.2352
 4555SOL    HW225125   4.132   1.202   6.424 -1.9803 -1.3717  1.4782
 4556SOL     OW25126   2.764   2.427   1.918 -0.4244  0.6309 -0.0475
 4556SOL    HW125127   2.847   2.474   1.931  0.2422 -0.2214 -1.2325
 4556SOL    HW225128   2.706   2.495   1.884  0.0650  0.3964 -1.3604
 4557SOL     OW25129   4.312   0.795   1.911  0.3969  0.0697  0.0214
 4557SOL    HW125130   4.229   0.841   1.894  0.9706  0.2722 -2.2089
 4557SOL    HW225131   4.314   0.757   1.823 -1.1351 -1.2132  0.5318
 4558SOL     OW25132   0.941   1.125  10.852 -0.9088  0.3355  0.4835
 4558SOL    HW125133   0.858   1.133  10.899 -0.8071 -0.6509  0.8236
 4558SOL    HW225134   0.917   1.065  10.782  1.9797  1.4574 -1.4986
 4559SOL     OW25135   4.178   1.408  12.635  0.0657  0.3551  0.4344
 4559SOL    HW125136   4.145   1.404  12.545 -0.7129 -1.0658  0.7884
 4559SOL    HW225137   4.114   1.471  12.668  0.4675  0.9817  0.0049
 4560SOL     OW25138   0.136   2.010   5.003 -0.0993  0.0588  0.4411
 4560SOL    HW125139   0.113   1.924   4.966  0.6302  0.0868 -0.0817
 4560SOL    HW225140   0.144   2.061   4.922  0.2116  1.9044  1.6482
 4561SOL     OW25141   3.837   1.416  13.575  0.3831 -0.6168  0.2850
 4561SOL    HW125142   3.884   1.443  13.497  2.0667  0.1729  1.5685
 4561SOL    HW225143   3.823   1.503  13.612  1.8312 -0.1269 -0.3251
 4562SOL     OW25144   0.127   2.142   5.261 -0.1170 -0.5802 -0.3058
 4562SOL    HW125145   0.114   2.092   5.180  1.1568 -1.3591 -0.0344
 4562SOL    HW225146   0.041   2.150   5.302  0.3222  0.7370  0.3671
 4563SOL     OW25147   3.485   2.274   7.619  0.0243 -0.0724  0.4025
 4563SOL    HW125148   3.424   2.346   7.634 -0.7847 -0.7070  0.1427
 4563SOL    HW225149   3.439   2.221   7.554  0.3889 -1.0145  0.9135
 4564SOL     OW25150   2.324   2.848   1.483  0.9339  0.0669 -0.1977
 4564SOL    HW125151   2.274   2.829   1.562 -2.7380  3.1831 -1.7798
 4564SOL    HW225152   2.338   2.942   1.497 -0.5194  0.8179 -3.8571
 4565SOL     OW25153   3.918   0.991   2.700  0.5391  0.0486 -0.4349
 4565SOL    HW125154   4.008   0.961   2.713 -0.4023 -1.4360  2.5638
 4565SOL    HW225155   3.918   1.026   2.611  0.1355  1.1334 -0.0119
 4566SOL     OW25156   2.431   1.929   8.960 -0.2729 -0.2820  0.2287
 4566SOL    HW125157   2.388   1.903   8.878 -1.5739  0.3290  0.7107
 4566SOL    HW225158   2.506   1.983   8.935 -0.6064  1.2301  2.5123
 4567SOL     OW25159   3.991   2.060   7.343  0.2477 -0.0627 -0.3556
 4567SOL    HW125160   4.009   2.064   7.249  2.5368 -0.5154  0.0674
 4567SOL    HW225161   3.951   1.975   7.358  3.0396 -1.4248 -0.5973
 4568SOL     OW25162   3.709   0.301   7.048  0.8055 -0.5880 -0.1827
 4568SOL    HW125163   3.683   0.221   7.002 -0.5809 -0.2463 -0.0035
 4568SOL    HW225164   3.641   0.314   7.115  0.3205 -1.2478 -0.5504
 4569SOL     OW25165   4.259   2.328  15.893  0.3388 -0.4685  0.4355
 4569SOL    HW125166   4.298   2.414  15.883  3.0700 -1.7957 -0.4657
 4569SOL    HW225167   4.177   2.324  15.844  0.4571  1.5057  0.1119
 4570SOL     OW25168   1.386   0.679   7.555 -0.1969 -0.3840 -0.3890
 4570SOL    HW125169   1.417   0.625   7.483  0.2701  1.5206 -1.6283
 4570SOL    HW225170   1.311   0.623   7.576  0.4508 -0.5623  1.4681
 4571SOL     OW25171   3.579   3.967  13.823  0.4290 -0.0824 -0.3826
 4571SOL    HW125172   3.596   3.973  13.917 -0.0629  1.2685 -0.3821
 4571SOL    HW225173   3.484   3.960  13.821  0.5416 -1.2278 -2.0654
 4572SOL     OW25174   3.431   4.552   3.384  0.4213 -0.3029 -1.3733
 4572SOL    HW125175   3.521   4.560   3.417 -0.1385 -1.8916  0.5108
 4572SOL    HW225176   3.433   4.469   3.337  2.1231 -1.0518  0.0104
 4573SOL     OW25177   0.106   4.403   0.251 -0.4382  0.3556  0.0973
 4573SOL    HW125178   0.122   4.495   0.230 -2.0613  0.7452  0.6122
 4573SOL    HW225179   0.011   4.408   0.258 -0.6280 -1.2304 -1.4617
 4574SOL     OW25180   3.252   4.685   0.456  0.2967  0.1695 -0.4813
 4574SOL    HW125181   3.306   4.700   0.379  2.4702 -2.1955  0.5969
 4574SOL    HW225182   3.303   4.726   0.525  0.2375 -1.2110  0.3710
 4575SOL     OW25183   2.095   1.551   3.675  0.2659 -0.2842 -0.3839
 4575SOL    HW125184   2.125   1.639   3.652 -2.7358  1.4366  2.3054
 4575SOL    HW225185   2.020   1.569   3.731 -0.6751 -0.4977 -1.6007
 4576SOL     OW25186   2.383   3.166   8.329  0.0086  0.0734 -0.5824
 4576SOL    HW125187   2.451   3.166   8.397  0.3632  2.7718 -0.9254
 4576SOL    HW225188   2.354   3.077   8.350  0.6439  0.2334  1.0241
 4577SOL     OW25189   2.838   0.655   9.848 -0.1623  0.4275  0.2424
 4577SOL    HW125190   2.862   0.564   9.866  0.2755  0.8882  1.9930
 4577SOL    HW225191   2.831   0.645   9.753 -0.8882  0.1235  0.3236
 4578SOL     OW25192   3.455   0.369   9.379  0.3372  0.2968 -0.3613
 4578SOL    HW125193   3.366   0.372   9.413 -0.4217  1.7235 -2.4844
 4578SOL    HW225194   3.462   0.460   9.351  2.0394  0.3285  0.1893
 4579SOL     OW25195   0.325   3.543   4.641  0.0392 -0.5327 -0.1704
 4579SOL    HW125196   0.340   3.462   4.689 -0.4880 -1.1629 -1.0710
 4579SOL    HW225197   0.369   3.535   4.557  0.3977  2.4840 -0.2778
 4580SOL     OW25198   4.374   0.566   5.715 -0.1667  0.1969  0.0979
 4580SOL    HW125199   4.280   0.555   5.701 -0.1312 -1.4689  1.1986
 4580SOL    HW225200   4.391   0.645   5.765  1.2488  0.0109 -0.0761
 4581SOL     OW25201   0.808   3.972   9.035 -0.1720  0.1233  0.0962
 4581SOL    HW125202   0.841   4.016   8.956  1.0813  1.3782  1.3093
 4581SOL    HW225203   0.827   3.881   9.013  0.9004  0.2102  0.6550
 4582SOL     OW25204   3.884   4.485   4.966  0.6050 -0.3121 -0.3119
 4582SOL    HW125205   3.827   4.417   5.000 -1.0621  1.2990  0.1361
 4582SOL    HW225206   3.828   4.559   4.942  0.5874 -0.2364 -0.0421
 4583SOL     OW25207   1.011   0.855   2.765 -0.3077 -0.1167 -0.1347
 4583SOL    HW125208   0.945   0.801   2.722 -2.3290  0.9980  1.5458
 4583SOL    HW225209   0.977   0.942   2.746  0.9343  0.1436 -1.1249
 4584SOL     OW25210   0.918   1.625   2.741  0.4936 -0.1972 -0.3623
 4584SOL    HW125211   0.865   1.673   2.804  0.4604 -1.5228  0.6103
 4584SOL    HW225212   0.869   1.636   2.659  0.8004 -0.2878 -0.5593
 4585SOL     OW25213   0.202   4.160   9.251  0.0237 -0.6578 -0.5870
 4585SOL    HW125214   0.252   4.090   9.292  2.1330  0.7952 -0.6963
 4585SOL    HW225215   0.113   4.135   9.276 -0.6460  1.8012 -0.4811
 4586SOL     OW25216   1.938   0.506   5.773 -0.3064 -0.8793  0.2308
 4586SOL    HW125217   1.920   0.535   5.684  0.3698  0.4685  0.5286
 4586SOL    HW225218   2.013   0.449   5.762 -1.3329 -1.8839 -1.5816
 4587SOL     OW25219   0.408   3.899   7.092 -0.2030 -0.1404 -0.0422
 4587SOL    HW125220   0.411   3.994   7.104  1.2227 -0.3316  1.2126
 4587SOL    HW225221   0.406   3.883   6.998 -2.1047  1.5429 -0.2776
 4588SOL     OW25222   2.045   1.473   6.000 -0.1616  0.0108 -0.2515
 4588SOL    HW125223   2.011   1.396   5.956  1.1116  0.0900 -1.3445
 4588SOL    HW225224   2.029   1.441   6.089  0.4915 -0.1608 -0.1977
 4589SOL     OW25225   2.373   3.051   6.267  0.4543  0.2827 -0.2366
 4589SOL    HW125226   2.319   3.006   6.203  0.0484  1.3748 -0.6726
 4589SOL    HW225227   2.442   2.988   6.290  0.3728 -0.2989 -1.6187
 4590SOL     OW25228   3.844   2.409  16.736  0.2510  0.0291  0.1819
 4590SOL    HW125229   3.764   2.420  16.686  0.7750  1.8863 -0.2497
 4590SOL    HW225230   3.821   2.338  16.796 -0.1776  1.8044  2.1483
 4591SOL     OW25231   1.636   4.591   0.513 -0.0204  0.1796  0.2888
 4591SOL    HW125232   1.611   4.640   0.435  0.5436  0.2240  0.1351
 4591SOL    HW225233   1.555   4.544   0.535 -0.3990 -0.4182 -2.3874
 4592SOL     OW25234   2.984   0.728  11.334 -0.0444 -0.2535 -0.1791
 4592SOL    HW125235   3.047   0.722  11.405 -0.1450  0.8336 -0.0023
 4592SOL    HW225236   2.908   0.678  11.365 -0.8363  0.1480 -1.4950
 4593SOL     OW25237   2.944   4.648  15.025  0.6741 -0.7488  0.3221
 4593SOL    HW125238   2.864   4.629  15.074 -0.8080 -1.8915 -2.5309
 4593SOL    HW225239   3.011   4.659  15.092  1.6926 -0.4909 -0.7427
 4594SOL     OW25240   2.556   4.289   4.247  0.0251  0.5698  0.1400
 4594SOL    HW125241   2.540   4.379   4.218  1.0448  1.1725  1.4588
 4594SOL    HW225242   2.638   4.288   4.296 -0.2172  0.1286  0.5397
 4595SOL     OW25243   3.605   3.209  17.071 -0.0394  0.7730 -0.1555
 4595SOL    HW125244   3.570   3.296  17.090  1.8586  0.7184  3.5115
 4595SOL    HW225245   3.644   3.229  16.986  0.8260  0.1047  0.0867
 4596SOL     OW25246   0.453   0.953   1.889  0.1383 -0.1242  0.6584
 4596SOL    HW125247   0.426   0.866   1.918 -0.7503 -0.3702 -0.8810
 4596SOL    HW225248   0.398   0.958   1.811  1.4746 -1.9159 -0.3920
 4597SOL     OW25249   1.945   2.361   5.724  0.2714  1.1192  0.4974
 4597SOL    HW125250   1.984   2.274   5.723 -2.0369  0.1044 -0.9045
 4597SOL    HW225251   2.022   2.418   5.733  0.7615  0.7009 -1.1176
 4598SOL     OW25252   4.132   1.484  17.576  0.5997 -0.4903  0.0999
 4598SOL    HW125253   4.126   1.418  17.644 -0.1073 -0.8743 -0.3418
 4598SOL    HW225254   4.097   1.564  17.616  0.8210 -0.5598  0.4307
 4599SOL     OW25255   4.002   1.873   1.322  0.1096 -0.2192  0.6046
 4599SOL    HW125256   3.929   1.890   1.263  2.3015  0.5378 -1.8915
 4599SOL    HW225257   4.055   1.825   1.259  2.3038  3.6482 -0.5429
 4600SOL     OW25258   1.238   2.565   4.978  0.2077  0.4857 -0.4822
 4600SOL    HW125259   1.190   2.590   5.058  1.1760 -0.1213  0.2932
 4600SOL    HW225260   1.186   2.489   4.951  0.0337  0.1703  0.7007
 4601SOL     OW25261   1.646   3.735  16.166 -0.1032 -0.5921 -0.2015
 4601SOL    HW125262   1.663   3.670  16.098  1.5400  0.1661 -0.5092
 4601SOL    HW225263   1.712   3.706  16.229 -2.4117  0.5668  2.7033
 4602SOL     OW25264   2.074   3.707  11.603 -0.4235 -0.4105 -0.4495
 4602SOL    HW125265   2.070   3.776  11.537 -1.3674  0.3688  0.4203
 4602SOL    HW225266   2.092   3.758  11.682  0.9368  2.2593 -2.5124
 4603SOL     OW25267   3.321   3.471   7.820  0.6515 -0.5645  0.0203
 4603SOL    HW125268   3.402   3.425   7.844  0.3607  0.2915  2.6494
 4603SOL    HW225269   3.365   3.534   7.763 -1.0169  0.9357  0.4095
 4604SOL     OW25270   1.856   0.493  11.204  0.2236 -0.5321 -0.0112
 4604SOL    HW125271   1.934   0.532  11.163 -1.2981  0.6158 -1.8277
 4604SOL    HW225272   1.833   0.432  11.133  0.4714 -2.1013  1.2648
 4605SOL     OW25273   2.697   3.568  15.265 -0.2810  0.0371  0.3372
 4605SOL    HW125274   2.738   3.592  15.181  0.2430  0.1073  0.6097
 4605SOL    HW225275   2.770   3.534  15.317  0.8320  0.6896 -0.7821
 4606SOL     OW25276   1.792   0.880   7.971 -0.2355  0.4622 -0.0125
 4606SOL    HW125277   1.796   0.793   8.012 -0.3318  0.0931 -0.7824
 4606SOL    HW225278   1.884   0.890   7.945 -0.9713  0.6876 -2.4421
 4607SOL     OW25279   2.017   0.881   1.905  0.1577  0.2763 -0.1647
 4607SOL    HW125280   2.087   0.936   1.870 -0.4910 -0.5069 -2.7305
 4607SOL    HW225281   1.949   0.932   1.862 -1.0791 -1.6023 -0.4518
 4608SOL     OW25282   4.231   3.297   5.225 -0.0604  0.2312 -0.1978
 4608SOL    HW125283   4.143   3.327   5.249 -0.1442 -0.4353  0.3321
 4608SOL    HW225284   4.284   3.369   5.258  0.7202 -0.3343 -0.2260
 4609SOL     OW25285   1.107   0.418  12.884 -0.5887  0.3784  0.0426
 4609SOL    HW125286   1.051   0.489  12.915  1.3703  1.7810  0.4210
 4609SOL    HW225287   1.062   0.341  12.919 -1.0521  1.0100  0.8568
 4610SOL     OW25288   1.964   0.869   2.983  0.1956  0.2402 -0.3772
 4610SOL    HW125289   2.018   0.938   2.945 -0.0770  0.5387 -0.2274
 4610SOL    HW225290   1.982   0.796   2.924 -3.5483 -0.5940 -0.4976
 4611SOL     OW25291   4.025   2.432   2.439 -0.7901 -0.2444 -0.0563
 4611SOL    HW125292   3.992   2.345   2.417  1.4026 -0.8620 -0.8977
 4611SOL    HW225293   3.999   2.482   2.361  0.1363  3.1313  1.8001
 4612SOL     OW25294   3.012   4.497  12.888  0.4470 -0.5597  0.0743
 4612SOL    HW125295   3.048   4.409  12.893  2.7861  0.2471 -2.8050
 4612SOL    HW225296   2.949   4.483  12.817 -0.0171 -0.1565  0.4047
 4613SOL     OW25297   4.240   2.601   1.721  0.2285  0.3683  0.2603
 4613SOL    HW125298   4.271   2.661   1.654  2.6290 -1.7665 -0.5691
 4613SOL    HW225299   4.243   2.518   1.673 -0.2495  0.8002 -0.5259
 4614SOL     OW25300   2.486   4.148   7.697  0.0113  0.2482  0.8928
 4614SOL    HW125301   2.559   4.162   7.758  1.0530 -0.0051 -0.2789
 4614SOL    HW225302   2.429   4.220   7.724 -1.3561 -1.4403  2.5325
 4615SOL     OW25303   3.501   0.282   9.647 -0.3726 -0.3053 -0.4393
 4615SOL    HW125304   3.565   0.212   9.661 -0.4390 -0.1904  0.4206
 4615SOL    HW225305   3.521   0.306   9.556  0.0869  0.3989 -0.1503
 4616SOL     OW25306   4.047   0.254   9.030  0.2464  0.2170 -0.8432
 4616SOL    HW125307   4.010   0.321   9.087 -1.0922 -1.9852  0.8755
 4616SOL    HW225308   4.129   0.229   9.073 -0.9111 -1.1476  0.5828
 4617SOL     OW25309   2.872   4.555   1.202 -0.0786 -0.1970 -0.1542
 4617SOL    HW125310   2.800   4.603   1.243  0.3565 -0.9513  1.5176
 4617SOL    HW225311   2.939   4.623   1.206 -1.0058  0.8806 -3.2637
 4618SOL     OW25312   0.920   2.067   5.848 -0.6240  0.0292 -0.0551
 4618SOL    HW125313   0.975   2.139   5.817 -0.7971  0.7984  1.4018
 4618SOL    HW225314   0.895   2.033   5.762  0.5269  0.8499 -0.7055
 4619SOL     OW25315   3.441   4.244   4.167 -0.4601  0.4220 -0.7549
 4619SOL    HW125316   3.519   4.244   4.112  0.2747 -2.6032  0.2642
 4619SOL    HW225317   3.384   4.306   4.122 -1.1724  0.0394 -0.3928
 4620SOL     OW25318   1.496   0.389   3.077 -0.4981  0.4407  0.0841
 4620SOL    HW125319   1.400   0.389   3.074 -0.4949 -0.1159  0.0986
 4620SOL    HW225320   1.520   0.436   2.997 -0.9089  1.0006  0.2918
 4621SOL     OW25321   3.403   0.716  15.052 -0.6629 -0.2763  0.0783
 4621SOL    HW125322   3.431   0.627  15.030 -1.1814 -0.6010  0.7067
 4621SOL    HW225323   3.479   0.739  15.107  0.8517 -3.0884 -0.8383
 4622SOL     OW25324   4.436   0.258  14.431 -0.0283 -0.1695 -0.6500
 4622SOL    HW125325   4.394   0.260  14.517  1.8256 -0.4786  0.2563
 4622SOL    HW225326   4.364   0.308  14.392 -1.5305 -0.5327  1.6663
 4623SOL     OW25327   4.600   0.659  10.950 -0.3964  0.0711  0.8122
 4623SOL    HW125328   4.622   0.656  10.857  0.5122  2.2154  0.9580
 4623SOL    HW225329   4.632   0.572  10.970 -0.3770 -0.5573 -1.8900
 4624SOL     OW25330   0.277   1.327   1.448 -0.3067 -0.1887 -0.2997
 4624SOL    HW125331   0.335   1.400   1.423 -2.0544  2.3714  3.1391
 4624SOL    HW225332   0.187   1.357   1.434 -0.3254  0.6323  1.5485
 4625SOL     OW25333   2.891   4.481   7.045 -0.1240 -0.0968 -0.1125
 4625SOL    HW125334   2.900   4.570   7.079  0.5168 -0.2553  0.1445
 4625SOL    HW225335   2.803   4.479   7.009 -0.0439 -0.1016 -0.3079
 4626SOL     OW25336   4.370   0.585   6.071  0.6652  0.0969  0.3589
 4626SOL    HW125337   4.463   0.565   6.072  1.2357  2.5381 -1.8379
 4626SOL    HW225338   4.370   0.636   5.989 -0.9762  0.5148  0.6239
 4627SOL     OW25339   3.187   3.207   2.961 -0.5167  0.0131  0.1953
 4627SOL    HW125340   3.241   3.186   2.885  0.4396  2.0618  0.2948
 4627SOL    HW225341   3.098   3.210   2.924 -0.8126 -0.0584  0.9035
 4628SOL     OW25342   1.556   2.417   6.388 -0.2411  0.3336  0.8023
 4628SOL    HW125343   1.592   2.504   6.403 -2.2914  1.6423 -1.8882
 4628SOL    HW225344   1.591   2.397   6.302  0.3093  3.5991  0.2630
 4629SOL     OW25345   1.018   2.225   2.726 -0.4448 -0.2858  0.5115
 4629SOL    HW125346   0.988   2.134   2.723 -0.9192 -0.1477  1.1207
 4629SOL    HW225347   0.937   2.275   2.714  0.2530  0.1455 -2.5428
 4630SOL     OW25348   3.674   4.462   6.952  0.3724  0.3170 -0.3124
 4630SOL    HW125349   3.600   4.493   7.005 -0.7825 -1.6546 -0.7619
 4630SOL    HW225350   3.630   4.403   6.891 -1.0607 -1.2020  2.1817
 4631SOL     OW25351   1.638   2.455   7.503  1.2140  0.4756  0.4072
 4631SOL    HW125352   1.579   2.531   7.511 -0.3965 -0.4659 -2.6117
 4631SOL    HW225353   1.659   2.454   7.410 -1.3879  1.0966 -0.1969
 4632SOL     OW25354   1.206   1.958   4.138 -0.1734  0.2723  0.1239
 4632SOL    HW125355   1.168   1.871   4.149  0.1797  0.1996  0.7524
 4632SOL    HW225356   1.143   1.996   4.076 -0.4287  1.1249  0.9114
 4633SOL     OW25357   3.710   2.108  12.566 -0.1033 -0.0625 -0.4447
 4633SOL    HW125358   3.660   2.091  12.646  1.7781 -1.7542  0.3556
 4633SOL    HW225359   3.686   2.026  12.523  1.6356 -0.9455  0.3035
 4634SOL     OW25360   1.622   0.495   3.777  0.4790 -0.4649 -0.4341
 4634SOL    HW125361   1.612   0.497   3.682 -0.2760 -1.3759 -0.3641
 4634SOL    HW225362   1.603   0.403   3.795  0.4071 -0.1571  1.0545
 4635SOL     OW25363   4.202   0.367  11.058 -0.2570 -0.3545  0.4003
 4635SOL    HW125364   4.109   0.388  11.059  0.2303  1.7275  1.5590
 4635SOL    HW225365   4.220   0.397  10.969  0.3625 -0.8282  0.3681
 4636SOL     OW25366   1.739   1.938   8.958  0.4882  0.0458  0.1909
 4636SOL    HW125367   1.761   2.031   8.956  0.3921  0.0503 -1.1702
 4636SOL    HW225368   1.648   1.946   8.929  0.5955  1.9551  0.4148
 4637SOL     OW25369   3.880   3.613   6.469 -0.1592  0.4536 -0.1459
 4637SOL    HW125370   3.784   3.613   6.469 -0.1529 -1.1030  0.7034
 4637SOL    HW225371   3.901   3.526   6.436 -0.4638 -0.7758  2.8943
 4638SOL     OW25372   3.767   1.115   1.187  0.3853  0.4281  0.0249
 4638SOL    HW125373   3.776   1.209   1.202 -0.8927  0.6035 -0.3272
 4638SOL    HW225374   3.715   1.116   1.107 -1.3370  1.8250  1.1685
 4639SOL     OW25375   2.140   3.943   6.692  0.0533  0.3283 -0.2679
 4639SOL    HW125376   2.152   3.994   6.612 -0.0858  0.6054 -0.1146
 4639SOL    HW225377   2.219   3.890   6.699 -0.1507  0.0657  0.0488
 4640SOL     OW25378   4.129   0.475   6.798 -0.4657 -0.1437 -0.2939
 4640SOL    HW125379   4.181   0.427   6.863 -2.7676 -0.1827  1.4949
 4640SOL    HW225380   4.055   0.487   6.858  1.1691  1.1753  1.4485
 4641SOL     OW25381   4.107   0.615   6.098  0.1341  0.6739  0.3365
 4641SOL    HW125382   4.194   0.577   6.104 -1.1960 -2.4047  0.3678
 4641SOL    HW225383   4.097   0.643   6.007  1.4265 -0.7499 -0.2315
 4642SOL     OW25384   3.371   1.926   3.230  0.2535 -0.6328 -0.0007
 4642SOL    HW125385   3.332   1.870   3.296  1.1948 -0.7102  0.4974
 4642SOL    HW225386   3.392   1.866   3.159 -3.7748 -2.9907  0.8626
 4643SOL     OW25387   1.688   2.044   2.475  0.0795  0.2609 -0.5012
 4643SOL    HW125388   1.705   2.083   2.389 -2.6200 -0.6750 -1.4725
 4643SOL    HW225389   1.734   2.109   2.527 -3.5244  0.7994  2.0555
 4644SOL     OW25390   3.063   1.942   2.473  0.5325  0.5677  0.3881
 4644SOL    HW125391   2.971   1.966   2.483  0.2923 -0.2319  0.0705
 4644SOL    HW225392   3.052   1.848   2.481 -0.7363  0.7931  1.2150
 4645SOL     OW25393   3.042   3.410  10.935 -0.2877 -0.1736 -0.2655
 4645SOL    HW125394   3.113   3.462  10.897 -0.0429  0.7653  1.4753
 4645SOL    HW225395   3.043   3.466  11.013 -2.7614  0.5038 -0.7160
 4646SOL     OW25396   0.046   0.826  13.405 -0.5872 -0.2872 -0.6933
 4646SOL    HW125397   0.074   0.874  13.327  0.2641  0.5327  0.1039
 4646SOL    HW225398   0.106   0.751  13.411  0.2451  0.4974  0.9631
 4647SOL     OW25399   3.250   1.128   4.749 -0.3708  0.6730  0.4381
 4647SOL    HW125400   3.337   1.095   4.773 -0.6269  0.8527  1.6269
 4647SOL    HW225401   3.208   1.103   4.831 -1.1113  2.0574  0.4700
 4648SOL     OW25402   2.101   1.782   7.256 -0.3831 -0.0602 -0.9386
 4648SOL    HW125403   2.023   1.796   7.202 -1.3231  2.8593  1.1643
 4648SOL    HW225404   2.160   1.738   7.195  0.4634 -2.0216  1.2862
 4649SOL     OW25405   1.452   2.153   0.004  0.4209 -0.3915  0.4193
 4649SOL    HW125406   1.494   2.222  17.664 -1.6264  1.2326  0.9373
 4649SOL    HW225407   1.470   2.192   0.090 -1.3466 -1.6278  1.3814
 4650SOL     OW25408   0.978   1.758   5.090  0.3805 -0.0031 -0.1844
 4650SOL    HW125409   1.011   1.673   5.062 -2.3924 -0.6087 -1.6087
 4650SOL    HW225410   0.940   1.798   5.012 -0.3059  0.5715  0.4392
 4651SOL     OW25411   1.898   2.648   2.088 -0.0585  0.0586  0.0890
 4651SOL    HW125412   1.965   2.687   2.031  0.4320 -1.6187 -0.4697
 4651SOL    HW225413   1.897   2.558   2.055 -2.2481  1.1961 -2.9773
 4652SOL     OW25414   1.797   1.002   2.672 -0.1156  0.1607  0.0765
 4652SOL    HW125415   1.759   0.929   2.623  0.5003  0.2182 -0.4843
 4652SOL    HW225416   1.720   1.057   2.678  0.2538  0.8078 -1.1660
 4653SOL     OW25417   2.053   4.380  10.740  0.8342 -0.5676  0.0774
 4653SOL    HW125418   2.007   4.300  10.766 -0.9708  1.2614  2.4969
 4653SOL    HW225419   2.059   4.435  10.818 -0.0016 -1.2055  0.5851
 4654SOL     OW25420   0.708   1.053   5.038  0.1078  0.2781 -0.2610
 4654SOL    HW125421   0.727   1.072   4.946  1.2059 -1.8297 -0.4812
 4654SOL    HW225422   0.616   1.079   5.045  0.1199  0.9752 -2.5923
 4655SOL     OW25423   2.412   0.628   6.289 -0.5112  0.7190 -0.0962
 4655SOL    HW125424   2.353   0.611   6.215 -2.8026  0.6001  1.7536
 4655SOL    HW225425   2.355   0.676   6.349  0.5590  1.5514  0.2510
 4656SOL     OW25426   2.478   2.378   0.901 -0.0693  0.5208 -0.4163
 4656SOL    HW125427   2.517   2.362   0.987  2.1447 -0.6244 -1.6320
 4656SOL    HW225428   2.437   2.294   0.883 -0.5491  1.0347 -1.7362
 4657SOL     OW25429   0.207   2.273   8.956  0.3289  0.1624 -0.0025
 4657SOL    HW125430   0.180   2.359   8.986 -0.3442 -0.3392  0.8268
 4657SOL    HW225431   0.132   2.265   8.896 -0.0075 -0.1278  0.4554
 4658SOL     OW25432   4.565   0.912   9.589 -0.6643  0.1764 -0.8619
 4658SOL    HW125433   4.610   0.974   9.531  1.0055 -0.2282 -0.0003
 4658SOL    HW225434   4.474   0.940   9.575 -0.5273  1.5134  0.9674
 4659SOL     OW25435   1.578   0.898  10.659 -0.3120 -0.3498 -0.6284
 4659SOL    HW125436   1.600   0.811  10.691  2.6028  1.0370  1.1110
 4659SOL    HW225437   1.555   0.886  10.567 -1.9543  1.1794 -0.4309
 4660SOL     OW25438   2.969   2.536  14.303  0.1730  0.3903 -0.0226
 4660SOL    HW125439   2.964   2.532  14.208  2.4608 -0.0530 -0.1223
 4660SOL    HW225440   3.048   2.487  14.324  0.0638 -0.3534 -1.3642
 4661SOL     OW25441   2.525   3.676   8.480 -0.0400  0.2492  0.3687
 4661SOL    HW125442   2.606   3.628   8.463 -0.2886  0.0966 -0.3930
 4661SOL    HW225443   2.483   3.630   8.553 -2.1928 -0.7193 -1.4509
 4662SOL     OW25444   3.311   1.911   2.377 -0.3903 -0.2419 -0.2509
 4662SOL    HW125445   3.226   1.945   2.407 -1.1480 -0.8478 -1.7111
 4662SOL    HW225446   3.365   1.987   2.400 -0.2317 -0.5493  0.3755
 4663SOL     OW25447   2.910   3.773  14.463  0.6011 -0.8092 -0.2773
 4663SOL    HW125448   2.927   3.865  14.441  0.1888 -0.4556  0.8973
 4663SOL    HW225449   2.970   3.725  14.406  3.7510  2.4109  0.3248
 4664SOL     OW25450   0.349   1.369   3.336  0.2122 -0.4139  0.4237
 4664SOL    HW125451   0.362   1.462   3.322 -0.0337 -0.5175 -0.5413
 4664SOL    HW225452   0.253   1.363   3.332  0.1656  0.4824  0.3319
 4665SOL     OW25453   3.943   0.405   6.166 -0.1956  0.6503 -0.1726
 4665SOL    HW125454   4.013   0.470   6.155  1.3866 -0.6485  2.4248
 4665SOL    HW225455   3.922   0.415   6.258  0.8274  1.0910  0.0139
 4666SOL     OW25456   1.609   0.953  16.341 -0.8599  0.0198 -0.7014
 4666SOL    HW125457   1.514   0.965  16.342 -0.7618  0.7224 -0.4060
 4666SOL    HW225458   1.652   1.037  16.352 -0.7169  0.0481 -1.4554
 4667SOL     OW25459   3.300   4.305   6.094  0.2322  0.5487 -0.7879
 4667SOL    HW125460   3.230   4.284   6.032 -0.5570  2.4022 -0.5345
 4667SOL    HW225461   3.315   4.399   6.079  1.5499  0.5311  0.4234
 4668SOL     OW25462   3.496   4.301   3.299 -0.0456 -0.5564 -0.4592
 4668SOL    HW125463   3.583   4.259   3.295  0.8588  1.2460  0.6126
 4668SOL    HW225464   3.453   4.238   3.357 -1.6281  1.9222  1.0373
 4669SOL     OW25465   2.596   1.141   9.336 -0.1929 -0.3647 -0.2708
 4669SOL    HW125466   2.603   1.176   9.425 -1.2785 -0.3191 -0.2074
 4669SOL    HW225467   2.616   1.048   9.346 -0.0186 -0.2794  0.1465
 4670SOL     OW25468   0.077   2.073   8.386  0.4638  0.3917 -0.3184
 4670SOL    HW125469   4.715   2.061   8.351 -0.2029 -0.4188  1.6668
 4670SOL    HW225470   0.090   2.166   8.370 -1.3587  0.7635  0.3839
 4671SOL     OW25471   1.485   2.240   8.433  0.0043  0.2917  0.7816
 4671SOL    HW125472   1.576   2.216   8.415 -0.1777  0.5407 -0.5253
 4671SOL    HW225473   1.458   2.163   8.483 -1.4346  2.4579  3.3151
 4672SOL     OW25474   3.949   0.566   1.338 -0.3158  0.2576 -0.5650
 4672SOL    HW125475   3.872   0.619   1.315 -0.6365 -0.0001 -0.0888
 4672SOL    HW225476   3.975   0.623   1.410 -2.3041 -1.3537  1.4557
 4673SOL     OW25477   1.504   4.083   3.723  0.3808 -0.0220 -0.1838
 4673SOL    HW125478   1.463   4.146   3.782  0.5009  0.3530 -0.4957
 4673SOL    HW225479   1.590   4.120   3.704 -0.2619  1.4677 -0.1687
 4674SOL     OW25480   0.311   0.681   1.910  0.2397  0.5146  0.2205
 4674SOL    HW125481   0.277   0.698   1.998  0.6607  1.1550  0.2636
 4674SOL    HW225482   0.247   0.623   1.870  1.2943  0.6331 -1.6693
 4675SOL     OW25483   0.210   2.557   5.649  0.2535 -0.2524 -0.0245
 4675SOL    HW125484   0.230   2.463   5.647 -1.5801 -0.6302 -0.6346
 4675SOL    HW225485   0.159   2.562   5.730  2.3705  0.4472  1.2621
 4676SOL     OW25486   1.874   3.728  11.034  0.3602 -0.4399 -0.5773
 4676SOL    HW125487   1.798   3.787  11.029  0.5015  0.0781  2.7869
 4676SOL    HW225488   1.932   3.777  11.093 -1.4358  1.8213 -0.6701
 4677SOL     OW25489   0.056   0.191   7.058 -0.1348 -0.2239 -0.5735
 4677SOL    HW125490   4.707   0.166   7.110  0.1573 -0.5981 -0.3195
 4677SOL    HW225491   0.020   0.201   6.970 -3.1378 -0.2827  0.6608
 4678SOL     OW25492   0.758   1.162   5.811 -0.3483  0.1573 -0.0318
 4678SOL    HW125493   0.817   1.219   5.860 -0.1649  0.0860 -0.1693
 4678SOL    HW225494   0.819   1.156   5.738 -0.4636 -2.7449  0.1001
 4679SOL     OW25495   0.062   1.604   3.623 -0.1745 -0.1078  0.2362
 4679SOL    HW125496   0.065   1.513   3.651  1.7153 -0.3857 -0.9093
 4679SOL    HW225497   0.110   1.602   3.540  0.2763  0.5206  0.4792
 4680SOL     OW25498   2.289   4.614  11.691  0.3566 -0.3287 -0.2168
 4680SOL    HW125499   2.331   4.695  11.663 -0.8071 -0.0017 -1.0581
 4680SOL    HW225500   2.195   4.630  11.682  0.2610 -0.9399 -0.3221
 4681SOL     OW25501   2.186   0.279   0.032 -0.0660 -0.1021 -0.0453
 4681SOL    HW125502   2.155   0.227  17.667  0.5766  1.1600 -1.2121
 4681SOL    HW225503   2.154   0.241   0.114  0.1193 -2.6839 -1.1604
 4682SOL     OW25504   0.937   3.630   6.624 -0.3179 -0.0953 -0.0028
 4682SOL    HW125505   1.000   3.579   6.573  1.2788  0.6971  1.1901
 4682SOL    HW225506   0.966   3.720   6.609  1.4956 -0.6354  0.2839
 4683SOL     OW25507   3.882   1.057   2.430 -0.3070  0.3624  0.5447
 4683SOL    HW125508   3.967   1.050   2.387 -0.3002  2.0278  0.2784
 4683SOL    HW225509   3.852   1.135   2.383  1.3845  0.9115  0.3756
 4684SOL     OW25510   2.189   4.430   8.982  0.0403 -0.0040 -0.1177
 4684SOL    HW125511   2.135   4.499   9.019 -0.1407  0.7451 -1.7847
 4684SOL    HW225512   2.203   4.378   9.061  2.1362  0.7230 -0.0018
 4685SOL     OW25513   3.589   1.884   2.356 -0.4016 -0.2118 -0.1740
 4685SOL    HW125514   3.606   1.966   2.403  1.4287  0.5534 -2.1279
 4685SOL    HW225515   3.526   1.838   2.411  0.9989 -1.1726  0.6074
 4686SOL     OW25516   1.356   0.098   5.634  0.4646 -0.0860  0.2464
 4686SOL    HW125517   1.373   0.186   5.668  0.7572 -1.4871  3.7147
 4686SOL    HW225518   1.405   0.096   5.551 -0.9768  0.1224 -0.6173
 4687SOL     OW25519   3.616   3.296   2.237 -0.3882 -0.3532 -0.1523
 4687SOL    HW125520   3.573   3.373   2.273 -0.2749  0.3733 -1.6077
 4687SOL    HW225521   3.637   3.313   2.146  0.1558 -2.0066 -0.3411
 4688SOL     OW25522   3.199   3.919   6.129  0.4026 -0.2915 -0.3691
 4688SOL    HW125523   3.187   3.917   6.224 -3.3366 -1.2887 -0.8759
 4688SOL    HW225524   3.170   3.830   6.111  0.8226 -0.3059 -0.9727
 4689SOL     OW25525   3.514   1.759  12.548 -0.1680  0.0257 -0.0363
 4689SOL    HW125526   3.481   1.809  12.622 -1.6344 -0.3128 -0.4626
 4689SOL    HW225527   3.492   1.674  12.586  2.5925  0.3088  2.1345
 4690SOL     OW25528   1.995   1.643   2.089  0.2307  0.3501  0.0101
 4690SOL    HW125529   2.024   1.706   2.155  0.9611 -0.6760  0.6742
 4690SOL    HW225530   1.919   1.694   2.059 -1.5647 -0.6694  2.8590
 4691SOL     OW25531   1.665   4.721   5.012 -0.5225  0.4284  0.1036
 4691SOL    HW125532   1.572   4.725   5.035 -0.0981  0.3142  1.8082
 4691SOL    HW225533   1.712   4.699   5.092 -1.2792  1.2876  0.7862
 4692SOL     OW25534   3.159   0.503  14.699 -0.1604 -0.2162  0.0773
 4692SOL    HW125535   3.153   0.474  14.790  4.0695  1.0159  0.7495
 4692SOL    HW225536   3.064   0.508  14.683 -0.3266 -1.2760  0.7725
 4693SOL     OW25537   1.257   3.061   9.123  0.5402  0.1624  0.0080
 4693SOL    HW125538   1.221   2.985   9.079 -1.7945  2.4834 -2.1012
 4693SOL    HW225539   1.322   3.024   9.182 -1.0780 -0.9044  1.1100
 4694SOL     OW25540   4.267   1.993   6.999 -0.5615 -0.1916  0.2811
 4694SOL    HW125541   4.347   2.016   6.952  0.3377  0.0941  1.9607
 4694SOL    HW225542   4.241   1.927   6.935 -1.1061  1.8533 -1.6371
 4695SOL     OW25543   0.747   2.620   4.541 -0.1715 -0.4711  0.2557
 4695SOL    HW125544   0.656   2.600   4.563 -0.0853 -0.8197  0.2985
 4695SOL    HW225545   0.771   2.679   4.612 -1.0493  0.5786 -0.3244
 4696SOL     OW25546   1.458   2.317   0.307 -0.1931  0.6968  0.3516
 4696SOL    HW125547   1.420   2.333   0.394 -2.5926  0.3775 -0.6234
 4696SOL    HW225548   1.397   2.357   0.245  1.4498 -0.2934 -1.8547
 4697SOL     OW25549   2.685   3.652  15.598 -0.0583  0.1467  0.3539
 4697SOL    HW125550   2.669   3.729  15.543 -1.7638  0.2510  0.9894
 4697SOL    HW225551   2.772   3.673  15.632  1.4255 -1.0585 -2.7167
 4698SOL     OW25552   3.398   0.668   1.307 -0.4296  0.3776  0.0369
 4698SOL    HW125553   3.425   0.758   1.326 -0.3823  0.2740  0.4608
 4698SOL    HW225554   3.455   0.614   1.362 -2.9662  0.7838  3.0475
 4699SOL     OW25555   1.245   1.333   1.293  0.3900  0.2816  0.0961
 4699SOL    HW125556   1.255   1.307   1.385 -0.0623 -0.2078  0.0050
 4699SOL    HW225557   1.206   1.255   1.255 -0.0251 -0.0553  1.2058
 4700SOL     OW25558   0.092   3.279   9.530 -0.0941 -0.3101 -0.1997
 4700SOL    HW125559   0.188   3.279   9.524 -0.1285 -1.8655 -0.7789
 4700SOL    HW225560   0.073   3.357   9.581  2.1205 -0.6008  1.0627
 4701SOL     OW25561   0.900   4.312   8.288 -0.6393 -0.4019 -0.0769
 4701SOL    HW125562   0.838   4.276   8.224  0.0369 -2.3861  0.4001
 4701SOL    HW225563   0.979   4.312   8.234 -1.5148 -0.1749 -1.3723
 4702SOL     OW25564   0.940   1.915  13.983  0.2363 -0.2383  0.3595
 4702SOL    HW125565   0.859   1.885  13.941  0.2739  0.5327 -0.2654
 4702SOL    HW225566   0.990   1.836  14.003  0.4763 -0.7318 -2.1318
 4703SOL     OW25567   4.389   1.513  10.794 -0.0724  0.0165 -0.2279
 4703SOL    HW125568   4.352   1.600  10.806 -0.3648 -0.3721  1.6938
 4703SOL    HW225569   4.465   1.515  10.853  0.0268  1.9059 -0.4223
 4704SOL     OW25570   1.580   0.695   8.198  0.3168 -0.2050  0.0513
 4704SOL    HW125571   1.609   0.776   8.241 -2.2258  1.6981 -1.8541
 4704SOL    HW225572   1.491   0.723   8.177  1.0114  0.7196 -1.6339
 4705SOL     OW25573   1.162   3.917  11.954  0.1812  0.6521  0.1480
 4705SOL    HW125574   1.237   3.860  11.934  0.0955  0.5026  0.2500
 4705SOL    HW225575   1.180   3.913  12.048  0.2046 -0.3168  0.1058
 4706SOL     OW25576   0.402   0.889   5.524 -0.0091  0.0099 -0.5538
 4706SOL    HW125577   0.482   0.845   5.554  0.5222  1.5808  0.2994
 4706SOL    HW225578   0.434   0.978   5.533  1.1387 -0.5977  1.2880
 4707SOL     OW25579   2.909   2.747  14.460  0.2723 -0.2861 -0.0063
 4707SOL    HW125580   2.980   2.806  14.435  1.3847 -1.7239 -0.2969
 4707SOL    HW225581   2.909   2.683  14.389 -0.1716  1.9057 -1.9891
 4708SOL     OW25582   3.978   1.428  14.975  0.7397 -0.2987  0.6968
 4708SOL    HW125583   3.970   1.333  14.971  1.2612 -0.1756 -2.4672
 4708SOL    HW225584   3.940   1.434  15.063 -0.1627  1.8992  0.1650
 4709SOL     OW25585   2.886   0.013   4.027 -0.7730 -0.2231 -0.0429
 4709SOL    HW125586   2.934   0.036   4.106 -0.0051 -0.9051 -0.3044
 4709SOL    HW225587   2.938   0.060   3.962  0.4269 -1.1307  0.2480
 4710SOL     OW25588   3.220   2.280   2.979 -0.4498 -0.3567  0.5941
 4710SOL    HW125589   3.227   2.374   2.959  0.6635 -0.7621 -0.9080
 4710SOL    HW225590   3.141   2.276   3.032 -0.2185  0.5379  1.0128
 4711SOL     OW25591   2.816   2.605  10.679  0.0510 -0.0877  0.8250
 4711SOL    HW125592   2.902   2.644  10.661 -0.2119 -0.2887 -0.8973
 4711SOL    HW225593   2.787   2.650  10.758  0.3316  1.0338  0.2828
 4712SOL     OW25594   1.830   3.217  12.710 -0.5735 -0.1232  0.3329
 4712SOL    HW125595   1.784   3.133  12.709  1.0976 -1.0552  1.1052
 4712SOL    HW225596   1.751   3.262  12.739 -1.4653 -0.2398 -1.9575
 4713SOL     OW25597   3.191   3.514  16.173 -0.1186  0.3111 -0.0393
 4713SOL    HW125598   3.166   3.422  16.166  1.4551 -0.0564 -0.9749
 4713SOL    HW225599   3.109   3.563  16.169 -0.0347  0.3872 -0.7038
 4714SOL     OW25600   4.081   0.133  17.152  0.6253 -0.4246  0.4329
 4714SOL    HW125601   4.150   0.089  17.102  1.1969  1.4842 -0.4504
 4714SOL    HW225602   4.129   0.164  17.229 -0.6351  2.6802 -0.0246
 4715SOL     OW25603   0.762   0.941   5.956 -0.2137  0.8290  0.1122
 4715SOL    HW125604   0.674   0.946   5.993 -0.8079 -1.5895 -0.9763
 4715SOL    HW225605   0.773   1.028   5.918  0.1129  0.2721 -1.0518
 4716SOL     OW25606   3.491   1.897  15.081 -0.5169  0.3445  0.5299
 4716SOL    HW125607   3.515   1.928  14.994 -1.0147 -2.3897 -0.5452
 4716SOL    HW225608   3.565   1.841  15.105 -0.0884 -0.1046 -1.8274
 4717SOL     OW25609   1.595   4.262   0.690  0.3038 -0.0891  0.0970
 4717SOL    HW125610   1.555   4.178   0.710  0.5233 -0.9269 -3.0325
 4717SOL    HW225611   1.520   4.321   0.689  0.4418  0.0530 -1.1222
 4718SOL     OW25612   3.896   1.132   6.025  0.3844  0.2715 -0.3539
 4718SOL    HW125613   3.826   1.125   5.961  1.2686 -0.0891 -1.2851
 4718SOL    HW225614   3.875   1.062   6.087 -1.4224  0.0874 -1.1932
 4719SOL     OW25615   3.707   2.523   4.750 -0.5180 -0.2229 -0.4211
 4719SOL    HW125616   3.659   2.596   4.712 -0.3344 -0.5037 -1.2009
 4719SOL    HW225617   3.662   2.447   4.712  0.6015 -2.1783  2.1341
 4720SOL     OW25618   1.663   4.027   4.886 -0.5456 -0.1724  0.0619
 4720SOL    HW125619   1.670   4.122   4.893  0.7111 -0.3206  0.8648
 4720SOL    HW225620   1.599   4.024   4.814  0.1739 -0.3071 -0.5736
 4721SOL     OW25621   0.633   1.697   6.820  0.9484  0.0017  0.2717
 4721SOL    HW125622   0.655   1.708   6.727 -1.9136 -1.5185 -0.5681
 4721SOL    HW225623   0.715   1.653   6.843 -0.9174 -2.6851  1.8159
 4722SOL     OW25624   2.658   2.247   2.161  0.1852  0.0258 -0.3281
 4722SOL    HW125625   2.583   2.203   2.121 -1.7850  0.1994  3.1756
 4722SOL    HW225626   2.710   2.260   2.082 -2.2209 -0.5895 -1.9875
 4723SOL     OW25627   3.150   0.063   6.023 -0.4784  0.0053 -0.0352
 4723SOL    HW125628   3.238   0.075   6.059 -0.1273  0.6424 -1.0823
 4723SOL    HW225629   3.174   0.020   5.941  0.1794  0.9039 -0.3253
 4724SOL     OW25630   3.950   0.087   8.712  0.3068  0.3285 -0.3457
 4724SOL    HW125631   3.902   0.017   8.757 -1.3411  2.9095  1.8937
 4724SOL    HW225632   4.035   0.090   8.757 -0.8345 -1.5932  1.9104
 4725SOL     OW25633   2.047   4.255  16.769  0.1901 -0.4235 -0.2325
 4725SOL    HW125634   2.070   4.346  16.788  0.4273 -0.9899  2.1742
 4725SOL    HW225635   1.958   4.253  16.805  0.8084 -2.1164  1.1915
 4726SOL     OW25636   1.917   3.399   5.304  0.1230 -0.1137 -0.0791
 4726SOL    HW125637   1.938   3.396   5.398 -1.2665  0.5785  0.2567
 4726SOL    HW225638   1.993   3.427   5.254 -0.1404 -0.0678 -0.4588
 4727SOL     OW25639   2.434   2.658   9.983  0.0970 -0.0407 -0.3020
 4727SOL    HW125640   2.369   2.728   9.985  0.2216  0.0099  1.6006
 4727SOL    HW225641   2.411   2.614  10.065  0.1035  0.7087  0.0975
 4728SOL     OW25642   0.862   2.560   7.849 -0.1169  0.1488  0.4582
 4728SOL    HW125643   0.937   2.619   7.852 -0.1834  0.2953 -0.9790
 4728SOL    HW225644   0.908   2.482   7.880 -0.0274  0.4581  1.1128
 4729SOL     OW25645   0.125   3.385   2.438 -0.1843 -0.7225 -0.4220
 4729SOL    HW125646   0.214   3.409   2.463 -1.0757  0.7552  1.2289
 4729SOL    HW225647   0.074   3.384   2.518  0.4347 -0.8841 -0.0311
 4730SOL     OW25648   0.740   1.217   1.904 -0.7299  0.3407 -0.1718
 4730SOL    HW125649   0.825   1.245   1.870  0.7082 -1.7535  1.7073
 4730SOL    HW225650   0.702   1.197   1.818  2.0272  1.9690 -1.7787
 4731SOL     OW25651   3.605   1.957   5.508 -0.2558 -0.3410  0.2903
 4731SOL    HW125652   3.632   1.992   5.423  0.4761 -2.4014 -0.3316
 4731SOL    HW225653   3.586   2.035   5.560 -2.8292  0.5319 -1.9812
 4732SOL     OW25654   1.548   0.178  12.585  0.3871  0.5614  0.1108
 4732SOL    HW125655   1.552   0.084  12.566  0.7612  0.7342 -0.6389
 4732SOL    HW225656   1.613   0.211  12.524  2.1478 -3.6675 -0.3222
 4733SOL     OW25657   0.564   3.458   8.328 -0.3265  0.1916  0.1571
 4733SOL    HW125658   0.474   3.476   8.300 -0.2966 -1.9751 -1.3453
 4733SOL    HW225659   0.613   3.512   8.266 -0.2527 -1.5198 -1.2697
 4734SOL     OW25660   3.118   4.467   4.580  0.1317  0.4559 -0.0637
 4734SOL    HW125661   3.040   4.522   4.575 -2.2871 -3.0185 -0.3763
 4734SOL    HW225662   3.163   4.483   4.496  0.2317 -1.3614 -0.3441
 4735SOL     OW25663   0.545   4.158   3.057  0.1780  0.0908 -0.1447
 4735SOL    HW125664   0.551   4.081   3.001 -2.1924 -0.7523  0.7530
 4735SOL    HW225665   0.564   4.123   3.144 -1.9876 -0.5864  0.0592
 4736SOL     OW25666   4.087   2.934   7.357  0.3662  0.2616  0.0481
 4736SOL    HW125667   4.081   2.867   7.290  0.6073 -0.3588  0.6447
 4736SOL    HW225668   3.996   2.954   7.379  0.4019  2.1914 -1.5298
 4737SOL     OW25669   0.873   0.485   6.127  0.1860 -0.4022  0.0544
 4737SOL    HW125670   0.818   0.543   6.075 -1.7025 -1.3000  1.0220
 4737SOL    HW225671   0.895   0.421   6.059  1.0395 -0.3814  0.3117
 4738SOL     OW25672   3.604   3.293   8.488 -0.2206  0.2486 -1.2246
 4738SOL    HW125673   3.639   3.295   8.577 -0.2999  0.4614 -1.1959
 4738SOL    HW225674   3.511   3.307   8.509  0.0390  0.5016 -0.2515
 4739SOL     OW25675   2.285   1.168  12.110  0.8336 -0.1530  0.3313
 4739SOL    HW125676   2.313   1.103  12.046 -1.5286  1.3852 -2.2570
 4739SOL    HW225677   2.364   1.181  12.163  1.5034 -1.5950 -0.3211
 4740SOL     OW25678   4.424   0.668   3.511  0.6643 -0.5054 -0.1807
 4740SOL    HW125679   4.501   0.692   3.459  0.8225 -1.2140 -0.2789
 4740SOL    HW225680   4.455   0.687   3.599  0.6168  0.8977 -0.4663
 4741SOL     OW25681   3.796   1.690   2.629 -0.4029 -0.2226  0.3854
 4741SOL    HW125682   3.832   1.637   2.557  0.3882 -0.4549  0.9595
 4741SOL    HW225683   3.801   1.621   2.695  0.5468  0.2629  0.8255
 4742SOL     OW25684   3.192   2.582   4.387  0.5121 -0.2387  0.7652
 4742SOL    HW125685   3.284   2.558   4.377  0.9555  2.0898 -0.7301
 4742SOL    HW225686   3.151   2.497   4.402 -0.7974  0.3744  0.6703
 4743SOL     OW25687   0.880   3.842  14.518  0.0163  0.3246  0.0154
 4743SOL    HW125688   0.967   3.833  14.557 -1.2513  1.1536  3.0457
 4743SOL    HW225689   0.901   3.788  14.442  3.8037  2.0644 -0.1900
 4744SOL     OW25690   2.625   4.390  13.250  0.9795 -0.1287 -0.4135
 4744SOL    HW125691   2.540   4.423  13.277  1.2801  1.3988 -1.3552
 4744SOL    HW225692   2.634   4.422  13.161  0.2257  2.1938  0.3549
 4745SOL     OW25693   4.724   3.624   2.419 -0.2022  0.1025  0.2835
 4745SOL    HW125694   0.046   3.543   2.409  1.1007  1.1593 -1.9694
 4745SOL    HW225695   4.633   3.595   2.418 -0.2292  0.1897  0.1302
 4746SOL     OW25696   3.698   3.905   5.164  0.0931 -0.1157 -0.0997
 4746SOL    HW125697   3.706   3.810   5.155  0.7606  0.1904 -2.7699
 4746SOL    HW225698   3.650   3.933   5.087 -0.6193 -2.7486 -0.5942
 4747SOL     OW25699   4.671   2.049  17.525  0.3297  0.3875 -0.1050
 4747SOL    HW125700   4.670   1.972  17.468 -3.0585  1.9775 -2.2104
 4747SOL    HW225701   4.654   2.115  17.458  1.5888 -0.3358 -1.1246
 4748SOL     OW25702   1.403   1.438   6.940 -0.3484  0.2718 -0.7122
 4748SOL    HW125703   1.475   1.391   6.898 -1.9033 -1.7843 -1.0695
 4748SOL    HW225704   1.404   1.519   6.890  2.2386  0.2174 -0.7249
 4749SOL     OW25705   2.849   4.625  13.180  0.1083  0.2428 -0.1192
 4749SOL    HW125706   2.831   4.650  13.089  2.4986  2.3396 -0.0177
 4749SOL    HW225707   2.791   4.550  13.191 -0.3547  0.4228 -1.3029
 4750SOL     OW25708   2.662   2.439   4.649  0.5091  0.3888  0.4898
 4750SOL    HW125709   2.685   2.347   4.656  2.2393  0.9474  2.3593
 4750SOL    HW225710   2.598   2.433   4.578  1.0294  2.6654 -0.1704
 4751SOL     OW25711   1.128   4.391  13.531  0.3555  0.3980  0.3155
 4751SOL    HW125712   1.180   4.349  13.462 -2.9952 -0.0933 -1.8608
 4751SOL    HW225713   1.157   4.481  13.513 -1.2961  1.1089  1.2802
 4752SOL     OW25714   3.602   3.821  12.396 -0.2086 -0.1875  0.7914
 4752SOL    HW125715   3.549   3.896  12.423  0.7022  0.8675 -0.3092
 4752SOL    HW225716   3.690   3.858  12.382 -0.2158 -0.7221 -0.6505
 4753SOL     OW25717   2.446   4.328   9.766 -0.0871  0.6001  0.5397
 4753SOL    HW125718   2.491   4.387   9.827  1.8770 -1.3469  0.9508
 4753SOL    HW225719   2.366   4.303   9.811 -2.0540 -0.5280 -3.5975
 4754SOL     OW25720   0.875   1.135   7.465 -0.5714 -0.0604  0.0066
 4754SOL    HW125721   0.948   1.163   7.520 -0.0784 -0.9137 -0.2251
 4754SOL    HW225722   0.799   1.154   7.520 -0.8104  1.1919 -0.7426
 4755SOL     OW25723   0.062   3.395   7.935  0.7972  0.3582  0.3480
 4755SOL    HW125724   0.021   3.416   8.019  1.2652  1.8754  0.1968
 4755SOL    HW225725   4.718   3.368   7.878  0.8982 -1.2084  0.9782
 4756SOL     OW25726   1.344   2.931   0.572  0.2571  0.5366 -0.0859
 4756SOL    HW125727   1.365   2.841   0.551 -0.7060 -0.3685  2.7387
 4756SOL    HW225728   1.356   2.975   0.488  0.1898 -1.1182 -0.9614
 4757SOL     OW25729   1.632   3.032   2.905 -0.2657  0.6063 -0.0698
 4757SOL    HW125730   1.659   3.108   2.853  1.6404  0.7489  1.1396
 4757SOL    HW225731   1.545   3.005   2.877 -0.9280 -1.6506  4.1624
 4758SOL     OW25732   0.722   1.488   7.212 -0.1224  0.7364  0.4944
 4758SOL    HW125733   0.767   1.412   7.173 -0.2171  1.1746 -0.4786
 4758SOL    HW225734   0.637   1.448   7.228  0.1941 -0.8049 -1.6378
 4759SOL     OW25735   0.283   0.045   7.913  0.1169 -0.4420  0.3197
 4759SOL    HW125736   0.221   4.711   7.953  1.3860 -2.0094 -0.0927
 4759SOL    HW225737   0.296   0.118   7.974 -0.9326 -0.0640  0.0867
 4760SOL     OW25738   2.326   3.387   2.937 -0.0893 -0.1688  0.2200
 4760SOL    HW125739   2.276   3.348   2.865  2.3863  0.0651 -1.6174
 4760SOL    HW225740   2.255   3.435   2.981  0.7130  2.4593 -1.3568
 4761SOL     OW25741   3.443   3.374  13.229 -0.0276 -0.2307 -0.5403
 4761SOL    HW125742   3.537   3.357  13.227 -0.0273 -0.0427 -1.9744
 4761SOL    HW225743   3.406   3.285  13.233  1.5456 -0.7920  1.8025
 4762SOL     OW25744   3.365   1.289   2.129 -0.2677  0.7463  0.3266
 4762SOL    HW125745   3.402   1.238   2.057 -1.2948 -1.1930  1.1624
 4762SOL    HW225746   3.366   1.371   2.080 -0.1062  0.0136 -0.9060
 4763SOL     OW25747   1.623   1.947  16.149  0.2600 -0.2208  0.1767
 4763SOL    HW125748   1.687   1.901  16.203 -1.2567 -0.4078  1.8039
 4763SOL    HW225749   1.609   1.872  16.091  1.6351 -0.4230  0.0871
 4764SOL     OW25750   3.115   2.428   1.236 -0.2504 -0.1730 -0.3317
 4764SOL    HW125751   3.081   2.506   1.194 -1.7937 -1.7091 -1.9257
 4764SOL    HW225752   3.152   2.379   1.163  0.6255  1.2860 -0.8441
 4765SOL     OW25753   1.728   3.491  11.121 -0.2387  0.0550  0.1855
 4765SOL    HW125754   1.801   3.552  11.109  0.3861 -0.2817  2.2891
 4765SOL    HW225755   1.681   3.545  11.184  1.3390  2.6519 -0.8392
 4766SOL     OW25756   4.518   1.548  13.676 -0.4434  0.8417 -0.5411
 4766SOL    HW125757   4.425   1.570  13.684 -0.8591 -0.8943 -0.5877
 4766SOL    HW225758   4.559   1.626  13.715  0.1239  0.7095 -0.8718
 4767SOL     OW25759   4.122   1.448   3.931  0.0828 -0.6254 -0.7829
 4767SOL    HW125760   4.215   1.426   3.921 -0.1702 -2.9177  1.7934
 4767SOL    HW225761   4.078   1.397   3.863 -2.7514  1.0225 -0.1923
 4768SOL     OW25762   2.265   0.656  16.805 -0.3790 -0.3741  0.3441
 4768SOL    HW125763   2.269   0.724  16.738 -2.2999  0.5779  1.1932
 4768SOL    HW225764   2.221   0.694  16.881  0.0492 -1.2683  1.0447
 4769SOL     OW25765   1.863   2.419   1.933 -0.8551 -0.2465  0.2432
 4769SOL    HW125766   1.866   2.449   1.842 -1.4760  0.7783  0.5520
 4769SOL    HW225767   1.866   2.324   1.919 -0.8545 -0.1277 -0.5413
 4770SOL     OW25768   0.130   4.175   4.969  0.0307 -0.7023  0.0413
 4770SOL    HW125769   0.123   4.224   4.887  0.2913 -1.7119 -0.5801
 4770SOL    HW225770   0.178   4.097   4.940 -2.4391 -1.4632 -1.9029
 4771SOL     OW25771   4.526   2.194   0.745  0.5254 -0.4525  0.3390
 4771SOL    HW125772   4.499   2.254   0.814 -1.4424 -2.9109  1.6622
 4771SOL    HW225773   4.594   2.148   0.794 -0.7737 -1.0665  1.5572
 4772SOL     OW25774   3.823   3.965   7.067  0.0366 -0.1929  0.1203
 4772SOL    HW125775   3.870   3.883   7.082  2.9802  1.3314 -0.8143
 4772SOL    HW225776   3.852   3.976   6.977  1.5707  0.0622  0.6458
 4773SOL     OW25777   2.877   3.879  15.508  0.0995  0.1425  0.3596
 4773SOL    HW125778   2.886   3.867  15.603 -1.9729 -1.0560  0.4096
 4773SOL    HW225779   2.888   3.974  15.499  1.3719  0.0854  1.4590
 4774SOL     OW25780   0.543   1.209  17.630 -0.2631 -0.3558  0.4248
 4774SOL    HW125781   0.558   1.290  17.680  2.2196 -0.4690 -0.1624
 4774SOL    HW225782   0.540   1.148  17.704  0.8135 -1.6210 -0.5921
 4775SOL     OW25783   4.448   1.422  15.907 -0.2233 -0.6924 -0.6710
 4775SOL    HW125784   4.474   1.494  15.965 -1.9425  0.0963 -0.8634
 4775SOL    HW225785   4.439   1.471  15.825  5.1122 -0.2106 -0.9566
 4776SOL     OW25786   3.755   2.222   6.542  0.0955  0.1175  0.5624
 4776SOL    HW125787   3.748   2.159   6.471  0.9670 -0.3013  0.8476
 4776SOL    HW225788   3.831   2.194   6.593 -0.7423  0.7189  2.1289
 4777SOL     OW25789   0.164   2.271   3.433  0.4020  0.2356 -0.1379
 4777SOL    HW125790   0.187   2.180   3.413  4.0419  1.2550 -0.5100
 4777SOL    HW225791   0.192   2.271   3.525  2.6033  0.4843 -0.8003
 4778SOL     OW25792   3.001   2.624   1.081 -0.6340 -0.0172 -0.4019
 4778SOL    HW125793   3.072   2.682   1.106 -2.1370  0.7662  2.0523
 4778SOL    HW225794   3.011   2.616   0.986 -1.7846  1.5578 -0.6653
 4779SOL     OW25795   2.798   2.825   2.157  0.2496 -0.4455 -0.1286
 4779SOL    HW125796   2.753   2.903   2.125  2.2259  1.2107  1.1214
 4779SOL    HW225797   2.753   2.751   2.116 -0.0805  0.0853 -0.7231
 4780SOL     OW25798   3.906   3.154   3.647  0.1585 -0.1655 -0.2763
 4780SOL    HW125799   3.978   3.198   3.693  1.1874 -1.1493 -0.9598
 4780SOL    HW225800   3.880   3.084   3.707  0.4124 -0.3272 -0.3601
 4781SOL     OW25801   3.585   2.520   7.077 -0.1213  0.7236  0.0969
 4781SOL    HW125802   3.533   2.440   7.065 -1.2982  1.3330  1.1894
 4781SOL    HW225803   3.668   2.473   7.087 -0.5603 -0.3650 -1.3796
 4782SOL     OW25804   1.250   3.399   0.007  1.0375  0.2385  0.0924
 4782SOL    HW125805   1.328   3.454   0.015 -0.2077  1.9775  0.0825
 4782SOL    HW225806   1.193   3.448   0.066  0.1466 -0.0736 -0.5201
 4783SOL     OW25807   3.441   2.145  12.112  0.3466  0.6504  0.0082
 4783SOL    HW125808   3.445   2.238  12.087 -1.3694  0.5436 -0.6592
 4783SOL    HW225809   3.349   2.122  12.098  0.3101  0.2557  0.9125
 4784SOL     OW25810   2.924   4.646   4.513 -0.1445 -0.0539 -0.6141
 4784SOL    HW125811   2.924   4.678   4.603 -0.1868  3.1104 -1.7330
 4784SOL    HW225812   2.842   4.598   4.505  0.9395 -1.8089 -1.0632
 4785SOL     OW25813   0.899   2.221   2.247 -0.2739 -0.1426 -0.4574
 4785SOL    HW125814   0.839   2.180   2.184 -0.1232  2.5384 -2.3587
 4785SOL    HW225815   0.970   2.247   2.188 -0.4219 -2.4837 -1.6891
 4786SOL     OW25816   1.793   2.819   1.332 -0.0781 -0.5619  0.3787
 4786SOL    HW125817   1.790   2.803   1.238  2.0650 -0.0826  0.2418
 4786SOL    HW225818   1.873   2.777   1.363 -0.3025 -2.1050 -1.1793
 4787SOL     OW25819   3.631   1.629   0.477  0.0583  0.1080  0.0195
 4787SOL    HW125820   3.640   1.604   0.385 -0.6193  0.3467 -0.1103
 4787SOL    HW225821   3.536   1.645   0.475 -0.2054 -1.6601 -1.8299
 4788SOL     OW25822   3.066   0.036   1.157  0.3742  0.5896  0.2822
 4788SOL    HW125823   3.156   0.066   1.146  0.3647  0.1734 -0.8970
 4788SOL    HW225824   3.023   0.122   1.153  0.6224  0.7166  0.3289
 4789SOL     OW25825   3.265   1.285   9.076 -0.2206 -0.4691  0.0654
 4789SOL    HW125826   3.228   1.293   9.164  0.8051  0.6789  0.3806
 4789SOL    HW225827   3.296   1.198   9.100  2.3659  1.3559  3.3534
 4790SOL     OW25828   3.679   1.236   9.223 -0.4248 -0.1163  0.1784
 4790SOL    HW125829   3.639   1.248   9.309 -0.2959  1.4013  0.0243
 4790SOL    HW225830   3.615   1.170   9.197  0.7511 -1.6015  0.9871
 4791SOL     OW25831   2.409   3.403   7.796 -0.3559  0.6055 -0.3357
 4791SOL    HW125832   2.335   3.366   7.843 -0.0070  0.2579 -0.0546
 4791SOL    HW225833   2.431   3.479   7.851 -0.4748  0.6646 -0.3718
 4792SOL     OW25834   4.250   4.541  16.308  0.3959  0.1477  0.0170
 4792SOL    HW125835   4.227   4.620  16.260 -0.9988  0.7776  1.7016
 4792SOL    HW225836   4.270   4.585  16.391 -0.7698  0.7765 -0.0409
 4793SOL     OW25837   3.504   1.174   7.246 -0.2539  0.3308  0.5234
 4793SOL    HW125838   3.418   1.198   7.283  0.5183  0.2906  2.3297
 4793SOL    HW225839   3.535   1.111   7.311 -1.5352  0.6226  1.4214
 4794SOL     OW25840   3.559   1.713  17.412 -0.4506 -0.0558  0.6879
 4794SOL    HW125841   3.537   1.772  17.340 -0.7134 -0.0338  0.7879
 4794SOL    HW225842   3.507   1.747  17.484 -1.5376 -1.5411  0.5952
 4795SOL     OW25843   0.508   3.871   8.217  0.0772 -0.6715 -0.0488
 4795SOL    HW125844   0.566   3.883   8.142 -0.7484  0.5343 -0.4885
 4795SOL    HW225845   0.439   3.937   8.211 -0.1642 -0.6769  2.5429
 4796SOL     OW25846   1.101   1.300   3.268 -0.6545 -0.1778  0.2134
 4796SOL    HW125847   1.175   1.290   3.209  0.1925  1.7330  0.9682
 4796SOL    HW225848   1.039   1.351   3.216 -0.2503 -0.7717 -0.8340
 4797SOL     OW25849   1.972   1.269   3.877  0.4640  0.4753 -0.0007
 4797SOL    HW125850   1.955   1.313   3.960 -2.0027 -2.1418  0.8624
 4797SOL    HW225851   1.983   1.180   3.910 -0.1530  0.5315  0.3544
 4798SOL     OW25852   4.417   0.581   3.061  0.4670 -0.3927  0.2882
 4798SOL    HW125853   4.454   0.494   3.069  2.6828  0.4666 -0.4914
 4798SOL    HW225854   4.327   0.557   3.084 -0.2745  2.0859  0.0156
 4799SOL     OW25855   1.324   2.635   2.148 -0.3080 -0.0577  0.1816
 4799SOL    HW125856   1.360   2.714   2.107  1.4544 -2.5196 -2.9905
 4799SOL    HW225857   1.302   2.580   2.073  0.0463  2.0768 -1.4981
 4800SOL     OW25858   4.061   0.361  11.340 -0.2193  0.2666  0.1920
 4800SOL    HW125859   3.979   0.337  11.383 -0.5772  1.2114  0.0228
 4800SOL    HW225860   4.030   0.369  11.250  0.2137  0.8975  0.0983
 4801SOL     OW25861   0.303   1.469   2.969  0.0574 -0.7665 -0.0055
 4801SOL    HW125862   0.365   1.396   2.973 -0.8031 -1.4906 -0.0901
 4801SOL    HW225863   0.270   1.461   2.880  0.0029  1.3822 -0.1895
 4802SOL     OW25864   3.565   0.680  10.073  0.3836 -0.1196 -0.3935
 4802SOL    HW125865   3.577   0.711  10.163  2.9336 -3.9834  0.5964
 4802SOL    HW225866   3.611   0.749  10.026 -0.8117 -0.2701 -1.7851
 4803SOL     OW25867   2.481   2.906   2.800 -0.1379  0.2852  0.5469
 4803SOL    HW125868   2.540   2.867   2.736  0.4760  1.4413  0.4159
 4803SOL    HW225869   2.519   2.870   2.880  0.7514 -0.8651 -0.3894
 4804SOL     OW25870   0.880   2.230   3.525 -0.5662 -0.0352 -0.2622
 4804SOL    HW125871   0.939   2.280   3.581 -0.0415 -1.2094  0.2313
 4804SOL    HW225872   0.807   2.221   3.586 -1.3566  1.8621 -0.9493
 4805SOL     OW25873   1.741   2.503   3.950  0.1683  0.2569  0.0896
 4805SOL    HW125874   1.834   2.499   3.928 -0.3586  0.1218 -2.1042
 4805SOL    HW225875   1.738   2.566   4.021 -0.1441  0.5556 -0.1882
 4806SOL     OW25876   0.461   3.796   6.027  0.8137 -0.4245 -0.2263
 4806SOL    HW125877   0.449   3.865   6.092 -2.8654 -1.7093  0.4325
 4806SOL    HW225878   0.435   3.718   6.075 -0.7581  1.1292  1.4148
 4807SOL     OW25879   0.696   1.118   4.360  0.0084  0.2461 -0.3597
 4807SOL    HW125880   0.612   1.083   4.331  0.8871 -1.1600 -1.1914
 4807SOL    HW225881   0.729   1.151   4.276  0.7351  0.6624  0.0844
 4808SOL     OW25882   0.903   4.424   0.679  0.2286 -0.2678  0.5435
 4808SOL    HW125883   0.820   4.389   0.646  0.1080 -0.2056  0.7788
 4808SOL    HW225884   0.866   4.489   0.739  0.9459  0.3535  0.3193
 4809SOL     OW25885   3.380   3.532   6.003  0.0693 -0.2642 -0.4377
 4809SOL    HW125886   3.373   3.470   6.076  3.2178 -1.3182 -0.9983
 4809SOL    HW225887   3.468   3.571   6.007  0.0642 -0.4820  2.1844
 4810SOL     OW25888   1.550   1.272   8.364 -0.1579  0.0842  0.4138
 4810SOL    HW125889   1.517   1.283   8.274  1.7085  2.2222 -0.0206
 4810SOL    HW225890   1.471   1.231   8.398 -0.1960 -2.2884 -2.5336
 4811SOL     OW25891   1.659   3.272   5.215  0.4112 -0.4642  0.9038
 4811SOL    HW125892   1.657   3.339   5.283 -1.0371  0.6452 -0.2258
 4811SOL    HW225893   1.737   3.297   5.164 -2.3274  2.4063 -1.8953
 4812SOL     OW25894   1.868   0.024  10.877 -0.9704 -0.2795 -0.1473
 4812SOL    HW125895   1.809   0.098  10.885 -0.1213  0.5444 -1.4858
 4812SOL    HW225896   1.821   4.690  10.821 -0.7457  0.4097 -1.0809
 4813SOL     OW25897   2.623   3.953   0.847  0.1019 -0.3518 -0.0935
 4813SOL    HW125898   2.683   4.020   0.880 -1.6798  1.6630 -0.9351
 4813SOL    HW225899   2.569   3.997   0.781 -1.0639 -0.9896  0.4460
 4814SOL     OW25900   0.794   0.829   9.083  0.1945 -0.0783  0.4800
 4814SOL    HW125901   0.780   0.870   9.169  0.1906 -0.7068  0.7765
 4814SOL    HW225902   0.819   0.738   9.099 -0.2660 -0.2160  0.4303
 4815SOL     OW25903   2.424   2.715  10.489 -0.0598 -0.0658 -0.4647
 4815SOL    HW125904   2.410   2.802  10.528 -1.0227 -0.5765  0.3163
 4815SOL    HW225905   2.345   2.679  10.528 -0.2540 -0.1893 -0.9679
 4816SOL     OW25906   1.765   2.984   5.610 -0.0023 -0.6583 -0.1728
 4816SOL    HW125907   1.817   2.903   5.615 -0.1001 -0.6710  0.7541
 4816SOL    HW225908   1.756   2.997   5.516  0.4044 -1.3517 -0.3075
 4817SOL     OW25909   3.191   0.021   2.071  0.2234 -0.4944 -0.7667
 4817SOL    HW125910   3.199   4.678   2.135 -2.0951 -0.1814 -0.1515
 4817SOL    HW225911   3.121   4.721   2.011 -1.8833  2.4322  0.3690
 4818SOL     OW25912   3.214   1.386   5.548  0.3552  0.0612  0.2372
 4818SOL    HW125913   3.165   1.442   5.489  0.2655 -1.5277 -1.2028
 4818SOL    HW225914   3.254   1.321   5.490 -0.3444 -0.0096 -0.1640
 4819SOL     OW25915   1.542   2.411   1.239  0.3250 -0.3109 -0.2966
 4819SOL    HW125916   1.610   2.421   1.172 -0.5954 -0.5251 -1.2759
 4819SOL    HW225917   1.591   2.402   1.320 -0.6193 -0.9462  0.2078
 4820SOL     OW25918   1.499   4.103   2.126  0.5316 -0.1307 -0.1880
 4820SOL    HW125919   1.578   4.127   2.078  0.6790 -1.3901 -0.5682
 4820SOL    HW225920   1.447   4.184   2.127 -1.0068 -1.1112 -0.8876
 4821SOL     OW25921   0.871   0.238   8.448 -0.3790  0.4290 -0.0012
 4821SOL    HW125922   0.856   0.144   8.460 -1.0547  0.6620  0.9695
 4821SOL    HW225923   0.963   0.228   8.424 -0.0965  1.6060  0.5686
 4822SOL     OW25924   0.174   0.619  15.822  0.4446  0.0153  0.3916
 4822SOL    HW125925   0.084   0.651  15.811  0.2263 -1.1373 -1.1568
 4822SOL    HW225926   0.194   0.677  15.896 -1.0442  2.8653 -1.4508
 4823SOL     OW25927   1.366   3.808  11.812  0.5460  0.0155 -0.0552
 4823SOL    HW125928   1.433   3.871  11.838 -0.5104  1.5981 -1.1296
 4823SOL    HW225929   1.310   3.860  11.754  0.4743  0.6404  0.5831
 4824SOL     OW25930   1.107   0.495   5.748  0.1417 -0.2407  0.4004
 4824SOL    HW125931   1.171   0.428   5.726  0.3834 -0.1538  0.8344
 4824SOL    HW225932   1.138   0.555   5.680 -1.5864  0.1185 -0.0667
 4825SOL     OW25933   4.256   4.553   4.562  0.0982 -0.1929  0.2837
 4825SOL    HW125934   4.334   4.519   4.606  0.1965  1.9146  1.7112
 4825SOL    HW225935   4.269   4.647   4.574  0.6103 -0.3203  0.7338
 4826SOL     OW25936   1.617   4.138   5.344 -0.1668  0.3109 -0.9502
 4826SOL    HW125937   1.612   4.058   5.292 -0.8298  0.6791 -1.4463
 4826SOL    HW225938   1.586   4.204   5.281  2.3582 -0.4431 -2.9847
 4827SOL     OW25939   0.421   0.545   6.541  0.2983  0.1637  0.3441
 4827SOL    HW125940   0.407   0.538   6.636  0.8699 -1.5093  0.3127
 4827SOL    HW225941   0.343   0.499   6.510  0.3896 -0.0822  0.4771
 4828SOL     OW25942   1.424   0.796   5.282  0.2338  0.2853 -0.3680
 4828SOL    HW125943   1.355   0.808   5.216  0.6024  2.3536 -0.3764
 4828SOL    HW225944   1.416   0.875   5.337  0.0957 -0.7299  1.0625
 4829SOL     OW25945   3.040   4.708   9.466 -0.1383 -0.0099  0.1903
 4829SOL    HW125946   3.038   0.029   9.383 -1.8091 -0.5440 -0.0865
 4829SOL    HW225947   3.062   0.051   9.528 -1.0207 -0.3642  0.9071
 4830SOL     OW25948   2.554   3.339   6.137  0.2447 -0.0891  0.0726
 4830SOL    HW125949   2.600   3.422   6.142 -0.4434  0.3031 -0.0305
 4830SOL    HW225950   2.549   3.320   6.230 -0.2032 -1.4283 -0.2297
 4831SOL     OW25951   2.389   0.323   6.096  0.2197 -0.0718 -0.0982
 4831SOL    HW125952   2.364   0.363   6.012  0.0933  0.1279  0.0357
 4831SOL    HW225953   2.481   0.303   6.077  0.7433  1.2952  1.0609
 4832SOL     OW25954   4.217   0.671  11.633 -0.3962  0.2499 -0.2963
 4832SOL    HW125955   4.248   0.613  11.563  0.5263  2.5612 -1.7906
 4832SOL    HW225956   4.271   0.749  11.622 -0.3094  0.0572 -1.2567
 4833SOL     OW25957   2.740   4.507   4.933 -0.8043  0.1064 -0.3860
 4833SOL    HW125958   2.738   4.484   5.026 -0.0066  0.1520 -0.3575
 4833SOL    HW225959   2.667   4.448   4.917  0.2946 -1.2689 -0.3115
 4834SOL     OW25960   3.813   2.790   3.803  0.2729  0.3286 -0.3213
 4834SOL    HW125961   3.878   2.774   3.736  0.4429  0.5901 -0.2178
 4834SOL    HW225962   3.861   2.862   3.844 -0.6278  1.4494 -1.2673
 4835SOL     OW25963   0.392   1.138   1.093 -0.6815 -0.8379  0.0472
 4835SOL    HW125964   0.297   1.131   1.100 -0.7991  0.8138  0.2702
 4835SOL    HW225965   0.421   1.085   1.168 -2.4192 -0.3366  1.0749
 4836SOL     OW25966   1.934   4.429   7.636  0.4874  0.8561  0.8896
 4836SOL    HW125967   1.906   4.477   7.714 -1.5296  2.5114 -0.8683
 4836SOL    HW225968   1.859   4.376   7.608  0.4765  0.2079  2.1244
 4837SOL     OW25969   1.282   2.432   5.224  0.5680  0.0408  0.0726
 4837SOL    HW125970   1.265   2.339   5.238  1.7719 -0.0203  1.1108
 4837SOL    HW225971   1.375   2.433   5.247  0.4189  2.9875  0.5854
 4838SOL     OW25972   3.306   0.096   3.349  0.8534 -0.2457 -0.3245
 4838SOL    HW125973   3.213   0.076   3.334  0.5489 -0.2319  1.5849
 4838SOL    HW225974   3.351   0.012   3.347  0.9563 -0.1850 -0.6315
 4839SOL     OW25975   4.126   1.943   3.920 -0.6986 -0.5129  0.4063
 4839SOL    HW125976   4.207   1.993   3.919  0.1705 -1.9412 -0.5764
 4839SOL    HW225977   4.117   1.927   3.825 -0.6463 -1.0558  0.4890
 4840SOL     OW25978   2.199   0.630   4.069 -0.3571  0.3479  0.6389
 4840SOL    HW125979   2.279   0.643   4.119  0.2507  2.2970 -0.8301
 4840SOL    HW225980   2.220   0.663   3.982 -2.5981 -0.0034 -0.0329
 4841SOL     OW25981   1.637   0.766   0.152 -0.1168  0.0415 -0.4950
 4841SOL    HW125982   1.611   0.678   0.179 -1.2180 -0.4290 -3.0655
 4841SOL    HW225983   1.605   0.758   0.062 -3.1415 -1.2361  0.7002
 4842SOL     OW25984   4.170   1.392   4.831 -0.1520 -0.4387 -0.1398
 4842SOL    HW125985   4.164   1.305   4.872  0.4743 -0.1200  0.6156
 4842SOL    HW225986   4.103   1.383   4.763 -1.0183  0.7851  0.5731
 4843SOL     OW25987   0.248   2.113   0.979 -0.7586 -0.1933  0.2956
 4843SOL    HW125988   0.229   2.192   1.029  1.6228  0.9824 -0.6580
 4843SOL    HW225989   0.343   2.124   0.982 -1.0347  1.7484  1.7669
 4844SOL     OW25990   1.018   0.715   6.810 -0.1117 -0.4000 -0.0290
 4844SOL    HW125991   0.979   0.670   6.735 -0.9096  0.8792 -0.3911
 4844SOL    HW225992   1.046   0.800   6.775 -1.2976  0.3855  0.9102
 4845SOL     OW25993   4.543   3.103   8.576 -0.0484 -0.0808 -0.4301
 4845SOL    HW125994   4.584   3.110   8.490 -1.1089  0.3218 -0.9069
 4845SOL    HW225995   4.456   3.096   8.537 -0.3024 -0.9580  0.2840
 4846SOL     OW25996   1.264   0.246   7.147 -0.9421 -0.0066  0.1439
 4846SOL    HW125997   1.206   0.207   7.081 -0.7737 -0.8703  0.5057
 4846SOL    HW225998   1.327   0.289   7.089 -0.6419 -1.9924 -1.0013
 4847SOL     OW25999   1.042   2.569   9.279 -0.6867 -0.0293 -0.0264
 4847SOL    HW126000   0.982   2.588   9.351  0.4261  1.2553  0.5521
 4847SOL    HW226001   1.107   2.506   9.311 -0.9836 -0.4201 -0.1855
 4848SOL     OW26002   1.648   4.437   8.934  0.1436  0.1006 -0.1398
 4848SOL    HW126003   1.605   4.461   8.853 -1.8270  0.3380  0.9848
 4848SOL    HW226004   1.586   4.387   8.988 -0.2440  0.9498  0.1954
 4849SOL     OW26005   1.349   4.070   5.445  0.2475  0.3793 -0.2061
 4849SOL    HW126006   1.422   4.105   5.395  2.5220 -1.0811  2.1033
 4849SOL    HW226007   1.386   3.997   5.494  1.4756 -0.7111 -2.7703
 4850SOL     OW26008   1.720   3.840  11.286  0.5995  0.2530 -0.3519
 4850SOL    HW126009   1.676   3.838  11.201 -0.2146 -0.6556  0.0827
 4850SOL    HW226010   1.662   3.785  11.339 -0.0235  0.2923 -0.9953
 4851SOL     OW26011   0.838   4.379   8.921  0.3311  0.7284  0.3445
 4851SOL    HW126012   0.834   4.470   8.891 -0.5041  0.0454 -1.6264
 4851SOL    HW226013   0.780   4.343   8.854  0.3636 -1.9521  1.7819
 4852SOL     OW26014   4.716   3.162  16.446 -0.7120 -0.2915  0.5071
 4852SOL    HW126015   0.035   3.096  16.497 -1.5274 -1.2099  0.0544
 4852SOL    HW226016   0.062   3.223  16.433 -0.2975 -0.8606  0.1351
 4853SOL     OW26017   0.463   4.148   3.700 -0.4014 -0.1245 -0.3649
 4853SOL    HW126018   0.478   4.240   3.678  0.6592 -0.1694  0.1596
 4853SOL    HW226019   0.368   4.160   3.700 -0.0383  2.6672  0.1135
 4854SOL     OW26020   1.073   1.939   5.384  0.1759  0.1293 -0.9070
 4854SOL    HW126021   1.073   2.021   5.433  0.2916  0.5979 -1.6827
 4854SOL    HW226022   0.988   1.955   5.344 -0.5729  1.9469  1.4413
 4855SOL     OW26023   0.525   0.387   2.121 -0.1023  0.0739 -0.3614
 4855SOL    HW126024   0.485   0.345   2.045  0.3136  0.6363 -0.8855
 4855SOL    HW226025   0.490   0.475   2.111  0.5544  0.4098  0.3125
 4856SOL     OW26026   1.852   1.542   5.114  0.4898 -0.2587  0.4830
 4856SOL    HW126027   1.769   1.550   5.161 -0.0345 -1.5831 -0.2178
 4856SOL    HW226028   1.922   1.538   5.178 -0.4528  1.1677  1.5964
 4857SOL     OW26029   3.777   3.057   9.081 -0.4467  0.0076  0.2604
 4857SOL    HW126030   3.686   3.075   9.056 -0.2169 -2.6151 -2.5029
 4857SOL    HW226031   3.815   3.143   9.100 -0.8334  0.2065  0.1292
 4858SOL     OW26032   2.026   1.609   0.985  0.1051 -0.1444 -0.5146
 4858SOL    HW126033   2.003   1.596   0.893 -0.8979  0.2580 -0.3254
 4858SOL    HW226034   2.090   1.680   0.987 -0.0683 -0.0208  0.5525
 4859SOL     OW26035   4.569   0.924  11.078 -0.2581  0.0202 -0.0523
 4859SOL    HW126036   4.609   0.955  10.996  1.0471  0.4795  0.7602
 4859SOL    HW226037   4.581   0.830  11.069  0.4184  0.2800 -2.0699
 4860SOL     OW26038   4.351   2.078   7.533  0.4843 -0.3199 -0.4101
 4860SOL    HW126039   4.422   2.091   7.470  1.9596 -3.0855  0.6999
 4860SOL    HW226040   4.299   2.154   7.504 -0.1058 -0.7869 -0.5654
 4861SOL     OW26041   3.092   4.013   7.880 -0.1431 -0.2044 -0.0232
 4861SOL    HW126042   3.077   4.093   7.830 -0.3753  0.9310  1.8521
 4861SOL    HW226043   3.008   3.970   7.866  0.2132 -1.4175  1.5685
 4862SOL     OW26044   4.238   3.277   3.667  0.1025 -0.2769 -0.2046
 4862SOL    HW126045   4.325   3.313   3.687  0.1334  0.4320 -1.6935
 4862SOL    HW226046   4.182   3.326   3.728 -2.0659  0.0695 -2.4931
 4863SOL     OW26047   0.400   1.254  15.399 -0.7083  0.3089 -0.7151
 4863SOL    HW126048   0.402   1.162  15.376  1.9100 -0.1755  1.3645
 4863SOL    HW226049   0.477   1.294  15.358  0.6797  0.4500  1.9808
 4864SOL     OW26050   4.065   0.551   7.161 -0.2642  0.0632 -0.1124
 4864SOL    HW126051   4.046   0.467   7.120 -0.4793  0.4044 -0.7173
 4864SOL    HW226052   4.152   0.570   7.125  0.2003  0.5118  1.2348
 4865SOL     OW26053   0.873   3.015  16.646 -0.3745 -0.3186 -0.8630
 4865SOL    HW126054   0.890   2.943  16.585 -0.0442  1.6028 -3.0545
 4865SOL    HW226055   0.913   2.977  16.724  0.9000 -0.1572 -1.4363
 4866SOL     OW26056   4.002   2.337  15.788 -0.3187 -0.4642 -0.1718
 4866SOL    HW126057   4.012   2.362  15.696  0.1618 -0.9324 -0.2504
 4866SOL    HW226058   3.981   2.245  15.775  0.1483 -0.6181  0.1505
 4867SOL     OW26059   3.464   0.807   0.576  0.6490  0.0767  0.3675
 4867SOL    HW126060   3.412   0.786   0.653 -2.5008 -0.1702 -1.8249
 4867SOL    HW226061   3.400   0.783   0.510  1.3536  0.7228 -0.5544
 4868SOL     OW26062   4.518   4.073   3.481  0.3417  0.4183  0.6925
 4868SOL    HW126063   4.572   4.140   3.439 -1.5860  1.2331 -0.4705
 4868SOL    HW226064   4.574   4.042   3.552 -0.5821 -0.3582  1.0697
 4869SOL     OW26065   4.536   3.207  15.009 -0.7434  0.5900  0.1767
 4869SOL    HW126066   4.457   3.162  14.980 -2.1309  2.9861  0.2089
 4869SOL    HW226067   4.509   3.292  14.973 -0.8416 -0.0286 -1.2056
 4870SOL     OW26068   0.609   1.954  17.297  0.5450 -0.5098 -0.7385
 4870SOL    HW126069   0.667   1.980  17.369 -0.6027  0.8677 -0.3110
 4870SOL    HW226070   0.526   1.941  17.342  0.6057 -0.6739 -0.6740
 4871SOL     OW26071   2.194   1.828  13.756  0.2859  0.4990  0.1382
 4871SOL    HW126072   2.128   1.760  13.742  1.2589 -0.2088 -1.0068
 4871SOL    HW226073   2.160   1.880  13.829  1.5470  1.8153 -0.2090
 4872SOL     OW26074   3.842   2.025  13.999  0.0534 -0.4101  0.6380
 4872SOL    HW126075   3.786   2.098  14.029  0.4411  0.0751  0.1677
 4872SOL    HW226076   3.846   2.050  13.907 -0.7927 -1.0142  0.4338
 4873SOL     OW26077   4.312   3.618   4.808  0.1943  0.2618  0.2454
 4873SOL    HW126078   4.314   3.523   4.823  0.3454  0.5549  2.0196
 4873SOL    HW226079   4.227   3.636   4.769  0.6587 -0.8117 -1.2563
 4874SOL     OW26080   0.305   3.545   5.234  0.2919  0.3258  0.4415
 4874SOL    HW126081   0.378   3.518   5.177  0.6854 -0.5562  1.3648
 4874SOL    HW226082   0.321   3.639   5.232  1.8756  0.0980  2.0119
 4875SOL     OW26083   0.712   0.636   2.103 -0.1324 -0.1863 -0.2356
 4875SOL    HW126084   0.630   0.639   2.152 -0.4562 -4.5283 -0.5384
 4875SOL    HW226085   0.676   0.626   2.014 -2.8665  2.2982  0.5888
 4876SOL     OW26086   0.555   3.957   7.336 -0.1405  0.0698  0.2351
 4876SOL    HW126087   0.475   3.949   7.285  0.7578  1.6691 -1.3915
 4876SOL    HW226088   0.616   3.988   7.269  2.1888 -2.7558  1.0002
 4877SOL     OW26089   1.567   4.608   2.649  0.5130 -0.0195 -0.4097
 4877SOL    HW126090   1.521   4.693   2.650 -0.5852 -0.6256  0.4825
 4877SOL    HW226091   1.658   4.629   2.632  0.0535 -0.6423 -3.7528
 4878SOL     OW26092   1.560   4.131   5.700 -0.1801  0.3517  0.0193
 4878SOL    HW126093   1.603   4.074   5.764 -0.3856 -0.4442 -0.5509
 4878SOL    HW226094   1.517   4.055   5.661  1.3287 -0.1391 -0.6825
 4879SOL     OW26095   0.567   2.503  16.421  0.0671 -0.3078  0.0951
 4879SOL    HW126096   0.500   2.437  16.407 -0.3295 -0.3798  2.2853
 4879SOL    HW226097   0.515   2.583  16.413  0.9146  0.3370  1.0411
 4880SOL     OW26098   3.074   2.504   3.331  0.5452  0.0315  0.0617
 4880SOL    HW126099   3.052   2.584   3.283  3.3823  0.8600  0.1097
 4880SOL    HW226100   3.083   2.438   3.262 -0.4146  1.6998 -1.6791
 4881SOL     OW26101   2.142   3.827   2.031 -0.3924  0.2425 -0.0229
 4881SOL    HW126102   2.233   3.848   2.050 -0.2890  2.2208 -2.8348
 4881SOL    HW226103   2.150   3.732   2.024 -1.4071  0.2102 -0.7616
 4882SOL     OW26104   2.406   3.904   2.827 -0.6021 -0.0983  0.5268
 4882SOL    HW126105   2.398   3.991   2.789 -2.7480 -0.5281 -0.0465
 4882SOL    HW226106   2.342   3.855   2.775  0.6531  0.1709 -1.2534
 4883SOL     OW26107   2.318   1.836   9.752  0.4358  0.2275 -0.4702
 4883SOL    HW126108   2.277   1.754   9.779  0.5465 -0.7224 -3.2581
 4883SOL    HW226109   2.386   1.817   9.689  1.9388  0.1318  1.1721
 4884SOL     OW26110   1.145   4.223   9.559 -0.1694 -0.2682  0.0118
 4884SOL    HW126111   1.149   4.153   9.625  2.5519  0.6819  0.8415
 4884SOL    HW226112   1.237   4.239   9.539  0.3908 -0.3585  2.5047
 4885SOL     OW26113   2.441   4.359  15.254 -0.7225  0.1330  0.4144
 4885SOL    HW126114   2.352   4.389  15.274 -2.4073 -3.7208 -1.3875
 4885SOL    HW226115   2.428   4.283  15.197  1.2463  0.4239 -0.4209
 4886SOL     OW26116   3.594   2.658  11.187  0.1410  0.2368  0.3281
 4886SOL    HW126117   3.527   2.669  11.120  0.1756 -1.3637  0.0314
 4886SOL    HW226118   3.601   2.750  11.213  2.2219 -0.6077  2.7382
 4887SOL     OW26119   0.264   4.348  10.324  0.2991  0.0358  0.0663
 4887SOL    HW126120   0.191   4.406  10.346  0.6664  0.2409  0.7281
 4887SOL    HW226121   0.336   4.392  10.369 -1.2250  0.6397  1.8690
 4888SOL     OW26122   3.389   0.098   6.149  0.3964  0.0117  0.1503
 4888SOL    HW126123   3.455   0.151   6.194 -0.0738  0.0427  0.8193
 4888SOL    HW226124   3.445   0.043   6.096  0.3415  0.6497 -0.5650
 4889SOL     OW26125   3.258   0.533   0.439 -0.0131 -0.0750  0.1784
 4889SOL    HW126126   3.187   0.546   0.502  0.0729 -0.8756  0.4423
 4889SOL    HW226127   3.225   0.469   0.376  1.8012  1.5152 -2.3939
 4890SOL     OW26128   1.329   3.650   7.963  0.2861  0.8211 -0.3322
 4890SOL    HW126129   1.411   3.681   7.926  1.7474 -1.3564  1.0651
 4890SOL    HW226130   1.282   3.609   7.890 -1.5895  0.3776  1.1150
 4891SOL     OW26131   4.471   0.638  10.678  0.0036 -0.1782  0.8934
 4891SOL    HW126132   4.528   0.654  10.602  0.3390  4.5158  2.1283
 4891SOL    HW226133   4.442   0.728  10.694  0.1353  0.3135 -1.4999
 4892SOL     OW26134   4.117   2.808   6.398 -0.6460 -0.2352  0.3411
 4892SOL    HW126135   4.192   2.760   6.364 -0.5364  1.2858 -1.5447
 4892SOL    HW226136   4.167   2.874   6.446  1.3543 -3.0090  2.0511
 4893SOL     OW26137   4.184   0.250   4.263 -0.3749  0.1408  0.7440
 4893SOL    HW126138   4.113   0.278   4.205  0.5815 -0.8357 -0.9147
 4893SOL    HW226139   4.167   0.311   4.334  0.1670  1.3795 -0.1950
 4894SOL     OW26140   1.187   0.459   8.632 -0.5237 -0.6470  0.1528
 4894SOL    HW126141   1.205   0.489   8.721  1.6535 -0.2399 -0.4396
 4894SOL    HW226142   1.175   0.364   8.640 -0.0773 -0.7099  0.0297
 4895SOL     OW26143   1.526   4.028  14.212  0.1964 -0.4027 -0.5619
 4895SOL    HW126144   1.470   3.980  14.273  1.8353 -0.1093  1.1839
 4895SOL    HW226145   1.508   4.121  14.229 -2.5815 -1.4083  1.8820
 4896SOL     OW26146   0.218   3.324  10.682 -0.2986  0.5631  0.4067
 4896SOL    HW126147   0.254   3.236  10.689 -0.0096  0.5331 -1.3627
 4896SOL    HW226148   0.138   3.321  10.734 -1.2694  1.0754 -1.0714
 4897SOL     OW26149   3.181   0.339  15.757  0.0294  0.5626 -0.0365
 4897SOL    HW126150   3.180   0.254  15.802 -1.6259 -0.8961 -2.8169
 4897SOL    HW226151   3.099   0.387  15.768  0.1480  1.3216 -2.3794
 4898SOL     OW26152   3.181   0.455   9.815 -0.0679 -0.1990  0.3717
 4898SOL    HW126153   3.087   0.439   9.824  0.2481 -1.5689  1.2604
 4898SOL    HW226154   3.204   0.402   9.739 -1.0543 -1.9757  1.3324
 4899SOL     OW26155   4.164   2.480  14.794  0.1275 -0.2514  0.2899
 4899SOL    HW126156   4.147   2.573  14.777 -2.0291 -0.5056  1.1319
 4899SOL    HW226157   4.249   2.482  14.839 -1.6226 -0.2772  3.6078
 4900SOL     OW26158   3.637   2.965   2.649 -0.3169  0.1682 -0.8545
 4900SOL    HW126159   3.608   3.030   2.585 -0.0928 -0.9980 -2.1418
 4900SOL    HW226160   3.590   3.003   2.723 -1.2442 -0.4672 -1.1204
 4901SOL     OW26161   1.007   0.110   4.049  0.5130 -0.0451 -0.2092
 4901SOL    HW126162   0.963   0.037   4.007  1.7569 -0.6456 -0.4754
 4901SOL    HW226163   0.931   0.151   4.090  0.4206  0.3093 -0.7291
 4902SOL     OW26164   3.436   2.546  14.483  0.2171 -0.2055 -0.3776
 4902SOL    HW126165   3.456   2.583  14.397  2.0318 -1.8999 -0.6985
 4902SOL    HW226166   3.341   2.550  14.487  0.2425  0.7646 -0.6231
 4903SOL     OW26167   0.856   4.553   6.866  0.5075  0.3436 -0.6545
 4903SOL    HW126168   0.847   4.633   6.814 -0.0357  0.6617 -0.0678
 4903SOL    HW226169   0.941   4.554   6.911 -0.4287  0.4930  1.1374
 4904SOL     OW26170   2.117   2.492   6.402 -0.0544  0.4267 -0.3846
 4904SOL    HW126171   2.072   2.525   6.480 -0.6920 -1.0154 -0.1477
 4904SOL    HW226172   2.175   2.434   6.451 -0.6166 -0.2539 -0.5304
 4905SOL     OW26173   0.315   0.478  16.214  0.2741  0.1362 -0.3954
 4905SOL    HW126174   0.380   0.464  16.145  0.5853 -0.6800  0.0585
 4905SOL    HW226175   0.341   0.400  16.263  0.1247 -1.0664 -2.2468
 4906SOL     OW26176   1.925   4.701   0.433  0.4641 -0.6094  0.2040
 4906SOL    HW126177   1.860   4.661   0.490  1.7200 -0.7120  1.5669
 4906SOL    HW226178   1.984   0.024   0.490 -0.0205 -1.5352  1.5148
 4907SOL     OW26179   2.030   1.346  15.588  0.4253 -0.5917 -0.1218
 4907SOL    HW126180   2.060   1.435  15.570  0.2687 -0.1367  1.8561
 4907SOL    HW226181   2.111   1.300  15.611  0.2049 -1.6607 -1.4693
 4908SOL     OW26182   3.024   4.380   2.171  0.8033  0.0365 -0.0685
 4908SOL    HW126183   2.966   4.322   2.220  1.0453  0.8450  1.1833
 4908SOL    HW226184   3.024   4.344   2.083 -1.9263  1.4116 -0.6044
 4909SOL     OW26185   1.768   3.538   6.541 -0.0989  0.5843  0.3562
 4909SOL    HW126186   1.811   3.489   6.471  3.0363  1.7065  1.4718
 4909SOL    HW226187   1.722   3.598   6.483 -4.3806 -2.4363  0.6204
 4910SOL     OW26188   3.913   1.607   2.157  0.1829  0.3037  0.1071
 4910SOL    HW126189   3.836   1.573   2.112 -1.7672  0.9936  2.9204
 4910SOL    HW226190   3.886   1.699   2.150 -0.0594  0.2974  0.9773
 4911SOL     OW26191   2.096   2.606  13.700 -0.0078 -0.3799  0.3685
 4911SOL    HW126192   2.086   2.664  13.625 -0.7377  0.9150  1.4556
 4911SOL    HW226193   2.177   2.643  13.737 -0.3903  0.1783  0.6569
 4912SOL     OW26194   3.758   0.572   5.853  0.3768  0.6172 -0.7480
 4912SOL    HW126195   3.822   0.543   5.919  0.7862 -0.0292 -1.4321
 4912SOL    HW226196   3.729   0.654   5.891  1.0978 -1.4193  4.2966
 4913SOL     OW26197   2.840   2.680   9.232 -0.8070  0.1191  0.0493
 4913SOL    HW126198   2.929   2.652   9.253 -1.4131 -1.5545  0.4155
 4913SOL    HW226199   2.817   2.728   9.311 -0.5060 -2.4397  1.6974
 4914SOL     OW26200   4.710   3.971   2.148  0.3963  0.5818 -0.0496
 4914SOL    HW126201   4.722   4.058   2.110  1.3873  0.5597  0.2190
 4914SOL    HW226202   4.618   3.956   2.128 -0.1525  3.7689  0.1256
 4915SOL     OW26203   3.046   2.589  16.357 -0.0554  0.0625 -0.0657
 4915SOL    HW126204   3.060   2.540  16.276 -2.0280 -1.8836  0.7901
 4915SOL    HW226205   2.951   2.597  16.351 -0.2397 -1.1581  1.5298
 4916SOL     OW26206   1.441   2.254   1.908 -0.1441 -0.2017 -0.5549
 4916SOL    HW126207   1.373   2.314   1.939  0.4922  0.8489 -1.2038
 4916SOL    HW226208   1.427   2.281   1.817 -0.7898  0.4168 -0.2688
 4917SOL     OW26209   1.848   3.015   7.340 -0.3464  0.3310 -0.4103
 4917SOL    HW126210   1.757   3.010   7.310 -0.0127 -1.4704 -1.0931
 4917SOL    HW226211   1.879   3.077   7.275  1.1999  1.1697  1.1087
 4918SOL     OW26212   1.190   3.422   8.035  0.2806  0.3512 -0.1154
 4918SOL    HW126213   1.114   3.467   8.072  0.0870  0.9640 -1.2516
 4918SOL    HW226214   1.250   3.495   8.053 -0.2306  0.3705  1.5452
 4919SOL     OW26215   1.470   3.368   4.785 -0.4682 -0.6551  0.1118
 4919SOL    HW126216   1.419   3.291   4.760  0.2432 -0.8189 -0.8357
 4919SOL    HW226217   1.408   3.438   4.764 -1.7437 -1.8906 -0.2959
 4920SOL     OW26218   2.807   1.220  16.426 -0.0216  0.0297 -0.5396
 4920SOL    HW126219   2.854   1.184  16.350  1.0194 -0.4951  0.3476
 4920SOL    HW226220   2.845   1.307  16.438 -0.7129  0.3099 -0.3865
 4921SOL     OW26221   1.630   3.867   3.919 -0.4393 -0.3569  0.4296
 4921SOL    HW126222   1.708   3.904   3.960  0.4554 -2.8802  0.9858
 4921SOL    HW226223   1.604   3.938   3.860 -1.3655 -1.6936 -0.7666
 4922SOL     OW26224   4.360   2.131   3.878  0.5806 -0.6954  0.4123
 4922SOL    HW126225   4.327   2.173   3.798 -2.4402  0.8756  2.4737
 4922SOL    HW226226   4.365   2.207   3.936  0.7574 -1.0358  0.8376
 4923SOL     OW26227   2.404   4.130   8.169  0.1011 -0.0765  0.0556
 4923SOL    HW126228   2.412   4.221   8.142 -2.0873  0.4678  1.2361
 4923SOL    HW226229   2.485   4.104   8.214  0.5077  1.2179  0.0501
 4924SOL     OW26230   2.398   4.124   4.096 -0.0424 -0.3589 -0.2147
 4924SOL    HW126231   2.463   4.126   4.026  0.9387  1.9545  0.7868
 4924SOL    HW226232   2.399   4.208   4.142  0.6113 -0.5670  0.1500
 4925SOL     OW26233   1.686   2.004   8.284  0.2721 -0.6611 -0.1908
 4925SOL    HW126234   1.619   1.948   8.325 -0.8678  0.5070 -0.4622
 4925SOL    HW226235   1.672   2.003   8.189  1.3477  0.8618 -0.3599
 4926SOL     OW26236   0.711   4.705  17.558  0.0721  0.7674  0.3622
 4926SOL    HW126237   0.634   4.667  17.600  0.8376  0.4000  1.4304
 4926SOL    HW226238   0.746   0.042  17.619 -0.6831 -0.0793  1.6690
 4927SOL     OW26239   4.624   3.514   4.226 -0.3086 -0.5533  0.1202
 4927SOL    HW126240   4.603   3.557   4.308  3.9080  0.4888  0.6419
 4927SOL    HW226241   4.706   3.468   4.243 -0.3094 -0.8228 -0.5854
 4928SOL     OW26242   3.107   3.026   2.408  0.3092  0.5152 -0.5256
 4928SOL    HW126243   3.132   3.118   2.399  0.2162  0.2172 -3.8344
 4928SOL    HW226244   3.018   3.034   2.442  0.0900  1.2577 -1.2618
 4929SOL     OW26245   4.396   2.222   2.727 -0.5174  0.0228  0.0809
 4929SOL    HW126246   4.427   2.276   2.655 -2.3248 -0.2280 -0.8743
 4929SOL    HW226247   4.481   2.192   2.757 -1.0973 -2.5294 -0.8670
 4930SOL     OW26248   2.982   2.593   6.955  0.6060 -0.2448 -0.1767
 4930SOL    HW126249   2.977   2.498   6.956 -1.9729 -0.1048 -0.5555
 4930SOL    HW226250   3.016   2.605   7.043  0.9814  1.9966 -0.6134
 4931SOL     OW26251   0.304   2.846   8.103 -0.3337 -0.4773  0.1555
 4931SOL    HW126252   0.329   2.821   8.014  2.3288  1.1930  0.4362
 4931SOL    HW226253   0.316   2.760   8.143  1.0995  0.3278  1.4815
 4932SOL     OW26254   0.771   4.320   7.969 -0.0260  0.0624  0.5955
 4932SOL    HW126255   0.770   4.287   7.880  1.2136  1.6193 -0.0065
 4932SOL    HW226256   0.848   4.377   7.967  0.5139 -0.7244 -0.5764
 4933SOL     OW26257   2.769   2.083  10.233  0.1663 -0.3539  0.4171
 4933SOL    HW126258   2.849   2.111  10.190 -0.3471 -0.2857 -0.4989
 4933SOL    HW226259   2.771   2.155  10.295 -0.5046 -1.3382  1.5868
 4934SOL     OW26260   4.177   2.291   3.063  0.2335  0.1587 -0.1870
 4934SOL    HW126261   4.118   2.215   3.067  0.6356 -0.0702  1.7506
 4934SOL    HW226262   4.122   2.360   3.027  0.4886 -0.7435 -2.2673
 4935SOL     OW26263   4.021   1.782   0.868 -0.1339 -0.1565  0.2797
 4935SOL    HW126264   3.958   1.776   0.797  1.3713  2.0330 -1.2570
 4935SOL    HW226265   4.017   1.878   0.872 -0.0989 -0.1594  0.3910
 4936SOL     OW26266   3.049   1.560  10.562 -0.6689 -0.1967  0.5483
 4936SOL    HW126267   3.139   1.579  10.534 -1.1758 -0.7169 -1.4779
 4936SOL    HW226268   3.060   1.506  10.640 -0.3434  0.7146  1.1304
 4937SOL     OW26269   1.972   3.693  15.944  0.6159  0.0168 -0.2494
 4937SOL    HW126270   2.045   3.728  15.893 -0.0448 -1.9113 -2.5077
 4937SOL    HW226271   1.946   3.766  16.001 -0.4600 -1.5992  1.3211
 4938SOL     OW26272   2.978   4.460   2.569  0.3100  0.1543  0.0277
 4938SOL    HW126273   3.045   4.526   2.590  0.3331 -0.0074  0.4478
 4938SOL    HW226274   2.907   4.462   2.633  0.8591 -1.0452  0.6660
 4939SOL     OW26275   3.119   1.204   3.553 -0.0787 -0.4747  0.0589
 4939SOL    HW126276   3.168   1.124   3.569  1.4935  0.9148  2.2023
 4939SOL    HW226277   3.035   1.200   3.599 -1.5513 -1.4133 -2.7629
 4940SOL     OW26278   2.115   2.788   1.681  0.0086 -0.2050  0.0174
 4940SOL    HW126279   2.031   2.801   1.726 -0.0028  0.3127 -0.1566
 4940SOL    HW226280   2.166   2.737   1.744  1.3743  1.7071  0.4398
 4941SOL     OW26281   0.282   0.081   7.192  0.1441 -0.9343  0.0207
 4941SOL    HW126282   0.320   0.044   7.112  0.4438 -0.2891 -0.1347
 4941SOL    HW226283   0.199   0.112   7.156 -0.0387 -1.1616  0.2448
 4942SOL     OW26284   2.875   3.483   6.762 -0.1114 -0.0164  0.0326
 4942SOL    HW126285   2.807   3.527   6.711 -0.9795 -0.9390  0.4131
 4942SOL    HW226286   2.886   3.555   6.824  0.2565 -0.3740  0.3838
 4943SOL     OW26287   2.497   2.532   3.452  0.1752 -0.0985  0.1170
 4943SOL    HW126288   2.548   2.475   3.509 -0.3441  0.0337  0.7121
 4943SOL    HW226289   2.548   2.541   3.371  0.1321 -2.3261 -0.1575
 4944SOL     OW26290   1.692   3.557  15.951  0.2524  0.0622 -0.4725
 4944SOL    HW126291   1.679   3.464  15.965  1.8153 -0.2600 -1.1186
 4944SOL    HW226292   1.787   3.562  15.962  0.1085  0.6850  0.4329
 4945SOL     OW26293   0.823   0.345   8.041 -0.1771 -0.3789  0.4990
 4945SOL    HW126294   0.769   0.404   7.988  2.1570  1.5640  0.3037
 4945SOL    HW226295   0.847   0.279   7.977 -0.0454  0.4551 -0.3139
 4946SOL     OW26296   4.725   0.150   5.133 -0.1357  0.2347 -0.4209
 4946SOL    HW126297   4.637   0.136   5.097 -0.3888  1.1357 -0.1431
 4946SOL    HW226298   4.711   0.241   5.158 -0.6370  0.3922 -1.2632
 4947SOL     OW26299   2.127   2.886   7.181 -0.0454  0.3518  0.6871
 4947SOL    HW126300   2.202   2.884   7.242 -0.6129 -3.9591  1.2430
 4947SOL    HW226301   2.059   2.851   7.238  0.3115  0.8013  1.4020
 4948SOL     OW26302   1.135   2.342   8.700  0.0301 -0.1375 -0.3933
 4948SOL    HW126303   1.149   2.437   8.696 -0.0443 -0.1434 -0.8181
 4948SOL    HW226304   1.048   2.339   8.662  0.4977 -1.6456 -1.3452
 4949SOL     OW26305   2.557   2.636  16.733 -0.1711  0.5919 -0.0449
 4949SOL    HW126306   2.491   2.613  16.799  0.8579 -1.4975  0.2285
 4949SOL    HW226307   2.580   2.554  16.691 -0.0530  0.3882  0.4270
 4950SOL     OW26308   0.466   0.449   0.976  0.2323  0.1499  0.0996
 4950SOL    HW126309   0.487   0.541   0.958 -1.5307  0.4229 -0.4938
 4950SOL    HW226310   0.549   0.405   0.957 -0.0940 -1.0320  1.3953
 4951SOL     OW26311   1.027   3.049   6.442 -0.1731 -0.0003 -0.4801
 4951SOL    HW126312   0.959   3.083   6.383 -2.1071 -0.6411  1.3790
 4951SOL    HW226313   1.016   2.957   6.420  0.5526 -0.3307  0.5312
 4952SOL     OW26314   3.285   1.659  10.449  0.1636 -0.3391 -0.0734
 4952SOL    HW126315   3.358   1.710  10.413 -0.7050  0.4585 -0.7155
 4952SOL    HW226316   3.328   1.577  10.471  1.9998 -0.2294 -3.2121
 4953SOL     OW26317   0.318   4.491  12.654 -0.5536 -0.3288  0.1419
 4953SOL    HW126318   0.312   4.507  12.560  1.3962  0.1847  0.1075
 4953SOL    HW226319   0.225   4.481  12.678 -0.8324 -2.5680 -1.8133
 4954SOL     OW26320   3.122   0.779  13.185  0.5239  0.3823 -0.1264
 4954SOL    HW126321   3.202   0.746  13.225  1.4879  0.9807 -1.5705
 4954SOL    HW226322   3.068   0.701  13.200 -1.2542  1.5681 -0.3566
 4955SOL     OW26323   4.483   1.877   3.836 -0.6327  0.5596 -0.3377
 4955SOL    HW126324   4.444   1.951   3.883  0.3602  0.1812  1.0968
 4955SOL    HW226325   4.467   1.903   3.746 -0.4366 -1.5865 -0.9877
 4956SOL     OW26326   4.114   0.943   8.985 -0.0349 -0.1063 -0.1653
 4956SOL    HW126327   4.197   0.903   9.012  0.5226  2.0886  1.3198
 4956SOL    HW226328   4.119   1.029   9.026 -2.3099  0.0499 -0.2161
 4957SOL     OW26329   2.543   2.037   5.174  0.2007 -0.3197  0.5961
 4957SOL    HW126330   2.517   2.006   5.261 -2.7453 -0.3318 -0.3056
 4957SOL    HW226331   2.634   2.006   5.175 -0.5836 -2.5883  0.3605
 4958SOL     OW26332   0.544   1.294   4.502  0.1040 -0.3413 -0.6303
 4958SOL    HW126333   0.591   1.362   4.550 -2.9469 -0.5158  2.5595
 4958SOL    HW226334   0.606   1.251   4.443  2.3116  1.4679  0.3479
 4959SOL     OW26335   2.228   0.751   6.466 -0.7454  0.0366 -0.5282
 4959SOL    HW126336   2.225   0.793   6.552  0.0173 -1.1206  0.0621
 4959SOL    HW226337   2.136   0.723   6.468 -1.3244  1.9887  0.4007
 4960SOL     OW26338   2.380   3.833   6.071 -0.0738  0.0619  0.6310
 4960SOL    HW126339   2.374   3.878   5.986  0.1506 -1.5804 -0.2551
 4960SOL    HW226340   2.383   3.916   6.118 -0.0689  0.3916  0.0568
 4961SOL     OW26341   2.988   4.311   4.283  0.2375 -0.3547 -0.5083
 4961SOL    HW126342   3.057   4.251   4.310  0.8183  0.6902  0.3348
 4961SOL    HW226343   3.020   4.373   4.218 -3.1382  0.6515 -1.2172
 4962SOL     OW26344   2.875   0.623   7.902 -0.3325 -0.2164  0.0894
 4962SOL    HW126345   2.954   0.654   7.858 -0.2448 -0.0603  0.3585
 4962SOL    HW226346   2.821   0.597   7.827  0.9844 -2.2488 -0.1468
 4963SOL     OW26347   4.443   4.270   5.169 -0.8849 -0.3855 -0.1560
 4963SOL    HW126348   4.355   4.287   5.135 -0.2234  0.0442 -1.6491
 4963SOL    HW226349   4.487   4.219   5.101 -0.0302 -0.1832  0.2391
 4964SOL     OW26350   3.249   2.211   5.589  0.9185 -0.0057 -0.0639
 4964SOL    HW126351   3.245   2.221   5.684  2.0568  0.3905 -0.0535
 4964SOL    HW226352   3.223   2.120   5.574 -1.8133  0.7027  0.4651
 4965SOL     OW26353   1.548   4.398   1.372 -0.0567  0.2533 -0.0244
 4965SOL    HW126354   1.497   4.320   1.348  1.3125 -0.4939 -0.5383
 4965SOL    HW226355   1.600   4.405   1.291  1.9621  1.8734  1.4251
 4966SOL     OW26356   3.176   0.931   7.279 -0.0911  0.4384 -0.7403
 4966SOL    HW126357   3.101   0.970   7.233 -0.6132  1.3609  0.9002
 4966SOL    HW226358   3.157   0.958   7.369  0.1462  0.1439 -0.6036
 4967SOL     OW26359   1.646   1.508   8.072  0.0264  0.3632  0.4495
 4967SOL    HW126360   1.583   1.574   8.044  0.2534  0.0062 -0.9062
 4967SOL    HW226361   1.586   1.433   8.071  1.7135 -1.0356  2.0875
 4968SOL     OW26362   1.861   2.811   6.917 -0.8573 -0.0501  0.0814
 4968SOL    HW126363   1.875   2.716   6.921 -0.4095  0.0827  1.5700
 4968SOL    HW226364   1.811   2.813   6.836  0.8704  0.7391 -0.9734
 4969SOL     OW26365   4.111   4.159   7.901  0.4820  0.4940  0.1557
 4969SOL    HW126366   4.150   4.151   7.987  0.5665 -1.3001 -0.0589
 4969SOL    HW226367   4.187   4.204   7.862  0.1894  1.6547  0.9409
 4970SOL     OW26368   0.677   3.173  14.799 -0.3946 -0.1465 -0.3810
 4970SOL    HW126369   0.643   3.111  14.734 -1.3137  0.7198 -0.7229
 4970SOL    HW226370   0.770   3.154  14.790 -0.2573  1.6432 -2.6692
 4971SOL     OW26371   0.555   0.159   0.114 -0.1132  0.1296  0.6182
 4971SOL    HW126372   0.504   0.084   0.083 -1.1718  1.0820  0.1040
 4971SOL    HW226373   0.641   0.129   0.082 -0.5336  1.3668 -1.7046
 4972SOL     OW26374   3.933   0.490   1.749  0.1770 -0.1937 -0.0870
 4972SOL    HW126375   3.850   0.522   1.712  1.3880  1.3489 -1.4925
 4972SOL    HW226376   3.988   0.538   1.688  1.3789  1.6567  2.4720
 4973SOL     OW26377   3.506   4.475   4.828  0.1279  0.4176 -0.1922
 4973SOL    HW126378   3.539   4.478   4.918  2.1851  1.1182 -0.9629
 4973SOL    HW226379   3.474   4.385   4.822  0.8931 -0.0316  2.3523
 4974SOL     OW26380   2.303   3.158  10.799 -0.5664 -0.2609 -0.1014
 4974SOL    HW126381   2.222   3.142  10.848 -0.0550  1.3460  1.2854
 4974SOL    HW226382   2.285   3.249  10.776 -0.2303 -0.7734 -2.3944
 4975SOL     OW26383   3.589   2.813   7.843  0.3390  0.2476 -0.5948
 4975SOL    HW126384   3.655   2.880   7.822 -0.9841  1.4238 -1.0479
 4975SOL    HW226385   3.585   2.758   7.765  0.7078 -0.1210 -0.3518
 4976SOL     OW26386   1.725   2.444   4.512  0.3393 -0.5469  0.2050
 4976SOL    HW126387   1.711   2.349   4.504 -1.9439 -0.2015 -0.0599
 4976SOL    HW226388   1.722   2.475   4.421 -0.9066  1.7214  1.0141
 4977SOL     OW26389   3.654   2.441   7.468  0.3748  0.2162  0.1340
 4977SOL    HW126390   3.625   2.352   7.488  0.3786  0.4641  1.2168
 4977SOL    HW226391   3.749   2.438   7.462  0.2388 -3.6050 -0.2964
 4978SOL     OW26392   4.384   0.494  13.147 -0.3198  0.0298  0.4156
 4978SOL    HW126393   4.385   0.483  13.242 -0.2351 -1.3746  0.2511
 4978SOL    HW226394   4.390   0.589  13.138 -1.7048 -0.0688 -1.5071
 4979SOL     OW26395   3.257   0.322   1.786 -0.2880  0.2686 -0.1620
 4979SOL    HW126396   3.202   0.300   1.712  0.3818  0.7416 -0.8007
 4979SOL    HW226397   3.276   0.233   1.818  0.5198  0.1813 -0.8849
 4980SOL     OW26398   2.564   1.047  12.784  0.8162  0.7085  0.7099
 4980SOL    HW126399   2.603   0.991  12.851  2.3467 -0.4935 -1.1631
 4980SOL    HW226400   2.526   1.113  12.841 -1.0478 -1.0833  1.5475
 4981SOL     OW26401   4.141   4.498   7.496  0.4032  0.0160  0.1484
 4981SOL    HW126402   4.090   4.461   7.568  0.9657 -0.8328  0.1167
 4981SOL    HW226403   4.079   4.534   7.433  0.5836  0.1946  0.0718
 4982SOL     OW26404   4.417   4.600   6.901 -0.4542 -0.0309  0.5051
 4982SOL    HW126405   4.396   4.683   6.857 -2.5016 -1.1120 -0.5606
 4982SOL    HW226406   4.428   4.552   6.819 -3.1994  1.1574 -0.5545
 4983SOL     OW26407   4.265   4.515  11.143  0.4818 -0.0024  0.2596
 4983SOL    HW126408   4.176   4.482  11.136  0.4609  0.3111 -0.9532
 4983SOL    HW226409   4.291   4.516  11.051 -0.2581  1.1289  0.0556
 4984SOL     OW26410   0.143   2.328   8.419  0.0813 -0.3978 -0.1653
 4984SOL    HW126411   0.192   2.401   8.458 -0.0942  0.0832 -0.8469
 4984SOL    HW226412   0.124   2.357   8.330  0.3931 -0.2183 -0.1760
 4985SOL     OW26413   3.120   1.931   0.805 -0.3456 -0.1581  0.1296
 4985SOL    HW126414   3.169   1.850   0.790  0.4917 -0.0110  2.0904
 4985SOL    HW226415   3.091   1.963   0.719 -0.8773  0.4174  0.5246
 4986SOL     OW26416   0.153   0.458  14.221  0.0522 -0.5000 -0.3314
 4986SOL    HW126417   0.100   0.493  14.149 -1.1188  0.7002  1.1291
 4986SOL    HW226418   0.241   0.483  14.193 -0.5120  0.2565 -1.4183
 4987SOL     OW26419   2.226   0.573  14.298  0.0994 -0.0216 -0.0924
 4987SOL    HW126420   2.200   0.482  14.312 -2.5824  0.5757 -1.1908
 4987SOL    HW226421   2.279   0.551  14.221  1.3758 -0.4373  0.9117
 4988SOL     OW26422   0.113   3.909   5.836 -0.5809  0.4965 -0.2757
 4988SOL    HW126423   0.085   3.852   5.907 -1.1065 -1.6532 -2.2334
 4988SOL    HW226424   0.033   3.926   5.785 -0.9850  1.5665  0.7106
 4989SOL     OW26425   2.462   4.504   1.518  0.0384  0.5144 -0.2970
 4989SOL    HW126426   2.538   4.478   1.468 -0.9611  0.7914 -1.9520
 4989SOL    HW226427   2.391   4.475   1.461  1.6812 -1.9030 -1.0621
 4990SOL     OW26428   3.518   2.722   4.323 -0.1109 -0.0365  0.1549
 4990SOL    HW126429   3.470   2.640   4.316  0.6092 -0.4324 -0.1173
 4990SOL    HW226430   3.599   2.686   4.287  0.2642 -0.4742  1.4255
 4991SOL     OW26431   3.297   3.337   4.112 -0.5868  0.1753 -0.0966
 4991SOL    HW126432   3.219   3.381   4.078  1.3303  2.3522 -1.6899
 4991SOL    HW226433   3.328   3.289   4.035  0.7268  0.1267  0.4577
 4992SOL     OW26434   4.224   1.264   4.464 -0.4186  0.0746 -0.3045
 4992SOL    HW126435   4.136   1.252   4.429 -0.8628 -0.3816  0.9894
 4992SOL    HW226436   4.267   1.211   4.397  0.4402  1.1492 -0.5990
 4993SOL     OW26437   3.631   4.573   4.365  0.6906  0.3447 -0.1565
 4993SOL    HW126438   3.609   4.659   4.399  1.3304  0.1061  0.8522
 4993SOL    HW226439   3.633   4.517   4.443  0.8368  1.0550  0.3459
 4994SOL     OW26440   3.191   3.454   2.599  0.3699 -0.7472 -0.1151
 4994SOL    HW126441   3.238   3.476   2.518 -0.0289  1.0643  0.1478
 4994SOL    HW226442   3.252   3.392   2.640 -0.5239 -0.5883  1.4515
 4995SOL     OW26443   1.051   4.381   5.255 -0.5534 -0.0806  0.0346
 4995SOL    HW126444   1.005   4.315   5.307 -0.2231  0.9550  1.6673
 4995SOL    HW226445   1.082   4.439   5.325 -2.3690 -0.3516  1.0777
 4996SOL     OW26446   2.037   2.690   1.418 -0.4249  0.2162  0.1141
 4996SOL    HW126447   2.073   2.603   1.433  0.9992  0.8848  0.5952
 4996SOL    HW226448   2.056   2.728   1.504 -2.2129 -0.9618  1.0410
 4997SOL     OW26449   0.290   3.670   2.727 -0.6080  0.3288 -0.4770
 4997SOL    HW126450   0.353   3.740   2.708  1.6945 -1.8400 -0.9308
 4997SOL    HW226451   0.281   3.619   2.646 -0.2609 -1.3228  0.5332
 4998SOL     OW26452   2.197   0.096   0.631 -0.2159 -0.2346 -0.0935
 4998SOL    HW126453   2.228   0.130   0.715  1.6637 -1.0990 -0.4554
 4998SOL    HW226454   2.269   0.113   0.571  0.6807 -2.5442  0.3243
 4999SOL     OW26455   3.070   1.937  15.378 -0.0318 -0.1566 -0.4108
 4999SOL    HW126456   3.046   1.844  15.383 -0.8193  0.1198  0.8734
 4999SOL    HW226457   3.162   1.930  15.351  0.1400 -0.0649  0.1613
 5000SOL     OW26458   0.105   0.963   6.511  0.3887  0.6187  0.0116
 5000SOL    HW126459   0.042   0.967   6.583  0.1282 -2.3772 -0.0611
 5000SOL    HW226460   0.073   1.029   6.449  0.1598 -0.6251 -1.1978
 5001SOL     OW26461   1.731   3.290   5.696  0.1664 -0.0071 -0.3468
 5001SOL    HW126462   1.816   3.332   5.708 -0.9092  1.9220  0.4317
 5001SOL    HW226463   1.764   3.202   5.677 -0.4093 -0.0948 -0.9569
 5002SOL     OW26464   2.678   0.158  13.892 -0.1835  0.0263 -0.1839
 5002SOL    HW126465   2.609   0.129  13.833 -0.2840  0.4948 -0.2925
 5002SOL    HW226466   2.753   0.130  13.839  0.4424 -1.3611  1.3957
 5003SOL     OW26467   3.091   2.979   7.024  0.2095  0.5962 -0.5766
 5003SOL    HW126468   3.117   2.982   7.117 -2.8286 -2.8267  0.3839
 5003SOL    HW226469   2.998   3.002   7.034  0.3559  1.1278 -0.3760
 5004SOL     OW26470   1.088   0.427   4.182 -0.3511  0.3991  0.6563
 5004SOL    HW126471   1.042   0.372   4.244  2.1107 -1.4802  0.8296
 5004SOL    HW226472   1.161   0.366   4.167 -1.5850 -0.6088 -1.1584
 5005SOL     OW26473   1.725   3.938   2.748  0.3685 -0.3179 -0.5056
 5005SOL    HW126474   1.812   3.975   2.730 -0.2201  1.5636  0.4665
 5005SOL    HW226475   1.676   4.020   2.743  0.3891 -0.2634  0.1747
 5006SOL     OW26476   2.946   4.685   2.264  0.5280 -0.1129  0.2325
 5006SOL    HW126477   2.923   0.051   2.262  0.3355 -0.1972 -1.1831
 5006SOL    HW226478   3.006   4.698   2.337  0.5954 -1.5298  0.4203
 5007SOL     OW26479   1.641   3.700   2.125  0.5100  0.3486 -0.1787
 5007SOL    HW126480   1.700   3.731   2.057  0.7133  2.1655  0.8414
 5007SOL    HW226481   1.561   3.728   2.080 -0.6564 -0.2502  1.5164
 5008SOL     OW26482   0.251   1.263   5.090  0.2736  1.5310 -0.1158
 5008SOL    HW126483   0.156   1.271   5.096  0.3799  0.6752  2.5833
 5008SOL    HW226484   0.268   1.223   5.175  1.1639  1.0765 -0.5070
 5009SOL     OW26485   0.486   4.180   9.090  0.5924 -0.8436  0.0980
 5009SOL    HW126486   0.399   4.157   9.123 -0.1325 -0.8843 -1.8564
 5009SOL    HW226487   0.500   4.115   9.021 -1.0188  0.7300 -1.7084
 5010SOL     OW26488   4.397   3.810   2.976  0.3276  0.7911 -0.5032
 5010SOL    HW126489   4.381   3.904   2.978 -0.0990  0.6884  1.9760
 5010SOL    HW226490   4.462   3.800   3.046  0.1051 -0.5888 -0.4780
 5011SOL     OW26491   2.033   2.357  10.636  0.1492 -0.2963  0.4920
 5011SOL    HW126492   2.105   2.346  10.698  0.9976  1.3979 -0.1905
 5011SOL    HW226493   1.962   2.381  10.696 -0.2597  0.6551 -0.3695
 5012SOL     OW26494   2.727   1.706   3.413  0.2695  0.7377 -0.0747
 5012SOL    HW126495   2.803   1.652   3.395  0.3431  0.6436  0.5214
 5012SOL    HW226496   2.738   1.753   3.330  0.8762 -1.0569 -1.0126
 5013SOL     OW26497   1.123   2.716   8.252 -0.1572  0.5074 -0.2747
 5013SOL    HW126498   1.066   2.794   8.255 -2.0812 -0.8948 -0.1088
 5013SOL    HW226499   1.165   2.706   8.337 -0.6679  1.4666  0.0947
 5014SOL     OW26500   0.360   3.481  10.067  0.2949  0.2768 -0.3929
 5014SOL    HW126501   0.315   3.410  10.022  0.6247 -0.4217  0.3828
 5014SOL    HW226502   0.437   3.433  10.096  0.1779 -0.3259 -1.0858
 5015SOL     OW26503   2.610   3.716   9.883 -0.0527  0.1316  0.0517
 5015SOL    HW126504   2.540   3.677   9.935  0.9304  0.0352  1.3124
 5015SOL    HW226505   2.684   3.699   9.941 -0.6553 -0.7954  0.5499
 5016SOL     OW26506   1.612   3.772  10.306 -0.4779 -0.2463 -0.0579
 5016SOL    HW126507   1.536   3.827  10.324 -1.2666 -1.1873 -0.4713
 5016SOL    HW226508   1.664   3.820  10.242 -3.7732  3.3570 -0.0067
 5017SOL     OW26509   0.427   1.610  17.543 -0.6994 -0.3024 -0.1745
 5017SOL    HW126510   0.401   1.675  17.477  0.5911  0.9826  0.5781
 5017SOL    HW226511   0.393   1.648  17.624 -0.9459  0.8743 -0.8195
 5018SOL     OW26512   3.574   0.122   4.373  0.0342  0.6362  0.3503
 5018SOL    HW126513   3.619   0.119   4.458  0.2470  0.6699  0.2380
 5018SOL    HW226514   3.647   0.110   4.312 -0.9978 -1.6415 -0.4331
 5019SOL     OW26515   3.482   1.927   1.464 -0.0100 -0.0138  0.2438
 5019SOL    HW126516   3.391   1.917   1.491 -0.6851  1.0741 -1.5951
 5019SOL    HW226517   3.519   1.865   1.526 -1.0081  0.0462  0.9112
 5020SOL     OW26518   3.910   4.325   4.500 -0.1631 -0.3703 -0.2528
 5020SOL    HW126519   3.970   4.285   4.563 -0.2278 -1.3391 -0.8206
 5020SOL    HW226520   3.914   4.417   4.527  0.9203 -0.2073 -0.9398
 5021SOL     OW26521   4.282   0.393   8.116  0.6390 -0.1488 -0.3366
 5021SOL    HW126522   4.206   0.340   8.090  0.9711 -1.0414  0.4931
 5021SOL    HW226523   4.353   0.333   8.094  0.3221 -0.6664  0.0269
 5022SOL     OW26524   2.580   0.753  16.916  0.3819 -0.6155 -0.4105
 5022SOL    HW126525   2.507   0.698  16.890 -1.1370  0.9783  0.5058
 5022SOL    HW226526   2.641   0.736  16.844  0.6009  1.0769 -0.6383
 5023SOL     OW26527   2.896   1.820   8.895  0.6039  0.1169  0.7162
 5023SOL    HW126528   2.932   1.874   8.965 -0.3353  0.0554  1.2545
 5023SOL    HW226529   2.974   1.777   8.860  1.0902  1.4441  0.1942
 5024SOL     OW26530   2.296   1.374   1.339  0.1786  0.0580  0.0649
 5024SOL    HW126531   2.230   1.431   1.301 -0.5049 -0.7900 -0.0381
 5024SOL    HW226532   2.378   1.410   1.304 -0.8268  1.2139 -1.0711
 5025SOL     OW26533   1.738   1.291  11.434 -0.3468 -0.3045 -0.0753
 5025SOL    HW126534   1.751   1.271  11.527  0.3991  0.1164 -0.0879
 5025SOL    HW226535   1.807   1.239  11.392 -0.3532 -1.6773  1.6106
 5026SOL     OW26536   3.995   3.678   8.608  0.3105 -0.4586 -0.2038
 5026SOL    HW126537   3.932   3.633   8.552 -0.9642  1.7188 -0.5290
 5026SOL    HW226538   4.075   3.660   8.559  1.2144 -1.0917  1.5413
 5027SOL     OW26539   2.083   2.387   2.873  0.2935  0.3595 -0.5703
 5027SOL    HW126540   2.031   2.395   2.793 -0.9727  1.5318  0.3672
 5027SOL    HW226541   2.133   2.308   2.856  0.9991  0.9135 -1.0509
 5028SOL     OW26542   3.912   2.846   5.436  0.1404  0.2131  0.2095
 5028SOL    HW126543   3.980   2.839   5.503  0.5908 -3.9199 -0.6838
 5028SOL    HW226544   3.929   2.932   5.397  0.4745  0.1566  0.2291
 5029SOL     OW26545   0.188   4.068   2.613 -0.1666 -0.2711 -0.1179
 5029SOL    HW126546   0.151   4.013   2.543 -1.4300 -0.1749  0.4628
 5029SOL    HW226547   0.183   4.154   2.572  2.3667 -0.7345 -1.4016
 5030SOL     OW26548   0.994   3.415   5.462 -0.2053 -0.0252 -0.3616
 5030SOL    HW126549   0.976   3.337   5.409  3.5407 -0.8508 -0.3723
 5030SOL    HW226550   1.080   3.405   5.503 -0.6016 -1.5442  0.1073
 5031SOL     OW26551   2.165   4.306  12.795  0.5046 -0.1906  0.9055
 5031SOL    HW126552   2.081   4.346  12.772  1.4497  1.7529  0.8087
 5031SOL    HW226553   2.144   4.220  12.832  1.3491 -0.7541  0.0582
 5032SOL     OW26554   3.864   1.409  11.214  0.2205  0.0971 -0.3367
 5032SOL    HW126555   3.922   1.455  11.153  0.5041 -0.1007 -0.2160
 5032SOL    HW226556   3.859   1.480  11.278  1.6728 -0.1635  0.0673
 5033SOL     OW26557   4.460   0.130   5.048  0.2012  0.0073  0.5128
 5033SOL    HW126558   4.369   0.110   5.071 -0.4321  0.5148 -1.5661
 5033SOL    HW226559   4.455   0.184   4.970 -2.0713  1.8859  1.9674
 5034SOL     OW26560   0.018   0.103   8.716  0.5233 -0.6327  0.4820
 5034SOL    HW126561   0.102   0.087   8.759  1.1418  1.6898  0.1062
 5034SOL    HW226562   0.000   0.013   8.688  1.5826 -0.8504  0.5244
 5035SOL     OW26563   1.250   0.960  17.556 -0.8840  0.8608  0.1667
 5035SOL    HW126564   1.247   1.021  17.481 -0.8015  1.4825  0.6715
 5035SOL    HW226565   1.223   0.874  17.525  0.1205  0.1548  1.2439
 5036SOL     OW26566   2.561   0.842   7.382  0.3142 -0.4952 -0.4417
 5036SOL    HW126567   2.476   0.882   7.402  0.5674  0.5509 -1.4544
 5036SOL    HW226568   2.612   0.870   7.458  0.7557 -0.2548 -0.8309
 5037SOL     OW26569   1.503   0.219   1.861  0.5225  0.7595  0.4412
 5037SOL    HW126570   1.529   0.270   1.937  1.4762  0.1677  0.5105
 5037SOL    HW226571   1.591   0.207   1.827 -0.1847 -1.2184 -0.7204
 5038SOL     OW26572   2.633   0.399   8.428  0.0547 -0.0359 -0.1647
 5038SOL    HW126573   2.659   0.448   8.506 -0.3805 -0.2023  0.0849
 5038SOL    HW226574   2.722   0.396   8.392  0.2490 -1.0101  0.3935
 5039SOL     OW26575   2.469   3.942   9.809 -0.1890 -0.4268 -0.1982
 5039SOL    HW126576   2.540   3.999   9.837  0.0279 -1.3375  1.1114
 5039SOL    HW226577   2.510   3.858   9.787 -2.5461 -1.7817  0.5849
 5040SOL     OW26578   4.380   2.931  17.430 -0.2285  0.0476  0.1374
 5040SOL    HW126579   4.397   2.984  17.509  0.9878 -0.6911  0.3628
 5040SOL    HW226580   4.338   3.001  17.379 -1.5568 -2.3669 -2.0286
 5041SOL     OW26581   3.317   0.746   0.806  0.3160 -0.0393  0.4361
 5041SOL    HW126582   3.326   0.779   0.895 -1.9461 -0.2715  0.7673
 5041SOL    HW226583   3.224   0.766   0.794  0.3552 -0.4497 -0.5581
 5042SOL     OW26584   0.135   1.557   8.651  0.1779 -0.1603 -0.1113
 5042SOL    HW126585   0.155   1.617   8.724  0.3911  1.2481 -1.3237
 5042SOL    HW226586   0.042   1.567   8.633  0.2788 -0.3195 -0.7218
 5043SOL     OW26587   3.269   0.431  11.559 -0.5952 -0.4691  1.0202
 5043SOL    HW126588   3.255   0.520  11.527  1.8778  0.6291  2.9683
 5043SOL    HW226589   3.340   0.445  11.622  1.0963  0.7707 -1.1879
 5044SOL     OW26590   2.690   3.352   9.497  0.7344  0.2432 -0.4808
 5044SOL    HW126591   2.623   3.391   9.553 -0.7197 -1.5653 -0.9533
 5044SOL    HW226592   2.651   3.267   9.477 -2.0202  1.1422  1.1727
 5045SOL     OW26593   3.151   3.371   5.633 -0.7131 -0.0205 -0.0381
 5045SOL    HW126594   3.073   3.347   5.683 -1.3253 -0.4232 -1.1787
 5045SOL    HW226595   3.160   3.462   5.661 -1.2169  0.4235 -1.3066
 5046SOL     OW26596   0.341   3.142   6.986 -0.4040  0.0863 -1.2427
 5046SOL    HW126597   0.258   3.190   6.981 -1.5522 -1.6697  1.1592
 5046SOL    HW226598   0.384   3.166   6.904  0.7564 -3.0460 -1.5321
 5047SOL     OW26599   0.483   1.271   5.750 -0.0835  0.1468 -0.0118
 5047SOL    HW126600   0.578   1.277   5.760 -0.0188 -0.2054 -0.4101
 5047SOL    HW226601   0.476   1.200   5.814 -1.3415 -1.0144 -1.4325
 5048SOL     OW26602   2.259   2.791  15.089  0.0171 -0.6859  0.2870
 5048SOL    HW126603   2.242   2.858  15.156 -1.6813  0.1764 -0.9865
 5048SOL    HW226604   2.172   2.753  15.076  0.8165 -1.8455 -1.6491
 5049SOL     OW26605   0.056   3.115   2.634  0.5861  0.2136 -0.1889
 5049SOL    HW126606   0.031   3.207   2.648  0.3766 -0.0107  0.9309
 5049SOL    HW226607   4.719   3.072   2.690 -0.8265  1.7891 -0.5836
 5050SOL     OW26608   1.578   4.515   3.194  0.2645 -0.2770 -0.2485
 5050SOL    HW126609   1.558   4.487   3.105  0.3511 -0.1587 -0.3051
 5050SOL    HW226610   1.491   4.522   3.235  1.4614  2.3184  1.9034
 5051SOL     OW26611   4.027   4.463  14.942 -0.4928  0.0189 -0.1878
 5051SOL    HW126612   4.046   4.555  14.961 -0.6759  0.1289 -0.5451
 5051SOL    HW226613   3.943   4.458  14.988 -0.0302 -1.4716  0.5023
 5052SOL     OW26614   2.937   1.106   9.070 -0.0189  0.3203  0.2018
 5052SOL    HW126615   2.864   1.059   9.032 -1.2261  0.3188  2.4880
 5052SOL    HW226616   2.931   1.069   9.158  1.6986  0.1817  0.2569
 5053SOL     OW26617   3.424   2.489   7.974  0.0172  0.1038 -0.3646
 5053SOL    HW126618   3.424   2.574   8.017  0.3710 -0.1520  0.1353
 5053SOL    HW226619   3.506   2.469   8.018  0.2379  0.4874 -0.6058
 5054SOL     OW26620   1.243   4.465   7.836 -0.2406  0.3067 -0.0169
 5054SOL    HW126621   1.268   4.554   7.861 -1.8866  1.0979 -1.1708
 5054SOL    HW226622   1.315   4.413   7.872 -1.0827 -1.2643 -0.6187
 5055SOL     OW26623   0.714   3.909  10.134  0.4074  0.7529  0.4367
 5055SOL    HW126624   0.661   3.949  10.065  0.3028 -1.9436 -1.0259
 5055SOL    HW226625   0.642   3.867  10.180  0.2158  1.4805  0.8065
 5056SOL     OW26626   4.621   1.112   8.938 -0.2652  0.0488  0.0061
 5056SOL    HW126627   4.685   1.155   8.994 -2.8801  1.0650  2.2305
 5056SOL    HW226628   4.539   1.139   8.980 -0.1993  3.6496 -2.1624
 5057SOL     OW26629   1.424   1.389  16.080 -0.1670  0.6231 -0.8125
 5057SOL    HW126630   1.377   1.314  16.118 -1.1422  1.7823  0.2482
 5057SOL    HW226631   1.438   1.361  15.989  1.7694  1.2049 -0.6905
 5058SOL     OW26632   3.473   4.492   9.311 -0.6142  0.3019  0.5629
 5058SOL    HW126633   3.418   4.423   9.274  2.6763 -1.0266 -1.8274
 5058SOL    HW226634   3.424   4.504   9.393 -1.0977 -2.2151  0.6355
 5059SOL     OW26635   3.621   0.604   7.418 -0.0521 -0.0324  0.2864
 5059SOL    HW126636   3.592   0.672   7.479 -2.6458 -0.7017 -0.2010
 5059SOL    HW226637   3.604   0.645   7.333  2.4143  1.0950  0.3344
 5060SOL     OW26638   3.839   0.335   4.764 -0.0357  0.2485  0.5137
 5060SOL    HW126639   3.788   0.363   4.840 -1.0102 -1.1992  0.3977
 5060SOL    HW226640   3.877   0.421   4.750  0.1217  0.2080  0.6867
 5061SOL     OW26641   1.419   1.850   7.188  0.3241  0.1036 -0.0836
 5061SOL    HW126642   1.445   1.806   7.269  2.2860 -0.4163 -0.9903
 5061SOL    HW226643   1.341   1.900   7.214  1.4966  0.2364  3.1673
 5062SOL     OW26644   1.858   1.409   5.749 -0.7088  0.3460 -0.6547
 5062SOL    HW126645   1.878   1.321   5.718 -0.9832  0.5450 -1.4074
 5062SOL    HW226646   1.850   1.450   5.663  1.5602 -0.5721 -1.2998
 5063SOL     OW26647   3.096   3.689   8.939 -0.1937 -0.2535  0.0653
 5063SOL    HW126648   3.115   3.768   8.990  1.6689 -0.5397 -0.1820
 5063SOL    HW226649   3.125   3.710   8.850  0.8496  1.9164  0.9349
 5064SOL     OW26650   4.612   2.839   8.392  0.3160  0.3297  0.3033
 5064SOL    HW126651   4.556   2.762   8.402 -0.2252  0.6209 -0.4452
 5064SOL    HW226652   4.693   2.803   8.428 -0.7215  0.2498  2.6038
 5065SOL     OW26653   2.042   3.101  13.501 -0.4052 -0.1636  0.1980
 5065SOL    HW126654   1.948   3.089  13.520 -0.6882  0.8646 -0.5786
 5065SOL    HW226655   2.037   3.196  13.501 -0.7023 -0.1712  1.4948
 5066SOL     OW26656   1.252   3.359  15.906  0.4482 -0.2302 -0.3327
 5066SOL    HW126657   1.265   3.422  15.976  0.1511 -1.1542  0.5596
 5066SOL    HW226658   1.326   3.370  15.847 -0.6792 -0.8798 -1.8844
 5067SOL     OW26659   4.715   3.076   4.941 -0.3461 -0.1304 -0.3691
 5067SOL    HW126660   4.645   3.076   5.007 -0.1479  1.5877 -0.1469
 5067SOL    HW226661   0.007   2.982   4.934  0.4399  0.0171 -0.2107
 5068SOL     OW26662   1.747   2.635   2.523 -0.4318  0.5131  0.1307
 5068SOL    HW126663   1.666   2.600   2.486  0.8216 -2.7888  0.4802
 5068SOL    HW226664   1.803   2.660   2.449  0.9381  0.1787  1.0563
 5069SOL     OW26665   3.812   2.073   8.144 -0.2771  0.3375  0.7405
 5069SOL    HW126666   3.807   2.122   8.227  1.5186  0.2889  0.8720
 5069SOL    HW226667   3.727   2.096   8.106 -0.7245  0.8205  2.0052
 5070SOL     OW26668   3.473   0.426   2.971 -0.1004 -0.7659  0.3376
 5070SOL    HW126669   3.439   0.509   2.936 -2.5997 -1.3253  1.4302
 5070SOL    HW226670   3.494   0.444   3.062  2.2487 -0.0637 -0.3411
 5071SOL     OW26671   0.850   2.990   7.598 -0.1570  0.6139  0.1714
 5071SOL    HW126672   0.787   3.023   7.661 -2.0343 -0.0169 -1.3551
 5071SOL    HW226673   0.808   2.987   7.512 -2.1811 -0.7336  1.2050
 5072SOL     OW26674   0.712   1.277   1.241  0.0257  0.0367  0.5174
 5072SOL    HW126675   0.671   1.364   1.238 -0.0417 -0.0211 -0.2536
 5072SOL    HW226676   0.650   1.237   1.302  0.0045 -0.8169 -0.0588
 5073SOL     OW26677   0.351   0.261   5.901 -0.5640 -0.8778 -0.2345
 5073SOL    HW126678   0.422   0.230   5.958  0.9944  2.9279 -0.1107
 5073SOL    HW226679   0.391   0.292   5.820 -0.5308  0.7745  0.4014
 5074SOL     OW26680   0.581   1.931   5.746 -0.4546 -0.3442 -0.3627
 5074SOL    HW126681   0.586   1.955   5.839  2.7789 -2.9758  0.1630
 5074SOL    HW226682   0.555   1.839   5.742  0.4104 -0.6210  0.3582
 5075SOL     OW26683   4.089   1.190   1.405 -0.4153  0.1402 -0.0446
 5075SOL    HW126684   4.056   1.124   1.343  0.7957 -0.9640  0.4879
 5075SOL    HW226685   4.171   1.223   1.369  0.3752 -0.7575  0.9327
 5076SOL     OW26686   0.673   1.870  16.868 -0.1124 -0.2183 -0.1296
 5076SOL    HW126687   0.683   1.832  16.955  1.6881 -2.3011 -1.2636
 5076SOL    HW226688   0.591   1.826  16.850 -1.0625  0.9343  1.3836
 5077SOL     OW26689   3.502   2.479  10.775 -0.5849 -0.1943  0.3104
 5077SOL    HW126690   3.523   2.437  10.859  2.2609  4.1097  1.7578
 5077SOL    HW226691   3.448   2.550  10.811 -1.3937 -1.1998  1.0815
 5078SOL     OW26692   3.179   1.225  16.210 -0.0617  0.0751  0.0278
 5078SOL    HW126693   3.236   1.206  16.136  0.3073  0.2944  0.2608
 5078SOL    HW226694   3.096   1.229  16.163 -0.7423 -0.4012  1.1771
 5079SOL     OW26695   2.567   3.163   7.730 -0.3582  0.5780  0.3563
 5079SOL    HW126696   2.627   3.149   7.803  0.7237 -0.4675 -0.7357
 5079SOL    HW226697   2.485   3.182   7.775 -0.5453  0.3267  0.1257
 5080SOL     OW26698   2.291   2.197   8.925 -0.5888  0.2419 -0.0856
 5080SOL    HW126699   2.250   2.122   8.882  1.2172 -1.5941  1.3896
 5080SOL    HW226700   2.297   2.144   9.005  3.0446 -0.8257 -1.0803
 5081SOL     OW26701   1.917   3.168   6.723  0.1215  0.5153 -0.0973
 5081SOL    HW126702   1.830   3.131   6.735  0.8749 -1.0350  0.6133
 5081SOL    HW226703   1.963   3.138   6.802  2.0542 -0.7205 -1.6842
 5082SOL     OW26704   3.906   0.486   4.266 -0.2520  0.4573 -0.0345
 5082SOL    HW126705   3.890   0.406   4.317 -0.5183  1.5539  1.6018
 5082SOL    HW226706   3.949   0.445   4.191  0.9890 -0.9186  1.4453
 5083SOL     OW26707   4.458   3.864  14.968 -0.1617  0.2823 -0.3600
 5083SOL    HW126708   4.382   3.834  15.018  0.4643 -2.1428 -0.8990
 5083SOL    HW226709   4.505   3.781  14.960  1.6917  1.0569  2.2637
 5084SOL     OW26710   3.495   1.561   5.557  0.3207 -0.3978 -0.2100
 5084SOL    HW126711   3.557   1.510   5.609  1.6260  2.0256  0.6121
 5084SOL    HW226712   3.472   1.497   5.490 -1.7741 -1.0327  1.1271
 5085SOL     OW26713   3.497   0.255  14.678 -0.0883  0.0466 -0.0186
 5085SOL    HW126714   3.443   0.209  14.742 -1.4983  1.5888 -0.0893
 5085SOL    HW226715   3.585   0.239  14.712 -1.2782 -0.5175  2.8264
 5086SOL     OW26716   3.394   3.289   2.691 -0.0604 -0.7825  0.2686
 5086SOL    HW126717   3.407   3.206   2.736  0.7035 -0.8863 -0.1544
 5086SOL    HW226718   3.383   3.351   2.763 -0.2051 -1.3598  0.7425
 5087SOL     OW26719   0.486   4.566  17.685 -0.0853 -1.0395  0.0525
 5087SOL    HW126720   0.392   4.583  17.679  0.1582  1.1128  2.1083
 5087SOL    HW226721   0.490   4.480   0.018  1.0057 -0.0635  1.9724
 5088SOL     OW26722   1.855   3.579   3.279 -0.3659  0.3699 -0.3983
 5088SOL    HW126723   1.901   3.519   3.221  0.5234 -0.0500  0.7232
 5088SOL    HW226724   1.776   3.587   3.226 -1.5783  4.0610  1.9661
 5089SOL     OW26725   2.913   2.871   0.674  0.4448 -0.4306  0.1388
 5089SOL    HW126726   2.908   2.779   0.649  4.2284 -0.1623 -1.5481
 5089SOL    HW226727   2.982   2.869   0.740 -0.3290  0.1421  0.9538
 5090SOL     OW26728   4.299   4.683   8.757 -0.2582  0.1188 -0.4028
 5090SOL    HW126729   4.393   4.679   8.744 -0.3278 -0.1933 -0.8545
 5090SOL    HW226730   4.281   0.050   8.760 -1.5488 -0.1671  0.6697
 5091SOL     OW26731   3.310   1.405   3.746 -0.3949  0.5694 -0.8204
 5091SOL    HW126732   3.287   1.375   3.658  0.2420 -2.1166 -0.0735
 5091SOL    HW226733   3.379   1.468   3.725  1.0318 -0.5415  0.5461
 5092SOL     OW26734   0.703   3.597   2.654 -0.5327 -0.3239  0.2167
 5092SOL    HW126735   0.721   3.640   2.737  0.8904  0.9560 -0.7600
 5092SOL    HW226736   0.712   3.674   2.599  0.7888 -0.3972  0.3322
 5093SOL     OW26737   3.608   2.021   6.344  0.0047 -0.1516 -0.2620
 5093SOL    HW126738   3.584   2.056   6.258  1.0617 -0.2543 -0.6052
 5093SOL    HW226739   3.520   2.027   6.381  0.1050 -3.4953  0.5119
 5094SOL     OW26740   3.079   2.040   4.339 -0.0472 -0.4305  0.3507
 5094SOL    HW126741   3.135   2.065   4.266  0.9610  0.3890  1.4321
 5094SOL    HW226742   3.040   1.964   4.295 -2.4740  0.5534  0.7699
 5095SOL     OW26743   0.235   1.799  14.677  0.4862  0.5649 -0.0336
 5095SOL    HW126744   0.177   1.873  14.658 -0.1648 -0.7581 -3.1464
 5095SOL    HW226745   0.272   1.778  14.592 -2.1542 -0.2439 -0.9769
 5096SOL     OW26746   3.071   1.288   0.696  0.5219 -0.5554  0.5160
 5096SOL    HW126747   3.124   1.285   0.616 -0.6034 -1.4453 -0.2018
 5096SOL    HW226748   3.001   1.347   0.669  0.3935  0.0213  2.1086
 5097SOL     OW26749   3.584   3.096   2.415 -0.5972  0.0901 -0.8752
 5097SOL    HW126750   3.598   3.155   2.341  1.1425  2.3532  1.2709
 5097SOL    HW226751   3.594   3.010   2.372 -1.1550 -0.4008 -0.0050
 5098SOL     OW26752   1.294   4.725   2.898  0.1332  0.1893  0.1614
 5098SOL    HW126753   1.269   4.660   2.833 -1.2948  1.1756 -0.2699
 5098SOL    HW226754   1.297   4.671   2.978 -0.5648 -1.8208 -1.1669
 5099SOL     OW26755   0.295   1.786   9.422 -0.1045 -0.0145  0.1652
 5099SOL    HW126756   0.362   1.784   9.355  0.8227 -1.1719  1.1443
 5099SOL    HW226757   0.252   1.701   9.414 -1.7245  0.6756  1.5623
 5100SOL     OW26758   2.583   3.449   4.503 -0.0508 -0.2129 -0.9060
 5100SOL    HW126759   2.592   3.536   4.464 -1.3911  0.6327  0.6587
 5100SOL    HW226760   2.672   3.435   4.535 -0.1328  0.7185 -0.2840
 5101SOL     OW26761   1.386   1.328   8.917 -0.1563  0.0780  0.5887
 5101SOL    HW126762   1.375   1.309   9.011  0.2644  2.3952  1.1162
 5101SOL    HW226763   1.367   1.422   8.909  1.7439  0.3907 -0.0343
 5102SOL     OW26764   1.480   2.539   3.188 -0.0886 -0.7641  0.5460
 5102SOL    HW126765   1.494   2.486   3.266  1.4279 -1.4018 -0.1518
 5102SOL    HW226766   1.487   2.473   3.119  0.4949 -1.0036  0.8360
 5103SOL     OW26767   1.201   2.871  16.836 -0.1435 -0.7981  0.2832
 5103SOL    HW126768   1.183   2.777  16.836 -1.2805 -0.5832  1.8107
 5103SOL    HW226769   1.113   2.909  16.831 -0.2679 -1.2407 -0.8499
 5104SOL     OW26770   2.492   4.185  10.221  0.4418  0.4171  0.4801
 5104SOL    HW126771   2.465   4.224  10.304  0.8233  0.3512  0.6329
 5104SOL    HW226772   2.482   4.095  10.250 -2.0670  0.9317  1.2539
 5105SOL     OW26773   4.133   2.028   5.865  0.1988 -0.2454 -0.8033
 5105SOL    HW126774   4.154   1.967   5.936  0.0819  0.2584 -0.3335
 5105SOL    HW226775   4.198   2.010   5.797  1.2886  0.4874  0.0279
 5106SOL     OW26776   3.268   1.629  17.405 -0.2774  0.2820  0.1862
 5106SOL    HW126777   3.269   1.534  17.413  2.4368  0.4044  1.1403
 5106SOL    HW226778   3.236   1.634  17.314  0.1744  1.4023  0.0897
 5107SOL     OW26779   1.758   4.542   6.432 -0.0071  0.1453 -0.0755
 5107SOL    HW126780   1.734   4.466   6.378  1.3116 -1.6825  1.9063
 5107SOL    HW226781   1.670   4.580   6.438  0.3273  1.2672 -2.3620
 5108SOL     OW26782   2.144   1.322   8.814  0.0856  0.3879  0.0209
 5108SOL    HW126783   2.156   1.239   8.767 -1.1837 -0.2087  0.7251
 5108SOL    HW226784   2.050   1.339   8.807  0.3618  1.1939 -1.8235
 5109SOL     OW26785   3.169   3.634   8.658 -0.2258 -0.4128 -0.1026
 5109SOL    HW126786   3.201   3.555   8.702 -1.9153 -0.8540  0.3317
 5109SOL    HW226787   3.085   3.600   8.628 -1.2989  1.0639  1.2701
 5110SOL     OW26788   1.180   4.300  17.222 -0.8272  0.0576 -0.3550
 5110SOL    HW126789   1.150   4.283  17.312  2.5281 -1.1192  0.5207
 5110SOL    HW226790   1.265   4.339  17.238 -1.0735 -0.0183  1.1424
 5111SOL     OW26791   0.972   2.946   8.297 -0.0834 -0.0040 -0.1228
 5111SOL    HW126792   0.966   3.042   8.294 -2.7624 -0.2110 -1.8038
 5111SOL    HW226793   0.880   2.933   8.272 -0.4696  1.3988  0.5592
 5112SOL     OW26794   3.942   1.741  11.900  0.0742 -0.2096 -0.0452
 5112SOL    HW126795   3.849   1.762  11.897  0.7791  3.1963  2.1879
 5112SOL    HW226796   3.978   1.828  11.918 -2.2763  0.7966 -0.2006
 5113SOL     OW26797   1.550   0.617  11.135 -0.2067 -0.2373  1.0599
 5113SOL    HW126798   1.578   0.585  11.049  0.0110 -0.0918  1.0753
 5113SOL    HW226799   1.476   0.558  11.150  1.3035 -2.1995  0.8629
 5114SOL     OW26800   2.849   3.718   5.004 -0.1500 -0.5833  0.0082
 5114SOL    HW126801   2.851   3.791   5.067  1.0507  1.4205 -2.3589
 5114SOL    HW226802   2.940   3.718   4.974  0.6080  1.1955  2.3030
 5115SOL     OW26803   0.445   1.062  12.813 -0.2976  0.7799  0.5869
 5115SOL    HW126804   0.402   1.141  12.843 -0.9980  0.9054 -0.7339
 5115SOL    HW226805   0.532   1.070  12.853  0.6644  0.1750 -1.3379
 5116SOL     OW26806   2.317   2.291  14.904  0.1370  0.2308  0.3746
 5116SOL    HW126807   2.319   2.383  14.878 -0.5512  1.0588  3.2578
 5116SOL    HW226808   2.322   2.253  14.816  0.3096  2.0356 -0.3984
 5117SOL     OW26809   4.563   4.498   7.906 -0.2689 -0.4961 -0.1608
 5117SOL    HW126810   4.578   4.452   7.988  3.6941 -0.4730 -0.8287
 5117SOL    HW226811   4.470   4.488   7.888 -0.5791 -0.6948  1.6261
 5118SOL     OW26812   0.510   2.510   9.200 -0.2745 -0.3243  0.3909
 5118SOL    HW126813   0.548   2.583   9.249  0.4788  0.2609 -1.0317
 5118SOL    HW226814   0.446   2.481   9.264  1.0731 -1.6690  1.1287
 5119SOL     OW26815   0.165   4.504  13.792  0.5661  0.5008  0.4007
 5119SOL    HW126816   0.259   4.525  13.798  0.9455 -0.5836 -1.8296
 5119SOL    HW226817   0.135   4.578  13.845  1.6471 -1.5865  3.9709
 5120SOL     OW26818   4.372   0.876  10.814 -0.3408 -0.5556 -0.1093
 5120SOL    HW126819   4.418   0.958  10.829  0.3624 -0.7503 -1.1739
 5120SOL    HW226820   4.328   0.855  10.896  0.3085  1.8182  0.8497
 5121SOL     OW26821   2.710   3.930   9.003  0.3898 -0.3383 -0.2763
 5121SOL    HW126822   2.769   3.927   8.927  0.8835  3.1236 -0.0206
 5121SOL    HW226823   2.758   3.892   9.077 -2.3540 -2.7969  0.2586
 5122SOL     OW26824   0.778   3.634   1.990 -0.2096  0.0350 -0.2486
 5122SOL    HW126825   0.779   3.729   1.989 -2.0009  0.0493 -0.5425
 5122SOL    HW226826   0.751   3.612   2.079  4.2381  0.0667  1.1051
 5123SOL     OW26827   4.210   3.418  15.089  0.1548  0.0298 -0.4805
 5123SOL    HW126828   4.237   3.367  15.166  2.0147  1.9016  0.1016
 5123SOL    HW226829   4.133   3.466  15.121  1.8349  1.4943  1.3333
 5124SOL     OW26830   2.976   4.611   8.306 -0.1467 -0.4949  0.1775
 5124SOL    HW126831   2.914   4.538   8.294 -1.2253  0.5478 -0.5106
 5124SOL    HW226832   2.934   4.694   8.286 -1.7006 -1.3619 -0.2204
 5125SOL     OW26833   1.192   1.714   6.420 -0.0406  0.5134 -0.5001
 5125SOL    HW126834   1.217   1.739   6.509 -0.9862  1.4716 -0.5037
 5125SOL    HW226835   1.109   1.761   6.418  0.4012  1.3943  1.7054
 5126SOL     OW26836   0.939   4.555   7.270 -0.5293  0.3055 -0.1242
 5126SOL    HW126837   0.845   4.542   7.259 -0.2854 -0.8348 -0.8897
 5126SOL    HW226838   0.958   4.596   7.186 -0.5173  1.3877  0.4071
 5127SOL     OW26839   4.105   0.505   5.649  0.2662  0.5143 -0.1181
 5127SOL    HW126840   4.117   0.425   5.700  1.1215 -0.7539 -2.3409
 5127SOL    HW226841   4.084   0.572   5.714  2.5603  0.5066  0.6241
 5128SOL     OW26842   3.543   3.441  13.546  0.2209 -0.0828  0.5965
 5128SOL    HW126843   3.571   3.530  13.567 -0.0098  0.3914 -1.1072
 5128SOL    HW226844   3.462   3.457  13.496  0.2837 -3.0351 -0.4135
 5129SOL     OW26845   1.189   2.131   3.688  0.0052  0.2357 -0.4343
 5129SOL    HW126846   1.179   2.225   3.703 -0.9777  0.7025 -3.9878
 5129SOL    HW226847   1.258   2.147   3.623  0.3139 -1.9532 -0.6203
 5130SOL     OW26848   1.250   1.471  16.367 -0.0718 -0.1022 -0.3464
 5130SOL    HW126849   1.248   1.476  16.462 -1.9021  2.3557 -0.5111
 5130SOL    HW226850   1.161   1.436  16.357 -0.8023  1.7755 -0.3601
 5131SOL     OW26851   2.080   4.311  16.100  0.2924 -0.3344 -0.2165
 5131SOL    HW126852   2.076   4.226  16.143 -1.7105  0.8901  1.9935
 5131SOL    HW226853   1.998   4.353  16.125 -0.0445 -1.2296  0.2069
 5132SOL     OW26854   2.849   1.448   7.522 -0.1507 -0.1581  0.1399
 5132SOL    HW126855   2.825   1.477   7.610 -0.2040 -3.6432  1.2749
 5132SOL    HW226856   2.774   1.488   7.477 -0.4843 -1.3138 -0.3259
 5133SOL     OW26857   1.561   2.515   2.301  0.3383  0.5455 -0.1480
 5133SOL    HW126858   1.513   2.583   2.254  1.4293  0.9678 -0.6388
 5133SOL    HW226859   1.592   2.472   2.222  0.9823  0.9713 -0.1287
 5134SOL     OW26860   1.303   4.075   6.735 -0.7442 -0.4636 -0.9423
 5134SOL    HW126861   1.217   4.093   6.697 -0.3739  2.2813 -0.4730
 5134SOL    HW226862   1.368   4.094   6.667 -0.0261  0.2083 -0.0676
 5135SOL     OW26863   1.901   0.293   0.996  0.2484 -0.3972  0.1842
 5135SOL    HW126864   1.956   0.308   1.073 -0.6117  0.2115  0.6835
 5135SOL    HW226865   1.850   0.222   1.033 -1.4856  0.2907 -0.8564
 5136SOL     OW26866   1.210   0.377   6.771 -0.4591 -0.3847 -0.2891
 5136SOL    HW126867   1.239   0.345   6.686  1.1750  1.1465 -0.3305
 5136SOL    HW226868   1.271   0.448   6.793  0.3009 -0.8228 -1.0011
 5137SOL     OW26869   0.185   1.232   1.695 -0.0164  0.5727  0.3430
 5137SOL    HW126870   0.223   1.145   1.695  1.6560  1.3081  1.3776
 5137SOL    HW226871   0.220   1.263   1.612  0.6395 -0.0780  0.3776
 5138SOL     OW26872   2.692   4.211   2.062 -1.0230  0.4884 -0.1961
 5138SOL    HW126873   2.617   4.184   2.009 -1.4951  0.6004  0.4193
 5138SOL    HW226874   2.764   4.200   1.999 -0.1196  1.0034  0.7544
 5139SOL     OW26875   2.906   4.156  17.532  0.7460 -0.1134 -0.2650
 5139SOL    HW126876   2.932   4.241  17.496 -0.9445 -0.0973 -1.4598
 5139SOL    HW226877   2.817   4.146  17.563  1.0939 -0.3119  0.6578
 5140SOL     OW26878   0.643   0.042   6.387 -0.1358 -0.4421 -0.3830
 5140SOL    HW126879   0.681   0.039   6.475  1.6473  0.5430 -1.1081
 5140SOL    HW226880   0.698   0.113   6.352  0.5942 -0.5285  0.5919
 5141SOL     OW26881   2.475   2.598   5.653  0.1480  0.8583 -0.3005
 5141SOL    HW126882   2.523   2.680   5.665  2.5465 -0.6554  0.5906
 5141SOL    HW226883   2.504   2.583   5.563  0.4755  0.5703 -0.1455
 5142SOL     OW26884   0.656   3.783   8.732  0.2595  0.6886 -0.3099
 5142SOL    HW126885   0.685   3.810   8.645  0.3769 -0.9819 -0.8033
 5142SOL    HW226886   0.610   3.703   8.704  1.7747 -0.1961 -0.2712
 5143SOL     OW26887   1.715   0.258   7.137  0.2508  0.0041  0.7932
 5143SOL    HW126888   1.763   0.249   7.219  1.4211  0.0600  0.1158
 5143SOL    HW226889   1.706   0.163   7.123 -1.9180  0.5273 -1.3226
 5144SOL     OW26890   3.152   4.580   9.056  0.4206  0.2697  0.1987
 5144SOL    HW126891   3.101   4.573   8.975 -0.1260  2.5874  0.3223
 5144SOL    HW226892   3.112   4.510   9.108 -0.6547  0.0635 -0.8921
 5145SOL     OW26893   0.806   0.595  10.855  0.3951 -0.1207  0.4214
 5145SOL    HW126894   0.751   0.620  10.781  1.0143  3.4188  1.1387
 5145SOL    HW226895   0.892   0.609  10.816  0.6885 -1.3212  0.6417
 5146SOL     OW26896   0.601   4.657   7.457  0.8051 -0.7709  0.3266
 5146SOL    HW126897   0.681   4.646   7.407 -0.1827 -1.9354 -0.9856
 5146SOL    HW226898   0.634   4.617   7.538  0.6712 -1.9704 -0.2192
 5147SOL     OW26899   1.056   1.514   6.248 -0.3786  0.6297  0.1572
 5147SOL    HW126900   1.042   1.451   6.319  1.5989 -1.2637 -1.1351
 5147SOL    HW226901   1.136   1.563   6.269 -0.0997  1.0915 -1.9540
 5148SOL     OW26902   0.109   2.202   4.818 -0.1382 -0.2262 -0.1483
 5148SOL    HW126903   0.168   2.277   4.832  0.8323 -0.3493 -3.3658
 5148SOL    HW226904   0.025   2.248   4.823 -0.1308 -0.1972 -0.2828
 5149SOL     OW26905   1.235   1.614   2.513 -0.5926 -0.3309  0.0792
 5149SOL    HW126906   1.210   1.692   2.463  1.1336 -0.4153 -0.9276
 5149SOL    HW226907   1.276   1.566   2.441  0.9619 -0.1026  0.8104
 5150SOL     OW26908   4.430   0.003  10.142 -0.0272 -0.4365  0.9453
 5150SOL    HW126909   4.462   4.660  10.084  0.0483 -0.1269  0.6113
 5150SOL    HW226910   4.380   4.678  10.205  1.9299 -1.5995  1.5241
 5151SOL     OW26911   3.515   3.728   3.034  0.0045 -0.0625  0.2700
 5151SOL    HW126912   3.426   3.742   3.003  1.0901 -1.3427 -3.5182
 5151SOL    HW226913   3.523   3.638   3.002 -0.0804 -0.9808  2.8114
 5152SOL     OW26914   3.907   1.607   2.978 -0.0034  0.1884  0.0326
 5152SOL    HW126915   3.856   1.685   3.003  1.7195  1.0497  0.8400
 5152SOL    HW226916   3.855   1.546   2.925  0.7474 -0.2232 -0.2286
 5153SOL     OW26917   4.538   2.352   4.386 -0.0943  0.1713 -0.5080
 5153SOL    HW126918   4.559   2.438   4.349 -0.8775  0.1087 -1.0977
 5153SOL    HW226919   4.533   2.377   4.479 -0.7272 -1.2173 -0.1619
 5154SOL     OW26920   4.183   1.414   8.578  0.0296 -0.1566 -0.6038
 5154SOL    HW126921   4.188   1.388   8.486 -0.3127 -0.0994 -0.6411
 5154SOL    HW226922   4.129   1.341   8.610 -0.4696  0.8714  0.9120
 5155SOL     OW26923   0.926   4.588   2.898  0.0254  0.3688 -0.4343
 5155SOL    HW126924   0.935   4.654   2.966 -0.8936  2.2069 -2.0892
 5155SOL    HW226925   0.832   4.572   2.901 -0.2202  2.3670  2.4197
 5156SOL     OW26926   3.491   4.672   4.622 -0.5684  0.0678  0.2884
 5156SOL    HW126927   3.527   4.602   4.677  0.4191 -0.7388 -1.4077
 5156SOL    HW226928   3.421   4.703   4.679  0.8186  0.3063  1.8766
 5157SOL     OW26929   2.036   3.096  17.242 -0.4653 -0.4853 -0.1199
 5157SOL    HW126930   2.107   3.128  17.186  0.7767 -0.6608  1.3399
 5157SOL    HW226931   1.968   3.106  17.176  0.6751 -1.1548 -1.3858
 5158SOL     OW26932   0.918   4.440   4.000 -0.2375  0.2462 -0.1896
 5158SOL    HW126933   0.975   4.415   3.927  0.8341 -0.9665  1.0637
 5158SOL    HW226934   0.961   4.386   4.066  0.0910  2.0531  1.0995
 5159SOL     OW26935   1.393   1.163   0.423  0.2313 -0.4905 -0.3886
 5159SOL    HW126936   1.306   1.202   0.411  0.1493 -0.1590  1.2747
 5159SOL    HW226937   1.399   1.086   0.367 -1.6235 -1.2938  0.5372
 5160SOL     OW26938   4.703   4.196  11.395  0.0482  0.2576  0.2195
 5160SOL    HW126939   4.702   4.280  11.348  0.7842  1.5131  2.4187
 5160SOL    HW226940   0.061   4.160  11.367 -0.6267 -2.2395  1.4270
 5161SOL     OW26941   1.326   4.670   8.074  0.2238 -0.3086  0.3576
 5161SOL    HW126942   1.409   4.669   8.122  1.3147 -0.0621 -1.4978
 5161SOL    HW226943   1.356   4.706   7.990  1.0575 -0.2195  0.6941
 5162SOL     OW26944   0.591   3.526   5.315 -0.6509  0.3562  0.5421
 5162SOL    HW126945   0.511   3.525   5.367 -3.6969  1.2918 -4.1008
 5162SOL    HW226946   0.604   3.431   5.316  0.0041  0.4502  0.6744
 5163SOL     OW26947   1.823   2.197   8.679 -0.0075  0.1066 -0.1070
 5163SOL    HW126948   1.739   2.215   8.721  0.7536  0.0367  1.4396
 5163SOL    HW226949   1.830   2.102   8.680 -2.2623 -0.0054  3.1606
 5164SOL     OW26950   3.418   0.532  15.387  0.0579  0.0743  1.0054
 5164SOL    HW126951   3.497   0.484  15.414  0.6840  0.7033  0.2845
 5164SOL    HW226952   3.457   0.596  15.328 -1.4126  0.9794  1.0223
 5165SOL     OW26953   3.254   1.484   0.217 -0.2303  0.3660 -0.0386
 5165SOL    HW126954   3.314   1.494   0.142  2.0694 -1.9662  1.5019
 5165SOL    HW226955   3.276   1.561   0.268  3.2378 -0.9751  0.4940
 5166SOL     OW26956   1.975   3.888  11.405  0.0564  0.6557 -0.4381
 5166SOL    HW126957   1.884   3.880  11.375  0.6704 -0.6264 -1.9573
 5166SOL    HW226958   2.011   3.924  11.324  1.7619 -0.2914 -0.0972
 5167SOL     OW26959   4.411   3.906   4.975  0.5086  0.0073  0.0005
 5167SOL    HW126960   4.469   3.979   4.955  0.9122 -0.5667 -0.9014
 5167SOL    HW226961   4.336   3.965   4.987  2.6182  2.5976  0.5106
 5168SOL     OW26962   1.970   1.743  12.689 -0.4869 -0.2950  0.0190
 5168SOL    HW126963   1.891   1.690  12.675 -0.7690 -0.1239  0.9850
 5168SOL    HW226964   1.995   1.753  12.597 -1.2956 -1.3809 -0.3185
 5169SOL     OW26965   0.630   1.784   1.580  0.2264 -0.2170 -0.6005
 5169SOL    HW126966   0.581   1.833   1.513 -0.8618  0.5499  0.7578
 5169SOL    HW226967   0.640   1.841   1.656 -0.2829 -0.6127 -0.2394
 5170SOL     OW26968   1.968   0.372   4.658 -0.6490  0.0173 -0.6253
 5170SOL    HW126969   2.025   0.296   4.672  0.5809  0.9866 -0.2697
 5170SOL    HW226970   2.006   0.399   4.574  0.1215 -0.2485 -0.3680
 5171SOL     OW26971   0.985   2.845   0.285  0.0824 -0.1624 -0.2082
 5171SOL    HW126972   0.988   2.820   0.377  3.0650 -3.2690 -1.1477
 5171SOL    HW226973   1.020   2.935   0.286 -0.7011  0.1421 -0.5460
 5172SOL     OW26974   3.630   1.254   1.716  0.7169  0.3686 -0.5235
 5172SOL    HW126975   3.594   1.255   1.627 -1.0882 -1.2404  0.1924
 5172SOL    HW226976   3.542   1.262   1.752  1.4530 -1.6619  1.7406
 5173SOL     OW26977   1.486   0.333   7.023  0.5710 -0.5442  0.5261
 5173SOL    HW126978   1.541   0.320   6.945  1.2404  0.3120  0.8470
 5173SOL    HW226979   1.542   0.322   7.100  1.2589 -2.0986 -0.1960
 5174SOL     OW26980   1.871   0.033   6.559 -0.2289  0.2356  0.3448
 5174SOL    HW126981   1.830   4.682   6.521 -1.2966  1.0980 -0.2916
 5174SOL    HW226982   1.950   4.725   6.600 -0.4653 -0.1389  0.4846
 5175SOL     OW26983   2.150   1.085   2.881  0.6592 -0.1112 -0.7060
 5175SOL    HW126984   2.090   1.153   2.912  2.2377  2.0181 -2.3542
 5175SOL    HW226985   2.203   1.081   2.961  1.1539 -1.8169 -1.1265
 5176SOL     OW26986   0.911   4.198   5.440 -0.4832 -0.1998 -0.4483
 5176SOL    HW126987   0.909   4.107   5.410 -0.6266  0.1631 -1.5212
 5176SOL    HW226988   0.857   4.185   5.518 -1.4588 -0.9288 -1.2442
 5177SOL     OW26989   3.580   4.360   6.101  0.1863  0.0399 -0.0742
 5177SOL    HW126990   3.563   4.396   6.014 -0.5256 -0.0797  0.0128
 5177SOL    HW226991   3.497   4.375   6.146  0.9269  0.2272  1.2228
 5178SOL     OW26992   3.290   0.294   7.330 -0.0047  0.4329 -0.3911
 5178SOL    HW126993   3.261   0.217   7.378 -2.1893  2.2260  1.1805
 5178SOL    HW226994   3.240   0.280   7.250  1.3113 -0.2141 -1.1103
 5179SOL     OW26995   4.558   1.739   6.935  0.0876 -0.6563 -0.0106
 5179SOL    HW126996   4.576   1.812   6.874 -0.6878  0.3693  0.9892
 5179SOL    HW226997   4.563   1.675   6.864  0.4446 -0.1349 -0.4619
 5180SOL     OW26998   0.527   0.069   8.802 -0.1450 -0.8777  0.7895
 5180SOL    HW126999   0.469   0.077   8.726 -3.4079  1.2100  3.5254
 5180SOL    HW227000   0.594   0.128   8.769 -0.0049 -0.4910  1.7753
 5181SOL     OW27001   1.656   1.283   9.115 -0.7977 -0.2776  0.1122
 5181SOL    HW127002   1.629   1.374   9.124  1.0406  0.2037  0.8151
 5181SOL    HW227003   1.738   1.293   9.162  0.0554  1.0429 -1.6290
 5182SOL     OW27004   3.328   3.560   2.402 -0.2045 -0.1089  0.6107
 5182SOL    HW127005   3.303   3.558   2.310 -0.2649  0.7877  0.6093
 5182SOL    HW227006   3.301   3.650   2.422  0.8112  0.6111 -1.3516
 5183SOL     OW27007   0.551   2.514   6.114 -0.0081  0.2681 -0.0554
 5183SOL    HW127008   0.486   2.443   6.111  2.1488 -1.7504  1.4975
 5183SOL    HW227009   0.605   2.483   6.041  0.4194 -2.7015  1.5480
 5184SOL     OW27010   1.133   1.533   8.609  0.3453  0.2391  0.4854
 5184SOL    HW127011   1.095   1.461   8.560  0.1274  0.5668  0.1739
 5184SOL    HW227012   1.082   1.608   8.578  0.9057 -0.6273 -2.4855
 5185SOL     OW27013   3.778   4.329   7.484 -0.1270  0.1292  0.1184
 5185SOL    HW127014   3.768   4.253   7.427  2.8445  0.3066 -0.6242
 5185SOL    HW227015   3.738   4.297   7.565 -0.4534  0.7445  0.2004
 5186SOL     OW27016   4.144   3.102   3.951 -0.0635  0.2155 -0.1173
 5186SOL    HW127017   4.145   3.181   4.005 -0.6165 -0.2645  0.5828
 5186SOL    HW227018   4.238   3.086   3.966  0.3980  0.9103 -2.2220
 5187SOL     OW27019   4.277   1.263  16.038  0.3107  0.3468 -0.3033
 5187SOL    HW127020   4.321   1.337  15.997  1.3727  0.4477  1.0067
 5187SOL    HW227021   4.193   1.301  16.062 -0.1127 -0.3406 -0.7119
 5188SOL     OW27022   1.388   0.051   4.979 -0.4374 -0.5218  0.0875
 5188SOL    HW127023   1.302   0.067   5.020 -0.7070  1.3100 -1.1931
 5188SOL    HW227024   1.409   0.141   4.955  2.7978 -1.7961 -1.8149
 5189SOL     OW27025   2.729   3.559   6.503  0.1467 -0.0677 -0.2275
 5189SOL    HW127026   2.714   3.638   6.452  0.0804  1.1632  1.6984
 5189SOL    HW227027   2.638   3.532   6.513  1.0951 -3.4566 -0.6112
 5190SOL     OW27028   1.459   1.441   0.561 -0.0881  0.3564 -0.0830
 5190SOL    HW127029   1.428   1.352   0.547  1.0174 -0.2346  1.2066
 5190SOL    HW227030   1.382   1.491   0.534  0.5903  1.2809 -0.2840
 5191SOL     OW27031   2.104   1.175   3.651  0.4139 -0.2706  0.1845
 5191SOL    HW127032   2.162   1.148   3.722  1.3867  1.6944  0.1167
 5191SOL    HW227033   2.024   1.208   3.693 -0.6589  0.1566 -2.1692
 5192SOL     OW27034   0.731   3.510  11.498  0.1868 -0.1906 -0.3804
 5192SOL    HW127035   0.642   3.476  11.486  0.0593  0.2345 -0.6262
 5192SOL    HW227036   0.777   3.433  11.532  2.9502  0.0969 -3.4577
 5193SOL     OW27037   1.329   0.528   4.443  0.4766 -0.2951  0.4702
 5193SOL    HW127038   1.395   0.597   4.439 -0.0551  0.2829  1.7343
 5193SOL    HW227039   1.266   0.571   4.501 -0.0190  0.2581 -0.4755
 5194SOL     OW27040   0.358   4.343   4.547 -0.2782 -0.2440 -0.2548
 5194SOL    HW127041   0.296   4.301   4.488  1.0590 -0.3674 -1.5917
 5194SOL    HW227042   0.369   4.428   4.504  1.0033 -0.0976  0.3539
 5195SOL     OW27043   0.348   1.421   8.061  0.0512 -0.0786 -0.3145
 5195SOL    HW127044   0.306   1.420   8.147 -0.5527 -1.3200 -0.6219
 5195SOL    HW227045   0.283   1.467   8.007  0.3960 -0.2133 -0.8385
 5196SOL     OW27046   4.262   3.673   0.335  0.2134  0.4409  0.2209
 5196SOL    HW127047   4.351   3.708   0.338  0.4822 -0.0065 -2.2049
 5196SOL    HW227048   4.276   3.596   0.391 -0.8236  0.7176  0.8593
 5197SOL     OW27049   1.722   4.438   8.276  0.0085  0.3688 -0.2702
 5197SOL    HW127050   1.660   4.469   8.342 -3.2652 -0.2548 -3.0353
 5197SOL    HW227051   1.674   4.362   8.243  0.0711  0.0814  0.3001
 5198SOL     OW27052   4.385   4.327  12.026 -0.0800 -0.2399 -0.0251
 5198SOL    HW127053   4.421   4.284  11.948 -1.4565 -1.0148 -0.2350
 5198SOL    HW227054   4.399   4.413  11.986 -0.6236  0.7972  1.9916
 5199SOL     OW27055   0.910   3.838  11.958  0.0568 -0.6838  0.0124
 5199SOL    HW127056   0.991   3.885  11.934 -1.7684  2.6519  0.4427
 5199SOL    HW227057   0.947   3.774  12.019  0.7379 -0.9723 -0.6972
 5200SOL     OW27058   0.140   3.160  13.421 -0.0366 -0.0865 -0.4433
 5200SOL    HW127059   0.142   3.234  13.481  0.2851  0.2602 -0.8744
 5200SOL    HW227060   0.095   3.095  13.474 -0.8963  2.0434  1.4685
 5201SOL     OW27061   2.211   1.973   7.461 -0.0842  0.1574  0.6921
 5201SOL    HW127062   2.223   2.041   7.394  0.5405  0.3754  1.0373
 5201SOL    HW227063   2.153   1.916   7.409 -0.3113  1.4320 -0.4673
 5202SOL     OW27064   3.448   2.001   3.755 -0.5261  0.0348 -0.1375
 5202SOL    HW127065   3.371   2.016   3.701 -0.6937  0.5563  0.2536
 5202SOL    HW227066   3.515   1.967   3.694  0.0482  0.1161  0.4547
 5203SOL     OW27067   3.346   3.539   7.044  0.4560  0.4337 -0.3786
 5203SOL    HW127068   3.297   3.610   7.001  0.0756 -0.2003 -1.0037
 5203SOL    HW227069   3.431   3.581   7.058  1.5849 -1.3820 -1.7073
 5204SOL     OW27070   3.785   0.363   8.213  0.2220  0.5607  0.1768
 5204SOL    HW127071   3.747   0.433   8.266 -0.3915  1.0145 -0.8629
 5204SOL    HW227072   3.817   0.309   8.285 -0.2226  1.1309  0.8095
 5205SOL     OW27073   2.297   3.425   6.044 -0.4506 -0.5117  0.5650
 5205SOL    HW127074   2.390   3.410   6.059 -0.1969  0.0521 -0.4293
 5205SOL    HW227075   2.263   3.364   6.110 -1.7898  0.2504  0.5784
 5206SOL     OW27076   2.273   1.355   3.795  0.2404 -0.0154 -0.2593
 5206SOL    HW127077   2.243   1.377   3.883  0.7061 -1.0892  0.1673
 5206SOL    HW227078   2.219   1.421   3.750  2.2333  1.4491 -0.5106
 5207SOL     OW27079   4.649   1.770   6.209  0.5276 -0.2651 -0.3706
 5207SOL    HW127080   4.589   1.811   6.272 -1.5236 -2.6833 -0.7266
 5207SOL    HW227081   4.607   1.691   6.174 -3.2208  1.8916 -0.7122
 5208SOL     OW27082   2.468   3.753   5.698  0.0462 -0.5234 -0.5436
 5208SOL    HW127083   2.485   3.683   5.761  0.7237 -1.4780 -1.7767
 5208SOL    HW227084   2.538   3.741   5.634  0.9363 -1.5965  0.6315
 5209SOL     OW27085   3.838   0.154   6.814 -0.2580 -0.2677 -0.1224
 5209SOL    HW127086   3.871   0.079   6.863  0.3407  0.5818  0.7690
 5209SOL    HW227087   3.764   0.114   6.768 -1.3319  0.3765  1.0303
 5210SOL     OW27088   1.159   0.460   8.193 -0.9430  0.1721  0.5078
 5210SOL    HW127089   1.211   0.501   8.262 -1.4901  2.3843 -0.4053
 5210SOL    HW227090   1.073   0.499   8.207 -1.2231 -0.4892  0.6121
 5211SOL     OW27091   3.599   0.734  10.336  0.0955  0.6128 -0.9679
 5211SOL    HW127092   3.531   0.727  10.403  0.3548 -2.3373 -0.9992
 5211SOL    HW227093   3.644   0.814  10.363  0.3552 -0.1183  0.7862
 5212SOL     OW27094   2.284   2.646   9.111 -0.6008  0.1592  0.0452
 5212SOL    HW127095   2.267   2.699   9.034 -0.3838 -1.9986 -1.5022
 5212SOL    HW227096   2.216   2.578   9.105 -1.0721  0.4307  2.1048
 5213SOL     OW27097   4.570   2.101   8.181 -0.6122 -0.3079  0.7762
 5213SOL    HW127098   4.547   2.061   8.097  0.9636  0.1442  0.1369
 5213SOL    HW227099   4.658   2.133   8.162 -0.4535 -1.3749 -0.2722
 5214SOL     OW27100   1.212   1.504   5.486 -0.0810  0.3311 -0.3185
 5214SOL    HW127101   1.247   1.561   5.554 -1.2093  1.8481 -1.0093
 5214SOL    HW227102   1.169   1.570   5.432 -3.2423 -1.2456  0.2855
 5215SOL     OW27103   0.490   0.264   4.089 -0.2960  0.2557 -0.6518
 5215SOL    HW127104   0.505   0.279   4.183  1.0411  0.4755 -0.9111
 5215SOL    HW227105   0.547   0.192   4.064 -2.0894 -2.3064  2.6032
 5216SOL     OW27106   4.326   1.896   1.691 -0.7725  0.2754  0.0943
 5216SOL    HW127107   4.243   1.849   1.682 -0.4396 -0.2246 -0.3187
 5216SOL    HW227108   4.312   1.962   1.624  3.0858  1.4466  0.4757
 5217SOL     OW27109   0.371   4.273   6.117  0.2437 -0.1707 -0.1510
 5217SOL    HW127110   0.304   4.258   6.050 -1.9591 -0.8651  2.1918
 5217SOL    HW227111   0.314   4.271   6.194  1.5734  0.5139  0.8449
 5218SOL     OW27112   0.796   0.631   3.204  0.0157 -0.2679 -0.0189
 5218SOL    HW127113   0.718   0.576   3.190 -0.1429 -0.1762  0.4923
 5218SOL    HW227114   0.763   0.688   3.273  0.2705 -1.9038  1.4599
 5219SOL     OW27115   2.129   2.928   2.608  0.7519 -0.0867  0.1105
 5219SOL    HW127116   2.106   2.876   2.685  0.2933 -1.3901 -0.9027
 5219SOL    HW227117   2.172   2.860   2.555  0.2661  0.4192 -0.9405
 5220SOL     OW27118   1.904   4.554   0.967 -0.2915 -0.1398 -0.7075
 5220SOL    HW127119   1.849   4.552   0.889  0.5188  0.8830 -1.2980
 5220SOL    HW227120   1.903   4.646   0.991 -1.0885 -0.3182 -0.0622
 5221SOL     OW27121   0.920   2.362   4.008  0.3988 -0.2335  0.2866
 5221SOL    HW127122   0.975   2.339   3.933 -0.1417 -0.9999  0.1230
 5221SOL    HW227123   0.983   2.347   4.078 -1.4139  1.5620  2.3072
 5222SOL     OW27124   0.220   4.598  17.565 -0.2624  0.2884  0.4852
 5222SOL    HW127125   0.259   4.626  17.482 -1.1943 -2.1346 -0.7889
 5222SOL    HW227126   0.182   4.513  17.541  0.2559 -0.4636  2.2961
 5223SOL     OW27127   3.904   1.635  17.705 -0.1157 -0.0766 -0.3574
 5223SOL    HW127128   3.868   1.547  17.695  0.2578 -0.2145 -0.5163
 5223SOL    HW227129   3.876   1.676  17.623  1.2299  0.1732 -0.6938
 5224SOL     OW27130   0.021   0.949   2.813 -0.0881 -0.1381  0.1813
 5224SOL    HW127131   4.679   0.883   2.817 -1.9551  1.9568  3.2647
 5224SOL    HW227132   4.713   1.016   2.872 -0.9093 -0.0416 -0.4291
 5225SOL     OW27133   4.566   2.558   8.187 -0.0694 -0.2252  0.1964
 5225SOL    HW127134   4.500   2.490   8.175 -0.8246  1.0883 -3.0735
 5225SOL    HW227135   4.537   2.596   8.270 -2.5067  1.2013 -1.3331
 5226SOL     OW27136   2.809   3.880   4.640  0.5299  0.0097  0.2624
 5226SOL    HW127137   2.813   3.791   4.604 -1.7952  0.1295 -0.2839
 5226SOL    HW227138   2.865   3.931   4.582 -2.5047  0.4053 -2.2725
 5227SOL     OW27139   4.519   1.174  14.259 -0.1549 -0.2422  0.0777
 5227SOL    HW127140   4.596   1.220  14.227 -1.9105  2.7652  0.1670
 5227SOL    HW227141   4.529   1.080  14.246 -0.9308 -0.2395 -0.4931
 5228SOL     OW27142   2.967   4.164  10.347  0.1472 -0.1708 -0.9358
 5228SOL    HW127143   2.941   4.072  10.350 -1.4488  0.3169 -0.0327
 5228SOL    HW227144   2.896   4.206  10.300 -0.4017  1.0465  0.9760
 5229SOL     OW27145   1.874   4.290  11.507  0.0637  0.1601 -0.4058
 5229SOL    HW127146   1.945   4.261  11.449  0.3287 -0.0271  0.0150
 5229SOL    HW227147   1.809   4.221  11.492  0.2516 -0.4211  1.4992
 5230SOL     OW27148   4.701   1.941  15.393  0.3085 -0.1108  0.2932
 5230SOL    HW127149   0.067   1.936  15.373  0.6718  0.9283  1.7075
 5230SOL    HW227150   4.716   1.917  15.485 -0.1710 -1.8287 -0.0680
 5231SOL     OW27151   1.858   0.679  11.752 -0.4167  0.1629  0.8102
 5231SOL    HW127152   1.928   0.744  11.748  0.7103 -0.9570  2.0329
 5231SOL    HW227153   1.803   0.709  11.680  1.4916  0.7879 -0.3764
 5232SOL     OW27154   3.039   3.686   4.494 -0.1488  0.2570 -0.0175
 5232SOL    HW127155   3.077   3.772   4.508  1.7369 -0.7013  0.7528
 5232SOL    HW227156   3.091   3.651   4.422 -0.1213 -0.4332  0.3362
 5233SOL     OW27157   2.017   3.303   0.436 -0.1049 -0.0841 -0.2376
 5233SOL    HW127158   2.065   3.379   0.470 -0.7448  0.2618 -0.1118
 5233SOL    HW227159   2.067   3.260   0.367 -1.2391  0.2470 -1.2542
 5234SOL     OW27160   0.872   4.151  12.815 -0.4561  0.0732  0.8740
 5234SOL    HW127161   0.949   4.115  12.770  0.0145 -0.6709  2.2680
 5234SOL    HW227162   0.861   4.222  12.753 -1.9627 -0.6728  0.2912
 5235SOL     OW27163   0.615   0.217   3.581  0.4372 -0.4638  0.0024
 5235SOL    HW127164   0.701   0.241   3.617 -0.6968 -1.0645  3.0818
 5235SOL    HW227165   0.643   0.194   3.492  0.2001  0.4265 -0.3054
 5236SOL     OW27166   3.704   4.565   7.439  0.1967 -0.1182 -0.0876
 5236SOL    HW127167   3.724   4.477   7.472  0.7318 -0.4432 -1.2923
 5236SOL    HW227168   3.647   4.599   7.509  0.5709  3.0957 -1.3551
 5237SOL     OW27169   2.287   2.546   4.344  0.4469  0.0871  0.5081
 5237SOL    HW127170   2.238   2.566   4.264 -0.1641  1.4814  1.2315
 5237SOL    HW227171   2.366   2.504   4.312  0.4061 -1.2525  2.1780
 5238SOL     OW27172   4.463   0.220   4.203 -0.1735  0.1932 -0.4041
 5238SOL    HW127173   4.464   0.290   4.137  1.3636  0.2943 -0.2565
 5238SOL    HW227174   4.370   0.218   4.228  0.5028 -0.7666  2.0276
 5239SOL     OW27175   3.523   1.852  15.781 -0.1737 -0.5020 -0.1248
 5239SOL    HW127176   3.573   1.799  15.844  0.4795  1.0041  0.6229
 5239SOL    HW227177   3.473   1.787  15.733 -0.7449  0.2219 -0.5003
 5240SOL     OW27178   4.299   4.428   7.261  0.6314 -0.1664  0.5403
 5240SOL    HW127179   4.239   4.370   7.215 -0.0806  1.7219 -0.9418
 5240SOL    HW227180   4.243   4.459   7.333  0.7538  3.2327 -0.8132
 5241SOL     OW27181   1.652   0.395   2.016 -0.4576  0.3897  0.4666
 5241SOL    HW127182   1.720   0.440   1.966 -2.9148  1.9072 -1.5055
 5241SOL    HW227183   1.582   0.460   2.027 -0.7689  0.1417 -0.0720
 5242SOL     OW27184   1.334   0.022   8.841  0.0474 -1.1352 -0.1354
 5242SOL    HW127185   1.363   0.030   8.932 -0.8917  1.2993 -0.0455
 5242SOL    HW227186   1.423   0.016   8.806  0.8814  1.2197  1.5294
 5243SOL     OW27187   0.782   1.661   8.310 -0.0150  0.2301 -0.0682
 5243SOL    HW127188   0.849   1.626   8.251 -1.4808 -2.5702 -0.0981
 5243SOL    HW227189   0.712   1.598   8.292  0.4696 -0.6424  1.1102
 5244SOL     OW27190   1.957   4.553   9.732  0.1389 -0.0583  0.0874
 5244SOL    HW127191   2.018   4.542   9.805 -1.6078  1.9100  1.8406
 5244SOL    HW227192   1.958   4.465   9.694 -0.9297  0.7049 -1.6805
 5245SOL     OW27193   4.397   3.839   5.284  0.3449  0.2442  0.3445
 5245SOL    HW127194   4.466   3.772   5.283  0.4338  0.3740 -1.1789
 5245SOL    HW227195   4.335   3.803   5.221 -0.7827  1.7070  0.6368
 5246SOL     OW27196   3.910   1.403  16.358  0.2570 -0.3352  0.5047
 5246SOL    HW127197   3.960   1.334  16.314  0.4796 -0.8016  1.4976
 5246SOL    HW227198   3.820   1.374  16.344  0.5357 -1.3349  0.8153
 5247SOL     OW27199   3.006   1.642   5.643  0.0569 -0.1751 -0.5483
 5247SOL    HW127200   2.942   1.626   5.573 -0.8070  1.1785 -0.0626
 5247SOL    HW227201   2.970   1.713   5.696  0.1489 -0.4666 -0.0963
 5248SOL     OW27202   1.411   1.435   4.460  0.0775 -1.2012  0.0570
 5248SOL    HW127203   1.435   1.354   4.505  1.2034 -1.2662 -0.6498
 5248SOL    HW227204   1.433   1.421   4.368  1.4575 -2.1094  0.5180
 5249SOL     OW27205   1.577   3.886   8.506  0.6931  0.6776 -0.1524
 5249SOL    HW127206   1.583   3.921   8.417  0.2403  1.2658  0.0452
 5249SOL    HW227207   1.582   3.968   8.557 -0.1866 -0.4402  1.7360
 5250SOL     OW27208   1.259   0.024   7.635 -0.2352  0.7567  0.6752
 5250SOL    HW127209   1.182   4.697   7.618 -0.3769  0.9606  0.6718
 5250SOL    HW227210   1.279   0.054   7.547  1.2625 -1.3056  0.3125
 5251SOL     OW27211   1.065   1.029   3.298  0.1173  0.0707 -0.3664
 5251SOL    HW127212   1.135   0.970   3.326 -1.6109 -1.6356  0.2920
 5251SOL    HW227213   1.106   1.111   3.268 -1.5476  1.7200  1.8568
 5252SOL     OW27214   3.157   0.250   2.255  0.6243 -0.0664 -0.4550
 5252SOL    HW127215   3.148   0.187   2.184  0.0998  0.6103 -0.9772
 5252SOL    HW227216   3.248   0.278   2.244  0.9497 -1.5356 -1.5629
 5253SOL     OW27217   0.776   2.605   0.401 -0.2174  0.2971 -0.4976
 5253SOL    HW127218   0.860   2.644   0.427 -0.4787  1.9977 -2.2151
 5253SOL    HW227219   0.728   2.682   0.369 -0.2741 -0.0155 -1.1758
 5254SOL     OW27220   0.703   1.117   4.024  0.4029 -0.0862  0.1638
 5254SOL    HW127221   0.764   1.045   4.009  0.3090  0.1735 -1.4836
 5254SOL    HW227222   0.735   1.186   3.966 -1.0287 -0.3357 -0.9430
 5255SOL     OW27223   3.250   0.616  15.630  0.3723 -0.1416 -0.3106
 5255SOL    HW127224   3.294   0.549  15.683  3.0524 -0.1162 -2.5157
 5255SOL    HW227225   3.291   0.606  15.544  1.4846  0.8874  0.1017
 5256SOL     OW27226   1.636   3.001   5.935 -0.0504  0.4161 -0.4065
 5256SOL    HW127227   1.674   2.990   5.848  3.2088 -1.5040  1.2906
 5256SOL    HW227228   1.706   2.971   5.992 -1.3953  2.0914  2.1189
 5257SOL     OW27229   3.973   3.180   7.549 -0.2347  0.3508 -0.3110
 5257SOL    HW127230   3.992   3.243   7.618  2.6929  0.1081 -0.9092
 5257SOL    HW227231   3.989   3.228   7.468 -1.2290  1.6796  0.2689
 5258SOL     OW27232   2.223   3.460   4.590 -0.0220  0.1373  0.6726
 5258SOL    HW127233   2.224   3.541   4.642 -0.3211  0.1635  0.6366
 5258SOL    HW227234   2.205   3.503   4.507 -0.3583 -1.3403 -0.0169
 5259SOL     OW27235   1.993   1.189  16.581 -0.5711  0.0383  0.1937
 5259SOL    HW127236   1.924   1.241  16.623 -1.5918 -0.5462 -0.7767
 5259SOL    HW227237   1.952   1.104  16.589  0.1760 -0.5017 -1.7809
 5260SOL     OW27238   4.635   0.322   7.390  0.2238 -0.5537 -0.4569
 5260SOL    HW127239   4.727   0.326   7.418  0.4019 -0.2447 -1.0584
 5260SOL    HW227240   4.582   0.362   7.459 -0.0325  0.8124 -1.4343
 5261SOL     OW27241   3.025   2.242   7.637 -0.3468  0.5591 -0.1567
 5261SOL    HW127242   2.949   2.300   7.635  0.3720  1.5152  0.9905
 5261SOL    HW227243   3.053   2.260   7.726 -2.0092 -0.2779  0.5409
 5262SOL     OW27244   1.510   2.388   5.361  0.3323  0.8559  0.4966
 5262SOL    HW127245   1.572   2.316   5.370 -0.0181  0.4892  0.0100
 5262SOL    HW227246   1.563   2.467   5.368  2.0934 -0.1282 -1.8544
 5263SOL     OW27247   3.223   0.789   6.534 -0.4015  0.3734 -0.2888
 5263SOL    HW127248   3.149   0.772   6.476 -0.7046 -0.1755  0.2523
 5263SOL    HW227249   3.215   0.724   6.604 -0.4770  1.2880  0.5424
 5264SOL     OW27250   0.469   0.978   4.284  0.2249  0.1293  0.5538
 5264SOL    HW127251   0.375   0.979   4.304  0.0368  1.4119 -0.4410
 5264SOL    HW227252   0.479   0.883   4.285 -2.2708 -0.1375  1.4257
 5265SOL     OW27253   3.425   0.988   8.846 -0.1968 -0.1843 -0.5947
 5265SOL    HW127254   3.462   1.039   8.918  0.3598 -0.5721 -0.6103
 5265SOL    HW227255   3.331   0.988   8.866 -0.8049  0.2073 -3.3175
 5266SOL     OW27256   1.274   4.555   0.237 -0.3322 -0.3028 -0.1687
 5266SOL    HW127257   1.203   4.618   0.227 -0.3304 -0.6876 -2.5722
 5266SOL    HW227258   1.288   4.547   0.332 -0.3753  1.7081  0.0032
 5267SOL     OW27259   3.879   3.911  13.883 -0.3167  0.1010  0.7596
 5267SOL    HW127260   3.787   3.887  13.880  0.3086 -2.0765 -0.8831
 5267SOL    HW227261   3.913   3.880  13.799  0.2729  1.3700  0.5227
 5268SOL     OW27262   1.861   1.053   5.239  0.1176 -0.2990 -0.0395
 5268SOL    HW127263   1.811   1.054   5.320 -1.5591 -2.8098 -1.0585
 5268SOL    HW227264   1.933   1.115   5.253  1.0959 -1.2875 -0.6286
 5269SOL     OW27265   3.122   0.125  17.179 -0.1035 -0.0641  0.0364
 5269SOL    HW127266   3.082   0.042  17.203 -0.5031 -0.0929 -0.7266
 5269SOL    HW227267   3.056   0.154  17.115  0.2033  1.5103  0.4382
 5270SOL     OW27268   4.116   0.704   0.115 -0.6684  0.7919 -0.5001
 5270SOL    HW127269   4.039   0.721   0.062 -0.4756  1.5536 -0.5367
 5270SOL    HW227270   4.077   0.679   0.198  0.1945  0.4412 -0.1916
 5271SOL     OW27271   1.899   1.317   9.218 -0.2219  0.0885  0.1292
 5271SOL    HW127272   1.969   1.288   9.159  0.3911 -1.1439  1.4642
 5271SOL    HW227273   1.901   1.412   9.210  0.1908  0.2223  1.8845
 5272SOL     OW27274   2.020   1.001   4.818  0.1946 -0.5629 -0.4039
 5272SOL    HW127275   1.996   0.918   4.859  0.5583  0.9239  2.8371
 5272SOL    HW227276   2.087   0.974   4.754  0.6106 -2.5485  0.8615
 5273SOL     OW27277   3.920   1.490  10.247 -0.4329  0.3342 -0.1488
 5273SOL    HW127278   4.009   1.456  10.233 -0.8646 -0.3106 -1.3092
 5273SOL    HW227279   3.922   1.505  10.341  1.1019 -3.8890  0.4849
 5274SOL     OW27280   3.336   1.722   0.345  0.4138  0.0074 -0.0109
 5274SOL    HW127281   3.351   1.805   0.391 -0.3134 -0.8509  1.7657
 5274SOL    HW227282   3.389   1.734   0.266  1.8398 -0.5591  0.8772
 5275SOL     OW27283   0.243   0.961  12.500 -0.5434 -0.2155  0.1107
 5275SOL    HW127284   0.259   1.049  12.466  1.6303 -0.5596  0.2552
 5275SOL    HW227285   0.300   0.904  12.450  3.5695  1.7666  2.5283
 5276SOL     OW27286   1.444   0.867   2.678 -0.3989 -0.4567  0.1695
 5276SOL    HW127287   1.396   0.950   2.678  2.0421  0.9442 -0.1862
 5276SOL    HW227288   1.434   0.854   2.772  0.0535 -0.5785  0.2009
 5277SOL     OW27289   3.266   3.970  15.503 -0.0746  0.8138 -0.1848
 5277SOL    HW127290   3.331   3.972  15.434  1.3294 -1.3900  1.0608
 5277SOL    HW227291   3.201   3.912  15.462  1.4543 -0.2107 -1.1367
 5278SOL     OW27292   0.438   1.935  11.378  0.2082  0.0273 -0.3149
 5278SOL    HW127293   0.359   1.988  11.377  1.4406  1.8670  0.1983
 5278SOL    HW227294   0.460   1.923  11.286  0.7758  2.4129 -0.4844
 5279SOL     OW27295   0.442   2.592  14.090 -0.2940 -0.3666  0.1530
 5279SOL    HW127296   0.495   2.534  14.144  0.2681 -1.2672 -1.3781
 5279SOL    HW227297   0.500   2.605  14.015 -0.6101  0.6286  0.0753
 5280SOL     OW27298   4.536   4.318  12.695 -0.2198 -0.0294 -0.4587
 5280SOL    HW127299   4.610   4.346  12.750 -0.3132  0.0480 -0.3712
 5280SOL    HW227300   4.566   4.337  12.607  1.5529  1.7219  0.5138
 5281SOL     OW27301   1.929   1.184   6.872 -0.2442  0.4661  0.3204
 5281SOL    HW127302   1.848   1.199   6.921 -0.4348  0.9129 -0.1308
 5281SOL    HW227303   1.952   1.093   6.889 -0.5971  0.1423 -0.9631
 5282SOL     OW27304   3.633   4.700   8.287  0.1085 -0.6938 -0.2849
 5282SOL    HW127305   3.559   0.008   8.337  0.5605 -0.6210  0.3471
 5282SOL    HW227306   3.684   0.054   8.277 -2.2950  0.9139  0.3786
 5283SOL     OW27307   2.608   2.384   6.483  0.3891 -0.0871  0.3265
 5283SOL    HW127308   2.688   2.435   6.474  0.0656  0.2526 -0.6591
 5283SOL    HW227309   2.588   2.356   6.393  2.2729 -0.3055 -0.0123
 5284SOL     OW27310   3.983   1.199   7.594  0.5490  0.6543  0.1338
 5284SOL    HW127311   3.944   1.286   7.605  1.1801  1.2508 -2.2959
 5284SOL    HW227312   3.980   1.167   7.684  0.4232 -0.7898 -0.3800
 5285SOL     OW27313   3.345   1.056   8.456  0.4373 -0.7108 -0.3556
 5285SOL    HW127314   3.364   1.126   8.394  1.3074 -0.5442  0.1054
 5285SOL    HW227315   3.353   1.111   8.534 -0.3493 -0.5972 -0.3589
 5286SOL     OW27316   0.200   0.053  13.545  0.4844  0.0561  0.2723
 5286SOL    HW127317   0.235   4.706  13.594  0.5412 -3.0230 -4.3217
 5286SOL    HW227318   0.124   0.069  13.601  0.2005 -0.7212  0.1022
 5287SOL     OW27319   4.502   1.508   6.780  0.4148  0.1848  0.0828
 5287SOL    HW127320   4.449   1.430   6.767  1.9794 -0.5321 -2.1330
 5287SOL    HW227321   4.591   1.471   6.780 -1.0330 -3.3087  1.4198
 5288SOL     OW27322   3.243   1.278  13.830 -0.1122 -0.0702  0.3497
 5288SOL    HW127323   3.282   1.366  13.838  1.6250 -0.8633  0.5752
 5288SOL    HW227324   3.159   1.309  13.796  0.5658 -0.9740 -2.1449
 5289SOL     OW27325   2.959   2.370  12.058  0.0507 -0.3475 -0.1520
 5289SOL    HW127326   2.904   2.427  12.004  1.5887  0.7108 -0.5802
 5289SOL    HW227327   2.977   2.303  11.991  1.9946  1.3024 -1.2637
 5290SOL     OW27328   0.126   1.002   1.420  0.1628  0.0833  0.1217
 5290SOL    HW127329   0.153   0.991   1.329  0.4112 -0.4373  0.2579
 5290SOL    HW227330   0.122   0.911   1.449  0.1558  0.7242  2.1273
 5291SOL     OW27331   1.773   1.846   2.771  0.3761  0.1300  0.4721
 5291SOL    HW127332   1.841   1.808   2.715  0.7769  1.0640  0.3231
 5291SOL    HW227333   1.801   1.937   2.782 -3.9645  1.3245  1.6750
 5292SOL     OW27334   3.585   1.564   4.352 -0.3992  0.1735  0.4256
 5292SOL    HW127335   3.675   1.531   4.357 -0.2955  0.4235  0.1691
 5292SOL    HW227336   3.537   1.494   4.307 -1.2876  0.8400  0.3459
 5293SOL     OW27337   2.615   1.672   5.746  0.2094 -0.1193  0.4186
 5293SOL    HW127338   2.567   1.720   5.814 -1.6724  0.9489 -1.6814
 5293SOL    HW227339   2.708   1.674   5.768 -0.2683 -0.0720  2.4484
 5294SOL     OW27340   3.422   2.338  14.156  0.2373 -0.3467 -0.2511
 5294SOL    HW127341   3.512   2.305  14.159  0.6841  0.8508 -0.9763
 5294SOL    HW227342   3.442   2.431  14.153  0.5584 -0.3481  1.6502
 5295SOL     OW27343   0.564   0.660  13.696 -0.6125 -0.1106  0.1128
 5295SOL    HW127344   0.620   0.736  13.678  0.1403 -0.8199 -0.5340
 5295SOL    HW227345   0.557   0.686  13.788  1.5393  0.6757  0.0479
 5296SOL     OW27346   2.422   3.353   0.110  0.3723  0.1620  0.5106
 5296SOL    HW127347   2.421   3.444   0.080  1.5859 -0.0705 -0.2247
 5296SOL    HW227348   2.333   3.327   0.086  1.6396 -1.2125 -2.5866
 5297SOL     OW27349   3.502   0.454   3.665  0.3272 -0.4427 -0.6252
 5297SOL    HW127350   3.442   0.379   3.669  0.7662 -0.7475  0.2739
 5297SOL    HW227351   3.579   0.412   3.628  0.2112 -0.5750 -0.7130
 5298SOL     OW27352   1.462   0.899   1.497 -0.3791  0.2513 -0.4448
 5298SOL    HW127353   1.422   0.892   1.410 -1.4310  0.0708  0.0556
 5298SOL    HW227354   1.553   0.911   1.468 -0.4684 -0.4569 -1.0408
 5299SOL     OW27355   3.169   4.426   3.005  0.1661  0.4115  0.1931
 5299SOL    HW127356   3.124   4.444   3.088  3.3159  3.9848  1.0869
 5299SOL    HW227357   3.210   4.343   3.028 -0.3854 -0.7945 -3.1617
 5300SOL     OW27358   2.898   0.432  14.679 -0.8218  0.5579  0.2115
 5300SOL    HW127359   2.879   0.398  14.767  1.4986 -0.5657  0.2930
 5300SOL    HW227360   2.858   0.369  14.619 -0.2002 -0.1788  0.5757
 5301SOL     OW27361   1.528   1.253  15.424 -0.0794 -0.2359 -0.4285
 5301SOL    HW127362   1.452   1.241  15.366  0.2367  2.9162 -1.4885
 5301SOL    HW227363   1.594   1.279  15.360 -0.7525 -1.0441 -1.4411
 5302SOL     OW27364   0.102   1.261  12.658  0.5185 -0.3056  0.4082
 5302SOL    HW127365   0.131   1.201  12.590  1.1412 -0.4654  0.8058
 5302SOL    HW227366   0.028   1.216  12.699  2.8728 -3.0810  1.5976
 5303SOL     OW27367   1.942   1.685   5.809  0.4759 -0.1806  0.5168
 5303SOL    HW127368   1.930   1.590   5.816  2.7717 -0.5822 -0.9227
 5303SOL    HW227369   1.943   1.698   5.714  0.2122  0.2253  0.5714
 5304SOL     OW27370   1.542   1.553   9.127  0.3848 -0.4858 -0.3121
 5304SOL    HW127371   1.486   1.627   9.106 -0.1452 -0.7770  0.0669
 5304SOL    HW227372   1.620   1.594   9.165  0.5741  0.5036 -1.7736
 5305SOL     OW27373   0.095   2.611   7.758  0.5092  0.2471  0.2178
 5305SOL    HW127374   0.037   2.653   7.821  0.3078  2.3070 -1.3125
 5305SOL    HW227375   0.146   2.554   7.814  0.4146 -0.3299 -0.2840
 5306SOL     OW27376   1.320   1.264   3.827  0.8776 -0.5435 -0.0645
 5306SOL    HW127377   1.413   1.249   3.808  0.8043 -0.4844 -0.4803
 5306SOL    HW227378   1.282   1.261   3.739  1.1716  1.0970 -0.2493
 5307SOL     OW27379   2.228   1.121   1.248 -0.1110  0.2196 -0.1552
 5307SOL    HW127380   2.261   1.197   1.295  2.7081  0.0728 -1.9059
 5307SOL    HW227381   2.269   1.135   1.163 -1.9102 -0.4561 -1.1429
 5308SOL     OW27382   0.328   1.632   8.274  0.8175 -0.0378  0.0052
 5308SOL    HW127383   0.298   1.699   8.336 -0.1332 -0.1704 -0.3102
 5308SOL    HW227384   0.347   1.560   8.333 -4.2486 -0.8459  0.6918
 5309SOL     OW27385   1.830   3.333  13.679  0.3067 -0.0224 -0.5061
 5309SOL    HW127386   1.770   3.285  13.623  0.9784 -2.0405  0.4804
 5309SOL    HW227387   1.775   3.357  13.754  0.8579 -0.3558  0.0035
 5310SOL     OW27388   3.673   1.104   5.869 -0.2885 -0.1713  0.7382
 5310SOL    HW127389   3.622   1.046   5.813 -1.2371  0.1623  1.2597
 5310SOL    HW227390   3.623   1.185   5.858  1.8142  1.1178  0.5772
 5311SOL     OW27391   0.080   4.212   8.828  0.1292 -0.0049 -0.0715
 5311SOL    HW127392   0.001   4.236   8.876 -1.1300 -0.5348 -1.8794
 5311SOL    HW227393   0.135   4.287   8.852 -0.8900  0.6344  0.2852
 5312SOL     OW27394   3.519   1.891   9.308 -0.0280 -0.1255 -0.4007
 5312SOL    HW127395   3.605   1.859   9.280  0.4856 -0.4810  1.5897
 5312SOL    HW227396   3.538   1.945   9.384 -1.4927  1.7907 -1.3856
 5313SOL     OW27397   3.888   0.049  11.016  0.0408  0.0101  0.2413
 5313SOL    HW127398   3.831   4.700  11.031 -0.5765 -0.0705 -2.5540
 5313SOL    HW227399   3.938   0.021  10.940  1.0588  0.2023  0.8347
 5314SOL     OW27400   3.892   3.322   6.394 -0.5357  0.1579 -0.0842
 5314SOL    HW127401   3.825   3.287   6.452  1.2877 -0.6057  1.5527
 5314SOL    HW227402   3.960   3.255   6.403  1.5074  2.2491  0.1664
 5315SOL     OW27403   2.942   1.687   8.165  0.6775 -0.0115 -0.1826
 5315SOL    HW127404   2.851   1.717   8.162 -0.0744 -2.0247  2.1571
 5315SOL    HW227405   2.949   1.639   8.082  1.3100  0.4708 -0.4002
 5316SOL     OW27406   2.615   1.928   2.154 -0.6581  0.1190 -0.1946
 5316SOL    HW127407   2.543   1.884   2.199 -0.2378  0.8336  1.1611
 5316SOL    HW227408   2.566   2.004   2.122 -1.2076  0.1175  0.6375
 5317SOL     OW27409   4.349   2.421  12.037  0.6304  0.5090  0.0631
 5317SOL    HW127410   4.329   2.506  12.076  2.5840  1.2434 -0.5309
 5317SOL    HW227411   4.349   2.436  11.942  0.7766  0.1066  0.0006
 5318SOL     OW27412   4.503   0.472  14.961  0.3757 -0.2987 -0.4201
 5318SOL    HW127413   4.457   0.388  14.967 -1.3081  0.8102  2.2652
 5318SOL    HW227414   4.496   0.511  15.048 -1.6657  1.5513 -1.4204
 5319SOL     OW27415   1.106   4.628   8.943 -0.0729  0.1838 -0.4255
 5319SOL    HW127416   1.139   4.647   9.031 -0.5751 -0.0383 -0.1909
 5319SOL    HW227417   1.173   4.678   8.898 -1.1736  2.5753  0.5841
 5320SOL     OW27418   3.855   3.086  14.070  0.0827  0.4646  0.1377
 5320SOL    HW127419   3.846   3.176  14.103  0.5779  0.4155  0.3973
 5320SOL    HW227420   3.884   3.096  13.979 -2.1256 -1.7765 -0.8185
 5321SOL     OW27421   2.218   4.260   8.767 -0.4716  0.1482 -0.8263
 5321SOL    HW127422   2.203   4.312   8.846 -0.0240  1.0015 -1.3154
 5321SOL    HW227423   2.153   4.301   8.710 -0.6109 -0.8317 -1.3768
 5322SOL     OW27424   3.851   2.458   8.185 -0.2261 -0.5116 -0.1263
 5322SOL    HW127425   3.787   2.477   8.254  2.0087  3.0819  0.9858
 5322SOL    HW227426   3.840   2.528   8.120  3.7246  1.8794  1.7867
 5323SOL     OW27427   4.664   0.818   8.830 -0.0541  0.3805  0.7882
 5323SOL    HW127428   0.015   0.771   8.803 -0.8182 -0.1068 -0.5741
 5323SOL    HW227429   4.598   0.748   8.834 -0.4523  0.7829  1.3254
 5324SOL     OW27430   3.083   2.832   2.189  0.2400 -0.0674  0.5930
 5324SOL    HW127431   2.989   2.826   2.173  0.5293  0.0605 -1.0843
 5324SOL    HW227432   3.084   2.895   2.261  3.2741  1.0985 -0.4575
 5325SOL     OW27433   2.794   4.190   1.622 -0.3408  0.4042 -0.3687
 5325SOL    HW127434   2.822   4.167   1.710 -2.7303 -2.7777 -0.4589
 5325SOL    HW227435   2.722   4.247   1.648 -2.5331 -2.1101 -0.9249
 5326SOL     OW27436   2.025   2.936   4.450  0.2124  0.8672 -0.1236
 5326SOL    HW127437   1.989   3.014   4.490  1.5629  1.4431 -0.0236
 5326SOL    HW227438   2.060   2.888   4.525  1.5166  1.7894 -0.1337
 5327SOL     OW27439   1.883   1.525   3.080  0.3736  0.3024 -0.0546
 5327SOL    HW127440   1.893   1.608   3.126 -1.6698  0.7481 -0.4457
 5327SOL    HW227441   1.965   1.518   3.031 -0.9355 -0.2983 -2.1441
 5328SOL     OW27442   3.516   3.346   9.232  0.2852  0.4214 -0.1891
 5328SOL    HW127443   3.513   3.337   9.327  0.6956  0.7090 -0.1465
 5328SOL    HW227444   3.441   3.405   9.223 -0.3535 -0.2784  0.5640
 5329SOL     OW27445   3.798   3.806   2.406 -0.1414  0.5141  0.2872
 5329SOL    HW127446   3.814   3.805   2.500 -2.1311  0.6807  0.6104
 5329SOL    HW227447   3.706   3.832   2.407 -0.8579 -2.0437  2.4626
 5330SOL     OW27448   0.435   1.716  15.573  0.7857 -0.3481  0.4242
 5330SOL    HW127449   0.462   1.691  15.662 -1.2691  2.3407  1.8019
 5330SOL    HW227450   0.380   1.642  15.549 -0.6281  1.1820 -1.0486
 5331SOL     OW27451   2.869   3.855   4.217 -0.2699  0.4050 -0.6013
 5331SOL    HW127452   2.808   3.812   4.157 -1.6084  0.3868  0.7412
 5331SOL    HW227453   2.903   3.928   4.167  1.6522  0.1970  0.3723
 5332SOL     OW27454   0.166   3.892  14.865  0.4076  0.2547 -0.1562
 5332SOL    HW127455   0.136   3.822  14.806 -0.4102 -0.3938  1.0191
 5332SOL    HW227456   0.163   3.849  14.950 -1.1560  0.8749  0.1181
 5333SOL     OW27457   2.887   0.585   8.857 -0.3595  0.1700  0.1379
 5333SOL    HW127458   2.854   0.671   8.832  0.7073  0.3001 -0.8011
 5333SOL    HW227459   2.980   0.607   8.859  0.2258 -2.3063  0.7397
 5334SOL     OW27460   4.048   1.507  11.055 -0.3055  0.3353  0.1403
 5334SOL    HW127461   4.097   1.446  10.999  0.1439  2.0651 -1.3378
 5334SOL    HW227462   4.041   1.574  10.986 -2.5448 -0.8618 -0.8097
 5335SOL     OW27463   1.605   0.015   7.040 -0.7468 -0.2057 -0.2423
 5335SOL    HW127464   1.513   4.719   7.028 -0.3239 -1.7346 -0.5919
 5335SOL    HW227465   1.651   4.688   6.975  0.9340  0.8241  0.0756
 5336SOL     OW27466   1.811   0.813   3.846  0.2226 -0.3370 -0.8281
 5336SOL    HW127467   1.778   0.813   3.756  0.3264  1.1374 -0.8649
 5336SOL    HW227468   1.723   0.814   3.883 -0.3641 -3.5473 -2.0865
 5337SOL     OW27469   3.553   1.916   6.657  0.5722 -0.1630  0.0397
 5337SOL    HW127470   3.504   1.945   6.733 -1.0713 -2.2515 -0.2632
 5337SOL    HW227471   3.640   1.955   6.672  1.3122 -1.5058 -0.7161
 5338SOL     OW27472   0.431   4.427   6.517 -0.0311 -0.8636 -0.0185
 5338SOL    HW127473   0.447   4.481   6.440 -0.1407 -0.2543  0.3798
 5338SOL    HW227474   0.452   4.493   6.584  1.8536 -0.2908 -1.2037
 5339SOL     OW27475   4.725   2.711   7.046  0.3210  0.1249 -0.3245
 5339SOL    HW127476   0.034   2.644   6.988  0.0027 -0.4623  0.1559
 5339SOL    HW227477   0.058   2.785   7.041  1.4965 -1.0007 -2.7731
 5340SOL     OW27478   2.621   1.151   6.105  0.0233  0.0008 -0.2094
 5340SOL    HW127479   2.663   1.157   6.019 -0.9844  0.6435 -0.6561
 5340SOL    HW227480   2.632   1.242   6.133 -1.4607  0.5248 -1.2997
 5341SOL     OW27481   3.974   3.311  17.404  0.3655  0.0301  0.0943
 5341SOL    HW127482   3.938   3.398  17.419 -2.4563 -1.3203  1.1105
 5341SOL    HW227483   3.909   3.281  17.341  1.1289 -0.3231 -0.5382
 5342SOL     OW27484   4.184   1.160  15.210  0.4297 -0.3840 -0.4804
 5342SOL    HW127485   4.279   1.166  15.204  0.3876  0.3753 -0.3761
 5342SOL    HW227486   4.159   1.068  15.218 -0.6156  0.0218  0.8643
 5343SOL     OW27487   2.679   0.917   7.138 -0.0813 -0.1691 -0.6457
 5343SOL    HW127488   2.651   1.004   7.111  2.1616  0.6012 -0.5211
 5343SOL    HW227489   2.621   0.895   7.212  0.7340 -2.6091 -0.7109
 5344SOL     OW27490   3.046   4.264   3.894  0.5317  0.5626 -0.4209
 5344SOL    HW127491   3.074   4.266   3.803  1.2671 -0.6056 -0.2281
 5344SOL    HW227492   2.994   4.344   3.892 -0.7406 -0.2173  1.5312
 5345SOL     OW27493   1.511   1.811   0.017  0.3560 -0.0807  0.9475
 5345SOL    HW127494   1.523   1.751   0.091 -0.4619 -0.7707  0.5114
 5345SOL    HW227495   1.586   1.870   0.014  0.6898 -0.5236  0.5694
 5346SOL     OW27496   2.641   4.438   4.598 -0.0060 -0.4679  0.1697
 5346SOL    HW127497   2.575   4.404   4.537 -0.7755 -0.0008  0.7479
 5346SOL    HW227498   2.722   4.395   4.572  1.5020  0.8481  2.6930
 5347SOL     OW27499   4.259   2.692   5.781 -0.0709 -0.3353 -0.1722
 5347SOL    HW127500   4.354   2.690   5.770  0.3429  0.5457  3.2354
 5347SOL    HW227501   4.241   2.669   5.872  1.5792  1.2959  0.5726
 5348SOL     OW27502   0.620   2.333  17.168 -0.3666  0.4768 -0.5946
 5348SOL    HW127503   0.556   2.329  17.238  0.8194  1.2461  0.5384
 5348SOL    HW227504   0.647   2.421  17.193 -0.6296 -0.3328  2.4932
 5349SOL     OW27505   0.592   3.364   2.609 -0.2664  0.4779 -0.0763
 5349SOL    HW127506   0.630   3.452   2.615 -0.0226  0.3903 -0.3394
 5349SOL    HW227507   0.610   3.331   2.697 -0.5373 -1.0501 -0.6009
 5350SOL     OW27508   2.309   4.561   5.992 -0.0588 -0.0760 -0.2048
 5350SOL    HW127509   2.233   4.518   5.951  0.1602 -1.2897  0.6611
 5350SOL    HW227510   2.271   4.613   6.063  0.8571  0.1662  0.1009
 5351SOL     OW27511   1.487   3.786   6.803 -0.2904  0.1022  0.6186
 5351SOL    HW127512   1.577   3.751   6.808  0.6081  2.5558  1.3132
 5351SOL    HW227513   1.483   3.829   6.888  2.6573  1.1958  0.2089
 5352SOL     OW27514   2.143   1.726   8.821  0.1968  0.1423  0.2970
 5352SOL    HW127515   2.175   1.688   8.903  1.5103 -1.1711 -0.8185
 5352SOL    HW227516   2.049   1.712   8.833  0.3516 -0.4212  0.8550
 5353SOL     OW27517   2.345   0.179   7.928 -0.0891  0.4896  0.4164
 5353SOL    HW127518   2.329   0.258   7.875 -1.5538  0.4990  0.8752
 5353SOL    HW227519   2.404   0.207   7.998 -0.3419  1.3970  0.2707
 5354SOL     OW27520   1.245   3.304   2.042  0.3803  0.2681 -0.2670
 5354SOL    HW127521   1.285   3.361   1.976 -0.0824 -1.3675 -1.9497
 5354SOL    HW227522   1.166   3.348   2.074  0.8125  0.4678  0.5240
 5355SOL     OW27523   1.874   4.400  13.638  0.2360  0.4331  0.0839
 5355SOL    HW127524   1.889   4.332  13.703  0.9193 -1.0669 -1.6274
 5355SOL    HW227525   1.884   4.479  13.690 -0.3682  0.5182  0.0653
 5356SOL     OW27526   1.669   3.729   0.025 -0.3467  0.4652 -0.0292
 5356SOL    HW127527   1.591   3.675   0.019  0.5633 -0.9705  1.0253
 5356SOL    HW227528   1.642   3.801  17.677  0.3945 -1.1476 -2.4476
 5357SOL     OW27529   4.674   4.699   1.860 -0.0561 -0.5222  0.2895
 5357SOL    HW127530   4.633   4.727   1.942 -1.6354  3.4269 -1.8563
 5357SOL    HW227531   0.037   4.677   1.881  0.3515  0.6797 -0.2153
 5358SOL     OW27532   1.898   1.218   6.008 -0.1699 -0.1050 -0.4323
 5358SOL    HW127533   1.808   1.230   6.038  0.7310  0.2140  2.1145
 5358SOL    HW227534   1.938   1.183   6.087 -2.0473  0.0313  0.5900
 5359SOL     OW27535   0.634   1.943   3.023  0.2806 -0.1790 -0.2673
 5359SOL    HW127536   0.565   1.894   2.980  2.1853  0.4168 -3.9693
 5359SOL    HW227537   0.637   2.026   2.976 -3.3519 -0.2324 -0.5624
 5360SOL     OW27538   2.195   3.280   1.687  0.5752 -0.7762 -0.0829
 5360SOL    HW127539   2.184   3.375   1.685  2.1337 -0.5939  0.5096
 5360SOL    HW227540   2.229   3.263   1.774 -1.3686  0.0581  0.8475
 5361SOL     OW27541   2.791   2.142   4.334  0.6735  0.0589 -0.0917
 5361SOL    HW127542   2.863   2.107   4.386  0.6729 -0.9877 -0.8015
 5361SOL    HW227543   2.836   2.216   4.293 -1.1121  0.5790 -1.1441
 5362SOL     OW27544   4.315   2.564  13.423  0.7237 -0.1453  0.2523
 5362SOL    HW127545   4.377   2.519  13.365  0.2806 -0.4760  0.0409
 5362SOL    HW227546   4.345   2.521  13.503  0.7519 -0.2634  0.1798
 5363SOL     OW27547   1.260   4.047   3.550 -0.5573  0.1545 -0.0287
 5363SOL    HW127548   1.232   4.073   3.638  2.4161  2.8500  0.0986
 5363SOL    HW227549   1.237   3.955   3.537  0.4280 -0.0050 -0.5911
 5364SOL     OW27550   2.439   2.444   4.847  0.2803 -0.8784 -0.5210
 5364SOL    HW127551   2.455   2.488   4.763 -0.7492 -1.9098 -1.2433
 5364SOL    HW227552   2.517   2.390   4.862  0.7616 -0.0083  0.1397
 5365SOL     OW27553   2.885   1.308   6.712  0.1480 -0.1213  0.0614
 5365SOL    HW127554   2.798   1.279   6.739 -0.9030  2.3359 -0.6669
 5365SOL    HW227555   2.937   1.273   6.784  0.1351  2.5881  1.3717
 5366SOL     OW27556   3.469   1.920  17.233 -0.0246  0.4984  0.0102
 5366SOL    HW127557   3.442   1.902  17.142 -0.8645  2.0996 -0.0615
 5366SOL    HW227558   3.393   1.975  17.254 -0.5235 -0.3754  0.5031
 5367SOL     OW27559   4.267   0.802  13.119  0.0826  0.1052  0.0747
 5367SOL    HW127560   4.239   0.827  13.207 -1.7485 -0.5550 -0.3046
 5367SOL    HW227561   4.196   0.845  13.071  1.3179  0.6688 -1.2452
 5368SOL     OW27562   3.787   1.026   7.473  0.5803 -0.2472  0.5922
 5368SOL    HW127563   3.824   1.011   7.386 -2.5206 -3.3332 -0.1719
 5368SOL    HW227564   3.864   1.061   7.519 -0.1562 -0.3912  1.9281
 5369SOL     OW27565   2.099   2.802   8.016 -0.5003 -0.0824  0.3918
 5369SOL    HW127566   2.087   2.707   8.016 -1.1761  0.0021  0.7735
 5369SOL    HW227567   2.185   2.814   7.975 -1.0724  1.8102 -0.2422
 5370SOL     OW27568   4.104   3.071   5.869  0.0608 -0.1096 -0.4946
 5370SOL    HW127569   4.085   3.123   5.947  1.6689 -1.7618  0.9777
 5370SOL    HW227570   4.076   2.987   5.904 -0.2350  0.8734  1.6432
 5371SOL     OW27571   1.260   1.920  17.381  0.6444  0.2032 -0.7113
 5371SOL    HW127572   1.184   1.887  17.429  0.2809  1.2654 -0.5717
 5371SOL    HW227573   1.281   1.840  17.333 -0.9683  0.5033 -1.9216
 5372SOL     OW27574   3.421   0.732   8.692  0.9981 -0.3658 -0.2230
 5372SOL    HW127575   3.373   0.754   8.612  1.4349 -1.5109 -0.8005
 5372SOL    HW227576   3.418   0.817   8.737  0.7661  0.2401 -1.3877
 5373SOL     OW27577   4.477   0.935  16.060  0.4497  0.1101  0.1451
 5373SOL    HW127578   4.558   0.974  16.094  0.7855 -1.9552  1.7136
 5373SOL    HW227579   4.429   0.947  16.143 -0.8697 -1.4395 -0.4000
 5374SOL     OW27580   2.803   4.657  10.346 -0.1795  0.0134 -0.3815
 5374SOL    HW127581   2.772   4.599  10.276  0.2603  1.0360 -1.4243
 5374SOL    HW227582   2.802   0.014  10.299 -1.0834  0.5827  0.6607
 5375SOL     OW27583   1.710   1.150   0.077  0.5043  0.0788 -0.3237
 5375SOL    HW127584   1.704   1.149   0.172 -0.0120 -0.5557 -0.3636
 5375SOL    HW227585   1.682   1.241   0.061  0.7699  0.5394  1.8757
 5376SOL     OW27586   4.073   4.550   2.243  0.2987 -0.0821  0.4744
 5376SOL    HW127587   4.165   4.566   2.261  0.0136  1.3899  0.6553
 5376SOL    HW227588   4.058   4.459   2.267  1.0897 -0.6758 -1.2815
 5377SOL     OW27589   3.341   2.739  11.526  0.5057 -0.2153  0.1002
 5377SOL    HW127590   3.349   2.795  11.603  0.9326  1.3227 -1.0506
 5377SOL    HW227591   3.318   2.806  11.462  1.3727  0.8421  0.9021
 5378SOL     OW27592   4.153   0.569   8.703 -0.1317 -0.1669  0.0500
 5378SOL    HW127593   4.183   0.602   8.787 -0.7882  1.0722 -0.1970
 5378SOL    HW227594   4.067   0.533   8.722  0.2797 -2.6129 -2.6912
 5379SOL     OW27595   0.065   1.221   6.788 -0.3943 -0.1535  0.4333
 5379SOL    HW127596   0.100   1.197   6.702 -2.3501  1.5378 -0.8362
 5379SOL    HW227597   0.145   1.239   6.838  0.3627 -1.6906 -0.2186
 5380SOL     OW27598   3.303   1.591   6.998 -0.4041  0.0490 -0.1394
 5380SOL    HW127599   3.289   1.679   6.963  2.2525  0.6477  0.2748
 5380SOL    HW227600   3.359   1.552   6.931  0.7548 -1.0885  1.4643
 5381SOL     OW27601   2.358   2.202   2.710 -0.2597 -0.3160 -0.0502
 5381SOL    HW127602   2.429   2.253   2.748 -0.1527 -0.2209 -0.3773
 5381SOL    HW227603   2.409   2.159   2.642  0.1411 -0.4874  0.3586
 5382SOL     OW27604   0.825   2.947   9.418  0.5661  0.2824  0.1399
 5382SOL    HW127605   0.784   2.975   9.500 -2.0895 -2.1425 -0.3690
 5382SOL    HW227606   0.903   3.002   9.413  0.6018  0.2210  0.0331
 5383SOL     OW27607   3.400   1.864   8.440  1.2195  0.0477 -0.3355
 5383SOL    HW127608   3.365   1.910   8.516  0.6380 -0.1319 -0.4872
 5383SOL    HW227609   3.397   1.935   8.376  0.0594 -1.0187 -1.4870
 5384SOL     OW27610   0.173   4.218   4.398 -0.4548 -0.0603  0.1851
 5384SOL    HW127611   0.170   4.250   4.308  0.8621 -1.2959 -0.2987
 5384SOL    HW227612   0.095   4.164   4.398  1.0590 -2.2441 -0.0367
 5385SOL     OW27613   1.579   2.372   3.428 -0.0270  0.1034 -0.1297
 5385SOL    HW127614   1.613   2.336   3.510 -0.4330 -1.0600 -0.4797
 5385SOL    HW227615   1.644   2.330   3.372  0.8924  0.2191  0.8564
 5386SOL     OW27616   2.160   2.706   0.467  0.4634  0.2413  0.8252
 5386SOL    HW127617   2.183   2.702   0.560  1.4324  0.7491  0.5995
 5386SOL    HW227618   2.156   2.615   0.436 -2.3783  0.1616  1.4137
 5387SOL     OW27619   0.765   4.385   2.485 -0.1822 -0.1196  0.0992
 5387SOL    HW127620   0.823   4.362   2.412 -0.0395 -0.0351  0.1861
 5387SOL    HW227621   0.790   4.476   2.501 -1.0190  0.5305 -2.2769
 5388SOL     OW27622   0.331   0.589   7.269 -0.1217  0.4062 -0.0722
 5388SOL    HW127623   0.304   0.681   7.273  0.4513  0.4755  2.6696
 5388SOL    HW227624   0.290   0.556   7.189  0.2923  0.7699 -0.4290
 5389SOL     OW27625   1.503   1.842   8.418 -0.2528  0.0286 -0.1206
 5389SOL    HW127626   1.542   1.816   8.502 -1.2316  0.7051  0.5410
 5389SOL    HW227627   1.417   1.865   8.453 -0.4627  0.9707 -1.2673
 5390SOL     OW27628   4.400   0.446   4.053  0.6296 -0.0088 -0.4614
 5390SOL    HW127629   4.342   0.520   4.075 -0.0786 -0.7571  0.1781
 5390SOL    HW227630   4.483   0.492   4.047  0.3862  0.3404 -1.1954
 5391SOL     OW27631   1.810   0.298   2.669 -0.5215 -0.1260 -0.0948
 5391SOL    HW127632   1.749   0.305   2.596  0.4332  0.3784 -0.8524
 5391SOL    HW227633   1.818   0.388   2.699 -1.9159 -0.5310  1.4469
 5392SOL     OW27634   1.728   0.696   0.478  0.0608 -0.0831  0.5480
 5392SOL    HW127635   1.796   0.713   0.543  0.2125 -2.3784  0.9603
 5392SOL    HW227636   1.708   0.783   0.442  0.8145 -0.5440 -1.0193
 5393SOL     OW27637   3.889   2.679   4.910  0.4121 -0.2471 -0.3952
 5393SOL    HW127638   3.934   2.687   4.826 -1.4764 -0.6622 -1.4414
 5393SOL    HW227639   3.841   2.598   4.892 -0.9285  0.1285  1.5073
 5394SOL     OW27640   3.072   3.150   7.471 -0.2870 -0.3302  0.0946
 5394SOL    HW127641   3.052   3.122   7.560 -0.5149  0.1209  0.1806
 5394SOL    HW227642   3.083   3.244   7.477 -4.8446  0.1362  1.4838
 5395SOL     OW27643   1.557   1.275   6.800  0.2732 -0.2769  0.0334
 5395SOL    HW127644   1.617   1.221   6.851  0.6413 -0.5155 -0.6556
 5395SOL    HW227645   1.525   1.218   6.731 -0.2496 -1.2995  1.1155
 5396SOL     OW27646   1.040   0.556   3.140 -0.1046 -0.2499 -0.0529
 5396SOL    HW127647   1.069   0.606   3.063 -1.0354  1.1699  0.5023
 5396SOL    HW227648   0.960   0.606   3.158  0.4469  0.4450  0.4851
 5397SOL     OW27649   1.878   3.070   0.497  0.0140  0.3156 -0.2043
 5397SOL    HW127650   1.914   3.018   0.570 -0.5571 -0.3444 -0.3959
 5397SOL    HW227651   1.939   3.144   0.494  2.0904 -1.3550  0.5413
 5398SOL     OW27652   4.563   2.421   2.527  0.3327  0.4576 -0.1416
 5398SOL    HW127653   4.608   2.490   2.479  0.4532 -0.5211 -1.4581
 5398SOL    HW227654   4.484   2.472   2.545  0.5296 -0.2356  2.6135
 5399SOL     OW27655   0.590   2.677   2.782 -0.2885  0.2655  0.0480
 5399SOL    HW127656   0.684   2.694   2.774 -0.1910  0.4004  1.5549
 5399SOL    HW227657   0.564   2.752   2.728  0.3824  0.7616  0.3975
 5400SOL     OW27658   0.905   0.839   5.048  0.3123 -0.3980  0.3554
 5400SOL    HW127659   0.838   0.806   5.108 -0.3290  0.7530  0.2778
 5400SOL    HW227660   0.870   0.928   5.040 -3.7284 -2.0501 -0.2978
 5401SOL     OW27661   2.460   2.892  10.781 -0.3209 -0.2284 -0.0055
 5401SOL    HW127662   2.438   2.984  10.796  1.7840  0.0171  1.5283
 5401SOL    HW227663   2.369   2.862  10.773 -0.0534 -1.0681  0.0754
 5402SOL     OW27664   1.375   2.283  14.703 -0.2011  0.1994  0.9545
 5402SOL    HW127665   1.344   2.220  14.769  0.8065 -1.3153 -0.0339
 5402SOL    HW227666   1.465   2.308  14.723  0.0700 -0.0294 -0.0066
 5403SOL     OW27667   0.692   1.758   0.374  0.3086 -0.0090 -0.3074
 5403SOL    HW127668   0.743   1.753   0.455  0.3714  1.5859 -0.2546
 5403SOL    HW227669   0.734   1.836   0.337 -0.3416  1.3449  1.8044
 5404SOL     OW27670   3.417   1.255   7.000 -0.3878 -0.2245  0.4706
 5404SOL    HW127671   3.451   1.237   7.088  0.2760  3.8218  1.0555
 5404SOL    HW227672   3.419   1.163   6.973 -2.3506  0.1031 -0.7641
 5405SOL     OW27673   4.351   2.575  15.852 -0.5347 -0.0757 -0.2216
 5405SOL    HW127674   4.343   2.557  15.758  1.3250 -0.4595 -0.3089
 5405SOL    HW227675   4.271   2.625  15.870 -1.2630 -0.2760 -2.8643
 5406SOL     OW27676   2.322   1.026  11.527 -0.3462  0.6239 -0.4292
 5406SOL    HW127677   2.358   1.078  11.599  1.1716 -1.6907  0.4839
 5406SOL    HW227678   2.311   1.088  11.455 -2.5029  2.1888  1.2435
 5407SOL     OW27679   2.366   0.699   7.113  0.1125  0.5320  0.0039
 5407SOL    HW127680   2.317   0.772   7.075 -0.3251  1.4609  2.3120
 5407SOL    HW227681   2.456   0.729   7.120  1.4421 -3.1618 -1.6171
 5408SOL     OW27682   3.312   3.319  12.789 -0.5292 -0.0240 -0.8983
 5408SOL    HW127683   3.304   3.269  12.870  0.8409 -1.0588 -1.4085
 5408SOL    HW227684   3.302   3.409  12.821 -0.8372 -0.3317 -0.1282
 5409SOL     OW27685   3.656   3.851   2.822  0.1014  0.1804 -1.2244
 5409SOL    HW127686   3.617   3.792   2.886  1.5895 -0.5948 -1.0120
 5409SOL    HW227687   3.735   3.803   2.796  0.6320  1.5363 -2.1454
 5410SOL     OW27688   3.866   3.304   2.990 -0.1976  0.5248 -0.5939
 5410SOL    HW127689   3.849   3.333   2.901 -0.0001  1.1190 -0.4394
 5410SOL    HW227690   3.794   3.349   3.035 -1.7608 -1.1102 -1.4697
 5411SOL     OW27691   4.162   0.056   9.757 -0.8093  0.0363 -0.0380
 5411SOL    HW127692   4.198   4.697   9.733 -0.8049  0.3186 -1.0350
 5411SOL    HW227693   4.241   0.109   9.744 -0.2302 -0.4549  1.4804
 5412SOL     OW27694   0.080   4.395   7.751 -0.4444 -0.2417  0.4786
 5412SOL    HW127695   0.003   4.411   7.806 -1.6050  2.4412 -1.9274
 5412SOL    HW227696   0.057   4.436   7.668 -0.0216  2.6528  1.7721
 5413SOL     OW27697   0.467   1.996   8.379 -0.4925 -0.2551 -0.0253
 5413SOL    HW127698   0.552   1.962   8.352 -1.1990  0.3693 -3.0349
 5413SOL    HW227699   0.458   2.076   8.327 -0.7502  0.2721  0.8317
 5414SOL     OW27700   4.274   1.576   1.610 -0.0408  0.3174 -0.2826
 5414SOL    HW127701   4.319   1.495   1.586  0.5215  0.8105 -0.9031
 5414SOL    HW227702   4.179   1.565   1.608  0.0166 -0.1465 -0.6150
 5415SOL     OW27703   0.218   0.903  15.007  0.4993  0.1916  0.2851
 5415SOL    HW127704   0.170   0.821  15.022  1.9688 -1.0017 -1.5069
 5415SOL    HW227705   0.144   0.957  14.980  1.8700  1.5175 -0.7842
 5416SOL     OW27706   1.936   4.168   6.077 -0.5443 -0.4632  0.6242
 5416SOL    HW127707   1.890   4.207   6.003 -1.8495 -1.2631  1.0133
 5416SOL    HW227708   1.941   4.242   6.138  1.1858  1.4886 -1.9005
 5417SOL     OW27709   3.411   1.826   1.021  0.4000  0.3420 -0.5725
 5417SOL    HW127710   3.477   1.866   0.964  2.5081  1.0074  2.3116
 5417SOL    HW227711   3.360   1.900   1.054  0.5234  0.2684 -0.2096
 5418SOL     OW27712   3.006   2.752  10.393 -0.5494 -0.4876  0.2803
 5418SOL    HW127713   3.043   2.720  10.310  0.2873  0.2492  0.3787
 5418SOL    HW227714   3.013   2.676  10.451  0.4993 -0.7968 -0.2636
 5419SOL     OW27715   3.713   0.501   7.989 -0.4590 -0.7733 -0.5662
 5419SOL    HW127716   3.621   0.502   8.018 -0.1195 -3.7675  0.6122
 5419SOL    HW227717   3.743   0.432   8.048  0.1263  0.7138  0.8740
 5420SOL     OW27718   3.300   4.508   9.866 -0.5083 -0.5347 -0.3206
 5420SOL    HW127719   3.379   4.534   9.819 -1.3603  1.2318 -0.7803
 5420SOL    HW227720   3.335   4.440   9.923 -0.5493 -0.6413 -0.4251
 5421SOL     OW27721   2.988   0.569   0.565  0.2971 -0.1015  0.8093
 5421SOL    HW127722   2.932   0.492   0.566  0.8183 -0.4521  2.2694
 5421SOL    HW227723   2.951   0.628   0.498  3.0082  0.5347 -0.1550
 5422SOL     OW27724   1.932   0.482  10.555 -0.0691  0.6634  0.0690
 5422SOL    HW127725   1.995   0.548  10.528 -0.9038  0.8729 -1.3440
 5422SOL    HW227726   1.853   0.504  10.505 -0.6587  2.0195  1.5997
 5423SOL     OW27727   2.363   2.466   8.885  0.2395  0.2226  0.0494
 5423SOL    HW127728   2.351   2.380   8.926 -1.2465  1.8230  2.9623
 5423SOL    HW227729   2.382   2.517   8.964  0.2947  0.0544  0.1458
 5424SOL     OW27730   4.661   1.109   3.019 -0.2612  0.8729  0.2522
 5424SOL    HW127731   4.619   1.114   3.105 -0.6421 -0.0533  0.1183
 5424SOL    HW227732   4.596   1.167   2.981 -1.8576 -0.4569  0.9687
 5425SOL     OW27733   2.916   4.135   9.269 -0.0746  0.3396 -0.2463
 5425SOL    HW127734   2.839   4.158   9.321  0.6546  1.7594  0.2253
 5425SOL    HW227735   2.895   4.055   9.221  0.1557  1.0599 -1.5477
 5426SOL     OW27736   4.107   0.225   2.349 -0.4737  0.0468 -0.2148
 5426SOL    HW127737   4.102   0.182   2.435  0.0834  0.6491  0.1232
 5426SOL    HW227738   4.193   0.189   2.326 -0.5193 -0.5119  0.4786
 5427SOL     OW27739   2.796   2.539   6.772 -0.0502 -0.3121  0.0766
 5427SOL    HW127740   2.857   2.559   6.844 -0.1289  0.6686 -0.1373
 5427SOL    HW227741   2.849   2.543   6.693 -0.8885 -0.1279 -0.4668
 5428SOL     OW27742   3.353   2.058   8.247  0.4149 -0.3224 -0.1354
 5428SOL    HW127743   3.377   2.146   8.218  0.6989 -1.0862 -2.2286
 5428SOL    HW227744   3.263   2.039   8.221  0.7010  0.1741 -1.5118
 5429SOL     OW27745   0.290   3.618  14.603  0.0809  0.0791 -0.3838
 5429SOL    HW127746   0.335   3.692  14.643 -0.0496 -0.9630  1.6602
 5429SOL    HW227747   0.210   3.618  14.656 -0.3710 -3.5943 -1.0928
 5430SOL     OW27748   0.972   4.245   7.265  0.3927 -0.3704 -0.6046
 5430SOL    HW127749   0.985   4.334   7.231  0.4773 -0.3788 -0.5956
 5430SOL    HW227750   0.898   4.264   7.322 -0.4397 -3.0443 -0.8334
 5431SOL     OW27751   0.709   0.185   2.135 -0.4962 -0.0697 -0.1989
 5431SOL    HW127752   0.776   0.253   2.134 -0.6598  0.0997  0.1925
 5431SOL    HW227753   0.629   0.234   2.114 -0.9778 -1.7345 -2.2737
 5432SOL     OW27754   2.456   0.500   5.336 -0.1044 -0.2343  0.4814
 5432SOL    HW127755   2.456   0.472   5.427 -1.5396  0.1766  0.6166
 5432SOL    HW227756   2.420   0.417   5.305  1.9412 -1.2490  0.8351
 5433SOL     OW27757   1.075   3.299   2.544 -0.4907  0.2389  0.1421
 5433SOL    HW127758   1.127   3.219   2.544 -1.2836 -0.2907 -2.7736
 5433SOL    HW227759   1.037   3.279   2.458  0.1217 -1.6807  0.3127
 5434SOL     OW27760   1.076   0.893  10.972  0.2136  0.1752  0.6303
 5434SOL    HW127761   1.065   0.987  10.954  0.2979 -0.0983 -0.8080
 5434SOL    HW227762   1.076   0.856  10.884  0.9764  1.3570  0.1284
 5435SOL     OW27763   0.437   1.866   6.499 -0.0850 -0.4045 -0.0104
 5435SOL    HW127764   0.508   1.890   6.439  0.3103 -0.0342  0.6033
 5435SOL    HW227765   0.367   1.901   6.444 -0.0852 -2.5590 -1.3527
 5436SOL     OW27766   1.955   1.856   4.092  0.4240 -0.0141  0.2919
 5436SOL    HW127767   1.885   1.916   4.117 -0.5110 -1.3221  0.7903
 5436SOL    HW227768   1.977   1.827   4.181  0.9807 -2.4023 -0.6241
 5437SOL     OW27769   0.701   2.516   6.715  0.3096  0.0139  0.5138
 5437SOL    HW127770   0.768   2.583   6.721  1.3370 -0.8981 -0.9237
 5437SOL    HW227771   0.658   2.547   6.636  1.0588 -1.9913 -0.6846
 5438SOL     OW27772   1.755   2.145   4.489 -0.2155  0.9080 -0.1944
 5438SOL    HW127773   1.764   2.055   4.518 -0.5834  0.9950  0.1841
 5438SOL    HW227774   1.677   2.136   4.434 -1.4116  0.2583  1.6225
 5439SOL     OW27775   0.184   3.626   5.675 -0.8574  0.0200  0.0614
 5439SOL    HW127776   0.189   3.550   5.733  3.1075 -1.2309 -1.9319
 5439SOL    HW227777   0.095   3.653   5.698 -0.3231  1.7648  0.0567
 5440SOL     OW27778   2.537   2.370  10.340  0.3559  0.1162 -0.3281
 5440SOL    HW127779   2.555   2.462  10.321 -1.3328  0.2403 -1.3164
 5440SOL    HW227780   2.594   2.360  10.416  0.9378  0.2872 -0.7379
 5441SOL     OW27781   2.089   3.610  16.321  0.0230  0.5039 -0.1954
 5441SOL    HW127782   2.130   3.656  16.395  0.8569  2.5422 -1.9479
 5441SOL    HW227783   2.122   3.665  16.251 -1.3474  0.6421 -0.7380
 5442SOL     OW27784   3.895   1.363   0.309 -0.9561 -0.3593  0.7819
 5442SOL    HW127785   3.845   1.425   0.256 -0.3163  0.0758  0.6895
 5442SOL    HW227786   3.939   1.301   0.252  1.6113  0.5395  1.8112
 5443SOL     OW27787   1.867   2.822   9.585 -0.0027 -0.1355 -0.1193
 5443SOL    HW127788   1.922   2.778   9.650  0.2522 -0.0883 -0.3028
 5443SOL    HW227789   1.827   2.894   9.635  0.5547 -0.9877  1.5505
 5444SOL     OW27790   3.773   1.109   3.182  0.7052  0.2977  0.7040
 5444SOL    HW127791   3.826   1.071   3.113  0.1940 -1.3252  1.2121
 5444SOL    HW227792   3.819   1.069   3.256 -0.4951  2.4308  2.6167
 5445SOL     OW27793   2.833   0.196   6.428 -0.1562  0.4288  0.5949
 5445SOL    HW127794   2.804   0.274   6.381  1.9875  0.9147  0.0985
 5445SOL    HW227795   2.793   0.195   6.515  0.0273  1.0644  0.6868
 5446SOL     OW27796   2.096   0.863   8.574  0.3154  0.0341  0.2209
 5446SOL    HW127797   2.120   0.780   8.616 -2.0449  0.8804  3.2937
 5446SOL    HW227798   2.014   0.881   8.620  0.7065  0.7326  0.6390
 5447SOL     OW27799   2.480   3.650   9.469 -0.3890  0.2335 -0.4532
 5447SOL    HW127800   2.434   3.715   9.415 -0.6793 -2.2269 -3.1230
 5447SOL    HW227801   2.419   3.649   9.544  0.5453  2.8577  0.3676
 5448SOL     OW27802   4.394   2.905  16.584 -0.5442 -0.4042 -0.6181
 5448SOL    HW127803   4.313   2.893  16.632 -0.5417 -0.2983 -0.5852
 5448SOL    HW227804   4.420   2.815  16.566  1.3798 -0.1612  0.8019
 5449SOL     OW27805   0.810   4.271   2.997  0.0590 -0.1927  0.5459
 5449SOL    HW127806   0.747   4.241   3.061  1.6422 -1.5363  1.4632
 5449SOL    HW227807   0.770   4.266   2.910  0.6420 -0.9680  0.3233
 5450SOL     OW27808   1.352   2.421   6.877 -0.3867  0.7072 -0.2747
 5450SOL    HW127809   1.380   2.338   6.839  2.0384  2.1329 -1.5472
 5450SOL    HW227810   1.394   2.412   6.963 -0.4960 -3.8102 -0.6938
 5451SOL     OW27811   4.676   1.367   9.229  0.1360  0.2633  0.2021
 5451SOL    HW127812   4.620   1.406   9.162 -1.0582 -0.4026  0.8112
 5451SOL    HW227813   0.003   1.308   9.177 -0.6145  0.9164 -1.3080
 5452SOL     OW27814   1.661   2.125   6.967 -1.0291 -0.1533 -0.7796
 5452SOL    HW127815   1.638   2.157   7.054  1.6459 -1.2388  0.3046
 5452SOL    HW227816   1.717   2.049   6.983 -1.3617 -0.0149  1.0570
 5453SOL     OW27817   2.111   2.029   1.306 -0.1403 -0.0962  0.2812
 5453SOL    HW127818   2.179   2.095   1.293  1.3115 -1.6542 -0.0897
 5453SOL    HW227819   2.158   1.976   1.370 -1.6493 -0.7549  0.8300
 5454SOL     OW27820   1.655   2.855   0.777 -0.4437 -0.2092 -0.3010
 5454SOL    HW127821   1.652   2.925   0.712  1.4289 -1.8142 -2.1577
 5454SOL    HW227822   1.574   2.875   0.823 -0.7866 -2.2349 -0.0018
 5455SOL     OW27823   2.840   1.697   2.311  0.1911  0.4963  0.3115
 5455SOL    HW127824   2.821   1.604   2.301 -0.3365  0.6021  0.3339
 5455SOL    HW227825   2.934   1.693   2.329  0.2231 -1.2969 -0.3050
 5456SOL     OW27826   4.322   1.213  12.802  0.4985  0.3302  0.1930
 5456SOL    HW127827   4.335   1.257  12.886  0.0193 -0.3624  0.6204
 5456SOL    HW227828   4.294   1.287  12.748 -0.4015 -2.1654 -2.7699
 5457SOL     OW27829   3.230   1.888  15.104 -0.5525  0.2641 -0.9014
 5457SOL    HW127830   3.323   1.885  15.081 -0.1378 -2.1203  1.1729
 5457SOL    HW227831   3.212   1.973  15.062 -2.5521  0.2614 -0.0518
 5458SOL     OW27832   1.811   4.613   5.916 -0.4847 -0.0312  0.2091
 5458SOL    HW127833   1.720   4.626   5.943 -0.5262 -2.9653  1.4696
 5458SOL    HW227834   1.793   4.593   5.824 -1.5346  1.1613  0.1654
 5459SOL     OW27835   2.603   4.498   6.668  0.7128 -0.5904  0.2814
 5459SOL    HW127836   2.618   4.403   6.674  1.9566 -0.2495  2.4919
 5459SOL    HW227837   2.629   4.525   6.580  0.5627 -1.6834 -0.1029
 5460SOL     OW27838   3.894   2.814   1.311 -0.3238  0.1468  0.7370
 5460SOL    HW127839   3.818   2.869   1.331 -1.2135 -1.6375  2.2023
 5460SOL    HW227840   3.920   2.791   1.400 -0.8835  1.1547  1.1627
 5461SOL     OW27841   0.319   1.319   6.811 -0.2093  0.7679  0.0189
 5461SOL    HW127842   0.405   1.319   6.854  0.3900  0.6526 -1.1639
 5461SOL    HW227843   0.346   1.331   6.719  0.5520  1.7541  0.3706
 5462SOL     OW27844   0.784   4.582   9.511 -0.1141  0.2777  0.0822
 5462SOL    HW127845   0.740   4.667   9.509  2.7821  1.7225 -3.1897
 5462SOL    HW227846   0.780   4.557   9.603 -1.3495  1.3976  0.3454
 5463SOL     OW27847   2.808   3.816  12.924 -0.0322  0.0258  0.1620
 5463SOL    HW127848   2.790   3.760  13.000  1.5797 -0.0921  0.4505
 5463SOL    HW227849   2.795   3.765  12.844 -0.9222  0.5240 -0.0081
 5464SOL     OW27850   2.910   3.849   9.185  0.3068 -0.3455 -0.1673
 5464SOL    HW127851   2.967   3.782   9.149  0.8380 -0.0839  0.1943
 5464SOL    HW227852   2.895   3.834   9.279 -1.4954 -1.4846 -0.6318
 5465SOL     OW27853   1.205   3.081   6.700  0.4726  0.0956  0.2744
 5465SOL    HW127854   1.151   3.117   6.630  1.5174  0.3666 -0.3851
 5465SOL    HW227855   1.226   2.997   6.659 -1.9724 -0.4905  0.1825
 5466SOL     OW27856   3.353   2.088  14.442 -0.3754 -0.0883 -0.2221
 5466SOL    HW127857   3.366   2.160  14.504 -0.2861  0.4626 -0.8777
 5466SOL    HW227858   3.439   2.048  14.440 -0.3969 -0.1710  0.6450
 5467SOL     OW27859   1.613   3.053   9.061  0.3689  0.8965  0.6314
 5467SOL    HW127860   1.639   3.075   9.150  2.1293  1.5696 -0.0323
 5467SOL    HW227861   1.675   2.984   9.037 -0.4319  1.2264 -2.3616
 5468SOL     OW27862   1.892   4.655   8.257 -0.5008 -0.6919 -0.3764
 5468SOL    HW127863   1.888   4.638   8.351 -0.7849 -0.2456 -0.3059
 5468SOL    HW227864   1.831   4.588   8.227 -0.5041 -0.4005 -1.0168
 5469SOL     OW27865   0.117   3.802   8.047  0.2420 -0.1968 -0.5426
 5469SOL    HW127866   0.211   3.786   8.042  0.7365  2.3726  0.7036
 5469SOL    HW227867   0.102   3.802   8.141 -0.1253  0.9856 -0.6085
 5470SOL     OW27868   3.568   1.609  16.691  0.1940  0.3151  0.1281
 5470SOL    HW127869   3.474   1.619  16.677  0.2953 -0.6114 -1.2232
 5470SOL    HW227870   3.578   1.679  16.755 -0.1317  0.5009 -0.0231
 5471SOL     OW27871   2.580   4.340   1.730  0.0117 -0.4212 -0.0750
 5471SOL    HW127872   2.537   4.411   1.683 -2.2804  0.0849  2.7511
 5471SOL    HW227873   2.501   4.287   1.743 -0.1262 -0.0366  0.6450
 5472SOL     OW27874   2.616   3.177   0.229  0.0394 -0.2897 -0.1051
 5472SOL    HW127875   2.554   3.248   0.214 -2.0444 -2.0833 -0.0604
 5472SOL    HW227876   2.637   3.142   0.142  1.6076  0.9375 -0.2203
 5473SOL     OW27877   4.551   2.055   1.152  0.5327  0.3431  0.0011
 5473SOL    HW127878   4.608   2.056   1.229  0.1401  0.3902  0.2949
 5473SOL    HW227879   4.593   2.112   1.088 -0.5370 -0.7538 -1.6624
 5474SOL     OW27880   2.064   0.252   3.582 -0.2161  0.0824 -0.9989
 5474SOL    HW127881   1.999   0.271   3.514 -0.9966 -1.9643 -0.8083
 5474SOL    HW227882   2.074   0.340   3.618  0.9989 -0.3884 -0.2093
 5475SOL     OW27883   2.368   1.837  17.146 -0.5249 -0.4172 -0.3500
 5475SOL    HW127884   2.403   1.748  17.148 -0.1921 -0.2817 -0.1757
 5475SOL    HW227885   2.384   1.869  17.234 -2.7962  1.0906 -0.4901
 5476SOL     OW27886   0.753   3.979   6.840  0.0921  0.2209 -0.6045
 5476SOL    HW127887   0.767   4.070   6.868  0.4917 -0.2497  0.7100
 5476SOL    HW227888   0.842   3.951   6.861 -0.0122  0.4754  0.1717
 5477SOL     OW27889   3.204   0.432   7.984 -0.6236  0.1935  0.3379
 5477SOL    HW127890   3.288   0.422   8.029  0.4792  1.3900 -1.4208
 5477SOL    HW227891   3.231   0.493   7.916 -0.2844 -0.9393 -0.5317
 5478SOL     OW27892   2.476   0.519  12.668  0.0233  0.0241 -0.4035
 5478SOL    HW127893   2.450   0.512  12.760  2.0146 -1.0887  0.0678
 5478SOL    HW227894   2.492   0.612  12.650  0.3447  0.3290  1.3515
 5479SOL     OW27895   3.898   1.908   2.469  0.0031  0.3015  0.4973
 5479SOL    HW127896   3.819   1.855   2.459  0.7577 -0.5598 -0.6866
 5479SOL    HW227897   3.934   1.883   2.554 -0.5951  4.2430  1.9413
 5480SOL     OW27898   2.157   2.509  17.266 -0.2333  0.4766 -0.0768
 5480SOL    HW127899   2.204   2.553  17.337 -1.6733 -1.7781  2.2893
 5480SOL    HW227900   2.204   2.550  17.194  0.7341  0.3152  0.4526
 5481SOL     OW27901   2.676   4.619   2.060  0.6819  0.0742 -0.7310
 5481SOL    HW127902   2.760   4.583   2.086  1.1778  0.6764 -1.4941
 5481SOL    HW227903   2.641   4.548   2.006  1.6732 -0.3340 -0.8280
 5482SOL     OW27904   3.290   4.615   9.482 -0.0487  0.0985 -0.2405
 5482SOL    HW127905   3.319   4.677   9.416 -0.9386  0.2826 -0.4577
 5482SOL    HW227906   3.196   4.632   9.474  0.3727  1.9616 -1.1665
 5483SOL     OW27907   2.099   1.144   5.495  0.5454 -0.6774 -0.2941
 5483SOL    HW127908   2.038   1.213   5.467 -0.3615 -0.6363  1.8035
 5483SOL    HW227909   2.183   1.184   5.473 -0.4113  1.0904 -0.7527
 5484SOL     OW27910   4.276   2.530   7.830 -0.5568 -0.0792 -0.3675
 5484SOL    HW127911   4.295   2.472   7.904  0.1705  0.9328  0.2506
 5484SOL    HW227912   4.205   2.491   7.780 -1.9320  1.4419  0.3892
 5485SOL     OW27913   0.557   2.376   4.785  0.6534 -0.5128  0.0534
 5485SOL    HW127914   0.564   2.463   4.824 -0.6410 -0.4357  0.0803
 5485SOL    HW227915   0.462   2.378   4.774  0.3259 -3.9141  2.2320
 5486SOL     OW27916   3.115   1.894   5.415  0.2138 -0.6455 -0.7274
 5486SOL    HW127917   3.201   1.861   5.387 -1.4469 -4.2275 -1.6116
 5486SOL    HW227918   3.131   1.898   5.509 -2.6944 -2.0354 -0.1850
 5487SOL     OW27919   1.473   3.080   7.155 -0.0337 -0.3640 -0.5139
 5487SOL    HW127920   1.417   3.083   7.078 -0.5788  0.8780 -0.0669
 5487SOL    HW227921   1.538   3.018   7.121 -1.6132 -2.5904  0.4978
 5488SOL     OW27922   4.241   1.387  14.899  0.0873 -0.4198 -0.5193
 5488SOL    HW127923   4.151   1.410  14.923  0.8368 -0.3787  2.1891
 5488SOL    HW227924   4.229   1.292  14.897 -0.8934 -0.3261  0.8297
 5489SOL     OW27925   2.767   1.581  15.124  0.4475  0.1926 -0.0338
 5489SOL    HW127926   2.768   1.574  15.029 -1.3525  2.1817 -0.1989
 5489SOL    HW227927   2.860   1.600  15.135 -0.1382  2.9238  0.3622
 5490SOL     OW27928   2.251   1.614  14.066  0.6020 -0.1334  0.3422
 5490SOL    HW127929   2.341   1.640  14.045  0.7443  0.1770  1.3783
 5490SOL    HW227930   2.271   1.565  14.146  0.7621 -1.3414 -0.4245
 5491SOL     OW27931   2.835   3.984   6.896 -0.3271 -0.4370  0.0344
 5491SOL    HW127932   2.889   4.051   6.939 -0.9554 -0.1020  0.3050
 5491SOL    HW227933   2.743   4.003   6.915 -0.6711  1.5012 -3.4917
 5492SOL     OW27934   2.161   4.398   2.532  0.0517  0.3732  0.8158
 5492SOL    HW127935   2.221   4.355   2.592 -1.7057 -0.0354  2.2616
 5492SOL    HW227936   2.169   4.492   2.550  0.6100  0.6139 -0.7006
 5493SOL     OW27937   1.680   4.648   1.623  0.0883 -0.3250 -0.2496
 5493SOL    HW127938   1.643   4.612   1.703 -0.7195  2.0342  0.4310
 5493SOL    HW227939   1.714   4.562   1.600  1.0266 -0.8118  3.0329
 5494SOL     OW27940   0.497   1.740   8.882  0.0408  0.4452  0.0194
 5494SOL    HW127941   0.401   1.739   8.874  0.0580  0.3565 -0.1635
 5494SOL    HW227942   0.529   1.691   8.806  0.0234  1.1285 -0.4235
 5495SOL     OW27943   3.760   0.709   0.597 -0.0645  0.1472  0.2151
 5495SOL    HW127944   3.757   0.655   0.675 -0.4180 -1.5203 -0.9531
 5495SOL    HW227945   3.668   0.738   0.601  0.1078  0.9334 -1.4228
 5496SOL     OW27946   1.632   3.058   0.601 -0.1915  0.5647 -0.4473
 5496SOL    HW127947   1.592   3.074   0.515  1.1069  3.0322 -0.5930
 5496SOL    HW227948   1.722   3.048   0.569  0.5243 -2.1833  2.4785
 5497SOL     OW27949   4.317   0.425   6.493  0.2461  0.0077  0.2014
 5497SOL    HW127950   4.356   0.424   6.581  0.1556 -1.4431  0.2224
 5497SOL    HW227951   4.265   0.505   6.490  1.1240  0.5569 -0.1248
 5498SOL     OW27952   3.902   1.864   8.549  0.2249 -0.1966  0.1522
 5498SOL    HW127953   3.978   1.804   8.551 -0.3354 -0.9435 -1.0641
 5498SOL    HW227954   3.886   1.862   8.455 -0.5855  0.6763  0.2781
 5499SOL     OW27955   0.234   3.350   4.359  0.0267  0.4781  0.2032
 5499SOL    HW127956   0.287   3.319   4.432 -1.5517  1.3918  1.7519
 5499SOL    HW227957   0.277   3.428   4.325  0.3174  0.7045  1.0882
 5500SOL     OW27958   3.494   0.454  14.999  0.1760 -0.0340  0.5490
 5500SOL    HW127959   3.517   0.412  14.916 -0.4797  1.2664 -0.2861
 5500SOL    HW227960   3.529   0.387  15.058  2.0434 -0.2620 -0.8532
 5501SOL     OW27961   3.441   1.088   1.956  0.1573 -0.3156 -0.6555
 5501SOL    HW127962   3.445   0.993   1.971  1.6904 -0.1945 -0.3370
 5501SOL    HW227963   3.490   1.100   1.874 -1.7046  0.5837 -1.6407
 5502SOL     OW27964   0.040   1.985  14.203 -0.1209  0.0786  0.0169
 5502SOL    HW127965   0.085   1.975  14.119  0.7465  0.7452  0.3901
 5502SOL    HW227966   0.109   1.972  14.268 -0.7089 -0.6620  0.4795
 5503SOL     OW27967   0.181   0.025   3.568 -0.1295  0.0832 -0.2002
 5503SOL    HW127968   0.200   0.119   3.562 -1.3423  0.3041 -0.5945
 5503SOL    HW227969   0.271   4.721   3.573 -0.8496 -1.7215  1.2446
 5504SOL     OW27970   2.927   3.270   7.868  0.5008 -0.2585  0.1519
 5504SOL    HW127971   2.843   3.230   7.890  0.2929  0.3362  0.4336
 5504SOL    HW227972   2.965   3.197   7.819 -1.2385 -0.7995 -0.3691
 5505SOL     OW27973   2.217   1.840   4.055 -0.0786 -0.8022 -0.2052
 5505SOL    HW127974   2.122   1.849   4.055 -0.2290 -2.3846 -0.5859
 5505SOL    HW227975   2.245   1.916   4.005  1.3629 -0.0778  1.7344
 5506SOL     OW27976   4.277   4.288   3.543 -0.1146  0.9007  0.0084
 5506SOL    HW127977   4.204   4.283   3.481 -0.7223 -0.0982  0.8108
 5506SOL    HW227978   4.333   4.222   3.502 -3.0447 -1.7011  0.1949
 5507SOL     OW27979   1.311   4.067  17.211  0.5440 -0.2988  0.2648
 5507SOL    HW127980   1.313   4.026  17.125 -1.3289  0.7996 -0.2789
 5507SOL    HW227981   1.241   4.132  17.216 -0.7395 -1.6707 -0.2038
 5508SOL     OW27982   0.855   1.718   6.310 -0.4775 -0.1232  0.3158
 5508SOL    HW127983   0.895   1.772   6.242 -0.2791 -0.0846  0.4620
 5508SOL    HW227984   0.905   1.637   6.299 -2.4808 -1.6003  2.0852
 5509SOL     OW27985   4.508   4.021  14.043 -0.0218  0.1831  0.6393
 5509SOL    HW127986   4.477   4.016  14.133  1.9003 -1.6746  1.2059
 5509SOL    HW227987   4.593   4.064  14.052  0.1202  0.4751 -1.8487
 5510SOL     OW27988   2.877   3.061  10.763 -0.1885 -0.2334  0.1929
 5510SOL    HW127989   2.791   3.102  10.754 -0.0851 -0.1060 -0.2476
 5510SOL    HW227990   2.856   2.981  10.716  1.9962 -0.6880 -0.0270
 5511SOL     OW27991   2.533   4.385   9.222 -1.0517 -0.0774  0.4123
 5511SOL    HW127992   2.587   4.340   9.286  1.1055 -0.4527 -1.6794
 5511SOL    HW227993   2.590   4.370   9.146  0.6537  0.8863  1.5093
 5512SOL     OW27994   4.495   2.766   6.751  0.3259 -0.2867 -0.5236
 5512SOL    HW127995   4.591   2.770   6.751  0.2745  1.8492  3.9119
 5512SOL    HW227996   4.486   2.748   6.658  2.6937 -1.4120 -0.5542
 5513SOL     OW27997   4.120   4.350  11.893 -0.4787 -0.5608  0.5028
 5513SOL    HW127998   4.192   4.298  11.928 -1.3669 -0.8726  1.8955
 5513SOL    HW227999   4.149   4.430  11.937 -2.4803 -0.0064  0.8142
 5514SOL     OW28000   0.355   3.981   2.296  0.3581  0.0396 -0.0363
 5514SOL    HW128001   0.344   4.043   2.367 -1.5806 -1.4533  0.9705
 5514SOL    HW228002   0.277   3.927   2.309 -0.0503  0.2416 -1.5545
 5515SOL     OW28003   3.779   1.484   6.487 -0.4083 -0.0500 -0.2230
 5515SOL    HW128004   3.705   1.453   6.435 -0.5513  1.5334 -0.9738
 5515SOL    HW228005   3.771   1.579   6.476 -1.9832 -0.1883 -0.2687
 5516SOL     OW28006   3.798   3.243   3.421 -0.1139 -0.3864  0.1721
 5516SOL    HW128007   3.877   3.227   3.369 -1.6378  0.5131 -2.4462
 5516SOL    HW228008   3.822   3.202   3.504  1.3275 -0.5367 -0.3245
 5517SOL     OW28009   0.347   0.431   0.498 -0.2259 -0.7513 -0.0275
 5517SOL    HW128010   0.383   0.415   0.411  2.3024 -1.1710  1.0988
 5517SOL    HW228011   0.411   0.490   0.536 -0.5027 -0.6637  0.3082
 5518SOL     OW28012   4.297   1.781   6.007  0.5738 -0.1627  0.5890
 5518SOL    HW128013   4.237   1.730   6.061 -0.4732 -0.1429 -0.5678
 5518SOL    HW228014   4.291   1.730   5.926  0.8681 -0.1623  0.5648
 5519SOL     OW28015   1.826   3.391   7.414  0.3777  0.1775 -0.4692
 5519SOL    HW128016   1.788   3.306   7.435  0.6732  0.5824  1.7633
 5519SOL    HW228017   1.892   3.370   7.348 -1.5174  1.8226 -2.8918
 5520SOL     OW28018   2.543   4.012   7.420 -0.1053  0.1558  0.2699
 5520SOL    HW128019   2.453   4.039   7.440  0.0043 -0.2749  1.3342
 5520SOL    HW228020   2.568   3.982   7.507 -0.5529 -1.9688 -0.3355
 5521SOL     OW28021   3.105   2.692  10.157 -0.5816  0.0228 -0.1158
 5521SOL    HW128022   3.179   2.630  10.161  0.4536  1.3315  0.9109
 5521SOL    HW228023   3.059   2.663  10.078  1.8006  0.1451 -1.5636
 5522SOL     OW28024   0.279   2.523   8.549 -0.7764  0.0989 -0.7026
 5522SOL    HW128025   0.261   2.552   8.638 -0.2707 -0.8922 -0.2755
 5522SOL    HW228026   0.369   2.491   8.550 -0.9187 -0.1472  3.3638
 5523SOL     OW28027   3.457   1.382   5.352 -0.5531 -0.0175 -0.0075
 5523SOL    HW128028   3.536   1.377   5.299 -0.2665  1.3959  0.2667
 5523SOL    HW228029   3.421   1.296   5.334 -0.3275  0.3983 -2.4267
 5524SOL     OW28030   2.936   1.041   9.368 -0.0601  0.4135 -0.3261
 5524SOL    HW128031   2.883   1.110   9.407 -0.0847 -0.6231  1.5086
 5524SOL    HW228032   2.922   0.965   9.425  0.1903  0.5183 -0.1262
 5525SOL     OW28033   1.729   4.244   7.568 -0.1359 -0.1547 -0.0658
 5525SOL    HW128034   1.643   4.211   7.593 -0.5462  0.1702 -1.0709
 5525SOL    HW228035   1.703   4.298   7.494 -0.2971 -1.3163 -0.8561
 5526SOL     OW28036   1.079   1.587  14.999  0.0704  0.2603 -0.4614
 5526SOL    HW128037   1.087   1.568  15.092 -0.6811  0.0721 -0.4287
 5526SOL    HW228038   1.138   1.519  14.967 -0.2417 -0.1757 -0.1123
 5527SOL     OW28039   3.523   3.065   6.958 -0.5839 -0.4232  0.3825
 5527SOL    HW128040   3.480   2.987   6.993 -1.3270  1.0449  2.7267
 5527SOL    HW228041   3.456   3.130   6.979  1.0945  1.3530  0.1647
 5528SOL     OW28042   2.210   0.697  17.078 -0.3524  0.3952 -0.2797
 5528SOL    HW128043   2.276   0.640  17.118 -0.0314  1.5613  0.8324
 5528SOL    HW228044   2.131   0.680  17.129  0.4542 -0.9120  0.5385
 5529SOL     OW28045   0.159   4.696   4.395 -0.0156 -0.4294  0.4008
 5529SOL    HW128046   0.138   0.018   4.474 -2.0361 -2.7088  1.2481
 5529SOL    HW228047   0.252   4.675   4.410  0.1898  1.6672  1.9860
 5530SOL     OW28048   1.367   2.903   4.669  0.7275  0.4699 -0.7339
 5530SOL    HW128049   1.460   2.886   4.655  0.8445 -1.3285  2.4530
 5530SOL    HW228050   1.373   2.997   4.686 -0.3830  0.3454  0.3094
 5531SOL     OW28051   0.990   4.557  15.344 -0.3657 -0.4474  0.5442
 5531SOL    HW128052   1.068   4.510  15.373  1.3463  1.5728 -0.8093
 5531SOL    HW228053   0.928   4.493  15.378  2.7793 -2.3744  2.6439
 5532SOL     OW28054   1.337   2.730   8.451  0.0055  0.2895 -0.8461
 5532SOL    HW128055   1.325   2.782   8.531  2.3289  0.0716 -0.3559
 5532SOL    HW228056   1.344   2.641   8.486  1.9951  1.1727  1.0401
 5533SOL     OW28057   2.883   1.723   6.099 -0.1297  0.1181 -0.1774
 5533SOL    HW128058   2.812   1.683   6.148 -0.9195  2.3537  0.4998
 5533SOL    HW228059   2.839   1.709   6.016 -1.1995  1.5356  0.1489
 5534SOL     OW28060   0.592   4.254   1.946  0.2542  0.0950 -0.3851
 5534SOL    HW128061   0.589   4.292   2.034  1.1328 -1.0039  0.1144
 5534SOL    HW228062   0.687   4.245   1.939  0.2900  1.2683 -1.5342
 5535SOL     OW28063   1.162   2.566   7.806 -0.3024 -0.0855 -0.2060
 5535SOL    HW128064   1.209   2.576   7.889 -2.4146 -2.3994  1.2872
 5535SOL    HW228065   1.142   2.654   7.774 -0.3516  0.0063  0.0769
 5536SOL     OW28066   1.586   3.638   8.443  0.3429 -0.5831  0.7443
 5536SOL    HW128067   1.616   3.669   8.357 -0.8888  0.4376  0.6719
 5536SOL    HW228068   1.577   3.727   8.478  1.2662 -1.0902  2.2267
 5537SOL     OW28069   4.600   3.476   2.061 -0.3713 -0.3980  0.2959
 5537SOL    HW128070   4.642   3.418   1.998  2.4343  0.2834  1.5300
 5537SOL    HW228071   4.661   3.549   2.045 -0.7457 -0.1743 -0.0964
 5538SOL     OW28072   0.905   4.208   4.730 -0.2809  0.1263  0.1869
 5538SOL    HW128073   0.959   4.224   4.808  0.2983 -0.2544 -0.1316
 5538SOL    HW228074   0.918   4.283   4.672  0.6705 -0.7002 -0.6690
 5539SOL     OW28075   1.143   2.888   0.737  0.0604 -0.2346 -0.1945
 5539SOL    HW128076   1.162   2.804   0.778  0.0531  0.0294  0.3513
 5539SOL    HW228077   1.202   2.893   0.661 -1.1820  0.8191 -1.0877
 5540SOL     OW28078   0.177   2.894   6.415  0.0167  0.0809 -0.3464
 5540SOL    HW128079   0.199   2.813   6.369  0.5557 -0.9270  1.7033
 5540SOL    HW228080   0.229   2.887   6.495  0.0820  0.0359 -0.3927
 5541SOL     OW28081   2.702   4.131   5.719 -0.2185  0.0040 -0.1217
 5541SOL    HW128082   2.716   4.066   5.788 -2.3214  1.0377  1.2619
 5541SOL    HW228083   2.607   4.124   5.713 -0.3274  0.0611  1.6635
 5542SOL     OW28084   3.798   3.060   4.425 -0.5017  0.5265 -0.1519
 5542SOL    HW128085   3.713   3.017   4.416  0.2089 -1.3960  2.4499
 5542SOL    HW228086   3.771   3.152   4.430 -1.2633  0.2616  0.5722
 5543SOL     OW28087   0.935   3.264   3.228 -0.1837  0.4920  0.4382
 5543SOL    HW128088   0.986   3.205   3.172 -1.0636  2.0647 -2.0584
 5543SOL    HW228089   0.923   3.335   3.165  0.5093  1.7263  1.6972
 5544SOL     OW28090   4.417   1.264   5.391 -0.1973  0.0079 -0.0097
 5544SOL    HW128091   4.397   1.172   5.408  0.6552 -0.1178  0.3295
 5544SOL    HW228092   4.329   1.297   5.410 -0.8136 -2.1305  0.7795
 5545SOL     OW28093   3.375   2.040  12.419 -0.3000 -0.3094 -0.3719
 5545SOL    HW128094   3.376   2.125  12.374 -3.1075 -0.4530 -0.6820
 5545SOL    HW228095   3.431   1.990  12.358 -0.6251  1.7451 -2.3608
 5546SOL     OW28096   3.284   0.988  17.298  0.2447 -0.1472  0.3138
 5546SOL    HW128097   3.339   1.055  17.339 -0.3086 -0.1694  1.0993
 5546SOL    HW228098   3.332   0.968  17.218  2.1134 -1.4602  1.7789
 5547SOL     OW28099   2.897   1.964   8.502  0.2201 -0.2931 -0.2285
 5547SOL    HW128100   2.853   1.968   8.587  1.8320 -0.5953  0.6336
 5547SOL    HW228101   2.941   1.879   8.512  2.0422  0.4742 -1.8078
 5548SOL     OW28102   3.946   0.602   7.417  0.1772  0.2666 -0.2737
 5548SOL    HW128103   3.974   0.589   7.326  2.1696  1.3058  0.1806
 5548SOL    HW228104   3.872   0.542   7.419 -0.8567  1.5423 -0.6186
 5549SOL     OW28105   3.222   0.093   6.895 -0.3189  0.0846  0.4970
 5549SOL    HW128106   3.188   0.154   6.830  1.1485 -0.3965 -0.7167
 5549SOL    HW228107   3.230   0.021   6.833  0.0815 -0.9123  1.7064
 5550SOL     OW28108   3.033   3.682   9.709 -0.0298  0.7763  0.2274
 5550SOL    HW128109   3.062   3.772   9.696 -1.4722  1.4163  1.2850
 5550SOL    HW228110   2.939   3.704   9.708 -0.0338  0.7702  0.5934
 5551SOL     OW28111   2.394   0.200   8.742  0.0443 -0.3293  0.1955
 5551SOL    HW128112   2.321   0.242   8.697 -0.6412 -2.0947 -0.3193
 5551SOL    HW228113   2.447   0.274   8.772  0.5713 -0.8435  0.5449
 5552SOL     OW28114   1.178   1.551   4.541 -0.2315  0.0618 -0.1160
 5552SOL    HW128115   1.267   1.527   4.517  0.3979 -0.0766  2.3232
 5552SOL    HW228116   1.133   1.469   4.526 -1.9311  0.9714 -0.0001
 5553SOL     OW28117   2.346   1.514  14.293 -0.5603 -1.0180 -0.0415
 5553SOL    HW128118   2.406   1.440  14.281 -0.4441 -0.9930  0.3769
 5553SOL    HW228119   2.321   1.502  14.385  0.9366 -1.0451  0.3652
 5554SOL     OW28120   3.681   2.579   1.389  0.1340 -0.7397 -0.3398
 5554SOL    HW128121   3.619   2.516   1.351 -1.2682  0.5695 -0.2483
 5554SOL    HW228122   3.683   2.638   1.314 -0.3171  0.3010  0.4722
 5555SOL     OW28123   3.206   2.624   8.350  0.0438  0.1453  0.2410
 5555SOL    HW128124   3.233   2.533   8.342 -3.0676 -0.7149 -0.5317
 5555SOL    HW228125   3.121   2.629   8.307  0.9128 -3.1558 -1.8601
 5556SOL     OW28126   2.857   0.746   6.949  0.4581  0.1091  0.8105
 5556SOL    HW128127   2.785   0.787   6.997  0.8158  1.7057 -0.0140
 5556SOL    HW228128   2.893   0.823   6.906 -0.8621  0.1659 -0.1853
 5557SOL     OW28129   4.156   1.277   0.670 -0.0463 -0.8706 -0.7615
 5557SOL    HW128130   4.178   1.250   0.759  0.9859  1.4668 -0.2984
 5557SOL    HW228131   4.223   1.229   0.622  0.3979 -1.5718  0.5564
 5558SOL     OW28132   1.532   3.403   1.375 -0.0832 -0.1212 -0.0788
 5558SOL    HW128133   1.592   3.343   1.331 -0.7077 -1.6447  1.1482
 5558SOL    HW228134   1.544   3.489   1.334  0.7068 -0.5226 -0.6967
 5559SOL     OW28135   0.143   0.415   6.575 -0.2182 -0.0219  0.7942
 5559SOL    HW128136   0.094   0.464   6.510 -1.6384 -2.7758 -0.2010
 5559SOL    HW228137   0.177   0.343   6.521 -1.9132  0.9446 -1.5081
 5560SOL     OW28138   1.186   4.211  16.889  0.0354 -0.4450 -0.3004
 5560SOL    HW128139   1.098   4.234  16.859 -0.7126 -3.3831 -0.3772
 5560SOL    HW228140   1.168   4.190  16.981  1.2225 -0.5719 -0.1066
 5561SOL     OW28141   2.288   2.299  10.143 -0.1817  0.0442 -0.4444
 5561SOL    HW128142   2.377   2.326  10.120  0.0176  1.3560  1.8834
 5561SOL    HW228143   2.266   2.385  10.178  0.9178  1.0900 -2.3029
 5562SOL     OW28144   1.265   3.206   8.769  0.2983 -0.3850  0.3107
 5562SOL    HW128145   1.190   3.202   8.829 -1.3423 -0.4256 -1.7419
 5562SOL    HW228146   1.242   3.281   8.714 -1.8426 -0.5931  0.9227
 5563SOL     OW28147   1.155   3.917   1.937  0.2271  0.2276 -0.6168
 5563SOL    HW128148   1.136   3.994   1.884  1.7624  0.3568 -0.9821
 5563SOL    HW228149   1.167   3.843   1.878 -1.2951 -0.2618 -0.3095
 5564SOL     OW28150   4.603   3.145   4.256 -0.9940  0.1261  0.1154
 5564SOL    HW128151   4.529   3.142   4.195 -1.8679  1.3863  1.1307
 5564SOL    HW228152   4.671   3.196   4.212 -0.7631 -1.2301 -1.1056
 5565SOL     OW28153   0.451   1.842   0.753 -0.7856 -0.0121 -0.3540
 5565SOL    HW128154   0.533   1.891   0.753 -2.3754  2.6786  0.5820
 5565SOL    HW228155   0.464   1.788   0.675 -1.9877  1.5767 -1.6449
 5566SOL     OW28156   0.855   0.369   5.879  0.3305 -0.4961  0.1700
 5566SOL    HW128157   0.774   0.396   5.835  0.6180  0.9512  0.5203
 5566SOL    HW228158   0.928   0.415   5.838  1.5291  0.4956  3.4068
 5567SOL     OW28159   3.536   3.211  15.879  0.2067  0.3033 -0.3614
 5567SOL    HW128160   3.543   3.301  15.847 -0.5657  0.5118  0.0644
 5567SOL    HW228161   3.442   3.216  15.894  0.0415  0.4168 -1.4485
 5568SOL     OW28162   3.396   0.471   6.655 -0.0097  0.3031 -0.3919
 5568SOL    HW128163   3.401   0.379   6.681  0.2452  1.1300  2.4397
 5568SOL    HW228164   3.323   0.474   6.593  0.7223  0.4238 -1.2548
 5569SOL     OW28165   0.533   0.771  17.249  0.3028  0.3681 -0.2020
 5569SOL    HW128166   0.475   0.737  17.318  2.6695 -0.3277  1.4775
 5569SOL    HW228167   0.608   0.784  17.308  1.8776 -0.5448 -1.9963
 5570SOL     OW28168   2.801   0.725   5.641 -0.3630 -0.0997 -0.3499
 5570SOL    HW128169   2.728   0.672   5.611 -0.5266 -0.3326  0.4631
 5570SOL    HW228170   2.799   0.794   5.575 -2.1024  0.6083  0.4469
 5571SOL     OW28171   2.973   3.237   4.396  0.0116  0.0994  0.4823
 5571SOL    HW128172   2.882   3.265   4.403 -0.1953 -0.1972 -0.9744
 5571SOL    HW228173   2.986   3.168   4.461  0.1288 -0.5472 -0.2304
 5572SOL     OW28174   2.391   1.429   5.664 -0.5923  0.3313 -0.1765
 5572SOL    HW128175   2.438   1.493   5.611  1.0997  0.4957  1.5141
 5572SOL    HW228176   2.360   1.493   5.729 -0.2825 -0.0428  0.3391
 5573SOL     OW28177   2.630   4.606  12.686 -0.2108  0.5509 -0.3113
 5573SOL    HW128178   2.662   4.683  12.639 -0.8239  1.0625  0.1132
 5573SOL    HW228179   2.540   4.613  12.656  0.3688  1.7157 -1.7724
 5574SOL     OW28180   4.721   1.240   4.315  0.3944 -0.8087 -0.3576
 5574SOL    HW128181   0.001   1.262   4.222 -0.3048 -1.3335 -0.5333
 5574SOL    HW228182   0.082   1.265   4.345 -0.6575 -0.5133  2.5450
 5575SOL     OW28183   0.175   1.731  12.382 -0.3480 -0.2193  0.4322
 5575SOL    HW128184   0.138   1.651  12.343 -0.8969 -0.4314  1.3931
 5575SOL    HW228185   0.108   1.756  12.445 -0.7332 -2.0874  0.7660
 5576SOL     OW28186   0.265   2.002   1.836  0.3395 -0.0888 -0.2516
 5576SOL    HW128187   0.281   1.943   1.910 -1.1742  0.5863  0.6158
 5576SOL    HW228188   0.267   2.086   1.882 -0.8940 -0.4294  0.4149
 5577SOL     OW28189   1.301   2.708   9.939 -0.4492  0.0579  0.3428
 5577SOL    HW128190   1.348   2.627   9.958 -1.7165 -0.4718  1.1569
 5577SOL    HW228191   1.314   2.758  10.019 -1.5169 -2.2570  1.9724
 5578SOL     OW28192   0.616   1.390   8.331 -0.7680  0.1687  0.1543
 5578SOL    HW128193   0.597   1.351   8.416 -1.3352  2.2478  0.9893
 5578SOL    HW228194   0.670   1.321   8.293  0.7864  1.2893  0.3450
 5579SOL     OW28195   1.919   3.156  11.352  0.3204  0.3319  0.0904
 5579SOL    HW128196   2.013   3.173  11.352  0.2751  0.5790  0.2180
 5579SOL    HW228197   1.915   3.062  11.368 -1.4919  0.3946 -0.0341
 5580SOL     OW28198   1.989   1.008   3.998  0.1665 -0.4158  0.2252
 5580SOL    HW128199   1.952   0.930   3.957 -0.6354  0.7706 -1.2825
 5580SOL    HW228200   1.926   1.037   4.064 -1.4381  1.4191 -2.0958
 5581SOL     OW28201   1.880   4.208  10.873 -0.5245 -0.2894  0.1403
 5581SOL    HW128202   1.832   4.128  10.895  2.2073 -2.1920 -0.7132
 5581SOL    HW228203   1.810   4.271  10.889 -2.1160 -1.4384 -2.2167
 5582SOL     OW28204   0.939   1.444   1.310  0.0316  0.4179 -0.2722
 5582SOL    HW128205   0.886   1.490   1.375  0.2747  1.9087 -1.1234
 5582SOL    HW228206   0.872   1.397   1.262  1.1645  0.8113 -2.2397
 5583SOL     OW28207   2.618   4.174  14.976 -0.2897  0.3057  0.3278
 5583SOL    HW128208   2.636   4.266  14.993 -1.0308  0.6076 -0.5172
 5583SOL    HW228209   2.677   4.146  14.905 -1.6336  0.9681 -1.0575
 5584SOL     OW28210   2.411   0.833   3.077  0.0659 -0.4346 -0.0892
 5584SOL    HW128211   2.484   0.843   3.138  1.2040 -1.8941 -1.2493
 5584SOL    HW228212   2.340   0.853   3.139 -0.0795  1.3521 -0.8250
 5585SOL     OW28213   4.250   3.235  16.769  0.1330 -0.0649  0.1382
 5585SOL    HW128214   4.314   3.241  16.698  1.4058 -0.7527  1.2194
 5585SOL    HW228215   4.306   3.190  16.833 -1.9221 -2.5175  0.1975
 5586SOL     OW28216   0.189   1.335   0.758  0.0604  0.4623  0.4949
 5586SOL    HW128217   0.126   1.373   0.819 -0.0198 -0.5815  1.0598
 5586SOL    HW228218   0.158   1.245   0.765  0.3616  0.0992 -2.6845
 5587SOL     OW28219   2.413   2.382   2.186 -0.1750 -0.0722 -0.5306
 5587SOL    HW128220   2.453   2.317   2.129  3.5967 -1.1799  3.3673
 5587SOL    HW228221   2.494   2.433   2.195  0.3266 -0.5727 -2.2096
 5588SOL     OW28222   2.338   4.102  15.132  0.3700  0.5596 -0.0460
 5588SOL    HW128223   2.396   4.027  15.126  1.9320  1.9875 -2.8714
 5588SOL    HW228224   2.277   4.083  15.204  0.3784  2.4539  0.4710
 5589SOL     OW28225   1.205   0.640   4.647 -0.1468  0.5302 -0.0557
 5589SOL    HW128226   1.274   0.694   4.686 -0.4521  0.2250  0.9029
 5589SOL    HW228227   1.130   0.662   4.701 -0.9855 -1.0237 -0.5788
 5590SOL     OW28228   1.619   3.401  11.574 -0.3210  0.0565 -0.0832
 5590SOL    HW128229   1.662   3.397  11.659 -2.4317  0.6432  1.0036
 5590SOL    HW228230   1.639   3.318  11.532  0.3975  0.3692 -0.3665
 5591SOL     OW28231   3.759   0.420   1.120  0.3513  0.4933  0.0462
 5591SOL    HW128232   3.685   0.385   1.070  0.8690  0.4713 -0.7249
 5591SOL    HW228233   3.766   0.512   1.097  1.9416  0.2364 -0.5668
 5592SOL     OW28234   2.921   3.017   2.842  0.4158  0.5685 -0.1800
 5592SOL    HW128235   2.926   2.954   2.770 -2.7252  1.4718 -1.2051
 5592SOL    HW228236   2.849   3.073   2.813 -0.7750 -0.5755  0.5531
 5593SOL     OW28237   3.338   3.847   8.731 -0.5552  0.1180  0.5419
 5593SOL    HW128238   3.428   3.819   8.716  0.0559  2.2195  0.2415
 5593SOL    HW228239   3.284   3.778   8.693  0.2038  0.7211 -1.6432
 5594SOL     OW28240   2.972   3.053   4.614  0.3305  0.6555  0.1401
 5594SOL    HW128241   2.952   3.028   4.704  1.1199 -2.1397 -0.4475
 5594SOL    HW228242   3.015   2.976   4.577 -1.6958 -0.0811 -0.6694
 5595SOL     OW28243   2.527   3.511   0.746 -0.1154  0.2031  0.2089
 5595SOL    HW128244   2.534   3.439   0.808  1.8220  0.7377  0.5916
 5595SOL    HW228245   2.521   3.450   0.673  0.9502  1.0936 -0.6151
 5596SOL     OW28246   1.803   4.154  14.698 -0.4900 -0.4972  0.4663
 5596SOL    HW128247   1.877   4.104  14.665  0.1472  2.3887 -2.4570
 5596SOL    HW228248   1.807   4.124  14.789  2.0006  0.7818  0.7923
 5597SOL     OW28249   3.182   4.214   9.005  0.4517 -0.3748 -0.5452
 5597SOL    HW128250   3.244   4.188   8.938 -1.3864  1.0846 -2.7956
 5597SOL    HW228251   3.105   4.238   8.953 -0.9969 -0.3288  1.6105
 5598SOL     OW28252   2.239   4.463   7.270  0.1390 -0.7998 -0.4763
 5598SOL    HW128253   2.298   4.417   7.211  0.0249 -0.7899 -0.5973
 5598SOL    HW228254   2.288   4.487   7.349  0.0428  2.1295 -1.3189
 5599SOL     OW28255   0.341   4.169   7.155  0.0213 -0.0859 -0.3044
 5599SOL    HW128256   0.248   4.189   7.145  0.2675  0.7815 -0.8881
 5599SOL    HW228257   0.373   4.223   7.083 -0.5577 -1.3831 -1.5145
 5600SOL     OW28258   3.530   4.452  13.727 -0.5599 -0.6718 -0.4751
 5600SOL    HW128259   3.591   4.379  13.718  1.2100  0.7562  0.0136
 5600SOL    HW228260   3.452   4.402  13.703 -1.6189 -0.4773  2.4695
 5601SOL     OW28261   2.357   3.041  10.452  0.4337  0.3679  0.6198
 5601SOL    HW128262   2.397   3.104  10.512 -0.6353  1.7347 -0.0999
 5601SOL    HW228263   2.262   3.050  10.462  0.3229 -0.4443  0.3752
 5602SOL     OW28264   2.495   3.104   8.588  0.5159  0.1887 -0.1447
 5602SOL    HW128265   2.443   3.034   8.628 -0.5667  1.8844  1.4465
 5602SOL    HW228266   2.496   3.169   8.659 -0.5075  0.9669 -0.8374
 5603SOL     OW28267   0.865   2.072   4.217 -0.0104 -0.9279 -0.0224
 5603SOL    HW128268   0.887   1.979   4.226  1.0043 -0.5949  0.8150
 5603SOL    HW228269   0.931   2.110   4.274  0.3851  1.8716 -2.3347
 5604SOL     OW28270   1.298   1.201  16.248  0.0524  0.0599  0.4986
 5604SOL    HW128271   1.314   1.140  16.320 -0.3659  0.3680  0.8595
 5604SOL    HW228272   1.214   1.238  16.276  1.8147  3.1431  1.7701
 5605SOL     OW28273   0.309   4.023   8.205 -0.0148  0.4352  0.1773
 5605SOL    HW128274   0.312   4.006   8.111  0.4025 -2.9778  0.8085
 5605SOL    HW228275   0.245   4.093   8.219  1.0119  1.6237 -1.1823
 5606SOL     OW28276   4.005   2.053   7.084 -0.0822  0.0642  0.3630
 5606SOL    HW128277   3.958   1.998   7.021  0.1496  0.5457 -0.2338
 5606SOL    HW228278   4.093   2.026   7.058 -0.8281 -0.7795 -1.2842
 5607SOL     OW28279   0.437   3.150   4.505 -0.3172  0.3082  0.0453
 5607SOL    HW128280   0.438   3.135   4.600 -2.2213  0.1719  0.0424
 5607SOL    HW228281   0.347   3.129   4.479  0.7062 -2.0163 -1.6150
 5608SOL     OW28282   3.016   1.648   9.339  0.4729 -0.4157  0.0804
 5608SOL    HW128283   3.092   1.613   9.385  0.7479  0.2929  0.1546
 5608SOL    HW228284   3.070   1.678   9.266 -0.1203  0.5610  0.0425
 5609SOL     OW28285   1.457   3.976   8.962  0.2697 -0.2757  0.0418
 5609SOL    HW128286   1.524   3.998   9.027 -2.6975 -0.0606  3.0148
 5609SOL    HW228287   1.378   3.994   9.013 -1.1449 -0.4226 -2.1208
 5610SOL     OW28288   1.531   0.089   2.959  0.5323 -0.5551  0.1265
 5610SOL    HW128289   1.457   0.073   2.901  0.1844  1.8447 -0.1136
 5610SOL    HW228290   1.486   0.119   3.038 -1.7085 -0.2284 -1.2892
 5611SOL     OW28291   4.288   1.295  16.994  0.1255  0.1454  0.2591
 5611SOL    HW128292   4.279   1.343  16.912 -0.9604  0.3888  0.5117
 5611SOL    HW228293   4.213   1.327  17.045  0.1515  2.9317 -1.4440
 5612SOL     OW28294   0.801   2.129   6.393 -0.7542 -0.0350  0.0602
 5612SOL    HW128295   0.866   2.146   6.462  2.0755 -0.2255 -2.5866
 5612SOL    HW228296   0.841   2.153   6.310  0.4091  0.2056  0.6831
 5613SOL     OW28297   0.416   0.075   7.682  0.0676  0.6776  0.3205
 5613SOL    HW128298   0.347   0.069   7.616  0.6596 -2.0157 -0.0562
 5613SOL    HW228299   0.365   0.087   7.762 -0.5603  0.6758 -0.0804
 5614SOL     OW28300   1.663   4.023   9.145  0.1172  0.3236 -0.2025
 5614SOL    HW128301   1.743   3.986   9.183 -0.5864  0.1728  1.1098
 5614SOL    HW228302   1.603   4.015   9.219 -0.8008  0.4402 -0.9361
 5615SOL     OW28303   1.049   2.169   5.556  0.5536 -0.1873  0.1107
 5615SOL    HW128304   1.084   2.211   5.634 -1.2161 -2.9328  2.3750
 5615SOL    HW228305   1.042   2.243   5.495 -0.5860  0.5552  1.1202
 5616SOL     OW28306   4.100   1.673   8.619  0.1067 -0.1635  0.1376
 5616SOL    HW128307   4.187   1.703   8.646  0.9617 -0.8484 -1.8133
 5616SOL    HW228308   4.112   1.578   8.615  1.6100  0.0738 -1.4578
 5617SOL     OW28309   1.399   1.572   8.621  0.7717  0.4670 -0.9209
 5617SOL    HW128310   1.446   1.577   8.538  0.9802 -1.6420 -0.9278
 5617SOL    HW228311   1.311   1.545   8.595  1.0606 -1.1568 -0.2053
 5618SOL     OW28312   3.270   0.486   5.322 -0.5118  0.2063 -0.4404
 5618SOL    HW128313   3.314   0.426   5.262 -0.4836 -1.6551  1.4221
 5618SOL    HW228314   3.182   0.449   5.324 -0.5684  0.3412 -0.4342
 5619SOL     OW28315   4.295   4.261  15.014  0.9092 -0.0623  0.6006
 5619SOL    HW128316   4.279   4.321  15.087 -1.7678  0.2867 -0.2989
 5619SOL    HW228317   4.265   4.309  14.937  1.7562  0.1717  0.4180
 5620SOL     OW28318   4.331   2.613   2.072 -0.0088  0.1935  0.0052
 5620SOL    HW128319   4.351   2.522   2.097 -1.7240 -0.6010 -1.4583
 5620SOL    HW228320   4.316   2.652   2.158 -5.3855 -0.3278 -0.7097
 5621SOL     OW28321   1.467   2.195   6.771 -0.3452  0.4648 -0.2882
 5621SOL    HW128322   1.522   2.198   6.693  1.0598 -1.0060  0.6454
 5621SOL    HW228323   1.539   2.183   6.833 -2.0334 -0.9955  1.4143
 5622SOL     OW28324   4.211   3.792   4.330  0.2208 -0.0816 -0.3776
 5622SOL    HW128325   4.228   3.852   4.402 -1.1210 -0.8852  0.5930
 5622SOL    HW228326   4.117   3.788   4.345  0.2000  0.0707 -0.4650
 5623SOL     OW28327   2.145   3.860  12.549 -0.1364  0.0763  0.0237
 5623SOL    HW128328   2.095   3.895  12.622 -0.1987  0.4560 -0.2027
 5623SOL    HW228329   2.232   3.852  12.588 -0.4743  1.9698  1.1268
 5624SOL     OW28330   1.273   3.149  16.840 -0.6585 -0.3178 -0.0522
 5624SOL    HW128331   1.257   3.057  16.818 -1.5862  0.1882 -1.4839
 5624SOL    HW228332   1.332   3.132  16.914  0.0706  0.8978 -0.3625
 5625SOL     OW28333   1.774   3.833   1.941  0.5880 -0.7996  0.6388
 5625SOL    HW128334   1.807   3.879   1.864 -1.0916  0.4163  0.6541
 5625SOL    HW228335   1.816   3.895   2.001  0.8076 -0.2715 -0.0616
 5626SOL     OW28336   0.916   0.176   9.028 -0.4442  0.3526  0.2380
 5626SOL    HW128337   0.906   0.232   9.105 -1.4050  0.5699 -0.0512
 5626SOL    HW228338   1.011   0.167   9.026 -0.5562 -1.0352  0.5397
 5627SOL     OW28339   2.315   3.437   8.204  0.2234  0.1609 -1.2308
 5627SOL    HW128340   2.258   3.490   8.259  0.5679  0.2129 -0.9211
 5627SOL    HW228341   2.326   3.351   8.246 -0.4561  0.6232 -0.1348
 5628SOL     OW28342   0.901   1.682   3.283  0.5806  0.1189 -0.2129
 5628SOL    HW128343   0.814   1.721   3.278 -0.7592 -2.8248  0.4022
 5628SOL    HW228344   0.937   1.743   3.218 -1.5100  1.8123  0.2235
 5629SOL     OW28345   4.147   1.284   5.953 -0.7527  0.7841 -0.2104
 5629SOL    HW128346   4.058   1.251   5.945  0.2476 -1.0709 -3.8220
 5629SOL    HW228347   4.174   1.236   6.032 -0.6414 -1.4029 -1.5648
 5630SOL     OW28348   4.271   4.554  12.617  0.1921  0.5400 -0.2552
 5630SOL    HW128349   4.351   4.544  12.669 -0.4011 -0.1094  0.5301
 5630SOL    HW228350   4.236   4.465  12.612  0.1372  0.5377  0.1593
 5631SOL     OW28351   2.380   3.181   6.651 -0.9640 -0.1894  0.1581
 5631SOL    HW128352   2.408   3.253   6.707  1.2955 -1.2450  0.3611
 5631SOL    HW228353   2.459   3.154   6.604  0.1350 -0.5634  2.2246
 5632SOL     OW28354   3.504   2.327  16.816  0.1191  0.0498  0.0917
 5632SOL    HW128355   3.459   2.404  16.782 -0.9342 -0.3151  0.6496
 5632SOL    HW228356   3.554   2.366  16.887  3.2869  0.5093 -2.4111
 5633SOL     OW28357   4.006   0.463   5.061 -0.2614  0.0718  0.6402
 5633SOL    HW128358   4.095   0.438   5.035  0.0940  2.2385 -0.1958
 5633SOL    HW228359   4.008   0.553   5.031 -3.3591 -0.2675 -0.5932
 5634SOL     OW28360   4.340   2.950   3.336  0.3062  0.4692 -0.5094
 5634SOL    HW128361   4.328   3.045   3.339 -0.9660  0.3219 -1.1342
 5634SOL    HW228362   4.261   2.928   3.287 -1.5742 -0.6706  3.0424
 5635SOL     OW28363   2.582   2.994   9.958 -0.3879 -0.0146  0.4361
 5635SOL    HW128364   2.572   2.972  10.051 -0.8173  0.1549  0.4300
 5635SOL    HW228365   2.666   3.039   9.958  0.9126 -2.4234 -2.7225
 5636SOL     OW28366   0.943   1.352   6.456 -0.0355 -0.0700  0.0985
 5636SOL    HW128367   0.939   1.278   6.395 -0.1294 -0.5371  0.6748
 5636SOL    HW228368   0.940   1.307   6.540 -0.1710 -2.5210 -1.2279
 5637SOL     OW28369   0.199   2.880   7.322 -0.4731 -0.0912  0.0385
 5637SOL    HW128370   0.179   2.863   7.230 -0.8661 -2.4727  0.5807
 5637SOL    HW228371   0.280   2.932   7.316  1.0463 -2.5628 -0.6532
 5638SOL     OW28372   2.633   0.539   7.112  0.2464  0.1886  0.3988
 5638SOL    HW128373   2.607   0.539   7.204  1.9776 -0.7217  0.9086
 5638SOL    HW228374   2.712   0.484   7.114 -0.9957 -1.6215 -0.1437
 5639SOL     OW28375   2.188   2.030  10.618 -0.0444 -0.4456 -0.1396
 5639SOL    HW128376   2.142   2.100  10.571  0.6200 -0.5829 -0.9988
 5639SOL    HW228377   2.122   1.991  10.675 -3.1449  0.7821 -2.8534
 5640SOL     OW28378   2.091   2.291   5.296 -0.0147 -0.1490 -0.3918
 5640SOL    HW128379   2.046   2.360   5.247  0.9251 -0.8764 -2.2749
 5640SOL    HW228380   2.110   2.239   5.218 -0.2135  3.2573 -2.7191
 5641SOL     OW28381   0.126   4.362   4.150 -0.1468 -0.4757 -0.3560
 5641SOL    HW128382   0.121   4.322   4.063 -1.7060  1.0887 -0.9851
 5641SOL    HW228383   0.138   4.456   4.133 -0.3808 -0.1413  1.2894
 5642SOL     OW28384   3.779   4.671   4.756 -0.6725 -0.0852  0.0529
 5642SOL    HW128385   3.850   4.723   4.793  0.2800 -1.0053 -0.4805
 5642SOL    HW228386   3.832   4.634   4.686  0.7094  0.6019  0.7524
 5643SOL     OW28387   0.488   0.606   5.820 -0.3796  0.1340 -0.0665
 5643SOL    HW128388   0.551   0.671   5.790 -0.1180 -0.2133 -0.2633
 5643SOL    HW228389   0.426   0.600   5.747  0.4128  0.5576 -0.7764
 5644SOL     OW28390   1.850   3.502   8.375  0.2210 -0.3695  0.0237
 5644SOL    HW128391   1.801   3.464   8.302  1.7181  2.9655 -2.6891
 5644SOL    HW228392   1.820   3.453   8.452 -2.6687  1.3609  0.0216
 5645SOL     OW28393   4.528   4.473   9.061 -0.1406 -0.2295  0.8262
 5645SOL    HW128394   4.563   4.519   9.137 -0.1118  1.4787 -0.1953
 5645SOL    HW228395   4.552   4.381   9.070 -0.0224 -0.2438  0.3764
 5646SOL     OW28396   3.887   4.446  10.392  0.0486 -0.2568  0.0122
 5646SOL    HW128397   3.792   4.458  10.385  0.0830  0.6625  1.0466
 5646SOL    HW228398   3.903   4.519  10.334  1.6692  0.4731  1.3866
 5647SOL     OW28399   1.204   0.350   2.130  0.3749 -0.5705  0.4332
 5647SOL    HW128400   1.226   0.438   2.099 -1.8385  0.0059  0.5124
 5647SOL    HW228401   1.200   0.357   2.226  0.6122 -0.9226  0.4709
 5648SOL     OW28402   0.133   0.394   4.271 -0.9427 -0.1741 -0.1785
 5648SOL    HW128403   0.136   0.386   4.175  0.6107  0.4154 -0.1781
 5648SOL    HW228404   0.093   0.479   4.288 -1.7687 -0.2446 -1.7121
 5649SOL     OW28405   2.834   4.476   7.638 -0.1786 -0.3081 -0.0768
 5649SOL    HW128406   2.841   4.567   7.667 -0.3416 -0.5919  0.8240
 5649SOL    HW228407   2.769   4.442   7.699  0.5340 -1.7828 -0.1553
 5650SOL     OW28408   4.377   1.408   5.084  0.0429  1.0471 -0.2543
 5650SOL    HW128409   4.301   1.460   5.111 -1.1884  0.2079 -2.1330
 5650SOL    HW228410   4.442   1.478   5.077  0.6406  0.6857  1.5576
 5651SOL     OW28411   0.711   2.274  16.112  0.0138 -0.0714  0.4292
 5651SOL    HW128412   0.771   2.321  16.053 -0.2846 -0.5894 -0.2866
 5651SOL    HW228413   0.780   2.248  16.173 -1.7058 -0.0102  2.3819
 5652SOL     OW28414   2.778   1.199  15.047 -0.8547  0.0383 -0.2393
 5652SOL    HW128415   2.820   1.192  14.962 -1.6909  0.3946 -0.6856
 5652SOL    HW228416   2.825   1.135  15.100 -1.6394  0.5586  1.0793
 5653SOL     OW28417   2.086   2.809   8.632  0.0024 -0.0734  0.2466
 5653SOL    HW128418   2.101   2.807   8.727 -1.4896  0.9750  0.5029
 5653SOL    HW228419   1.999   2.770   8.633 -0.2573  0.5482  1.6570
 5654SOL     OW28420   1.959   2.198   3.997  0.4244 -0.6591  0.2181
 5654SOL    HW128421   1.913   2.139   4.056 -0.3529 -0.8739 -0.6037
 5654SOL    HW228422   1.966   2.271   4.058  0.7868 -2.0921  1.8992
 5655SOL     OW28423   4.125   0.011  15.000 -0.2476 -0.4939  0.1270
 5655SOL    HW128424   4.114   0.106  14.991  0.8858 -0.6553 -3.0394
 5655SOL    HW228425   4.175   4.717  14.921  0.3824  1.0770  0.1009
 5656SOL     OW28426   2.190   4.040   2.509  0.2200  0.4554  0.3371
 5656SOL    HW128427   2.267   4.057   2.562 -0.1183  2.7677  0.0906
 5656SOL    HW228428   2.220   4.055   2.420 -0.8207  1.7864  0.2118
 5657SOL     OW28429   3.942   3.684   3.608 -0.6516  0.3859  0.4294
 5657SOL    HW128430   3.959   3.680   3.702 -0.5097  1.0477  0.4325
 5657SOL    HW228431   3.986   3.604   3.579 -1.2824 -0.4739  1.8537
 5658SOL     OW28432   1.752   0.283  10.945  0.2710 -0.4982 -0.1986
 5658SOL    HW128433   1.718   0.370  10.921  0.0590 -0.6317 -0.3810
 5658SOL    HW228434   1.675   0.229  10.963  0.3078 -1.0220 -1.6573
 5659SOL     OW28435   3.849   0.563   3.896 -0.1134  0.4856 -0.2723
 5659SOL    HW128436   3.798   0.643   3.883  0.5792  0.6785 -1.7422
 5659SOL    HW228437   3.824   0.503   3.826 -0.2680  0.1191  0.0944
 5660SOL     OW28438   0.035   2.022  11.125 -0.0907  0.0636 -0.3423
 5660SOL    HW128439   0.025   1.939  11.172  0.7984  1.2822  1.9956
 5660SOL    HW228440   0.122   2.019  11.085  0.3896  0.9595  0.6475
 5661SOL     OW28441   0.379   3.218  13.011  0.1740 -0.2009  0.1551
 5661SOL    HW128442   0.436   3.234  13.086 -0.9475  0.5396  0.8618
 5661SOL    HW228443   0.441   3.249  12.945  0.3912 -1.1672 -0.0900
 5662SOL     OW28444   1.939   1.133  11.368  0.9238  0.0124  0.1501
 5662SOL    HW128445   2.019   1.101  11.326  1.4414  1.0339  0.3621
 5662SOL    HW228446   1.866   1.074  11.347  2.3179 -1.8079  0.4247
 5663SOL     OW28447   4.359   1.364   4.051 -0.1366  0.3006 -0.2826
 5663SOL    HW128448   4.293   1.425   4.086 -1.7424 -1.7770  0.3044
 5663SOL    HW228449   4.391   1.329   4.134  2.7155  1.4866 -0.8946
 5664SOL     OW28450   1.636   3.995  16.952  0.3217  0.5703 -0.0395
 5664SOL    HW128451   1.716   4.041  16.928 -1.4708  2.6065 -2.2436
 5664SOL    HW228452   1.579   4.072  16.960 -2.8528 -1.6286 -1.3498
 5665SOL     OW28453   2.124   1.203   7.444  0.3774 -0.1875  0.0103
 5665SOL    HW128454   2.120   1.261   7.368  2.0178 -1.4048 -1.0334
 5665SOL    HW228455   2.040   1.215   7.488 -1.2550 -0.6356 -2.9831
 5666SOL     OW28456   3.542   2.960   4.434 -0.5945 -0.0210 -0.1086
 5666SOL    HW128457   3.554   2.868   4.410 -0.1828 -0.4626  1.7405
 5666SOL    HW228458   3.448   2.971   4.417 -0.4129 -0.9151 -1.6981
 5667SOL     OW28459   4.034   4.609   9.376  0.0518  0.9270 -0.0015
 5667SOL    HW128460   4.114   4.661   9.383  0.1885  0.7865 -0.5806
 5667SOL    HW228461   3.966   4.675   9.359  0.0209  0.7596 -0.5180
 5668SOL     OW28462   0.390   2.015  10.620  0.4014  0.2607 -0.0421
 5668SOL    HW128463   0.455   2.029  10.552  0.5176  2.9220  0.6160
 5668SOL    HW228464   0.321   2.077  10.596 -0.4855 -0.5211  0.4549
 5669SOL     OW28465   0.695   1.479   5.575  0.3305 -0.3147 -0.0447
 5669SOL    HW128466   0.633   1.469   5.502  1.1429 -0.7020 -0.6714
 5669SOL    HW228467   0.780   1.476   5.532  0.7564 -0.1680  0.7882
 5670SOL     OW28468   0.365   4.081  16.526 -0.5679  0.1465  0.2001
 5670SOL    HW128469   0.429   4.037  16.471 -0.5152 -1.8290  1.8489
 5670SOL    HW228470   0.287   4.059  16.475 -0.2053 -2.6475  0.8503
 5671SOL     OW28471   0.863   3.010   2.418  0.1160 -0.2171 -0.3909
 5671SOL    HW128472   0.860   3.081   2.353  0.3680 -0.7019 -0.9390
 5671SOL    HW228473   0.955   2.986   2.415  0.6094  1.7971 -1.6138
 5672SOL     OW28474   4.335   4.681  14.480 -0.1088  0.4640 -0.3603
 5672SOL    HW128475   4.288   0.013  14.420  1.1180  0.3606 -1.4218
 5672SOL    HW228476   4.297   4.597  14.456 -2.0836  1.7687 -1.7779
 5673SOL     OW28477   1.855   2.958   2.022  0.3448  1.0522 -0.0467
 5673SOL    HW128478   1.930   3.016   2.007  1.3614  0.0825  1.3297
 5673SOL    HW228479   1.783   3.021   2.018 -0.1159  0.4455 -1.2908
 5674SOL     OW28480   0.872   4.541  14.587 -0.1659  0.7386  0.0328
 5674SOL    HW128481   0.898   4.484  14.660 -0.8325 -0.2339 -0.4780
 5674SOL    HW228482   0.948   4.599  14.582  0.6334 -0.2185  0.9414
 5675SOL     OW28483   3.002   4.245   5.663  0.3116 -0.4732 -0.6905
 5675SOL    HW128484   2.999   4.178   5.595  2.7915 -1.5375  0.2339
 5675SOL    HW228485   2.915   4.283   5.654 -0.3298 -1.2522  2.0754
 5676SOL     OW28486   1.979   2.585   4.412  0.0515  0.0303  0.0879
 5676SOL    HW128487   2.058   2.596   4.464  1.0371  1.2655 -1.6546
 5676SOL    HW228488   1.913   2.586   4.482  1.0354 -0.2171  1.0140
 5677SOL     OW28489   3.150   0.719   2.682 -0.2051  0.4228 -0.2296
 5677SOL    HW128490   3.123   0.783   2.616 -2.0154  0.1366  0.2356
 5677SOL    HW228491   3.166   0.645   2.623  0.8085  1.2424 -0.9834
 5678SOL     OW28492   0.486   0.542   2.659  0.2635 -0.4603 -0.4066
 5678SOL    HW128493   0.528   0.461   2.688 -3.4287 -2.2124  0.0403
 5678SOL    HW228494   0.521   0.558   2.571 -2.7957 -1.9967 -1.8722
 5679SOL     OW28495   4.034   3.518   7.447  0.1714 -0.6414  0.5749
 5679SOL    HW128496   4.083   3.539   7.367 -1.1609 -1.5242 -0.4752
 5679SOL    HW228497   4.107   3.500   7.506  1.8541  0.5985 -1.1096
 5680SOL     OW28498   4.305   2.305   4.260  0.6205  0.0651  0.2223
 5680SOL    HW128499   4.338   2.311   4.171  1.1611  0.4191  0.4443
 5680SOL    HW228500   4.389   2.288   4.304  0.5887 -0.2366  0.1658
 5681SOL     OW28501   3.095   4.476   7.511  0.4128  0.0975 -0.6236
 5681SOL    HW128502   3.135   4.534   7.577  0.1651 -0.1143 -0.2838
 5681SOL    HW228503   3.010   4.462   7.554 -0.5635  0.8469 -2.3430
 5682SOL     OW28504   2.123   1.480   6.651 -0.0072  0.0930  0.2514
 5682SOL    HW128505   2.159   1.436   6.728  0.8423  1.4743  0.6288
 5682SOL    HW228506   2.106   1.566   6.688 -1.9072 -1.0904  2.1319
 5683SOL     OW28507   0.286   1.550  13.128  0.3769  0.1558 -0.7996
 5683SOL    HW128508   0.322   1.498  13.056 -0.7087  0.6638 -1.6964
 5683SOL    HW228509   0.344   1.541  13.204 -0.5034  1.0646 -0.0220
 5684SOL     OW28510   1.489   1.177   7.781 -0.0174  0.2356  0.1703
 5684SOL    HW128511   1.577   1.147   7.804 -0.1075  0.2902  0.5890
 5684SOL    HW228512   1.499   1.269   7.802  2.4371  0.3495 -1.5210
 5685SOL     OW28513   2.945   1.734   1.639 -0.1470  0.2281 -0.0405
 5685SOL    HW128514   2.937   1.829   1.637  0.3755  0.2643 -0.5625
 5685SOL    HW228515   2.940   1.715   1.733 -1.7266  1.4610  0.1039
 5686SOL     OW28516   3.505   1.736   1.258 -0.0476  0.1739  0.4312
 5686SOL    HW128517   3.499   1.820   1.303  2.5604  0.4697  0.2364
 5686SOL    HW228518   3.469   1.765   1.175  2.1266  0.5100 -0.3873
 5687SOL     OW28519   2.194   0.543   3.414  0.1139 -0.5420  0.0067
 5687SOL    HW128520   2.196   0.525   3.508  2.3101 -0.6298 -0.0587
 5687SOL    HW228521   2.148   0.627   3.412  1.0785 -0.0832 -2.7769
 5688SOL     OW28522   3.206   3.189  15.736 -0.1712  0.2186  0.5358
 5688SOL    HW128523   3.232   3.250  15.805  1.1145 -1.2001  1.2904
 5688SOL    HW228524   3.158   3.125  15.788  0.8717 -1.4929 -0.6149
 5689SOL     OW28525   4.565   4.270   5.399  0.1071 -0.5951 -0.1847
 5689SOL    HW128526   4.523   4.262   5.313 -1.2658 -1.5327  0.5840
 5689SOL    HW228527   4.656   4.258   5.371 -0.2918  0.4524 -1.9637
 5690SOL     OW28528   1.762   2.806   2.269 -0.4722  0.8534  0.2038
 5690SOL    HW128529   1.746   2.871   2.201 -0.7844  0.7336  0.1615
 5690SOL    HW228530   1.814   2.741   2.222  0.5352  0.9506  1.1771
 5691SOL     OW28531   4.715   1.610  12.885 -0.2990  0.3865  0.1481
 5691SOL    HW128532   4.717   1.638  12.977 -0.6464 -0.3887  0.3956
 5691SOL    HW228533   4.699   1.694  12.843 -3.2730 -1.0404 -1.5385
 5692SOL     OW28534   4.170   0.102   9.225  0.3115 -0.3735  0.1109
 5692SOL    HW128535   4.229   0.034   9.193 -0.2852 -0.0377 -1.7255
 5692SOL    HW228536   4.227   0.131   9.296  0.4252 -1.4049  0.4419
 5693SOL     OW28537   2.100   1.447   7.263 -0.0959  1.0819 -0.4975
 5693SOL    HW128538   2.074   1.482   7.178 -1.6838 -2.7504 -1.5578
 5693SOL    HW228539   2.076   1.519   7.322  0.2761  0.8459 -0.0567
 5694SOL     OW28540   3.085   0.159   6.357  0.1943 -0.3395  0.0503
 5694SOL    HW128541   2.994   0.159   6.386  0.2231  2.9672  0.1240
 5694SOL    HW228542   3.080   0.195   6.268  0.7081  2.4862  1.1869
 5695SOL     OW28543   3.455   1.835   5.773  0.3859 -0.1605 -0.7072
 5695SOL    HW128544   3.528   1.829   5.711  1.3707 -2.2326  0.6324
 5695SOL    HW228545   3.418   1.751   5.745 -0.9665 -0.0351  0.6808
 5696SOL     OW28546   1.572   0.407  13.139  0.4838 -0.2567 -0.5309
 5696SOL    HW128547   1.520   0.364  13.071 -0.5768  0.5448 -0.2341
 5696SOL    HW228548   1.642   0.343  13.152  0.5865 -0.0783 -0.2102
 5697SOL     OW28549   4.646   2.438  13.879  0.4138 -0.1512 -0.2067
 5697SOL    HW128550   0.006   2.406  13.905  0.1282 -0.4742  0.3548
 5697SOL    HW228551   4.601   2.361  13.846 -3.0208  2.2898 -1.2275
 5698SOL     OW28552   2.338   3.064  11.981 -0.3178 -0.1853 -0.3937
 5698SOL    HW128553   2.315   3.077  12.073  0.6756 -1.1792 -0.0129
 5698SOL    HW228554   2.297   3.141  11.941  0.0065  1.4454  2.3582
 5699SOL     OW28555   4.456   2.540  16.124  0.3230  0.2208  0.1661
 5699SOL    HW128556   4.535   2.492  16.099 -0.7712 -2.5950  2.1590
 5699SOL    HW228557   4.426   2.578  16.041 -1.5495  0.7286  1.0631
 5700SOL     OW28558   0.813   0.166   0.038 -0.2260  0.7633  0.4916
 5700SOL    HW128559   0.833   0.229  17.678  0.8912 -0.0488  0.0623
 5700SOL    HW228560   0.871   0.205   0.103  2.6464  0.2677 -1.7694
 5701SOL     OW28561   0.126   2.947   5.277 -0.0790 -0.3026  0.1204
 5701SOL    HW128562   0.135   2.864   5.325  1.2201  1.3494  2.7021
 5701SOL    HW228563   0.205   2.995   5.302  0.3369 -0.2815 -1.2736
 5702SOL     OW28564   1.969   4.607   8.798 -0.5636  0.3066 -0.6120
 5702SOL    HW128565   2.009   4.662   8.730  1.9688 -2.4434 -1.3572
 5702SOL    HW228566   1.982   4.522   8.756  2.0073  0.2754  0.2042
 5703SOL     OW28567   1.569   3.330  16.040  0.2364 -0.3055  0.7041
 5703SOL    HW128568   1.583   3.377  16.123 -0.8658  1.7678 -0.2783
 5703SOL    HW228569   1.575   3.241  16.075 -1.7163 -0.3694  0.8791
 5704SOL     OW28570   3.908   4.204   3.048  0.3935 -0.2117 -0.5778
 5704SOL    HW128571   3.901   4.213   2.953 -2.1474  1.7928 -0.2070
 5704SOL    HW228572   3.954   4.121   3.061 -1.2161 -0.8544  0.9360
 5705SOL     OW28573   1.883   1.439   2.188  0.4551 -0.2807  0.5529
 5705SOL    HW128574   1.803   1.450   2.137 -0.1593 -2.3208  1.0762
 5705SOL    HW228575   1.934   1.510   2.151 -2.0180  0.1996 -1.9296
 5706SOL     OW28576   1.184   0.814  13.574 -0.3378 -0.1162 -0.5972
 5706SOL    HW128577   1.187   0.906  13.603  2.3706  0.4529 -2.6405
 5706SOL    HW228578   1.102   0.786  13.614  0.0017 -2.1220 -1.3422
 5707SOL     OW28579   4.298   0.181   3.182 -0.1756  0.0038  0.8657
 5707SOL    HW128580   4.358   0.113   3.211 -0.3024 -0.2698  0.4911
 5707SOL    HW228581   4.214   0.134   3.178 -0.0318 -0.1519 -0.3589
 5708SOL     OW28582   0.057   0.134   0.895 -0.2414  0.3412  0.3565
 5708SOL    HW128583   0.100   0.219   0.897  2.0402 -0.7971 -1.5851
 5708SOL    HW228584   0.031   0.126   0.804  0.7548  0.6023  0.0540
 5709SOL     OW28585   2.162   3.123   0.284 -0.2339 -0.1331  0.3756
 5709SOL    HW128586   2.168   3.142   0.190  0.7476  0.7654  0.6161
 5709SOL    HW228587   2.182   3.029   0.285  2.1371  0.3529  0.1454
 5710SOL     OW28588   0.579   0.618   1.861 -0.2020  0.1748 -0.2853
 5710SOL    HW128589   0.563   0.563   1.785  0.4776  1.3054 -1.2413
 5710SOL    HW228590   0.487   0.644   1.867 -0.0669  0.4258  0.7923
 5711SOL     OW28591   4.491   3.278   4.510 -0.1122 -0.1825 -0.5308
 5711SOL    HW128592   4.508   3.209   4.446  3.7963 -0.2038  0.5298
 5711SOL    HW228593   4.475   3.222   4.586  2.9846 -1.0862 -0.5177
 5712SOL     OW28594   1.424   4.170   6.404  0.2797 -0.1835  0.4727
 5712SOL    HW128595   1.398   4.084   6.370  1.1133 -0.6616  1.0368
 5712SOL    HW228596   1.421   4.223   6.325 -0.8718 -1.3987 -0.3040
 5713SOL     OW28597   2.892   1.357   4.675  0.0438  0.4454  0.3279
 5713SOL    HW128598   2.828   1.416   4.636 -1.5818 -1.6014 -0.1502
 5713SOL    HW228599   2.883   1.280   4.619 -0.9315  0.1812  0.8385
 5714SOL     OW28600   1.625   1.122   4.437 -0.0429  0.4105  0.6508
 5714SOL    HW128601   1.687   1.049   4.436 -1.5680 -0.8650 -1.7481
 5714SOL    HW228602   1.536   1.087   4.431  0.8666 -2.0374  1.6552
 5715SOL     OW28603   4.441   2.377   3.997  0.3305 -0.0098  0.7495
 5715SOL    HW128604   4.513   2.348   3.941  0.3670  2.9715 -0.7172
 5715SOL    HW228605   4.457   2.471   4.004 -1.1653  0.3475 -0.4951
 5716SOL     OW28606   1.893   3.846  11.873  0.0104 -0.1556 -0.1955
 5716SOL    HW128607   1.926   3.792  11.945  0.8231 -0.0098 -0.4630
 5716SOL    HW228608   1.969   3.903  11.861 -0.0270 -0.1273 -0.2993
 5717SOL     OW28609   0.687   1.030   8.950  0.2302  0.4502  0.4697
 5717SOL    HW128610   0.711   0.971   9.021  0.2838  0.6362  0.6086
 5717SOL    HW228611   0.772   1.065   8.922  0.5954  0.1862  1.2601
 5718SOL     OW28612   2.380   3.058   2.611 -0.0699  0.2869  0.1872
 5718SOL    HW128613   2.430   3.011   2.678 -1.6179 -0.4856  0.7719
 5718SOL    HW228614   2.295   3.017   2.600 -0.8149  2.1507 -1.0886
 5719SOL     OW28615   2.925   2.490  13.336  0.0455 -0.4773  0.5229
 5719SOL    HW128616   2.968   2.428  13.395  0.6196 -0.4660  0.1162
 5719SOL    HW228617   2.840   2.447  13.342  0.3734 -1.2012  0.0529
 5720SOL     OW28618   1.716   2.754   1.083  0.2534 -0.4246  0.2389
 5720SOL    HW128619   1.625   2.771   1.060  0.6835 -1.2665 -2.0622
 5720SOL    HW228620   1.762   2.780   1.003  3.3928 -1.3454  1.7301
 5721SOL     OW28621   2.616   4.453  15.041  0.2681 -0.5805  1.0749
 5721SOL    HW128622   2.618   4.546  15.020  0.8961 -1.2886 -1.9338
 5721SOL    HW228623   2.562   4.467  15.119 -1.1843  2.6490 -0.5079
 5722SOL     OW28624   0.375   0.748   1.616 -0.3355 -0.2975  0.3191
 5722SOL    HW128625   0.457   0.757   1.663  0.4430  1.2521 -1.3412
 5722SOL    HW228626   0.359   0.653   1.615  0.3031 -0.3743 -1.8744
 5723SOL     OW28627   1.080   1.367   0.081 -0.3558 -0.1624  0.7303
 5723SOL    HW128628   0.997   1.346   0.039  1.3060 -0.3024 -2.5198
 5723SOL    HW228629   1.116   1.278   0.087  0.9598  0.0885 -3.5584
 5724SOL     OW28630   0.980   2.198  14.971 -0.2312  0.4809 -0.4610
 5724SOL    HW128631   0.956   2.146  14.894  0.7185 -3.1183  1.6869
 5724SOL    HW228632   1.075   2.205  14.970 -0.1869 -0.0972 -0.3114
 5725SOL     OW28633   4.208   0.241   8.785 -0.7677  0.2343  0.1151
 5725SOL    HW128634   4.169   0.325   8.809  1.8809  1.6786 -0.6622
 5725SOL    HW228635   4.263   0.238   8.863  0.2018 -0.7101 -0.6101
 5726SOL     OW28636   3.268   2.401  14.791 -0.0985 -0.4688 -0.2677
 5726SOL    HW128637   3.303   2.460  14.858 -1.1739  1.6108 -1.5230
 5726SOL    HW228638   3.176   2.425  14.800  0.0764  0.4077 -0.7883
 5727SOL     OW28639   1.486   3.937   6.200  0.2158  0.3192 -0.0994
 5727SOL    HW128640   1.442   3.962   6.119  1.0263  0.3340 -0.5351
 5727SOL    HW228641   1.440   3.858   6.226 -0.5161  0.7957  0.0603
 5728SOL     OW28642   0.606   1.103   8.236  0.3552  0.0867 -0.1487
 5728SOL    HW128643   0.556   1.046   8.294  1.6841 -0.7691  0.1554
 5728SOL    HW228644   0.693   1.065   8.252  0.1686 -0.1767  0.2483
 5729SOL     OW28645   3.414   0.667   3.801  0.2795 -0.0930 -0.3078
 5729SOL    HW128646   3.458   0.589   3.766  0.1804 -0.3883  0.2267
 5729SOL    HW228647   3.328   0.668   3.760 -0.0164 -0.5712  0.3129
 5730SOL     OW28648   2.764   0.971   8.949 -0.1065 -0.3540 -0.1912
 5730SOL    HW128649   2.764   0.882   8.915  1.4758 -0.6458  0.6018
 5730SOL    HW228650   2.687   1.008   8.904 -0.8261  0.3792  1.6566
 5731SOL     OW28651   1.159   2.104   2.167  0.2260  0.3653 -0.0687
 5731SOL    HW128652   1.158   2.193   2.130 -0.4526 -0.1780 -1.3747
 5731SOL    HW228653   1.187   2.046   2.096  0.2587  1.4716 -0.9549
 5732SOL     OW28654   0.852   4.144   2.319  0.3476  0.1970  0.3158
 5732SOL    HW128655   0.904   4.068   2.345  0.6560  0.8535  1.6340
 5732SOL    HW228656   0.788   4.098   2.264  1.4617  1.6353 -2.1928
 5733SOL     OW28657   1.387   4.533   1.969  0.4158  0.0422  0.6147
 5733SOL    HW128658   1.383   4.443   1.936  0.3536  0.7119 -1.2456
 5733SOL    HW228659   1.306   4.542   2.019  0.2495 -0.2301  0.3940
 5734SOL     OW28660   1.575   0.065  10.940  0.5115  0.0307 -0.5414
 5734SOL    HW128661   1.531   0.024  11.014  0.6557 -1.3594 -1.2329
 5734SOL    HW228662   1.562   0.016  10.859 -1.9152  0.4783 -0.3960
 5735SOL     OW28663   2.023   2.732  13.232  0.7782 -1.2116 -0.1876
 5735SOL    HW128664   2.104   2.749  13.184  0.4747 -0.4888 -0.4343
 5735SOL    HW228665   1.981   2.665  13.179 -0.3874 -1.9950  1.7088
 5736SOL     OW28666   3.783   3.648   6.777 -0.1929 -0.2927  0.0522
 5736SOL    HW128667   3.787   3.654   6.682 -0.3685 -1.8968 -0.0506
 5736SOL    HW228668   3.867   3.609   6.801 -1.0514 -2.5033 -0.4689
 5737SOL     OW28669   2.791   0.185   2.321  0.6917 -0.2407 -0.6959
 5737SOL    HW128670   2.755   0.243   2.387  0.9558 -1.7664  0.7837
 5737SOL    HW228671   2.747   0.214   2.241  0.0207 -0.2652 -0.3311
 5738SOL     OW28672   1.878   3.428   4.098  0.1206 -0.0976  0.2655
 5738SOL    HW128673   1.823   3.498   4.062  0.6193  0.0205 -0.2673
 5738SOL    HW228674   1.931   3.411   4.020 -1.3881 -2.0830 -0.3393
 5739SOL     OW28675   4.048   0.677   8.982 -0.3027 -0.0442 -0.1190
 5739SOL    HW128676   3.969   0.688   8.929 -0.4123  0.3755  0.1334
 5739SOL    HW228677   4.077   0.768   8.990  0.6706 -0.3799  0.2014
 5740SOL     OW28678   3.677   0.506   6.395  0.6263 -0.6979  0.4789
 5740SOL    HW128679   3.633   0.572   6.450 -1.4679 -1.2172 -0.5694
 5740SOL    HW228680   3.647   0.519   6.305  0.2046  0.9013  0.8447
 5741SOL     OW28681   1.210   3.296  16.603 -0.8158  0.3737  0.3798
 5741SOL    HW128682   1.209   3.257  16.690 -0.3590 -1.3359 -0.3776
 5741SOL    HW228683   1.146   3.238  16.562 -1.2391  2.4037 -1.8602
 5742SOL     OW28684   2.521   2.732   9.270  0.7764  0.1841 -0.4600
 5742SOL    HW128685   2.465   2.716   9.194  0.2754 -0.0736 -0.0304
 5742SOL    HW228686   2.493   2.822   9.284  0.1602 -0.4184  2.1562
 5743SOL     OW28687   0.613   1.412   2.955  0.2915 -0.5752 -0.3533
 5743SOL    HW128688   0.641   1.321   2.943  0.9832 -0.5383  0.8831
 5743SOL    HW228689   0.616   1.441   2.864  1.6535 -1.3964 -0.5857
 5744SOL     OW28690   0.168   4.351  13.234  0.6801  0.7493  0.2952
 5744SOL    HW128691   0.143   4.439  13.206  0.1884 -0.1338 -2.0553
 5744SOL    HW228692   0.245   4.361  13.291  0.7674 -0.7434  0.4330
 5745SOL     OW28693   4.663   4.015   7.447 -0.3837  0.0074 -0.4557
 5745SOL    HW128694   4.662   4.110   7.438 -2.6827  0.2903  2.7227
 5745SOL    HW228695   0.030   3.997   7.454 -0.4288  0.6911  1.9550
 5746SOL     OW28696   4.483   1.825  14.651 -0.2369  0.3784 -0.4631
 5746SOL    HW128697   4.478   1.729  14.650  2.2671  0.2582 -0.8903
 5746SOL    HW228698   4.395   1.842  14.617 -0.4849  3.1383  1.5664
 5747SOL     OW28699   3.477   3.751   2.095 -0.4279 -0.4330  0.2712
 5747SOL    HW128700   3.397   3.800   2.074  0.2159  0.2605 -0.5390
 5747SOL    HW228701   3.512   3.785   2.177  0.4611  2.6183 -1.3878
 5748SOL     OW28702   4.137   1.023   7.119 -1.0205 -0.1923 -0.0878
 5748SOL    HW128703   4.229   1.011   7.098 -0.6190 -0.3120  1.7546
 5748SOL    HW228704   4.133   1.118   7.128  0.4027 -0.2669  1.2497
 5749SOL     OW28705   1.351   3.015  14.742  0.6635 -0.0991  0.9080
 5749SOL    HW128706   1.443   2.992  14.754  0.3692 -1.8188 -0.0689
 5749SOL    HW228707   1.312   2.939  14.699  1.1260  0.2426 -0.1212
 5750SOL     OW28708   3.513   4.335   7.709  0.3211  0.4368 -0.3971
 5750SOL    HW128709   3.453   4.321   7.636 -1.1302 -1.6849  1.2089
 5750SOL    HW228710   3.500   4.253   7.757 -3.0538  0.7070 -0.8905
 5751SOL     OW28711   1.640   3.341   8.181  0.1479  0.4258 -0.0199
 5751SOL    HW128712   1.613   3.377   8.096 -0.9245 -0.0381  0.1259
 5751SOL    HW228713   1.680   3.256   8.164  1.0768  1.2543 -1.9852
 5752SOL     OW28714   1.653   0.763   4.973  0.3684  0.6527  0.2220
 5752SOL    HW128715   1.692   0.789   4.889  0.4430 -2.4817 -0.7015
 5752SOL    HW228716   1.665   0.845   5.020 -0.4868  0.7045  0.3601
 5753SOL     OW28717   1.751   2.251   8.399 -0.0483  0.2861 -0.7245
 5753SOL    HW128718   1.772   2.245   8.492 -0.9306  0.2996 -0.5259
 5753SOL    HW228719   1.744   2.158   8.379  1.0113 -0.0442  0.3704
 5754SOL     OW28720   2.590   1.592   7.948  0.0226  0.0554 -0.1115
 5754SOL    HW128721   2.603   1.533   8.022 -2.0556  2.0486  1.8687
 5754SOL    HW228722   2.625   1.670   7.991  0.5761 -0.7342  0.8457
 5755SOL     OW28723   2.035   0.730  11.408 -0.4634 -0.3987  0.6639
 5755SOL    HW128724   2.096   0.683  11.351  1.1828 -0.1722  2.2445
 5755SOL    HW228725   1.992   0.783  11.340  1.3590 -0.0415 -0.2265
 5756SOL     OW28726   2.264   0.111  12.788  0.5548 -0.2891 -0.2215
 5756SOL    HW128727   2.192   0.089  12.847  0.9755  1.6675  1.0348
 5756SOL    HW228728   2.330   0.145  12.849 -0.4628  1.5222 -0.1289
 5757SOL     OW28729   1.220   2.686  13.848 -0.1115  0.7099 -0.1741
 5757SOL    HW128730   1.280   2.749  13.810  0.9818 -0.5704 -0.5743
 5757SOL    HW228731   1.271   2.659  13.925  0.2189  0.2341 -0.5642
 5758SOL     OW28732   1.228   2.640   0.827  0.0466  0.9370  0.1980
 5758SOL    HW128733   1.289   2.678   0.891 -1.4465  2.2284  0.8653
 5758SOL    HW228734   1.268   2.556   0.807 -0.3188  0.2016  2.5750
 5759SOL     OW28735   1.703   0.649  11.345 -0.0170  0.0527  0.1706
 5759SOL    HW128736   1.775   0.588  11.328 -0.3841 -0.3088 -0.0738
 5759SOL    HW228737   1.648   0.624  11.271 -1.6742  0.0255  1.4035
 5760SOL     OW28738   2.971   1.093   0.863 -0.1052  0.5022  0.3753
 5760SOL    HW128739   3.015   1.137   0.791  1.1347 -0.0546  0.7926
 5760SOL    HW228740   2.957   1.157   0.933  1.9095 -0.2727  1.4807
 5761SOL     OW28741   2.783   4.602   8.600  0.0495 -0.0711 -0.1172
 5761SOL    HW128742   2.713   4.655   8.637  0.1406  1.7418 -2.5049
 5761SOL    HW228743   2.748   4.590   8.511 -0.2312 -1.5467  0.1968
 5762SOL     OW28744   3.062   4.192   2.825 -0.1186  0.2231 -0.5836
 5762SOL    HW128745   3.047   4.281   2.858  0.9026  0.2146 -0.0816
 5762SOL    HW228746   3.130   4.204   2.758  0.7226  1.2450  0.4490
 5763SOL     OW28747   0.120   2.002   9.116  0.3671  1.1708  0.3871
 5763SOL    HW128748   0.103   1.997   9.021 -2.3036 -0.6995  0.9835
 5763SOL    HW228749   0.215   2.014   9.119  0.5679  0.0570 -1.3346
 5764SOL     OW28750   1.203   0.376   2.562 -0.1328 -0.4156  0.0575
 5764SOL    HW128751   1.123   0.355   2.514 -0.3084 -0.6793  0.4690
 5764SOL    HW228752   1.277   0.369   2.501 -0.7318  2.2919 -1.0137
 5765SOL     OW28753   0.489   3.864   3.190  0.7440 -0.5049  0.2785
 5765SOL    HW128754   0.509   3.868   3.097 -0.6276  1.8279  0.1053
 5765SOL    HW228755   0.488   3.769   3.201 -0.2585 -0.7204 -1.6849
 5766SOL     OW28756   3.051   1.097   6.119  0.6951  0.1968  0.4501
 5766SOL    HW128757   3.078   1.055   6.201  0.9944 -0.2059  0.1422
 5766SOL    HW228758   3.098   1.038   6.060  1.2818  1.1790 -0.0531
 5767SOL     OW28759   1.676   0.303   8.767 -0.9213  0.5567  0.2725
 5767SOL    HW128760   1.716   0.352   8.838 -1.3020  1.3848 -0.0835
 5767SOL    HW228761   1.750   0.275   8.712 -0.6505 -0.6879  1.2722
 5768SOL     OW28762   3.556   1.183   4.374  0.2549  0.4363 -0.2019
 5768SOL    HW128763   3.579   1.112   4.315  1.7339  0.4093  0.3957
 5768SOL    HW228764   3.516   1.244   4.312  1.7953  1.2999 -0.3720
 5769SOL     OW28765   2.846   0.482   5.417  0.2605  0.4317  0.3871
 5769SOL    HW128766   2.798   0.550   5.369 -0.5131 -0.3659  0.0211
 5769SOL    HW228767   2.788   0.466   5.492 -0.4600  0.4325 -0.1692
 5770SOL     OW28768   4.275   2.735   2.297  0.1966 -0.3066  0.3120
 5770SOL    HW128769   4.298   2.821   2.263 -2.9998  0.3600 -0.0835
 5770SOL    HW228770   4.207   2.751   2.362 -1.0181  0.9257 -1.2561
 5771SOL     OW28771   0.081   3.125   5.690 -0.0623  0.5774 -0.0317
 5771SOL    HW128772   0.039   3.041   5.669  0.0851  0.5154 -0.0746
 5771SOL    HW228773   0.016   3.189   5.661 -2.6843 -1.6372  0.8210
 5772SOL     OW28774   4.119   1.117   2.226  0.6009  0.2646 -0.0919
 5772SOL    HW128775   4.151   1.129   2.136 -0.4895 -0.9288 -0.6573
 5772SOL    HW228776   4.179   1.050   2.260  0.3026  0.1496  0.2108
 5773SOL     OW28777   0.118   3.378  13.567  0.4809 -0.0807  0.4056
 5773SOL    HW128778   0.066   3.447  13.526  0.0542  0.1034  1.2657
 5773SOL    HW228779   0.109   3.402  13.659  0.5034 -2.9493  1.1494
 5774SOL     OW28780   1.893   4.396   5.105 -0.4588 -0.4356 -0.2517
 5774SOL    HW128781   1.908   4.481   5.063 -1.8656  0.0221  0.1932
 5774SOL    HW228782   1.830   4.353   5.048 -1.5455 -3.0462  2.9682
 5775SOL     OW28783   2.171   2.746   3.807  0.3150 -0.1205 -0.2419
 5775SOL    HW128784   2.207   2.835   3.806 -1.5716  0.6327 -0.8833
 5775SOL    HW228785   2.210   2.718   3.724 -0.9992 -1.2019 -0.4914
 5776SOL     OW28786   2.607   2.311   8.603  0.0484 -0.7205  0.1868
 5776SOL    HW128787   2.663   2.365   8.659 -0.7711  1.2047 -0.8370
 5776SOL    HW228788   2.527   2.364   8.604 -0.3882 -1.3720 -0.5528
 5777SOL     OW28789   4.160   3.086   2.589  0.5080  0.0781  0.1583
 5777SOL    HW128790   4.173   3.180   2.575  0.2253  0.1787  0.5650
 5777SOL    HW228791   4.073   3.082   2.628  1.2749 -2.2594  1.6080
 5778SOL     OW28792   3.896   1.791   3.439  0.2096  0.3675 -0.2446
 5778SOL    HW128793   3.925   1.753   3.522 -1.7783 -1.2978 -0.2921
 5778SOL    HW228794   3.874   1.718   3.382 -1.0389  1.1907 -0.8149
 5779SOL     OW28795   4.441   2.276  16.725  0.0190  0.2200  0.2805
 5779SOL    HW128796   4.464   2.281  16.818  0.8568 -1.6506  0.1903
 5779SOL    HW228797   4.352   2.310  16.728  0.1345  0.4358  1.1142
 5780SOL     OW28798   4.539   1.667   3.524 -0.1019 -0.0805 -0.2435
 5780SOL    HW128799   4.525   1.607   3.450 -1.7264  1.6754 -1.3736
 5780SOL    HW228800   4.626   1.643   3.556 -0.2368 -0.0538  0.1381
 5781SOL     OW28801   2.204   4.048   3.452 -0.3466  0.4277  0.6111
 5781SOL    HW128802   2.116   4.044   3.489 -1.5626  0.2439 -2.3775
 5781SOL    HW228803   2.209   3.976   3.389  0.8905  1.1162 -0.0770
 5782SOL     OW28804   0.025   0.304   6.799  0.3192  0.2978  0.3547
 5782SOL    HW128805   0.096   0.351   6.755 -0.6206 -0.1828 -1.6514
 5782SOL    HW228806   4.717   0.257   6.723 -1.2048 -2.0013  2.4595
 5783SOL     OW28807   0.214   2.251   3.703  0.7472  0.1838 -0.2745
 5783SOL    HW128808   0.153   2.212   3.766  0.0601  0.7543 -0.5910
 5783SOL    HW228809   0.228   2.336   3.743  0.2344 -0.8686  2.1468
 5784SOL     OW28810   3.189   2.333   6.383  0.0776 -0.5441  0.3753
 5784SOL    HW128811   3.271   2.339   6.333  1.1584 -0.9431  2.1061
 5784SOL    HW228812   3.134   2.365   6.311  0.7433  0.9326  0.5354
 5785SOL     OW28813   0.054   2.853   7.565  0.0063 -0.1680 -0.0342
 5785SOL    HW128814   0.126   2.829   7.623 -0.3445  0.9937  0.8931
 5785SOL    HW228815   0.098   2.864   7.481 -1.4599  4.0937 -0.2798
 5786SOL     OW28816   0.043   2.363   2.818  0.0838 -0.5483  0.6931
 5786SOL    HW128817   4.715   2.442   2.813 -0.5968 -1.1776 -1.3611
 5786SOL    HW228818   0.119   2.384   2.873  1.0621 -0.2822 -0.7559
 5787SOL     OW28819   3.641   4.029   8.022 -0.1648 -0.5118  0.5779
 5787SOL    HW128820   3.651   4.100   8.086  1.6709  0.8434 -1.2059
 5787SOL    HW228821   3.732   4.007   8.003 -0.7619 -2.4159 -0.0522
 5788SOL     OW28822   1.297   2.035   4.975  0.5325 -0.8589 -0.0929
 5788SOL    HW128823   1.221   2.061   4.923  0.1273  2.2527  2.0516
 5788SOL    HW228824   1.298   1.943   4.950  1.6975 -0.8411 -0.1212
 5789SOL     OW28825   1.657   4.154   3.223  0.2417  0.2970  0.3201
 5789SOL    HW128826   1.599   4.224   3.194 -0.0639  0.4145  1.2147
 5789SOL    HW228827   1.614   4.123   3.303  0.6072 -2.2213 -0.4645
 5790SOL     OW28828   4.362   1.452   5.971 -0.7282 -0.3324 -0.1636
 5790SOL    HW128829   4.291   1.388   5.982 -1.5145  0.7163  0.9758
 5790SOL    HW228830   4.338   1.504   5.894 -0.0686 -0.3205 -0.3558
 5791SOL     OW28831   4.303   0.440  11.482  0.4873 -0.0613 -0.4988
 5791SOL    HW128832   4.369   0.409  11.419 -0.0307  1.0426 -1.5792
 5791SOL    HW228833   4.221   0.412  11.441  0.3282  0.3202 -0.4367
 5792SOL     OW28834   1.263   3.893   4.022 -0.9807 -0.4958 -0.2216
 5792SOL    HW128835   1.298   3.808   4.049  0.3296 -0.3844 -1.6046
 5792SOL    HW228836   1.183   3.860   3.980 -2.0061 -0.5332  1.7679
 5793SOL     OW28837   2.630   4.719   8.260 -0.1787  0.4000  0.1262
 5793SOL    HW128838   2.690   0.056   8.222  1.4202 -0.1761  1.6311
 5793SOL    HW228839   2.552   0.041   8.285 -0.1191 -0.2281  1.5763
 5794SOL     OW28840   2.049   0.322   2.158  0.3162  0.5411  0.1058
 5794SOL    HW128841   2.099   0.290   2.083  0.6368 -1.7125  1.2876
 5794SOL    HW228842   2.082   0.260   2.222  2.3143  0.1272 -1.3122
 5795SOL     OW28843   1.158   2.987   4.466 -0.2897 -0.2654  0.4385
 5795SOL    HW128844   1.154   2.899   4.504  2.0414 -0.4521  0.2950
 5795SOL    HW228845   1.126   3.039   4.539  0.6613  1.7458 -0.5925
 5796SOL     OW28846   0.397   3.791   7.730 -0.0211 -0.5484 -0.4807
 5796SOL    HW128847   0.343   3.739   7.671  0.7767  0.1497 -1.8216
 5796SOL    HW228848   0.467   3.820   7.672 -0.4963  0.0749 -0.7536
 5797SOL     OW28849   2.083   3.075  10.460 -0.3448 -0.1361 -0.2401
 5797SOL    HW128850   2.014   3.124  10.504  1.0115  1.2728  0.3039
 5797SOL    HW228851   2.054   2.986  10.480 -0.1092 -0.0808  0.3568
 5798SOL     OW28852   3.454   0.682  12.852 -0.1670 -0.2978  0.4710
 5798SOL    HW128853   3.493   0.665  12.937 -2.7914  0.7505  1.8796
 5798SOL    HW228854   3.458   0.778  12.852 -2.5225 -0.1928 -0.0397
 5799SOL     OW28855   4.664   0.778   5.741 -0.2645  0.1790  0.0254
 5799SOL    HW128856   0.002   0.748   5.805 -0.2477  1.9873  0.8607
 5799SOL    HW228857   4.719   0.846   5.703  2.5442 -0.6022  2.6590
 5800SOL     OW28858   1.955   3.340   3.839 -0.0701 -0.7893 -0.7111
 5800SOL    HW128859   1.930   3.249   3.820 -0.6760 -0.1828 -2.7812
 5800SOL    HW228860   1.918   3.383   3.763 -1.8187 -1.4958 -0.2499
 5801SOL     OW28861   1.104   3.858   5.812  0.4310  0.2198  0.3906
 5801SOL    HW128862   1.115   3.952   5.801 -0.1858  0.1735 -0.5691
 5801SOL    HW228863   1.022   3.835   5.769  1.5357 -0.3162 -1.4016
 5802SOL     OW28864   1.193   0.068   6.850  0.1067 -1.2364  0.1689
 5802SOL    HW128865   1.261   0.005   6.826 -1.2851 -1.9829 -1.8414
 5802SOL    HW228866   1.203   0.139   6.787  0.2115 -0.8995  0.5679
 5803SOL     OW28867   1.056   4.580   7.489  0.4781  0.5414 -0.0397
 5803SOL    HW128868   1.016   4.562   7.404  0.3812 -0.5733  0.2506
 5803SOL    HW228869   0.986   4.630   7.532  0.2852  0.6778 -0.5100
 5804SOL     OW28870   0.145   0.524   3.969 -0.0121 -0.5986  0.3261
 5804SOL    HW128871   0.199   0.602   3.986 -2.6442  1.0904  1.0178
 5804SOL    HW228872   0.210   0.465   3.930 -1.2710 -1.3608 -0.5960
 5805SOL     OW28873   3.295   2.679   0.295 -0.1320 -0.1636  0.3627
 5805SOL    HW128874   3.288   2.680   0.390  2.2947  2.2438  0.5209
 5805SOL    HW228875   3.213   2.725   0.275 -0.4554 -0.9121 -0.0270
 5806SOL     OW28876   1.035   1.563   0.296  0.0640 -0.0625 -0.0793
 5806SOL    HW128877   1.071   1.569   0.207 -1.6192  1.9503 -0.6198
 5806SOL    HW228878   0.953   1.518   0.276  0.3539  0.1377 -1.7408
 5807SOL     OW28879   1.746   2.566   4.755  0.3511 -0.2797 -0.2617
 5807SOL    HW128880   1.837   2.563   4.785  0.4753 -1.4639 -0.7829
 5807SOL    HW228881   1.735   2.497   4.689  0.2017  0.5730 -1.1255
 5808SOL     OW28882   1.008   3.247   8.932 -0.0761 -1.0245 -0.0163
 5808SOL    HW128883   0.944   3.192   8.887  0.6662  0.0455 -2.3910
 5808SOL    HW228884   0.964   3.254   9.017  2.8192 -2.3610  1.5876
 5809SOL     OW28885   0.116   4.658   8.513 -0.2362 -0.5835  0.1934
 5809SOL    HW128886   0.196   4.623   8.552  1.0226  0.0890 -1.7726
 5809SOL    HW228887   0.113   4.614   8.428 -0.8666 -2.7951  1.3596
 5810SOL     OW28888   0.741   0.424   9.477  0.4689  0.1490 -0.0407
 5810SOL    HW128889   0.691   0.500   9.447 -1.5780 -0.7586  1.0446
 5810SOL    HW228890   0.767   0.388   9.392  0.2126  0.4387 -0.2444
 5811SOL     OW28891   0.378   3.641   1.872 -0.2012 -0.4021 -0.0728
 5811SOL    HW128892   0.349   3.550   1.867  1.0311 -0.7957 -0.0060
 5811SOL    HW228893   0.465   3.630   1.833 -0.4564 -0.6340 -0.5793
 5812SOL     OW28894   2.577   3.964   6.646 -0.2224 -0.3653  0.3554
 5812SOL    HW128895   2.580   3.942   6.739 -2.6472  1.1742  0.8006
 5812SOL    HW228896   2.511   3.896   6.628 -0.3120  0.0353 -0.8537
 5813SOL     OW28897   0.150   3.254   2.171  0.1174  0.2788 -0.3672
 5813SOL    HW128898   0.121   3.291   2.254 -0.1379 -1.4497  0.3166
 5813SOL    HW228899   0.164   3.165   2.205 -2.8772 -0.1810 -0.4139
 5814SOL     OW28900   2.134   2.823   8.914 -1.1465 -0.0882  0.4593
 5814SOL    HW128901   2.166   2.894   8.970 -0.4748  1.6030 -2.0626
 5814SOL    HW228902   2.050   2.799   8.953 -1.0621  0.4801  0.9834
 5815SOL     OW28903   0.448   1.348  15.631  0.5607 -0.1819 -0.0550
 5815SOL    HW128904   0.464   1.263  15.671 -0.6396 -0.8312 -0.9675
 5815SOL    HW228905   0.420   1.331  15.541 -1.8912  1.0431  0.4633
 5816SOL     OW28906   1.993   2.292   7.536 -0.6171 -0.2724  0.9278
 5816SOL    HW128907   1.955   2.206   7.515  0.7453 -0.1864 -1.8823
 5816SOL    HW228908   2.056   2.312   7.467 -0.0535 -0.0006  1.5242
 5817SOL     OW28909   3.754   4.040   2.125  0.0507 -0.4011  0.7847
 5817SOL    HW128910   3.702   4.088   2.061  1.1839  0.6414  0.6582
 5817SOL    HW228911   3.692   4.035   2.197 -1.3934 -0.4009 -0.4581
 5818SOL     OW28912   1.792   4.128   2.952 -0.0709 -0.0790 -0.2069
 5818SOL    HW128913   1.866   4.079   2.917  0.2080  0.3405 -0.1946
 5818SOL    HW228914   1.804   4.129   3.047 -0.9978 -2.4581 -0.0461
 5819SOL     OW28915   1.719   1.747   1.988 -0.4415 -0.0331 -0.1670
 5819SOL    HW128916   1.718   1.768   1.895 -1.8603 -1.0978 -0.3909
 5819SOL    HW228917   1.744   1.828   2.031  1.1992  0.0828 -1.3594
 5820SOL     OW28918   4.063   3.207  17.004  0.0748  0.0146  0.2326
 5820SOL    HW128919   4.090   3.205  16.912 -3.0863 -2.6546 -0.6597
 5820SOL    HW228920   4.118   3.283  17.020 -0.5052 -0.0359  2.5078
 5821SOL     OW28921   1.006   1.444   5.119  0.3025  0.4484  0.2034
 5821SOL    HW128922   0.930   1.489   5.156  0.4793  0.9616 -0.0615
 5821SOL    HW228923   0.997   1.475   5.029 -2.4537  0.3745  0.4486
 5822SOL     OW28924   0.951   4.182   8.567 -0.2411 -0.3261  0.5637
 5822SOL    HW128925   0.950   4.183   8.471  1.0214 -2.4067  0.5415
 5822SOL    HW228926   1.035   4.138   8.579  1.3807  3.0252  1.5495
 5823SOL     OW28927   2.169   3.962   3.781  0.1746 -0.3404 -0.1653
 5823SOL    HW128928   2.155   4.004   3.866  0.4445  0.2891 -0.4356
 5823SOL    HW228929   2.263   3.969   3.768  0.4274 -1.4240  1.0637
 5824SOL     OW28930   3.002   4.235   7.266 -0.3146 -0.0430  0.1637
 5824SOL    HW128931   3.062   4.299   7.228  0.3336 -0.4157  0.5682
 5824SOL    HW228932   2.970   4.188   7.189 -1.2925  1.7545 -0.5286
 5825SOL     OW28933   4.702   1.579   4.038  0.0160 -0.2073  0.3271
 5825SOL    HW128934   4.620   1.580   4.086 -0.7140  0.6563 -0.9311
 5825SOL    HW228935   4.693   1.663   3.992 -3.7113 -1.5443 -1.4119
 5826SOL     OW28936   2.717   3.949  11.187  0.0304 -0.2481 -0.2063
 5826SOL    HW128937   2.781   3.912  11.248  2.4543 -0.7741 -3.0859
 5826SOL    HW228938   2.716   4.035  11.231 -0.8773  0.2461 -1.1996
 5827SOL     OW28939   1.284   3.633   2.234 -0.1399 -0.2923  0.2621
 5827SOL    HW128940   1.315   3.713   2.191 -0.8347 -0.0825  0.1583
 5827SOL    HW228941   1.365   3.593   2.267  1.2063  0.0410 -2.5986
 5828SOL     OW28942   2.897   4.460   9.609 -0.2698 -0.3361 -0.3423
 5828SOL    HW128943   2.970   4.416   9.565  0.8528  0.2927  0.8856
 5828SOL    HW228944   2.834   4.388   9.616  0.7374 -1.2376 -0.3873
 5829SOL     OW28945   0.279   0.209   6.431 -0.5940 -0.1523 -0.1481
 5829SOL    HW128946   0.330   0.194   6.510 -0.8098 -0.7862 -0.1299
 5829SOL    HW228947   0.261   0.122   6.395 -1.0697  0.2542 -0.9078
 5830SOL     OW28948   3.265   0.406  14.057  0.7098  0.7184 -0.0667
 5830SOL    HW128949   3.220   0.330  14.020 -0.2702  2.6951 -2.9321
 5830SOL    HW228950   3.235   0.403  14.148 -0.6634  1.2516 -0.4891
 5831SOL     OW28951   1.220   3.743   6.745  0.1827  0.0955  0.4352
 5831SOL    HW128952   1.214   3.777   6.656 -3.4460 -0.2435  0.5520
 5831SOL    HW228953   1.310   3.768   6.767 -0.2684 -0.2790  2.7498
 5832SOL     OW28954   0.951   0.405   4.526  0.1587 -0.6648  0.2265
 5832SOL    HW128955   0.905   0.366   4.451 -0.3880  0.6852 -0.1346
 5832SOL    HW228956   1.032   0.354   4.526  0.7079  0.2306  0.6219
 5833SOL     OW28957   0.616   4.061   2.564 -0.3328  0.2428  0.0890
 5833SOL    HW128958   0.653   4.102   2.643 -1.7006 -0.2941  1.0108
 5833SOL    HW228959   0.644   4.120   2.494 -1.3194  2.3583  1.4768
 5834SOL     OW28960   0.287   3.526   8.003 -0.0167 -0.3958  0.0410
 5834SOL    HW128961   0.260   3.486   8.086 -0.3977  2.1706  1.1541
 5834SOL    HW228962   0.205   3.521   7.953  0.1278 -1.8545 -0.0684
 5835SOL     OW28963   0.509   0.706   4.264 -0.8393 -0.0093  0.0822
 5835SOL    HW128964   0.577   0.660   4.213  0.2215 -0.8511  2.2665
 5835SOL    HW228965   0.500   0.649   4.340  0.5421  1.7853  1.5975
 5836SOL     OW28966   3.876   0.992   7.215  0.4368 -0.0384 -0.2346
 5836SOL    HW128967   3.964   0.991   7.179  0.6943 -0.9847  0.3991
 5836SOL    HW228968   3.819   0.975   7.140 -1.2482 -0.8842  1.2230
 5837SOL     OW28969   4.537   3.465   5.778  0.3072  0.4580 -0.2597
 5837SOL    HW128970   4.588   3.455   5.698  0.8732 -1.0592  0.3011
 5837SOL    HW228971   4.592   3.426   5.846  0.3580 -1.9318 -1.6616
 5838SOL     OW28972   1.259   2.842   6.592 -0.3371  0.0265  0.6684
 5838SOL    HW128973   1.215   2.768   6.633 -2.2146  1.5989  1.4549
 5838SOL    HW228974   1.233   2.859   6.502 -0.7959 -0.9513  0.6282
 5839SOL     OW28975   1.331   1.102   4.150  0.2424  0.2681 -0.6261
 5839SOL    HW128976   1.387   1.140   4.083  1.0773 -0.4503 -0.3367
 5839SOL    HW228977   1.318   1.017   4.108  1.5025  0.1523 -0.7923
 5840SOL     OW28978   3.144   0.431   4.374  0.2035 -0.0066  0.1325
 5840SOL    HW128979   3.223   0.377   4.375 -0.6338 -1.2289  0.0862
 5840SOL    HW228980   3.081   0.376   4.420  0.5082  0.9398  1.7035
 5841SOL     OW28981   3.930   0.168   3.056  0.3160  0.0048 -0.5345
 5841SOL    HW128982   3.937   0.156   2.961 -2.9715  3.2088 -1.1459
 5841SOL    HW228983   3.872   0.244   3.052 -0.7552 -0.8544 -1.3148
 5842SOL     OW28984   2.190   1.415  13.232 -0.2774  0.4120  0.2105
 5842SOL    HW128985   2.189   1.499  13.186 -0.7086  1.2324  1.7201
 5842SOL    HW228986   2.181   1.448  13.321 -0.0081  1.5626 -0.1936
 5843SOL     OW28987   3.168   1.179   7.646 -0.0287  0.1230 -0.0580
 5843SOL    HW128988   3.092   1.130   7.614  0.7457 -0.4042 -1.0935
 5843SOL    HW228989   3.201   1.214   7.563  2.4738 -2.0086  0.0319
 5844SOL     OW28990   0.065   2.930   3.146  0.0329  0.5601  0.3557
 5844SOL    HW128991   4.714   2.892   3.105  0.7351 -0.8087  0.2931
 5844SOL    HW228992   0.072   2.880   3.227 -2.2952  1.2596  0.9780
 5845SOL     OW28993   3.590   3.982   3.672 -0.7247  0.3048 -0.4212
 5845SOL    HW128994   3.513   3.952   3.720 -1.4584  0.2955 -1.6060
 5845SOL    HW228995   3.625   3.894   3.659 -0.9378 -0.3870  3.5766
 5846SOL     OW28996   4.099   0.853   7.360 -0.2584  0.1930  0.3657
 5846SOL    HW128997   4.109   0.759   7.374  0.7907  0.3731  0.8117
 5846SOL    HW228998   4.014   0.855   7.316 -0.8088 -1.9599  1.2966
 5847SOL     OW28999   0.670   2.861   9.043  0.0258 -0.4985  0.2654
 5847SOL    HW129000   0.737   2.808   9.085  0.7870 -0.3572 -0.7808
 5847SOL    HW229001   0.663   2.943   9.093 -1.1237  0.4417 -1.4414
 5848SOL     OW29002   1.847   3.221  15.226 -0.0702  0.0380  0.0002
 5848SOL    HW129003   1.937   3.229  15.194 -0.0541 -2.3344 -0.5483
 5848SOL    HW229004   1.870   3.254  15.313 -0.3321  3.1172 -1.0883
 5849SOL     OW29005   0.026   0.055   7.645 -0.7293 -0.3468 -0.3736
 5849SOL    HW129006   0.089   0.023   7.710 -0.2458  0.6159 -0.3663
 5849SOL    HW229007   0.072   0.103   7.577  0.7970 -0.5250  0.5326
 5850SOL     OW29008   3.748   2.445   2.052  0.4122  0.0538  0.1477
 5850SOL    HW129009   3.792   2.470   1.971 -0.0981  2.2838  0.5574
 5850SOL    HW229010   3.692   2.385   2.004  0.3376  0.7962 -0.6881
 5851SOL     OW29011   0.340   1.622  14.852  0.0782  0.6530  0.0242
 5851SOL    HW129012   0.330   1.695  14.790  0.5731  2.0669  1.6046
 5851SOL    HW229013   0.263   1.573  14.825  2.3313 -2.6461 -0.3536
 5852SOL     OW29014   3.012   3.039   1.874 -0.4037 -0.1104  0.1480
 5852SOL    HW129015   3.103   3.019   1.897 -0.0511  1.6225  0.2651
 5852SOL    HW229016   2.980   2.961   1.829 -0.1089  0.8185 -1.6726
 5853SOL     OW29017   1.379   3.215   3.695  0.4736  0.4765  0.3294
 5853SOL    HW129018   1.413   3.219   3.605 -2.9183 -0.3255 -1.0180
 5853SOL    HW229019   1.442   3.172   3.752 -0.4075 -0.9437  0.2504
 5854SOL     OW29020   3.716   0.778   3.859 -0.6302 -0.8685  0.2595
 5854SOL    HW129021   3.695   0.860   3.904  1.2609 -0.7981  1.0001
 5854SOL    HW229022   3.627   0.746   3.843 -1.3851  1.2345  0.3396
 5855SOL     OW29023   3.722   4.172   5.260  0.6609  0.1482 -0.1071
 5855SOL    HW129024   3.817   4.173   5.243  0.2078  1.5319 -2.6617
 5855SOL    HW229025   3.691   4.085   5.236 -1.1256  1.0396 -0.9938
 5856SOL     OW29026   0.408   2.686  11.908 -0.2490  0.1575 -0.2785
 5856SOL    HW129027   0.456   2.731  11.838 -0.0274  1.4222  0.6764
 5856SOL    HW229028   0.439   2.731  11.987  1.4079  1.3228 -1.5798
 5857SOL     OW29029   0.898   1.829   4.829  0.0101 -0.1362 -1.1991
 5857SOL    HW129030   0.898   1.883   4.750 -1.9079  0.9690 -0.4566
 5857SOL    HW229031   0.805   1.808   4.838  0.4361 -2.2497 -1.9403
 5858SOL     OW29032   1.814   3.378  15.466  0.3866 -0.1959  0.0328
 5858SOL    HW129033   1.721   3.390  15.483  0.2837 -1.1016  0.1167
 5858SOL    HW229034   1.849   3.328  15.539  1.5869 -1.2143 -1.2370
 5859SOL     OW29035   3.541   4.558   0.017  0.7616 -0.1453  0.3637
 5859SOL    HW129036   3.461   4.533  17.679  0.2199  2.3380 -0.0192
 5859SOL    HW229037   3.591   4.478   0.037  3.7011  1.0607 -2.1378
 5860SOL     OW29038   2.295   3.225   0.523  0.3971  0.2246  0.1366
 5860SOL    HW129039   2.389   3.239   0.514  0.2883  0.7895 -0.1632
 5860SOL    HW229040   2.267   3.174   0.447 -0.2785 -0.7267  1.0285
 5861SOL     OW29041   3.167   3.551   3.024 -0.2432 -0.5128  0.3169
 5861SOL    HW129042   3.205   3.569   3.110  1.3367  1.3359 -0.7707
 5861SOL    HW229043   3.196   3.622   2.966 -1.9176  1.1304  1.5228
 5862SOL     OW29044   3.705   0.109   9.013 -0.5741 -0.5953 -0.1121
 5862SOL    HW129045   3.633   0.112   9.076 -2.1487  1.3475 -2.0082
 5862SOL    HW229046   3.774   0.058   9.055  1.4112  0.8969 -1.5362
 5863SOL     OW29047   3.618   2.672   2.122 -0.0986 -0.7490  0.1523
 5863SOL    HW129048   3.560   2.691   2.049  0.4064 -3.1513 -0.8726
 5863SOL    HW229049   3.643   2.585   2.092  1.6505 -1.3231  3.2913
 5864SOL     OW29050   3.106   1.805   6.896 -0.4055  0.6425 -0.6548
 5864SOL    HW129051   3.037   1.790   6.833 -2.0925 -0.5577  1.4900
 5864SOL    HW229052   3.143   1.887   6.863  3.1513 -1.1686 -1.1994
 5865SOL     OW29053   4.046   0.862  14.765  0.1397  0.0747 -0.0859
 5865SOL    HW129054   3.961   0.868  14.723 -0.0280  0.3461  0.2881
 5865SOL    HW229055   4.095   0.809  14.702 -1.3189 -2.4605  0.8978
 5866SOL     OW29056   3.340   2.067   7.456 -0.2133  0.3901  0.1461
 5866SOL    HW129057   3.339   1.981   7.414  0.0488  0.2648  0.3967
 5866SOL    HW229058   3.256   2.061   7.501 -0.3246  2.7430  0.2814
 5867SOL     OW29059   2.782   4.478   2.348 -0.5759 -0.7733  0.2412
 5867SOL    HW129060   2.852   4.458   2.410  0.3257 -2.2175 -1.2486
 5867SOL    HW229061   2.821   4.549   2.296  2.1287 -0.4861  2.6403
 5868SOL     OW29062   0.429   2.726   5.612 -0.6404 -0.1811  0.3149
 5868SOL    HW129063   0.497   2.677   5.564  0.9450 -0.0378  2.4042
 5868SOL    HW229064   0.371   2.652   5.632 -1.7996  0.3631 -1.1195
 5869SOL     OW29065   0.096   3.768   4.981  0.0594 -0.0639  0.0760
 5869SOL    HW129066   0.032   3.706   4.948 -0.2465 -0.7399  1.9444
 5869SOL    HW229067   0.052   3.770   5.067 -2.1397  0.9526 -1.0779
 5870SOL     OW29068   3.067   0.352   4.864 -0.5279  0.1177  0.3109
 5870SOL    HW129069   2.997   0.408   4.896 -1.5286 -1.3735  0.7384
 5870SOL    HW229070   3.021   0.272   4.888 -0.4912 -0.0551 -0.1938
 5871SOL     OW29071   2.349   4.474   4.741 -0.2555  0.2655 -0.1133
 5871SOL    HW129072   2.274   4.531   4.724 -0.4504 -0.5291 -1.8682
 5871SOL    HW229073   2.369   4.427   4.660  1.0494 -0.1134  0.4407
 5872SOL     OW29074   1.962   1.809   1.282 -0.0347 -0.5515  0.5862
 5872SOL    HW129075   1.876   1.830   1.246  0.6731  3.1731  1.0867
 5872SOL    HW229076   2.009   1.889   1.261  2.5589 -2.1111  0.3737
 5873SOL     OW29077   0.059   2.435   4.074 -0.0872  1.2000 -0.3746
 5873SOL    HW129078   0.031   2.385   4.151 -0.8768  1.0306 -0.7792
 5873SOL    HW229079   0.121   2.497   4.114  2.1186 -1.0727 -0.2971
 5874SOL     OW29080   0.390   2.965   5.705  0.4163  0.2447 -0.1542
 5874SOL    HW129081   0.301   3.001   5.707  0.8080  1.2996 -1.2137
 5874SOL    HW229082   0.372   2.875   5.678 -0.2139  0.0161  1.0444
 5875SOL     OW29083   1.654   3.454   5.402  0.5285  0.1001  0.0643
 5875SOL    HW129084   1.729   3.512   5.390  1.0954 -1.0900 -2.0053
 5875SOL    HW229085   1.654   3.424   5.493 -0.0135 -0.1233 -0.0068
 5876SOL     OW29086   1.378   0.230   2.364 -0.5448  0.0366 -0.2387
 5876SOL    HW129087   1.398   0.207   2.274  0.2105 -3.1873  0.7418
 5876SOL    HW229088   1.378   0.143   2.405  1.4269  0.1722  0.0298
 5877SOL     OW29089   0.389   3.606   4.341  0.4738 -0.1144  0.3517
 5877SOL    HW129090   0.373   3.697   4.317  1.1098  0.3451  1.7069
 5877SOL    HW229091   0.482   3.617   4.359  0.4026  1.5560 -0.2473
 5878SOL     OW29092   0.032   3.388   6.345 -0.4415  0.0392  0.4098
 5878SOL    HW129093   0.066   3.300   6.365 -1.1329 -0.3972 -0.3068
 5878SOL    HW229094   4.668   3.385   6.375 -0.0577 -1.6491  1.4292
 5879SOL     OW29095   2.696   1.403   8.269  0.0846 -0.0614 -0.2807
 5879SOL    HW129096   2.784   1.364   8.275 -0.0061 -0.0332  1.0953
 5879SOL    HW229097   2.686   1.444   8.355 -2.6506 -2.3366  0.4777
 5880SOL     OW29098   4.417   2.345   2.215 -0.2514  0.2708 -0.1232
 5880SOL    HW129099   4.496   2.381   2.254 -0.7014  1.3007 -0.1650
 5880SOL    HW229100   4.428   2.252   2.235 -3.6384 -0.4662 -1.7185
 5881SOL     OW29101   1.731   1.727   0.991  0.0809  0.0244  0.1511
 5881SOL    HW129102   1.766   1.684   1.068 -0.3584  2.8923  1.9712
 5881SOL    HW229103   1.735   1.651   0.933  0.6383  0.2428 -0.1045
 5882SOL     OW29104   1.285   2.181   2.804 -0.2388 -0.1394  0.1113
 5882SOL    HW129105   1.338   2.132   2.741  2.3968  1.6937  0.9031
 5882SOL    HW229106   1.202   2.138   2.784 -1.2764  1.5385  0.8346
 5883SOL     OW29107   4.522   3.611  11.382  0.1360  0.1113  0.0792
 5883SOL    HW129108   4.511   3.667  11.458 -0.1829 -0.0263  0.1330
 5883SOL    HW229109   4.470   3.665  11.322  0.6517 -1.1156 -1.4924
 5884SOL     OW29110   1.425   0.921   0.309  0.2319  0.2998 -1.1582
 5884SOL    HW129111   1.488   0.885   0.246  0.1023 -0.1234 -1.0469
 5884SOL    HW229112   1.410   0.842   0.361  0.7728  0.4876 -0.7159
 5885SOL     OW29113   4.127   1.992  17.185 -0.2961  0.4943 -0.5486
 5885SOL    HW129114   4.107   2.018  17.095  0.8290  0.9892 -0.6527
 5885SOL    HW229115   4.202   2.049  17.197  0.4747 -0.3811 -1.2477
 5886SOL     OW29116   1.409   0.249   8.307  0.3845  0.1677  0.1485
 5886SOL    HW129117   1.432   0.338   8.332 -2.4095  1.4138 -1.7966
 5886SOL    HW229118   1.390   0.215   8.394 -1.9197  1.1668  0.0112
 5887SOL     OW29119   4.136   1.582   9.238 -0.2501  0.4541 -0.4371
 5887SOL    HW129120   4.105   1.492   9.229 -1.4767  0.7517  0.8420
 5887SOL    HW229121   4.059   1.634   9.260  1.0392  2.0587  0.2992
 5888SOL     OW29122   3.148   0.071   7.458 -0.2290 -0.1847  0.1583
 5888SOL    HW129123   3.073   0.026   7.419  0.0973 -1.4178  0.9526
 5888SOL    HW229124   3.174   0.021   7.535  1.7357 -1.4520 -1.3387
 5889SOL     OW29125   4.616   0.241   1.700  0.3156 -0.4781  0.1183
 5889SOL    HW129126   4.616   0.146   1.712 -0.5619 -0.4081  0.6727
 5889SOL    HW229127   4.556   0.263   1.771  0.3519 -1.3845  0.4313
 5890SOL     OW29128   0.523   1.289   7.181  0.3728  0.0441 -0.5898
 5890SOL    HW129129   0.469   1.365   7.200 -1.3054 -1.3229  0.0636
 5890SOL    HW229130   0.485   1.220   7.235 -1.0296  1.6125  0.4425
 5891SOL     OW29131   0.193   2.874   1.122  0.2606  0.3918  0.0048
 5891SOL    HW129132   0.214   2.916   1.206  0.1528  1.4254 -0.4856
 5891SOL    HW229133   0.101   2.898   1.115 -0.1277 -0.7073  1.1851
 5892SOL     OW29134   1.900   3.511   8.949  0.0340  0.3757 -0.5848
 5892SOL    HW129135   1.810   3.544   8.953 -1.0554 -2.6367  0.0252
 5892SOL    HW229136   1.918   3.518   9.043 -1.3358 -3.1741 -0.0264
 5893SOL     OW29137   1.992   4.001  14.602 -0.1507  0.3474  0.0452
 5893SOL    HW129138   1.983   3.919  14.553  1.3041 -1.4730  2.8395
 5893SOL    HW229139   2.059   4.045  14.549  0.6384  0.0020  0.7608
 5894SOL     OW29140   0.790   0.696   3.594  0.2796  0.0389 -0.3050
 5894SOL    HW129141   0.876   0.664   3.567  0.0619  0.2155 -1.2154
 5894SOL    HW229142   0.781   0.779   3.547 -0.0980  1.8235  2.9073
 5895SOL     OW29143   1.006   1.759   8.502  0.2258 -0.3897 -0.7413
 5895SOL    HW129144   0.943   1.794   8.566  0.6949 -0.7919 -0.0553
 5895SOL    HW229145   0.962   1.753   8.418  1.0328 -1.3466 -1.1035
 5896SOL     OW29146   1.494   1.740   3.958 -0.4890 -0.0972  0.2525
 5896SOL    HW129147   1.516   1.686   3.883 -0.6893  1.7087 -1.0962
 5896SOL    HW229148   1.407   1.773   3.935 -0.5268 -0.5658 -0.2585
 5897SOL     OW29149   2.491   3.450   9.041 -0.8266  0.1563  0.6152
 5897SOL    HW129150   2.587   3.450   9.047 -0.7846  0.3688 -0.0528
 5897SOL    HW229151   2.458   3.431   9.129 -0.2752  1.8443  1.1929
 5898SOL     OW29152   3.732   2.011   1.955  0.0260 -0.1210 -0.2980
 5898SOL    HW129153   3.696   2.061   1.881 -0.9225 -0.7745 -0.2825
 5898SOL    HW229154   3.680   2.050   2.025 -3.3988 -1.6742 -1.9498
 5899SOL     OW29155   0.439   0.917   5.141 -0.0409 -0.0578  0.4071
 5899SOL    HW129156   0.355   0.877   5.160  0.6811 -1.7314  0.1391
 5899SOL    HW229157   0.441   0.901   5.046  0.2166  1.9834  0.0675
 5900SOL     OW29158   2.631   0.696   3.981 -0.2972 -0.7864 -0.6931
 5900SOL    HW129159   2.579   0.725   3.905 -0.8933 -0.9576 -0.3512
 5900SOL    HW229160   2.696   0.650   3.929 -0.7000  0.2942 -2.1786
 5901SOL     OW29161   0.646   4.535  16.424  0.1365  0.5313 -0.3247
 5901SOL    HW129162   0.603   4.619  16.442 -0.4599  0.2947 -0.6320
 5901SOL    HW229163   0.571   4.476  16.436  0.1272  0.9582  1.8159
 5902SOL     OW29164   1.235   4.095   7.847  0.2461 -0.1282 -0.3871
 5902SOL    HW129165   1.150   4.122   7.882 -0.7724 -2.7281 -0.8097
 5902SOL    HW229166   1.219   4.084   7.754  0.4364  4.1218 -0.9056
 5903SOL     OW29167   0.895   0.823   8.820 -0.1233 -0.2931  0.2851
 5903SOL    HW129168   0.826   0.834   8.754 -1.0710 -0.2265  1.2913
 5903SOL    HW229169   0.850   0.839   8.903 -0.0884  0.2788  0.1956
 5904SOL     OW29170   0.175   0.197   7.460  0.0054  0.3670  0.3975
 5904SOL    HW129171   0.223   0.166   7.383 -0.3969 -1.1779  0.7815
 5904SOL    HW229172   0.205   0.287   7.474  1.7886 -0.2471  0.5751
 5905SOL     OW29173   4.539   1.273  10.307 -0.0683 -0.1467 -0.1855
 5905SOL    HW129174   4.577   1.244  10.390 -0.6178 -0.1021  0.0811
 5905SOL    HW229175   4.594   1.222  10.247 -0.2166  1.0651 -1.3495
 5906SOL     OW29176   2.624   1.853   5.959  0.0137  0.0378 -0.7013
 5906SOL    HW129177   2.643   1.903   6.038 -2.2669 -0.9047  0.4259
 5906SOL    HW229178   2.589   1.923   5.904 -2.9165  0.8164  2.2038
 5907SOL     OW29179   2.770   2.478   4.034  0.1783 -1.0249  0.1944
 5907SOL    HW129180   2.799   2.567   4.015 -0.5390 -1.0453 -1.0156
 5907SOL    HW229181   2.828   2.464   4.108 -0.4152 -0.3212  0.7860
 5908SOL     OW29182   1.512   3.121   3.166 -0.2330 -0.2307 -0.1213
 5908SOL    HW129183   1.544   3.211   3.158  0.5159 -0.3446  1.7432
 5908SOL    HW229184   1.534   3.081   3.082  1.6843  0.8569 -0.1585
 5909SOL     OW29185   1.503   4.057   3.418  0.0930 -0.6767  0.4118
 5909SOL    HW129186   1.428   4.027   3.367  0.2980 -0.4161 -0.0378
 5909SOL    HW229187   1.469   4.084   3.503  0.6308 -1.3661  0.8503
 5910SOL     OW29188   4.321   4.151   0.189  0.3143  0.3177  0.0951
 5910SOL    HW129189   4.259   4.078   0.189  0.4107  0.2328 -1.9864
 5910SOL    HW229190   4.405   4.106   0.200  0.2732  0.4727  1.0408
 5911SOL     OW29191   2.347   2.702   8.591 -0.2120  0.8350 -0.0609
 5911SOL    HW129192   2.347   2.606   8.598  0.8063  0.7944 -0.6018
 5911SOL    HW229193   2.253   2.708   8.609 -0.7186  0.9033 -2.6650
 5912SOL     OW29194   2.726   1.814   7.492  0.1437 -0.3302  0.1641
 5912SOL    HW129195   2.656   1.876   7.474  0.6502  0.1147 -0.2705
 5912SOL    HW229196   2.755   1.852   7.575 -0.5787  2.6448 -0.9423
 5913SOL     OW29197   2.955   4.225   4.864  0.0537 -0.0909  0.4623
 5913SOL    HW129198   2.881   4.167   4.884  1.1409 -0.5976  2.9541
 5913SOL    HW229199   2.956   4.277   4.944 -2.1249  1.8882 -0.8150
 5914SOL     OW29200   0.968   4.483  13.213  0.6005  0.1824  0.7878
 5914SOL    HW129201   1.060   4.509  13.223  1.0956 -0.6829 -1.3814
 5914SOL    HW229202   0.982   4.421  13.142 -0.6880  0.4423  0.3095
 5915SOL     OW29203   2.578   1.643   5.202  0.1685  0.1532  0.0471
 5915SOL    HW129204   2.555   1.554   5.176  0.5488  0.3544 -0.9674
 5915SOL    HW229205   2.571   1.697   5.123 -0.0234 -0.4101 -0.3199
 5916SOL     OW29206   4.233   1.761  15.607 -0.1863  0.2067 -0.7580
 5916SOL    HW129207   4.259   1.812  15.530  0.0713  0.3353 -0.5850
 5916SOL    HW229208   4.190   1.686  15.565  2.1306  0.6317 -3.9727
 5917SOL     OW29209   2.603   0.790   5.112  0.1663  0.0624 -0.2611
 5917SOL    HW129210   2.650   0.777   5.029 -0.9753 -1.7940 -0.6201
 5917SOL    HW229211   2.575   0.882   5.110  1.5358  0.4964  0.6730
 5918SOL     OW29212   1.092   3.034  10.079 -0.1338  0.4690 -0.8261
 5918SOL    HW129213   1.006   3.074  10.091  0.4975  1.4929  0.2395
 5918SOL    HW229214   1.116   3.017  10.170 -1.8047 -2.3744 -0.9141
 5919SOL     OW29215   0.623   4.611  15.062  0.2174 -0.5283  0.1681
 5919SOL    HW129216   0.621   4.520  15.093 -0.0385 -0.6090 -0.0867
 5919SOL    HW229217   0.538   4.618  15.018  0.1869  1.7078  0.6096
 5920SOL     OW29218   4.378   1.126   4.264  0.7844 -0.0262 -0.7144
 5920SOL    HW129219   4.369   1.063   4.336  0.3189 -1.9415 -2.4682
 5920SOL    HW229220   4.430   1.080   4.199  0.1383 -1.7115 -0.0465
 5921SOL     OW29221   3.547   0.218   3.205 -0.2222  0.1653  0.0520
 5921SOL    HW129222   3.465   0.182   3.172 -0.7717  1.6135 -0.1949
 5921SOL    HW229223   3.522   0.310   3.215 -0.7610  0.0455 -0.2266
 5922SOL     OW29224   4.064   1.814  10.453  0.3889 -0.3536  0.6190
 5922SOL    HW129225   4.118   1.891  10.435 -1.0456  0.5126 -0.0057
 5922SOL    HW229226   4.004   1.854  10.517  1.2556  2.6755 -0.4595
 5923SOL     OW29227   4.053   3.080   0.357 -0.0854 -0.2915  0.7832
 5923SOL    HW129228   3.985   3.015   0.371 -1.5184  0.9637 -0.4184
 5923SOL    HW229229   4.020   3.144   0.421 -1.3701 -0.8092  0.6364
 5924SOL     OW29230   2.459   4.699   2.665 -0.2287  0.0221 -0.3933
 5924SOL    HW129231   2.532   4.696   2.604 -0.0962  1.6989 -0.3341
 5924SOL    HW229232   2.507   4.698   2.747 -2.1718 -1.1881  0.7183
 5925SOL     OW29233   0.048   1.665   1.140  0.6818 -0.0106 -0.1066
 5925SOL    HW129234   0.058   1.612   1.061 -1.0544  1.4001 -1.2591
 5925SOL    HW229235   4.683   1.690   1.138  1.2410  2.0988 -0.1981
 5926SOL     OW29236   4.481   2.651  11.038  0.3035  0.1682  0.2880
 5926SOL    HW129237   4.545   2.598  10.991  0.6707  2.0497 -1.3598
 5926SOL    HW229238   4.462   2.715  10.969 -2.0844  0.0639  0.8613
 5927SOL     OW29239   4.603   1.495   5.451 -0.0633  0.3808  0.0015
 5927SOL    HW129240   4.562   1.579   5.429 -1.7595 -0.8167 -1.4459
 5927SOL    HW229241   4.536   1.435   5.418 -0.1498 -0.0714  0.9880
 5928SOL     OW29242   1.154   1.321   6.682  0.7483  0.1286 -0.2489
 5928SOL    HW129243   1.190   1.362   6.604  2.4544 -0.6622  0.1171
 5928SOL    HW229244   1.227   1.264   6.708  0.4060 -0.6446 -0.9838
 5929SOL     OW29245   1.127   3.732  14.508 -0.2711 -0.1672 -0.6119
 5929SOL    HW129246   1.192   3.732  14.579  0.3525  0.7952 -1.1843
 5929SOL    HW229247   1.182   3.697  14.438 -1.3315  0.7889 -1.9163
 5930SOL     OW29248   3.411   3.323  11.935 -0.4237 -0.3985 -0.2796
 5930SOL    HW129249   3.395   3.230  11.948 -1.1041 -0.3528 -0.7824
 5930SOL    HW229250   3.500   3.345  11.963 -0.2481  0.7817 -1.7386
 5931SOL     OW29251   1.417   2.997   4.376 -0.0399 -0.4081 -0.2195
 5931SOL    HW129252   1.341   2.950   4.411 -1.9737  3.0456  0.1767
 5931SOL    HW229253   1.487   2.976   4.437 -1.7954 -1.4240  1.4675
 5932SOL     OW29254   3.686   0.807   5.975  0.1267 -0.0506  0.3558
 5932SOL    HW129255   3.637   0.848   6.046  0.3152  1.9172 -0.6742
 5932SOL    HW229256   3.639   0.856   5.908  0.2124 -1.1116 -0.4744
 5933SOL     OW29257   0.297   0.276   1.812 -0.1022  0.1551  0.5454
 5933SOL    HW129258   0.255   0.202   1.767  3.0921 -0.6422 -1.1071
 5933SOL    HW229259   0.311   0.239   1.899  0.8041 -0.1020  0.2825
 5934SOL     OW29260   1.706   2.440  11.033  0.2049 -0.0298 -0.2052
 5934SOL    HW129261   1.766   2.378  10.994  0.5986 -1.0587  2.0108
 5934SOL    HW229262   1.731   2.436  11.126 -0.3010  1.8401  0.0207
 5935SOL     OW29263   2.356   1.415   9.492 -0.4633 -0.2259 -0.5004
 5935SOL    HW129264   2.318   1.498   9.523 -1.4178 -0.6648 -0.4976
 5935SOL    HW229265   2.281   1.369   9.456 -0.3323  0.6647 -1.9026
 5936SOL     OW29266   3.936   0.346  14.172 -0.0305 -0.1792  0.1924
 5936SOL    HW129267   3.957   0.431  14.134  1.1234 -1.6650 -2.5151
 5936SOL    HW229268   4.023   0.325  14.205  0.1408  1.0227  0.5223
 5937SOL     OW29269   1.429   3.739   8.207  0.1055  0.3447 -0.1076
 5937SOL    HW129270   1.391   3.689   8.135 -0.6141 -0.0302  0.5316
 5937SOL    HW229271   1.358   3.766   8.265 -0.6843  0.7766 -1.2667
 5938SOL     OW29272   2.437   1.058   6.513  0.4641  0.3175  0.6998
 5938SOL    HW129273   2.363   1.115   6.531  0.0239 -0.2094  0.5257
 5938SOL    HW229274   2.417   1.000   6.586 -0.1262 -0.0934  0.2072
 5939SOL     OW29275   4.308   1.895  11.819 -1.0636  0.2100  0.1543
 5939SOL    HW129276   4.276   1.922  11.733  0.2267 -2.7521 -1.2616
 5939SOL    HW229277   4.280   1.970  11.872  0.5604  2.0490 -1.6068
 5940SOL     OW29278   4.702   3.384   7.586  0.2896  0.2723  0.2997
 5940SOL    HW129279   4.650   3.388   7.666 -0.4797  0.1409 -0.1923
 5940SOL    HW229280   4.708   3.289   7.571 -1.5165  0.0774  0.9213
 5941SOL     OW29281   3.040   0.781   0.725 -0.5738  0.3297  0.3752
 5941SOL    HW129282   3.033   0.686   0.730  2.0364  0.2421  2.4882
 5941SOL    HW229283   3.048   0.789   0.630  0.5432  0.1471  0.4488
 5942SOL     OW29284   3.795   3.903   0.301  0.0788 -0.0571 -0.4536
 5942SOL    HW129285   3.790   3.920   0.395 -0.6565  0.4163 -0.5764
 5942SOL    HW229286   3.880   3.859   0.293 -0.8994 -2.0358 -0.0517
 5943SOL     OW29287   4.069   2.688  12.002  0.6534  0.3997 -0.3779
 5943SOL    HW129288   3.997   2.626  12.011  1.1322 -0.1075  0.0059
 5943SOL    HW229289   4.143   2.646  12.047  0.5030  0.3182 -0.2054
 5944SOL     OW29290   1.205   0.183   1.828 -0.8996  0.2442 -0.8461
 5944SOL    HW129291   1.297   0.201   1.811 -0.6775 -0.7389 -0.6484
 5944SOL    HW229292   1.192   0.111   1.768 -2.0684 -1.6091  1.6290
 5945SOL     OW29293   4.261   4.326   2.016  0.2614  0.5762 -0.0628
 5945SOL    HW129294   4.185   4.301   2.069 -1.1935  1.7775 -1.5717
 5945SOL    HW229295   4.318   4.374   2.076 -1.8808  1.3877  1.3371
 5946SOL     OW29296   0.667   3.535   3.869 -0.0182 -0.6583  0.4019
 5946SOL    HW129297   0.717   3.464   3.909  0.9387  1.2883  2.6933
 5946SOL    HW229298   0.578   3.528   3.903 -0.7018  0.8602 -1.1061
 5947SOL     OW29299   4.414   0.625   0.431  0.1471 -0.1986 -0.4233
 5947SOL    HW129300   4.509   0.629   0.439  0.1156 -0.7482  0.1817
 5947SOL    HW229301   4.411   0.643   0.337  0.6667 -1.3193 -0.6559
 5948SOL     OW29302   3.788   0.294   1.972  0.0408  0.1359 -0.0070
 5948SOL    HW129303   3.762   0.314   1.882  1.8039 -0.6076 -0.6840
 5948SOL    HW229304   3.883   0.299   1.965  0.0498 -0.4732 -0.3719
 5949SOL     OW29305   4.424   4.151   6.415  0.7316  0.6323  0.1019
 5949SOL    HW129306   4.409   4.167   6.508  1.2721  0.1139  0.2748
 5949SOL    HW229307   4.335   4.163   6.382  0.1437 -1.4536  0.9759
 5950SOL     OW29308   3.609   2.103   6.958  0.6907 -0.1748  0.8214
 5950SOL    HW129309   3.550   2.126   6.886 -0.3672 -0.2537  1.6661
 5950SOL    HW229310   3.676   2.060   6.904 -0.7574 -0.8730 -0.4138
 5951SOL     OW29311   3.191   0.868   7.751  0.1071  0.3032 -0.3113
 5951SOL    HW129312   3.162   0.948   7.707  0.9904  0.2265 -1.0259
 5951SOL    HW229313   3.279   0.902   7.765  0.1205  1.1885 -2.5464
 5952SOL     OW29314   2.783   4.494   6.204  0.3800 -0.2087 -0.0601
 5952SOL    HW129315   2.692   4.465   6.212 -0.0679  1.5372  0.9722
 5952SOL    HW229316   2.788   4.561   6.272  2.7134  0.3661 -0.7774
 5953SOL     OW29317   4.588   4.009   1.344 -0.0620  0.1517  0.0376
 5953SOL    HW129318   4.529   4.013   1.268 -0.1562  0.1158  0.1091
 5953SOL    HW229319   4.531   4.047   1.411 -1.0718 -0.7528 -0.3154
 5954SOL     OW29320   3.849   0.169   8.452 -0.1868 -0.2497 -0.8557
 5954SOL    HW129321   3.901   0.153   8.530 -3.2565 -1.2178  0.9899
 5954SOL    HW229322   3.760   0.182   8.484  0.4454  0.7467  0.4633
 5955SOL     OW29323   1.029   1.301   4.465  0.9681  0.0510 -0.4825
 5955SOL    HW129324   1.040   1.210   4.490 -0.7172  0.6843  2.4652
 5955SOL    HW229325   1.013   1.291   4.371  2.7604 -3.0064 -0.4613
 5956SOL     OW29326   3.483   3.429   4.612 -0.1745 -0.0975 -0.0659
 5956SOL    HW129327   3.418   3.389   4.553  2.6589  0.9307 -3.8700
 5956SOL    HW229328   3.454   3.519   4.629 -0.7234 -0.3918  0.5619
 5957SOL     OW29329   3.130   3.965   3.143 -0.3113  0.0144 -0.8378
 5957SOL    HW129330   3.081   3.899   3.191  1.8896 -1.5703 -0.7418
 5957SOL    HW229331   3.114   3.946   3.050 -0.4257  1.9438 -1.2191
 5958SOL     OW29332   0.761   3.891   6.020  0.3414 -0.1588 -0.2900
 5958SOL    HW129333   0.694   3.827   6.045  0.4703 -1.0096 -2.1032
 5958SOL    HW229334   0.705   3.968   6.008  0.6392 -0.2818 -2.3509
 5959SOL     OW29335   2.463   0.057   6.394  0.1052  0.2173  0.4087
 5959SOL    HW129336   2.458   0.081   6.487  0.7138  1.0993  0.2150
 5959SOL    HW229337   2.401   0.115   6.350 -0.2537  1.0189  1.9496
 5960SOL     OW29338   0.562   2.207   7.292  0.0313 -0.0538 -0.5952
 5960SOL    HW129339   0.519   2.243   7.214  1.3303  0.8294 -0.9206
 5960SOL    HW229340   0.591   2.124   7.254  0.9441 -0.1969  0.4064
 5961SOL     OW29341   3.679   0.308   3.958  0.3273 -0.3041  0.0528
 5961SOL    HW129342   3.585   0.317   3.972  0.6734  0.0014  2.1775
 5961SOL    HW229343   3.711   0.397   3.974 -2.3534  0.8084 -0.8452
 5962SOL     OW29344   3.647   4.167   4.577  0.5042 -0.1897 -0.3369
 5962SOL    HW129345   3.636   4.259   4.552  0.3842  0.0548  0.6207
 5962SOL    HW229346   3.739   4.177   4.601  0.7893 -1.8473 -0.8130
 5963SOL     OW29347   3.947   1.006   1.539  0.1480 -0.5182 -0.1316
 5963SOL    HW129348   3.896   1.004   1.458  0.7665  0.0808 -0.5265
 5963SOL    HW229349   4.018   1.066   1.516  1.0387 -2.0945 -1.4472
 5964SOL     OW29350   4.564   2.674   3.633  0.3037  0.6317  0.1017
 5964SOL    HW129351   4.587   2.636   3.548  2.8416 -1.4126  1.7159
 5964SOL    HW229352   4.618   2.622   3.691 -0.0308  0.4162  0.2193
 5965SOL     OW29353   1.117   2.626   8.741  0.5677 -0.1948 -0.6192
 5965SOL    HW129354   1.117   2.627   8.837 -1.3635  1.5183 -0.6292
 5965SOL    HW229355   1.203   2.666   8.737 -0.3354  1.9305  1.0211
 5966SOL     OW29356   3.735   1.716  12.835  0.3297  0.1668  0.4865
 5966SOL    HW129357   3.755   1.675  12.750  1.4081  0.7901  0.4443
 5966SOL    HW229358   3.641   1.720  12.817  0.2783 -0.2609  0.6524
 5967SOL     OW29359   3.705   3.605   8.660  0.2795 -0.3020  0.3823
 5967SOL    HW129360   3.705   3.589   8.566 -0.7851  0.2007  0.3069
 5967SOL    HW229361   3.730   3.696   8.676  0.2224 -0.0135 -1.1901
 5968SOL     OW29362   2.550   1.088   0.079  0.0509 -0.0508  0.4697
 5968SOL    HW129363   2.519   1.005   0.114  1.8783 -0.3693  1.3426
 5968SOL    HW229364   2.476   1.102   0.020 -1.5749 -0.3805  2.4459
 5969SOL     OW29365   2.130   4.066  11.547  0.4999 -0.1052 -0.7011
 5969SOL    HW129366   2.161   4.040  11.634 -0.1397  0.9025 -0.1721
 5969SOL    HW229367   2.087   3.986  11.518  0.9842  0.0739 -1.8846
 5970SOL     OW29368   0.258   1.086   4.087 -0.1031  0.2838 -0.3548
 5970SOL    HW129369   0.210   1.011   4.121 -0.4396  0.4044 -0.5668
 5970SOL    HW229370   0.217   1.101   4.002 -0.2018 -1.0405 -0.5469
 5971SOL     OW29371   2.281   3.006   3.922 -0.4705 -0.0942  0.4257
 5971SOL    HW129372   2.348   2.995   3.854 -0.7464 -0.7263  0.2554
 5971SOL    HW229373   2.305   3.086   3.968  1.1010  0.2082 -0.9317
 5972SOL     OW29374   1.089   2.947   5.484 -0.1969  0.4431 -0.6287
 5972SOL    HW129375   1.161   2.958   5.421 -0.5541  0.6977 -0.9893
 5972SOL    HW229376   1.110   2.863   5.525  0.2743  0.0143 -1.7440
 5973SOL     OW29377   2.991   1.395   0.218  0.4501  0.3421  0.6460
 5973SOL    HW129378   2.929   1.447   0.166  0.1800  0.9207  1.5536
 5973SOL    HW229379   3.074   1.423   0.179 -0.8863  1.6693 -1.2616
 5974SOL     OW29380   0.584   2.897   3.678 -0.3314 -0.8351 -0.5536
 5974SOL    HW129381   0.553   2.811   3.650  0.4539 -1.5077  0.6410
 5974SOL    HW229382   0.678   2.885   3.689 -0.3850  1.1747  2.0773
 5975SOL     OW29383   1.640   3.198   7.492 -0.2237 -0.6673 -0.1300
 5975SOL    HW129384   1.627   3.105   7.471 -0.5351 -1.0438  1.7912
 5975SOL    HW229385   1.629   3.199   7.587  2.3559  1.1175  0.1641
 5976SOL     OW29386   3.711   3.644   9.166 -0.2179 -0.2322  0.2511
 5976SOL    HW129387   3.685   3.717   9.222  0.3160  0.1795 -0.0323
 5976SOL    HW229388   3.633   3.620   9.117  0.2448 -0.7459 -0.2401
 5977SOL     OW29389   2.472   0.575   3.269  0.1164  0.0799  0.1758
 5977SOL    HW129390   2.393   0.555   3.320 -0.8667  0.1807 -1.3168
 5977SOL    HW229391   2.435   0.531   3.193 -0.5585 -0.8843  1.0614
 5978SOL     OW29392   4.163   3.900   0.177  0.1360 -0.4945  0.2069
 5978SOL    HW129393   4.132   3.947   0.255  1.6891  0.5379  0.1962
 5978SOL    HW229394   4.210   3.823   0.211 -0.8872 -1.1361  0.1798
 5979SOL     OW29395   0.285   3.814  13.601 -0.1241  0.5057  0.3771
 5979SOL    HW129396   0.331   3.897  13.592  0.1917  0.3605  0.6548
 5979SOL    HW229397   0.236   3.809  13.519  0.0975 -1.0084  0.3413
 5980SOL     OW29398   0.561   1.113   5.519 -0.8696  0.1815  0.4862
 5980SOL    HW129399   0.655   1.125   5.530 -0.8698 -0.6082  1.2625
 5980SOL    HW229400   0.527   1.177   5.582 -2.7710  2.1813 -2.5664
 5981SOL     OW29401   2.220   2.551   9.690 -0.0320 -0.1579  0.2042
 5981SOL    HW129402   2.172   2.616   9.742  0.0379 -0.0638  0.1515
 5981SOL    HW229403   2.178   2.474   9.726  1.0436 -1.2294 -0.8409
 5982SOL     OW29404   1.003   0.748   4.813 -0.2248  0.1882 -0.1415
 5982SOL    HW129405   0.984   0.783   4.900  0.0554  0.8378 -0.3459
 5982SOL    HW229406   0.953   0.807   4.757  0.4191  1.4884  0.6519
 5983SOL     OW29407   2.071   4.700  12.946  0.9516 -0.6879  0.0238
 5983SOL    HW129408   2.010   4.706  12.872 -0.3838  0.9960  1.2485
 5983SOL    HW229409   2.007   4.701  13.017  0.5124  1.9956 -0.3968
 5984SOL     OW29410   4.599   2.512   0.446 -0.0277  0.5554  0.1754
 5984SOL    HW129411   4.630   2.556   0.366  0.4341  1.3424  0.7853
 5984SOL    HW229412   4.656   2.436   0.455 -1.1042 -0.2892 -0.1177
 5985SOL     OW29413   4.087   3.549   8.172 -0.1088  0.3777 -0.5643
 5985SOL    HW129414   4.023   3.537   8.102  0.4113 -1.0008 -0.8001
 5985SOL    HW229415   4.166   3.518   8.127  0.8118  3.4837 -1.1092
 5986SOL     OW29416   4.206   0.446   8.415  0.1638  0.5154 -0.6313
 5986SOL    HW129417   4.248   0.465   8.331  1.4039  0.8408  0.0652
 5986SOL    HW229418   4.113   0.463   8.397  0.0700  0.3404 -0.3047
 5987SOL     OW29419   0.811   0.012   8.598 -0.7917  0.0133 -0.8755
 5987SOL    HW129420   0.883   4.695   8.552 -0.1152  2.0433 -1.7566
 5987SOL    HW229421   0.818   4.689   8.679 -0.4791 -0.8734 -1.4458
 5988SOL     OW29422   2.364   4.580   1.030  0.0306 -0.3436 -0.2437
 5988SOL    HW129423   2.349   4.596   0.937  1.6843 -1.7537 -0.7391
 5988SOL    HW229424   2.299   4.511   1.042  0.3954 -0.7714 -0.7474
 5989SOL     OW29425   0.482   3.516   4.114 -0.2001 -0.2236 -0.2542
 5989SOL    HW129426   0.436   3.538   4.195  1.1736  2.5450 -0.2050
 5989SOL    HW229427   0.488   3.421   4.116  2.8110 -0.1321 -3.3381
 5990SOL     OW29428   4.659   3.104   5.387 -0.3430 -0.0197 -0.1221
 5990SOL    HW129429   4.668   3.014   5.419 -1.0991  0.0179  0.1924
 5990SOL    HW229430   0.004   3.108   5.324 -0.5113 -0.5032 -0.3443
 5991SOL     OW29431   0.472   3.980   6.223  0.4861  0.4205 -0.4517
 5991SOL    HW129432   0.536   4.048   6.205  2.5930 -0.9087  2.2106
 5991SOL    HW229433   0.463   3.969   6.317  2.6283 -0.1190 -0.3219
 5992SOL     OW29434   0.588   2.892   6.340  0.6688  0.4833  0.0307
 5992SOL    HW129435   0.637   2.849   6.269  3.0064  1.9172  0.7752
 5992SOL    HW229436   0.639   2.973   6.346  3.1353 -1.0340 -0.1529
 5993SOL     OW29437   4.306   4.302   2.677  0.6507  0.3940  0.3890
 5993SOL    HW129438   4.343   4.297   2.589  0.6595  1.9503  0.3002
 5993SOL    HW229439   4.256   4.221   2.673  0.0989  0.5886  3.0248
 5994SOL     OW29440   0.124   2.656   5.908  0.0906  0.4093 -0.5613
 5994SOL    HW129441   0.170   2.722   5.960  0.5157 -1.1030  0.9857
 5994SOL    HW229442   0.119   2.583   5.970  1.1759  0.4113 -0.4591
 5995SOL     OW29443   2.480   4.650   9.832 -0.0003 -0.0780 -0.4820
 5995SOL    HW129444   2.510   4.568   9.871 -1.9386 -0.9282 -0.7728
 5995SOL    HW229445   2.564   4.696   9.833  0.4606 -0.9065 -0.4677
 5996SOL     OW29446   3.530   4.676   3.944 -0.6077 -0.0841  0.2494
 5996SOL    HW129447   3.442   4.712   3.933 -0.9036  0.1706  3.3026
 5996SOL    HW229448   3.579   4.713   3.871  1.7080 -1.3937  1.1328
 5997SOL     OW29449   1.877   2.840   1.764 -0.3076 -0.1760  0.3438
 5997SOL    HW129450   1.851   2.865   1.853 -1.0448 -1.3835  0.4643
 5997SOL    HW229451   1.810   2.890   1.717 -0.3743 -0.1966  0.4160
 5998SOL     OW29452   2.977   3.581   1.906 -0.0406 -0.0744 -0.2465
 5998SOL    HW129453   2.909   3.648   1.894 -1.3244 -1.5023 -0.8808
 5998SOL    HW229454   2.929   3.499   1.917 -1.4090  0.5989 -1.0999
 5999SOL     OW29455   3.888   4.391   3.671  0.7415 -0.3325 -0.3887
 5999SOL    HW129456   3.866   4.442   3.749 -1.5332 -1.1344 -0.5049
 5999SOL    HW229457   3.958   4.339   3.710  2.6107  2.2617 -0.3482
 6000SOL     OW29458   1.864   3.099   0.878  0.1600 -0.2661 -0.4482
 6000SOL    HW129459   1.772   3.072   0.882  0.9147 -2.6599  0.8792
 6000SOL    HW229460   1.903   3.029   0.826  1.4814 -0.6111  1.0158
 6001SOL     OW29461   0.766   0.936  10.763  0.6006 -0.3205  0.1262
 6001SOL    HW129462   0.672   0.948  10.776  0.3083 -0.4385 -1.8154
 6001SOL    HW229463   0.754   0.865  10.700 -0.5031  1.1982 -1.3926
 6002SOL     OW29464   0.662   0.785   3.809  0.3219 -0.0629 -0.2791
 6002SOL    HW129465   0.655   0.703   3.858  1.2518 -0.9425 -1.6156
 6002SOL    HW229466   0.716   0.765   3.733 -0.1283 -0.1697 -0.5751
 6003SOL     OW29467   4.572   3.366   3.266 -0.5899  0.5067 -0.0390
 6003SOL    HW129468   4.629   3.291   3.284 -0.5723  0.3929 -0.5711
 6003SOL    HW229469   4.557   3.370   3.172  0.0447 -2.1707 -0.2633
 6004SOL     OW29470   1.013   2.922   5.803 -0.1512 -0.3566  0.2970
 6004SOL    HW129471   1.054   3.008   5.812  1.6164 -1.2281  0.4507
 6004SOL    HW229472   1.081   2.863   5.836  0.3994 -0.3844 -0.8772
 6005SOL     OW29473   2.626   2.543   2.379  0.1189  0.0569  0.3818
 6005SOL    HW129474   2.548   2.597   2.392 -1.1560 -1.8675  0.7735
 6005SOL    HW229475   2.696   2.592   2.420 -0.2818 -0.3501  1.5651
 6006SOL     OW29476   1.331   4.376   7.158  0.2133 -0.0732  0.0053
 6006SOL    HW129477   1.363   4.366   7.248 -0.7270 -2.7093  0.0255
 6006SOL    HW229478   1.413   4.359   7.111  0.4549 -1.2187  0.8304
 6007SOL     OW29479   3.750   1.520   7.317  0.3858 -0.4667  0.2268
 6007SOL    HW129480   3.688   1.519   7.389  1.6172 -1.3670  1.2861
 6007SOL    HW229481   3.685   1.502   7.250  1.3254  0.8618 -1.0568
 6008SOL     OW29482   0.946   0.202  17.394  0.2947  0.0239  0.6524
 6008SOL    HW129483   0.854   0.225  17.403  0.3629  1.4767 -2.0829
 6008SOL    HW229484   0.935   0.112  17.363 -0.0932 -0.3516  1.8901
 6009SOL     OW29485   0.657   1.521   6.362 -0.3391  0.1491  0.4042
 6009SOL    HW129486   0.726   1.586   6.348 -1.0908  0.8243 -0.1388
 6009SOL    HW229487   0.619   1.556   6.443  0.6465  0.7081  0.6315
 6010SOL     OW29488   1.026   3.862  17.331  0.2162  0.2839 -0.5698
 6010SOL    HW129489   0.998   3.913  17.255  1.6685  0.9229 -0.6604
 6010SOL    HW229490   1.014   3.769  17.311  2.0188  0.1738 -1.0661
 6011SOL     OW29491   1.101   1.552   8.274  1.1267  0.8145 -0.2141
 6011SOL    HW129492   1.168   1.616   8.250  1.5656  0.9908  1.5291
 6011SOL    HW229493   1.022   1.589   8.234  0.6574 -0.3294 -0.3436
 6012SOL     OW29494   4.126   3.935   7.147  0.0158 -0.2565 -0.1428
 6012SOL    HW129495   4.205   3.901   7.188 -1.0771 -1.0851  1.2753
 6012SOL    HW229496   4.073   3.859   7.122 -1.6099  0.0028  2.6016
 6013SOL     OW29497   2.383   1.683   7.677 -0.3862  0.3947  0.2818
 6013SOL    HW129498   2.287   1.682   7.678 -0.4009  2.4085  2.7720
 6013SOL    HW229499   2.410   1.642   7.760  2.9588  0.6548 -0.6794
 6014SOL     OW29500   1.050   3.537   6.054  0.6354 -0.0558  0.4026
 6014SOL    HW129501   1.111   3.517   5.982 -0.1255 -2.6950  0.4658
 6014SOL    HW229502   0.970   3.559   6.007 -0.2809 -0.0973  1.9572
 6015SOL     OW29503   2.122   1.808   8.474  0.2016  0.0758  0.6649
 6015SOL    HW129504   2.134   1.902   8.459 -1.7483  0.3880  1.0595
 6015SOL    HW229505   2.038   1.799   8.429  0.2528 -0.3040  0.6447
 6016SOL     OW29506   0.163   3.244   6.700 -0.4631 -0.2732 -0.2589
 6016SOL    HW129507   0.127   3.317   6.751 -0.7822 -0.0082 -0.8716
 6016SOL    HW229508   0.256   3.264   6.694 -0.5650  0.1536 -0.3956
 6017SOL     OW29509   0.235   2.271   0.311 -0.6407  0.1610  0.7927
 6017SOL    HW129510   0.206   2.360   0.289 -0.0171  0.0783 -0.3181
 6017SOL    HW229511   0.173   2.259   0.383 -0.7894 -2.7427  0.1556
 6018SOL     OW29512   0.277   3.192   3.934 -0.4105  0.8047 -0.0191
 6018SOL    HW129513   0.353   3.173   3.880 -1.1657  0.7468 -1.0540
 6018SOL    HW229514   0.243   3.104   3.951 -0.3828  1.1146  1.6713
 6019SOL     OW29515   0.122   4.270   3.875 -0.1469 -0.5277 -0.1050
 6019SOL    HW129516   0.155   4.349   3.831  1.4414 -1.2614 -0.2307
 6019SOL    HW229517   0.032   4.281   3.842 -0.1803  0.4247  0.3020
 6020SOL     OW29518   3.377   3.375  12.342  0.0943  0.4245 -0.6830
 6020SOL    HW129519   3.395   3.460  12.302  0.3100  0.0151 -1.4600
 6020SOL    HW229520   3.434   3.330  12.280  0.7216 -0.4241  0.5140
 6021SOL     OW29521   4.448   0.775   6.965 -0.3118 -0.0227  0.1566
 6021SOL    HW129522   4.427   0.850   7.020  0.0594  0.2248 -0.0429
 6021SOL    HW229523   4.423   0.804   6.877 -0.3225  1.5416  0.6864
 6022SOL     OW29524   3.692   3.339  11.968  0.2180  0.7831  0.4141
 6022SOL    HW129525   3.703   3.264  11.910 -2.7334 -0.6222  1.6537
 6022SOL    HW229526   3.732   3.316  12.052  1.6280 -1.4487 -0.8654
 6023SOL     OW29527   0.992   3.858   2.149 -0.0338 -0.1768 -0.2338
 6023SOL    HW129528   1.050   3.879   2.076  0.0740  1.4854  0.3294
 6023SOL    HW229529   0.909   3.888   2.112 -0.2243  2.0729  1.9857
 6024SOL     OW29530   3.997   3.911   2.041 -0.4077  1.0174 -0.1237
 6024SOL    HW129531   4.028   3.954   1.960  0.7198  1.2380  0.4274
 6024SOL    HW229532   3.927   3.962   2.081 -1.0627 -0.8275  1.0458
 6025SOL     OW29533   3.010   3.555   3.581  0.3759  0.2670  0.0033
 6025SOL    HW129534   2.971   3.630   3.627 -0.3485  1.5447 -2.7181
 6025SOL    HW229535   2.943   3.547   3.514 -1.0068  2.0472  1.1547
 6026SOL     OW29536   1.207   2.998   3.880 -0.5321  0.0287 -0.1477
 6026SOL    HW129537   1.208   3.094   3.888 -2.3372  0.1419 -1.4796
 6026SOL    HW229538   1.158   2.965   3.955 -0.4094  0.2459  0.0290
 6027SOL     OW29539   4.428   3.421   2.253 -0.6158 -0.0557 -0.2452
 6027SOL    HW129540   4.493   3.407   2.321 -1.1672  1.0489  0.5006
 6027SOL    HW229541   4.488   3.469   2.196  0.2857 -0.5770  0.2645
 6028SOL     OW29542   2.484   3.861   5.098 -0.2688 -0.1127  0.1857
 6028SOL    HW129543   2.411   3.813   5.136 -0.5990  2.3726  2.6824
 6028SOL    HW229544   2.480   3.863   5.002 -1.4007  1.0985  0.2519
 6029SOL     OW29545   3.180   2.063  12.040 -0.2820  0.3419  0.1538
 6029SOL    HW129546   3.153   1.978  12.004  0.5090  0.8608 -1.6461
 6029SOL    HW229547   3.141   2.125  11.978  0.4719  1.1749  0.5210
 6030SOL     OW29548   4.370   0.236   6.316 -0.0761 -0.5323  0.4985
 6030SOL    HW129549   4.449   0.288   6.332  0.5603 -1.4946  0.4852
 6030SOL    HW229550   4.309   0.307   6.336  1.8134  1.0748  0.5749
 6031SOL     OW29551   0.042   2.884   6.754 -0.4008  0.2235 -0.2639
 6031SOL    HW129552   0.113   2.889   6.690  1.5636 -0.2516  1.8894
 6031SOL    HW229553   0.087   2.857   6.835  1.7205 -1.5224 -2.0181
 6032SOL     OW29554   4.142   0.220  12.821 -0.3289  0.3492  0.1351
 6032SOL    HW129555   4.235   0.197  12.825 -0.2016  0.4701 -2.2282
 6032SOL    HW229556   4.102   0.163  12.886 -0.3960  0.0939 -0.1350
 6033SOL     OW29557   1.112   1.341  10.852 -0.0305 -0.2388  0.2413
 6033SOL    HW129558   1.056   1.269  10.822  0.4106 -0.4095 -0.1811
 6033SOL    HW229559   1.159   1.371  10.774  1.2694 -2.0866  0.3207
 6034SOL     OW29560   4.716   3.249   1.456  0.5040 -0.0641  0.0033
 6034SOL    HW129561   0.006   3.227   1.365  0.7028  4.1827 -0.9824
 6034SOL    HW229562   4.707   3.343   1.471 -1.2805  0.1570 -2.5370
 6035SOL     OW29563   3.281   2.410   1.426 -0.6818  0.2277  0.1543
 6035SOL    HW129564   3.367   2.406   1.385  0.3069  0.0145  2.2180
 6035SOL    HW229565   3.222   2.413   1.351  2.3893 -1.0987 -2.2890
 6036SOL     OW29566   3.825   3.313   1.315 -0.0195 -0.5869 -0.2938
 6036SOL    HW129567   3.737   3.297   1.349 -0.3846  0.5126 -0.7312
 6036SOL    HW229568   3.875   3.284   1.391  0.7790 -1.4755 -1.1609
 6037SOL     OW29569   1.831   0.859  12.362 -0.1476  0.0454  0.3725
 6037SOL    HW129570   1.782   0.927  12.315 -2.5779 -0.8905  1.5686
 6037SOL    HW229571   1.880   0.830  12.285  3.0398  0.3683  2.3153
 6038SOL     OW29572   0.373   3.048   7.748 -0.2559  0.3463  0.4557
 6038SOL    HW129573   0.335   3.112   7.808 -0.2572 -0.3695  1.2184
 6038SOL    HW229574   0.355   3.086   7.663 -0.1506 -0.3341  0.1291
 6039SOL     OW29575   2.969   4.666   7.980 -0.5077 -0.0202  0.3745
 6039SOL    HW129576   2.885   4.680   8.024  0.1920  0.9770  1.4004
 6039SOL    HW229577   3.029   0.005   8.016  1.1428 -0.4695 -1.5710
 6040SOL     OW29578   4.111   3.615   6.891 -0.0002  0.6540 -0.0085
 6040SOL    HW129579   4.204   3.625   6.911  0.7036 -4.3241 -0.7107
 6040SOL    HW229580   4.111   3.535   6.838 -0.5305 -0.2034  1.2616
 6041SOL     OW29581   3.896   4.287  13.079 -0.2775  0.4477 -0.0877
 6041SOL    HW129582   3.933   4.338  13.007 -0.7036 -0.1156 -0.7065
 6041SOL    HW229583   3.870   4.351  13.146 -0.3542  0.5833 -0.2486
 6042SOL     OW29584   4.661   2.698   7.958 -0.3165 -0.0367  0.0020
 6042SOL    HW129585   4.634   2.787   7.983  1.8951  0.6822 -0.1827
 6042SOL    HW229586   4.656   2.651   8.042  1.1653 -0.0962  0.0491
 6043SOL     OW29587   3.690   0.172   4.630  0.1958  0.3458 -0.1743
 6043SOL    HW129588   3.697   0.086   4.671 -0.0832  0.4464  0.0821
 6043SOL    HW229589   3.740   0.235   4.682  2.1504 -2.4220  1.2645
 6044SOL     OW29590   1.878   0.032   1.887 -0.3366  0.1882 -0.0009
 6044SOL    HW129591   1.896   0.006   1.977  0.4753  0.8056  0.0185
 6044SOL    HW229592   1.799   4.708   1.870  1.0088 -2.5981  2.1458
 6045SOL     OW29593   2.086   4.223   5.262 -0.2251  0.2861 -0.0605
 6045SOL    HW129594   2.030   4.281   5.210 -0.8052  0.8535  1.2051
 6045SOL    HW229595   2.169   4.270   5.255  0.1767 -0.1819  1.6409
 6046SOL     OW29596   1.281   1.968   0.052  0.0461  0.2413 -0.0683
 6046SOL    HW129597   1.334   2.042   0.022 -0.9865  0.9363 -0.1700
 6046SOL    HW229598   1.341   1.895   0.034 -0.5996 -0.4508  0.6097
 6047SOL     OW29599   1.132   0.059   5.078  0.5731  0.0942 -0.2440
 6047SOL    HW129600   1.137   0.095   5.167 -0.3408 -0.5616  0.0780
 6047SOL    HW229601   1.101   4.696   5.092  2.8528 -0.2563  2.6386
 6048SOL     OW29602   2.018   0.371   8.046  0.2573  0.2589 -0.3833
 6048SOL    HW129603   1.941   0.324   8.077  0.8997 -0.9151 -0.5509
 6048SOL    HW229604   2.039   0.427   8.120  0.6166 -0.2820 -0.0740
 6049SOL     OW29605   4.318   0.495   9.019  0.0139  0.0280 -0.5785
 6049SOL    HW129606   4.307   0.416   9.071  1.1196 -0.1282 -0.5889
 6049SOL    HW229607   4.248   0.543   9.062  1.2832  1.8685 -0.5503
 6050SOL     OW29608   3.409   1.298   9.687 -0.1118  0.1995  0.5360
 6050SOL    HW129609   3.402   1.369   9.751 -1.4760  1.2961 -0.8155
 6050SOL    HW229610   3.322   1.257   9.690  0.0691 -0.2194 -0.0027
 6051SOL     OW29611   4.614   0.613   4.041  0.1949  0.4354  0.0935
 6051SOL    HW129612   4.694   0.561   4.033  0.0634  0.6788 -2.8434
 6051SOL    HW229613   4.633   0.669   4.117 -0.6150  0.6523  0.1371
 6052SOL     OW29614   3.082   1.322   1.726 -0.4633  0.3231  0.1898
 6052SOL    HW129615   3.074   1.367   1.642 -1.7171 -0.5646 -0.1623
 6052SOL    HW229616   2.994   1.336   1.762  0.2657  1.8996  1.3640
 6053SOL     OW29617   0.196   0.038  13.857  0.0031  0.1282  0.2002
 6053SOL    HW129618   0.128   0.065  13.919 -0.1967 -3.3331  1.4561
 6053SOL    HW229619   0.261   0.107  13.876 -0.7410  0.7096  0.6249
 6054SOL     OW29620   1.996   1.233   8.010 -0.1806 -0.4321  0.9776
 6054SOL    HW129621   2.076   1.264   8.052 -0.0929  0.4207  0.1899
 6054SOL    HW229622   1.949   1.315   8.025 -1.0496 -0.6249 -0.7283
 6055SOL     OW29623   2.960   4.240   0.563  0.2470 -0.5560 -0.1326
 6055SOL    HW129624   2.973   4.321   0.513  2.8525  0.1889  1.7747
 6055SOL    HW229625   2.939   4.271   0.651  0.2773  0.0939 -0.3514
 6056SOL     OW29626   1.428   1.612   6.070 -0.1814 -0.1648 -0.5060
 6056SOL    HW129627   1.520   1.587   6.060  0.1379  0.2072  1.6285
 6056SOL    HW229628   1.392   1.525   6.085 -2.5566  1.3401  2.5111
 6057SOL     OW29629   1.727   0.252   6.459 -0.3104  0.3252 -0.4356
 6057SOL    HW129630   1.754   0.329   6.509 -3.1883  0.7337  0.4649
 6057SOL    HW229631   1.803   0.200   6.484  1.1575  1.5786 -2.2692
 6058SOL     OW29632   4.273   1.923   9.559  0.2055  0.0441  0.0259
 6058SOL    HW129633   4.237   1.837   9.539  1.0190 -0.5722  1.2106
 6058SOL    HW229634   4.354   1.920   9.509 -0.8477 -1.4481 -1.5975
 6059SOL     OW29635   3.553   1.001   0.790  0.3136  0.3446  0.1740
 6059SOL    HW129636   3.485   1.064   0.767  0.4883  0.6539  0.5028
 6059SOL    HW229637   3.542   0.945   0.713 -0.4714 -0.1556  0.6592
 6060SOL     OW29638   4.325   2.869  11.967  0.0059  0.3114  0.4557
 6060SOL    HW129639   4.236   2.902  11.971 -0.6847 -1.3661 -1.2020
 6060SOL    HW229640   4.373   2.946  11.938 -0.0270  0.1402 -0.0406
 6061SOL     OW29641   4.586   2.173   0.270 -0.1325 -0.2145  0.8395
 6061SOL    HW129642   4.498   2.178   0.233 -0.1260  0.8144  0.9548
 6061SOL    HW229643   4.643   2.149   0.197 -0.5995  0.6538  0.1783
 6062SOL     OW29644   2.849   4.705   3.151  0.3243 -0.1819  0.4298
 6062SOL    HW129645   2.847   4.705   3.055  2.0421 -1.6758  0.3934
 6062SOL    HW229646   2.808   0.062   3.173 -0.2108 -0.5438  0.8297
 6063SOL     OW29647   4.164   2.836  16.692 -0.0139  0.0975 -0.5324
 6063SOL    HW129648   4.129   2.857  16.778 -0.8409 -1.4071 -0.5053
 6063SOL    HW229649   4.113   2.760  16.663  0.7780 -0.2762 -0.9291
 6064SOL     OW29650   0.956   3.306   4.915 -0.1982 -0.2260  0.2776
 6064SOL    HW129651   1.018   3.378   4.904  1.3207 -1.2341  2.3129
 6064SOL    HW229652   0.965   3.282   5.007 -2.4005 -5.1092 -0.8016
 6065SOL     OW29653   3.886   0.203   2.776 -0.6640 -0.4754 -0.2247
 6065SOL    HW129654   3.812   0.262   2.763  0.0576  0.4251 -0.2637
 6065SOL    HW229655   3.848   0.130   2.728 -3.2941 -0.2567  1.5211
 6066SOL     OW29656   0.426   3.889   2.677  0.0201 -0.3354 -0.4375
 6066SOL    HW129657   0.351   3.947   2.689  1.3116  1.2748 -0.1228
 6066SOL    HW229658   0.489   3.936   2.623  0.5027  0.2922  0.6711
 6067SOL     OW29659   4.703   2.641   2.416  0.1666  0.2797  0.4045
 6067SOL    HW129660   4.714   2.691   2.335  2.9245  0.2533  0.7660
 6067SOL    HW229661   0.062   2.601   2.430  0.4508 -0.0876 -2.4569
 6068SOL     OW29662   2.038   2.597   4.802 -0.0350  0.2581  0.2402
 6068SOL    HW129663   2.061   2.510   4.833 -1.9084  0.2156  1.5941
 6068SOL    HW229664   2.099   2.609   4.730 -0.9531 -1.4317 -0.8013
 6069SOL     OW29665   2.080   1.011  11.164  0.3582  0.5018 -0.3246
 6069SOL    HW129666   2.056   1.039  11.076  0.0858  1.4848  0.0628
 6069SOL    HW229667   2.026   0.932  11.167  2.0644 -0.5791  1.8333
 6070SOL     OW29668   4.182   0.818   5.555 -0.3428  0.5677 -0.5137
 6070SOL    HW129669   4.150   0.732   5.525  0.7269 -0.4424  1.2276
 6070SOL    HW229670   4.154   0.817   5.647 -0.2326  0.8874 -0.4799
 6071SOL     OW29671   3.938   0.483   6.430  0.0701  0.3806 -0.0333
 6071SOL    HW129672   3.844   0.483   6.412  0.0626 -0.1977  0.0015
 6071SOL    HW229673   3.955   0.412   6.492 -2.6807  1.4567  1.9127
 6072SOL     OW29674   1.927   1.533   0.047 -0.0790 -0.0494  0.2302
 6072SOL    HW129675   1.928   1.607   0.107  1.8745  0.2789 -0.2112
 6072SOL    HW229676   1.943   1.579  17.674 -0.6379 -0.6290 -0.2050
 6073SOL     OW29677   3.149   2.691   7.621  0.6586 -0.3479  0.2679
 6073SOL    HW129678   3.220   2.753   7.601 -0.4215  1.2759  1.4400
 6073SOL    HW229679   3.081   2.712   7.558 -0.0659 -0.5187  0.9995
 6074SOL     OW29680   1.851   0.171   7.370 -0.1407  0.4181 -0.4868
 6074SOL    HW129681   1.889   0.219   7.443 -0.7753 -0.1798  0.2414
 6074SOL    HW229682   1.863   0.078   7.390 -3.5364  0.1885  0.4906
 6075SOL     OW29683   0.671   1.953   4.510 -0.0742  0.3091  0.4577
 6075SOL    HW129684   0.664   1.898   4.432  0.5435  1.6940 -0.5550
 6075SOL    HW229685   0.597   1.925   4.565  0.0219  2.2399  1.5594
 6076SOL     OW29686   4.435   1.018   3.844  0.1904 -0.0711 -0.4913
 6076SOL    HW129687   4.467   1.021   3.934 -2.0100  0.3160  0.2904
 6076SOL    HW229688   4.484   0.945   3.807  1.7967  0.3449  0.8365
 6077SOL     OW29689   1.330   0.792   8.207 -0.2797 -0.0670  0.0419
 6077SOL    HW129690   1.298   0.734   8.276 -1.5700 -1.3312 -1.6184
 6077SOL    HW229691   1.296   0.874   8.245 -2.3290 -0.7183 -0.4130
 6078SOL     OW29692   0.698   0.981   6.954 -0.2705  0.0783 -0.3543
 6078SOL    HW129693   0.712   0.991   7.048 -2.4853  2.7290 -0.3251
 6078SOL    HW229694   0.710   0.887   6.939 -0.9584 -0.0508 -0.0910
 6079SOL     OW29695   0.885   3.056   9.668  0.2522 -0.0926  0.4844
 6079SOL    HW129696   0.893   3.147   9.699  0.2353 -0.2605  0.9806
 6079SOL    HW229697   0.918   3.013   9.747  0.1926  0.9130  1.0556
 6080SOL     OW29698   4.325   0.227   2.742 -0.4233 -0.0167  0.0301
 6080SOL    HW129699   4.330   0.266   2.655  0.2974  1.6771  0.8316
 6080SOL    HW229700   4.245   0.270   2.772  0.7117  1.5327  0.8122
 6081SOL     OW29701   1.753   0.989   2.297 -0.3551 -0.6499 -0.0674
 6081SOL    HW129702   1.777   0.906   2.255 -0.8194 -0.7736 -0.0893
 6081SOL    HW229703   1.717   0.968   2.383  0.4208  0.9724  0.6569
 6082SOL     OW29704   0.754   1.657   2.947  0.5303  0.4548 -0.0631
 6082SOL    HW129705   0.702   1.735   2.967 -0.5817 -0.5958  1.1256
 6082SOL    HW229706   0.688   1.588   2.949  3.1441 -2.0989 -3.0849
 6083SOL     OW29707   0.956   2.118   7.214 -0.3111  0.0629 -0.0128
 6083SOL    HW129708   0.873   2.069   7.218 -0.0484 -0.4115 -0.3463
 6083SOL    HW229709   0.930   2.175   7.142  0.3412  1.0229  0.5120
 6084SOL     OW29710   1.055   1.741   7.087 -0.8808  0.1369  0.6778
 6084SOL    HW129711   1.077   1.781   7.171  3.8449 -1.9088  0.4334
 6084SOL    HW229712   1.102   1.657   7.094 -1.1257 -0.0926 -0.3298
 6085SOL     OW29713   2.785   0.806   7.615  0.0923 -0.1964 -0.0538
 6085SOL    HW129714   2.750   0.869   7.678  1.0415  0.6591 -0.3861
 6085SOL    HW229715   2.710   0.747   7.607  0.0566 -0.3297  1.1686
 6086SOL     OW29716   4.707   0.664  12.430 -0.1283  0.0249 -0.2977
 6086SOL    HW129717   0.013   0.717  12.358 -0.0573 -1.6384 -1.5017
 6086SOL    HW229718   4.709   0.730  12.499 -2.7954 -0.2365  0.0616
 6087SOL     OW29719   4.588   3.935   6.565  0.4442  0.6170  0.0854
 6087SOL    HW129720   4.561   4.009   6.510 -1.0296 -0.1104 -0.1603
 6087SOL    HW229721   4.577   3.974   6.652 -0.6650 -1.9510  1.0767
 6088SOL     OW29722   2.430   0.164   0.442 -0.0940 -0.5944 -0.0317
 6088SOL    HW129723   2.448   0.115   0.362  2.8482  0.8314 -0.2327
 6088SOL    HW229724   2.462   0.103   0.508  0.4123 -2.4500 -1.9952
 6089SOL     OW29725   1.674   4.597   4.774  0.3066 -0.4573  0.7859
 6089SOL    HW129726   1.682   4.659   4.847  4.2227 -0.6926  0.5423
 6089SOL    HW229727   1.600   4.544   4.803  0.2513 -0.8491 -0.0814
 6090SOL     OW29728   2.666   3.008   8.394  0.1957  0.3414  0.6360
 6090SOL    HW129729   2.741   2.993   8.451 -0.4076 -0.5218  1.1914
 6090SOL    HW229730   2.601   3.041   8.456  0.2956 -4.5866  3.3026
 6091SOL     OW29731   1.909   2.574   8.451 -0.5341 -0.1822 -0.0430
 6091SOL    HW129732   1.843   2.643   8.443  0.8918  0.9678 -2.0445
 6091SOL    HW229733   1.975   2.620   8.398 -0.0171 -0.0892  0.6901
 6092SOL     OW29734   2.161   0.568  12.193  0.4711  0.0431  0.1324
 6092SOL    HW129735   2.100   0.635  12.164 -0.2174 -1.0458 -0.9499
 6092SOL    HW229736   2.110   0.520  12.257  1.4954  0.1298  1.0156
 6093SOL     OW29737   4.696   0.274   5.800 -0.5425 -0.1616  0.6787
 6093SOL    HW129738   4.714   0.189   5.760  0.1196  0.2431  0.1252
 6093SOL    HW229739   4.669   0.326   5.724 -1.2611  1.6448  2.1831
 6094SOL     OW29740   2.908   3.795   3.640 -0.0979  0.4169  0.4812
 6094SOL    HW129741   2.932   3.875   3.594  2.1066  0.1398  1.1529
 6094SOL    HW229742   2.951   3.817   3.723 -0.0423 -2.0200  1.1129
 6095SOL     OW29743   0.748   3.635   9.202 -0.1173 -0.0237  0.0135
 6095SOL    HW129744   0.827   3.596   9.240 -0.4267 -0.7788 -0.1183
 6095SOL    HW229745   0.786   3.685   9.130 -0.0806  0.7062  0.5407
 6096SOL     OW29746   3.201   1.748  12.370 -0.0343 -0.3060  0.1304
 6096SOL    HW129747   3.269   1.810  12.393 -0.9061  0.7300 -0.1124
 6096SOL    HW229748   3.146   1.739  12.448 -1.9017  3.5799 -0.7300
 6097SOL     OW29749   2.846   2.739   4.002  0.1568 -0.1305 -0.2219
 6097SOL    HW129750   2.811   2.807   4.060  2.7875 -0.1016  1.3415
 6097SOL    HW229751   2.895   2.787   3.935  1.4105 -1.9234 -0.5864
 6098SOL     OW29752   2.270   1.567   5.860 -0.2109 -0.2037 -0.0044
 6098SOL    HW129753   2.186   1.540   5.897  0.1208  0.7162  1.4000
 6098SOL    HW229754   2.266   1.661   5.878 -0.0097 -0.1775 -0.0921
 6099SOL     OW29755   2.781   0.575   4.216 -0.1626  0.0964  0.5204
 6099SOL    HW129756   2.874   0.572   4.193 -0.4340 -1.4879 -0.3028
 6099SOL    HW229757   2.743   0.609   4.135 -3.7989  0.5030  2.3808
 6100SOL     OW29758   0.399   0.083   5.549  0.0989  0.6518  0.0321
 6100SOL    HW129759   0.345   0.152   5.511  0.5269  0.1760 -1.4568
 6100SOL    HW229760   0.344   0.008   5.528  0.0802  0.4312  0.8870
 6101SOL     OW29761   1.997   4.369   5.684  0.3988  0.5986 -0.0944
 6101SOL    HW129762   1.933   4.308   5.647  0.7257 -1.2662  2.3538
 6101SOL    HW229763   2.079   4.320   5.677  1.6246  2.4645  1.0084
 6102SOL     OW29764   1.430   1.045   7.052 -0.2305  0.6019 -0.2167
 6102SOL    HW129765   1.394   1.087   6.975  0.8698 -0.3137 -1.2224
 6102SOL    HW229766   1.353   1.030   7.107 -1.7652 -2.6237 -3.2742
 6103SOL     OW29767   2.596   2.045   4.144 -0.6049  0.6030  0.4213
 6103SOL    HW129768   2.511   2.030   4.187 -1.2259  2.3790 -0.1961
 6103SOL    HW229769   2.650   2.089   4.210  1.7873  0.8102 -1.6896
 6104SOL     OW29770   1.205   4.675   1.683 -0.0123  0.1718 -0.1041
 6104SOL    HW129771   1.179   4.626   1.761  1.6277  0.2376  0.4927
 6104SOL    HW229772   1.267   4.617   1.641 -0.9094  0.1142 -1.3432
 6105SOL     OW29773   0.141   2.929   3.596  0.0723  0.7872 -0.4808
 6105SOL    HW129774   0.122   2.892   3.682  1.1286  0.7314 -0.2719
 6105SOL    HW229775   0.103   3.015   3.613  0.4736  0.5431  1.5756
 6106SOL     OW29776   4.461   4.072   1.608  0.4027  0.0618 -0.6844
 6106SOL    HW129777   4.484   4.034   1.693  0.6807  0.8541 -0.4109
 6106SOL    HW229778   4.479   4.163   1.632 -0.4877  0.5901 -2.0416
 6107SOL     OW29779   3.853   2.564  15.624 -0.1002 -0.7722 -0.3833
 6107SOL    HW129780   3.814   2.609  15.699 -1.9273  1.4357 -2.7000
 6107SOL    HW229781   3.795   2.488  15.636 -0.5035 -0.5295 -0.8054
 6108SOL     OW29782   3.624   1.169   8.946  0.4466 -0.5503  0.0952
 6108SOL    HW129783   3.685   1.184   9.018  0.5215 -3.7972  0.7154
 6108SOL    HW229784   3.683   1.158   8.871  0.7388  4.1750 -0.3751
 6109SOL     OW29785   4.225   0.530   1.169  0.2197 -0.0638 -0.0589
 6109SOL    HW129786   4.129   0.525   1.177  0.1643  0.4149 -0.4254
 6109SOL    HW229787   4.237   0.619   1.201  0.5757 -1.2121  3.0281
 6110SOL     OW29788   2.428   2.069   9.510  0.0441  0.6821  0.5407
 6110SOL    HW129789   2.426   2.097   9.601 -1.9048 -0.7980  0.9433
 6110SOL    HW229790   2.335   2.054   9.494  0.5767 -1.6533 -0.3703
 6111SOL     OW29791   0.702   1.688   4.986  0.5257 -0.1944 -0.0283
 6111SOL    HW129792   0.686   1.782   4.989  0.2143 -0.1695 -2.5921
 6111SOL    HW229793   0.618   1.661   4.949 -0.5034 -1.6701  3.3813
 6112SOL     OW29794   0.892   4.267   6.143  0.1308  0.5652 -0.2123
 6112SOL    HW129795   0.901   4.353   6.184 -0.9835  1.0956 -1.0683
 6112SOL    HW229796   0.799   4.255   6.163 -0.1850 -1.0767 -2.6593
 6113SOL     OW29797   4.348   1.760  10.017 -0.2467  0.2011 -0.2214
 6113SOL    HW129798   4.322   1.752  10.108  0.2995 -2.0445 -0.2446
 6113SOL    HW229799   4.346   1.668   9.988 -1.6489 -0.9957  3.6789
 6114SOL     OW29800   2.348   1.430   7.838  0.5395 -0.2139 -0.2018
 6114SOL    HW129801   2.404   1.384   7.774  0.7994  1.0953 -0.9069
 6114SOL    HW229802   2.412   1.464   7.900 -2.2066  0.4265  2.2830
 6115SOL     OW29803   0.106   0.151  12.960  0.3405 -0.0892 -0.0344
 6115SOL    HW129804   0.092   0.087  13.030  2.0778 -0.0269  0.3643
 6115SOL    HW229805   0.028   0.207  12.959 -0.1220 -0.8221 -2.7983
 6116SOL     OW29806   3.220   3.505  13.393  0.5648 -0.0246  0.5962
 6116SOL    HW129807   3.224   3.516  13.298 -0.0582  1.1224  0.7132
 6116SOL    HW229808   3.249   3.589  13.429  1.0054  0.0703  0.0290
 6117SOL     OW29809   1.239   2.504   4.620  0.3720 -0.1491 -0.1268
 6117SOL    HW129810   1.327   2.468   4.630 -0.9395 -2.5393  2.8426
 6117SOL    HW229811   1.248   2.589   4.663  0.0512 -0.1153 -0.1265
 6118SOL     OW29812   2.581   1.750   9.637 -0.3130 -0.3288 -0.0559
 6118SOL    HW129813   2.527   1.676   9.666  0.0590 -1.1243 -1.4220
 6118SOL    HW229814   2.670   1.727   9.661 -0.3032  0.6475  0.8456
 6119SOL     OW29815   2.685   4.326   3.264 -0.6019 -0.4513 -0.5422
 6119SOL    HW129816   2.689   4.245   3.316 -0.7397 -0.2166 -0.1690
 6119SOL    HW229817   2.594   4.349   3.284 -0.2252 -0.6356  1.4131
 6120SOL     OW29818   2.032   2.659   1.064  0.7046  0.0197  0.2384
 6120SOL    HW129819   2.093   2.732   1.078  0.7396  0.6028 -3.0086
 6120SOL    HW229820   2.065   2.593   1.125  1.5152  0.4549  0.2745
 6121SOL     OW29821   3.177   2.831  13.767 -0.3984 -0.2514 -0.5062
 6121SOL    HW129822   3.216   2.753  13.727 -1.0491 -0.7387 -0.1835
 6121SOL    HW229823   3.237   2.896  13.730 -0.2851  1.8990  3.4996
 6122SOL     OW29824   2.214   4.557  11.978  0.0371 -0.4371  0.3911
 6122SOL    HW129825   2.275   4.572  11.905 -0.4293 -0.0046  0.0899
 6122SOL    HW229826   2.237   4.468  12.005 -2.6876 -0.7107  1.8320
 6123SOL     OW29827   1.621   2.050   5.152 -0.1745 -0.4933 -0.0763
 6123SOL    HW129828   1.526   2.062   5.143  0.0210  1.6618  0.6361
 6123SOL    HW229829   1.629   2.144   5.169  0.7789 -0.2263 -2.0000
 6124SOL     OW29830   2.951   4.600  16.765 -0.3525  0.6144 -0.5706
 6124SOL    HW129831   2.986   4.627  16.850 -0.2212  0.7444 -0.6664
 6124SOL    HW229832   2.863   4.637  16.760  1.0591  3.6385 -3.3327
 6125SOL     OW29833   1.644   4.348   2.309 -0.2256 -0.1765  0.0030
 6125SOL    HW129834   1.721   4.365   2.364  0.3633 -0.2572 -0.7903
 6125SOL    HW229835   1.573   4.354   2.372 -0.8134 -0.0671 -0.6656
 6126SOL     OW29836   0.908   1.612   7.341  0.8050 -0.5083 -0.0595
 6126SOL    HW129837   0.893   1.560   7.420 -1.0692  1.4980  0.8763
 6126SOL    HW229838   0.840   1.574   7.284 -1.4273  2.3954  0.6711
 6127SOL     OW29839   3.463   0.422  10.208  0.2600 -0.7263  0.3038
 6127SOL    HW129840   3.462   0.389  10.118  1.0423 -1.0058  0.3973
 6127SOL    HW229841   3.485   0.513  10.193  1.7955 -0.8125  2.0747
 6128SOL     OW29842   4.727   0.095   3.948 -0.5713 -0.0120  0.5081
 6128SOL    HW129843   4.664   0.162   3.922  0.8851  1.3642  0.5218
 6128SOL    HW229844   4.667   0.031   3.986  0.0414 -1.5332 -1.1259
 6129SOL     OW29845   2.653   2.281  15.661 -0.7361 -0.0098 -0.2327
 6129SOL    HW129846   2.657   2.375  15.678  0.9347 -0.0707 -0.2266
 6129SOL    HW229847   2.739   2.265  15.701 -0.1495  1.1074 -1.0376
 6130SOL     OW29848   1.301   3.173   8.379 -0.5694  0.6034  1.0244
 6130SOL    HW129849   1.337   3.251   8.336 -1.1400  0.3615  0.1140
 6130SOL    HW229850   1.209   3.198   8.371 -0.7099 -0.3577 -0.2165
 6131SOL     OW29851   3.797   2.996  15.243 -0.0287  0.0624  0.2499
 6131SOL    HW129852   3.756   2.980  15.329  0.6490 -0.8410  0.3982
 6131SOL    HW229853   3.883   3.019  15.277 -1.5087  2.4302  2.4458
 6132SOL     OW29854   1.640   0.354   8.134  0.6403 -0.5879  0.3427
 6132SOL    HW129855   1.566   0.323   8.186 -0.8202 -1.2149 -2.0813
 6132SOL    HW229856   1.711   0.324   8.191  0.8821 -0.1730  0.2663
 6133SOL     OW29857   0.860   3.238   1.760  0.3935  0.1143 -0.0436
 6133SOL    HW129858   0.921   3.179   1.716 -0.3098 -1.6990  1.3749
 6133SOL    HW229859   0.840   3.292   1.684 -1.6713 -1.4862 -0.6521
 6134SOL     OW29860   4.057   2.954   3.212  0.1602 -0.0296 -0.0898
 6134SOL    HW129861   3.972   2.910   3.220  0.2188  0.3200  2.3824
 6134SOL    HW229862   4.091   2.916   3.131  1.6053 -0.1663  0.5810
 6135SOL     OW29863   0.123   2.973   4.260  0.0701  0.3816 -0.6683
 6135SOL    HW129864   0.133   2.997   4.352 -2.8474  1.0799 -0.5396
 6135SOL    HW229865   0.087   3.057   4.230 -0.2807 -0.1474 -1.7280
 6136SOL     OW29866   4.481   0.530  15.225  0.0971 -0.0206  0.2802
 6136SOL    HW129867   4.554   0.496  15.277  0.6499  0.4860 -0.1694
 6136SOL    HW229868   4.443   0.597  15.283 -0.1134  0.1058 -0.0056
 6137SOL     OW29869   3.267   0.350   5.059  0.7212  0.1279  0.6602
 6137SOL    HW129870   3.284   0.257   5.045 -4.0103 -0.6799  0.1824
 6137SOL    HW229871   3.209   0.362   4.983  1.2133 -2.3094 -0.0776
 6138SOL     OW29872   3.262   3.535   7.391  0.1573  0.0107  0.6617
 6138SOL    HW129873   3.223   3.525   7.304  0.8860 -1.1272  0.4612
 6138SOL    HW229874   3.198   3.487   7.443 -0.9712  0.4571 -0.3124
 6139SOL     OW29875   0.448   0.960  12.150 -0.1542  0.3600  0.5568
 6139SOL    HW129876   0.456   0.873  12.189  1.7356 -0.0454 -0.7474
 6139SOL    HW229877   0.353   0.969  12.155 -0.1271  0.7915  0.2934
 6140SOL     OW29878   3.203   0.535  12.808  0.1893 -0.2634 -0.0286
 6140SOL    HW129879   3.181   0.535  12.715 -1.3193  2.3655  0.3202
 6140SOL    HW229880   3.289   0.576  12.815  0.2769 -0.1346 -1.9059
 6141SOL     OW29881   1.118   3.823   8.085  1.0654  0.2144  0.0255
 6141SOL    HW129882   1.092   3.867   8.004  0.1487 -0.1400  0.1371
 6141SOL    HW229883   1.123   3.736   8.046 -0.0686  0.0709  0.2176
 6142SOL     OW29884   4.201   1.389   6.581 -0.5207 -0.4319 -0.0939
 6142SOL    HW129885   4.117   1.345   6.569 -1.2192  1.1098 -0.8930
 6142SOL    HW229886   4.233   1.334   6.652  0.0236 -0.5233 -0.4125
 6143SOL     OW29887   2.348   4.475  11.478  0.5255  0.0210  0.1084
 6143SOL    HW129888   2.273   4.416  11.480 -0.5950  1.3617 -2.6757
 6143SOL    HW229889   2.334   4.528  11.556 -3.1093 -2.9575  1.4779
 6144SOL     OW29890   0.075   1.026   8.589  0.2160  0.3638  0.1105
 6144SOL    HW129891   0.156   0.975   8.600  1.3179  1.9241 -0.7216
 6144SOL    HW229892   0.103   1.107   8.547  0.9029 -0.6132 -1.3062
 6145SOL     OW29893   4.530   0.728   5.343 -0.7020 -0.4374 -0.3711
 6145SOL    HW129894   4.495   0.647   5.380  1.4108 -1.0852  0.1751
 6145SOL    HW229895   4.623   0.710   5.356 -0.9485 -1.8353 -0.5495
 6146SOL     OW29896   1.973   3.220   2.870 -0.0091  0.2518 -0.0879
 6146SOL    HW129897   1.991   3.141   2.921 -0.0160 -0.4139 -1.1163
 6146SOL    HW229898   1.986   3.190   2.780 -2.7772  1.2852 -0.8619
 6147SOL     OW29899   3.968   4.212  14.436  0.4262  0.5345  0.1599
 6147SOL    HW129900   3.996   4.197  14.527  2.3387  1.4522 -0.2870
 6147SOL    HW229901   3.873   4.223  14.441  0.4976  0.3527  2.2119
 6148SOL     OW29902   4.209   3.386   4.933  0.2753  0.2937  0.4055
 6148SOL    HW129903   4.141   3.351   4.875 -2.1792  1.0134  2.8668
 6148SOL    HW229904   4.193   3.330   5.009  1.3921 -1.4493 -0.6524
 6149SOL     OW29905   0.543   1.197  16.580 -0.2325  0.5777 -0.2828
 6149SOL    HW129906   0.517   1.136  16.649  4.0905 -0.7985  0.1608
 6149SOL    HW229907   0.464   1.201  16.526 -0.3009  1.3299 -0.1215
 6150SOL     OW29908   2.552   4.522  16.676  0.1092 -0.1271 -0.7999
 6150SOL    HW129909   2.519   4.495  16.762  2.2182  1.2200  0.4159
 6150SOL    HW229910   2.584   4.611  16.692  0.2458  0.1397 -2.4856
 6151SOL     OW29911   4.276   4.410  14.746  0.5122  0.0407  0.0526
 6151SOL    HW129912   4.349   4.379  14.692  1.2364  3.4153 -0.8419
 6151SOL    HW229913   4.291   4.504  14.745  1.2670 -0.0305  3.1618
 6152SOL     OW29914   3.014   3.909   0.746 -0.3059 -0.1972  0.2016
 6152SOL    HW129915   3.088   3.853   0.722 -0.1813 -0.3295  0.9039
 6152SOL    HW229916   3.054   3.996   0.745  1.2665 -0.9167  0.3768
 6153SOL     OW29917   2.794   3.175   8.867  0.4010  0.7392  0.4045
 6153SOL    HW129918   2.860   3.216   8.812 -0.2689  0.7167 -0.4012
 6153SOL    HW229919   2.849   3.106   8.904  1.0118  0.9742 -0.0778
 6154SOL     OW29920   2.084   4.004   6.238  0.3723 -0.5239 -0.0338
 6154SOL    HW129921   2.054   3.913   6.232 -0.7580 -0.2866  1.8105
 6154SOL    HW229922   2.018   4.055   6.191 -1.4980 -3.5148 -0.6811
 6155SOL     OW29923   1.706   4.597  16.413  0.0668 -0.1908 -0.4207
 6155SOL    HW129924   1.704   4.691  16.428  0.6149  0.1015 -2.1879
 6155SOL    HW229925   1.618   4.584  16.378  0.2080  1.1448 -1.2550
 6156SOL     OW29926   4.569   3.317   7.817 -0.3445 -0.0082 -0.3529
 6156SOL    HW129927   4.504   3.343   7.883 -0.1661  0.7809 -0.4905
 6156SOL    HW229928   4.570   3.222   7.813  1.9594 -0.0017 -0.0220
 6157SOL     OW29929   2.389   2.213  16.640 -0.4147 -0.0521 -0.1782
 6157SOL    HW129930   2.408   2.150  16.710 -0.1396 -1.0164 -1.1201
 6157SOL    HW229931   2.346   2.158  16.575  1.9839 -0.3970 -1.4596
 6158SOL     OW29932   2.292   0.762   2.476 -0.2089  0.1892 -0.5091
 6158SOL    HW129933   2.335   0.813   2.408  0.6903 -0.5146 -0.4659
 6158SOL    HW229934   2.291   0.822   2.550 -0.1702  0.0568 -0.4005
 6159SOL     OW29935   1.844   2.153  16.092 -0.6674  0.2285 -0.4911
 6159SOL    HW129936   1.808   2.076  16.047  0.9042  0.1001 -1.5256
 6159SOL    HW229937   1.767   2.208  16.106 -0.6178  0.1950 -0.0698
 6160SOL     OW29938   1.341   3.151   0.366  0.2254 -0.0393 -0.1582
 6160SOL    HW129939   1.413   3.142   0.304  0.3842 -1.1822  0.1956
 6160SOL    HW229940   1.363   3.243   0.381 -2.7495  0.5361  0.6584
 6161SOL     OW29941   3.142   4.220   3.631  0.5645  0.1508  0.2305
 6161SOL    HW129942   3.185   4.191   3.551 -0.3751  0.3819 -0.3667
 6161SOL    HW229943   3.062   4.167   3.624  1.4698 -1.3949  1.5392
 6162SOL     OW29944   2.140   3.332   9.396 -0.6116  0.2373  0.2106
 6162SOL    HW129945   2.077   3.350   9.327  0.8973  1.0020 -0.9558
 6162SOL    HW229946   2.080   3.338   9.470 -0.8030 -0.0568  0.0776
 6163SOL     OW29947   1.640   3.541   1.010  0.5521 -0.0481  0.4994
 6163SOL    HW129948   1.649   3.447   1.029 -1.5277 -0.5275 -0.9033
 6163SOL    HW229949   1.600   3.577   1.089  0.4672 -1.7824  1.2485
 6164SOL     OW29950   2.548   3.938   6.927  0.1530  0.2460 -1.0952
 6164SOL    HW129951   2.525   3.999   6.996 -2.3071 -1.8440 -0.0720
 6164SOL    HW229952   2.558   3.857   6.978  3.3789 -0.5446 -2.9338
 6165SOL     OW29953   2.665   0.691   5.366 -0.2439 -0.3700  0.0550
 6165SOL    HW129954   2.659   0.729   5.278  0.2804  0.3474  0.3310
 6165SOL    HW229955   2.579   0.651   5.376  0.0971 -1.6529 -2.1876
 6166SOL     OW29956   1.476   4.083   7.142 -0.4559 -0.1368 -0.3548
 6166SOL    HW129957   1.476   4.133   7.224 -1.7191 -1.0114  0.1714
 6166SOL    HW229958   1.546   4.021   7.162 -0.8522  0.0277  1.6039
 6167SOL     OW29959   4.576   1.246  17.076 -0.1556 -0.0022  0.0851
 6167SOL    HW129960   4.488   1.207  17.077  0.0538 -0.4184  1.9700
 6167SOL    HW229961   4.610   1.231  17.163  0.4300  0.2581 -0.1016
 6168SOL     OW29962   2.245   0.613   4.493  0.6441  0.1581 -0.9058
 6168SOL    HW129963   2.260   0.623   4.587  0.3646 -2.6397 -0.5612
 6168SOL    HW229964   2.172   0.551   4.486 -0.2935  1.2443 -0.6989
 6169SOL     OW29965   0.603   2.007   6.843 -0.0146 -0.0560  0.9159
 6169SOL    HW129966   0.602   1.911   6.846  2.1534 -0.0923  0.7617
 6169SOL    HW229967   0.677   2.030   6.787 -2.9203 -1.2420 -3.3490
 6170SOL     OW29968   0.771   3.385   4.333 -0.1573 -0.1170  0.3905
 6170SOL    HW129969   0.717   3.312   4.305 -0.1560  0.5430 -1.3144
 6170SOL    HW229970   0.719   3.449   4.284 -1.0436  1.0678  2.8660
 6171SOL     OW29971   1.857   4.688  13.099  0.1713  0.1358 -0.5461
 6171SOL    HW129972   1.777   4.636  13.103 -0.4858  1.0919 -1.4315
 6171SOL    HW229973   1.873   4.690  13.193  1.9916 -0.3004 -0.8259
 6172SOL     OW29974   3.996   4.551  11.303  0.0736  0.2954 -0.2446
 6172SOL    HW129975   3.934   4.519  11.367 -2.3415  1.3125 -2.0601
 6172SOL    HW229976   3.967   4.499  11.228 -4.1404  0.2980  1.4319
 6173SOL     OW29977   3.283   3.860   7.082  0.0179 -0.3025  0.2968
 6173SOL    HW129978   3.205   3.814   7.053  0.2569 -0.3427 -0.2713
 6173SOL    HW229979   3.249   3.934   7.133  2.6904  0.7397  0.5664
 6174SOL     OW29980   0.614   4.483   6.987  0.0894  0.0804 -0.3324
 6174SOL    HW129981   0.701   4.483   6.948  0.2730 -0.7605  0.0785
 6174SOL    HW229982   0.602   4.577   6.974 -1.1293  0.3907  2.9890
 6175SOL     OW29983   2.284   1.953   7.063  0.0633  0.1713  0.2167
 6175SOL    HW129984   2.276   1.861   7.090 -1.6449 -0.2284 -1.6038
 6175SOL    HW229985   2.380   1.956   7.063 -0.0108  2.5128 -1.1645
 6176SOL     OW29986   3.753   3.693   1.958 -0.4375 -0.1611 -0.7045
 6176SOL    HW129987   3.807   3.766   1.988  0.6604 -1.2820  0.0557
 6176SOL    HW229988   3.709   3.673   2.040  1.7031  2.5087  1.0982
 6177SOL     OW29989   0.651   3.077   3.454 -0.2804 -0.0864  0.1339
 6177SOL    HW129990   0.556   3.065   3.447 -0.0491 -4.2427  4.4199
 6177SOL    HW229991   0.657   3.126   3.536  0.0790 -1.2036  0.7836
 6178SOL     OW29992   4.649   3.720   5.387 -0.2868  0.1926 -0.9035
 6178SOL    HW129993   4.594   3.693   5.461  0.5385 -0.4254 -0.5135
 6178SOL    HW229994   4.637   3.659   5.314 -4.2584 -1.1030  0.8574
 6179SOL     OW29995   3.744   3.394   8.298  0.8369  0.2026  0.1361
 6179SOL    HW129996   3.728   3.325   8.234  0.9132 -0.1855  0.5338
 6179SOL    HW229997   3.698   3.365   8.376 -0.6688  2.5954  0.1436
 6180SOL     OW29998   1.611   3.471   8.893 -0.1306  0.0505 -0.1000
 6180SOL    HW129999   1.537   3.414   8.912  0.0006 -0.0005  0.2579
 6180SOL    HW230000   1.593   3.478   8.799  2.6075 -0.6890 -0.6752
 6181SOL     OW30001   0.233   2.775   1.626 -0.5121 -0.4526 -0.0117
 6181SOL    HW130002   0.157   2.818   1.587 -0.1354  0.7120  0.5366
 6181SOL    HW230003   0.301   2.803   1.566  0.0589 -0.8470  0.4503
 6182SOL     OW30004   0.934   1.430   0.561  0.4539  0.5011 -0.0073
 6182SOL    HW130005   0.954   1.439   0.654  2.8535 -3.1400 -0.1464
 6182SOL    HW230006   0.954   1.518   0.529 -0.3449  1.9032  3.3490
 6183SOL     OW30007   2.649   1.812   8.479  0.1398  0.3232  0.1932
 6183SOL    HW130008   2.691   1.862   8.549  0.8004 -1.2060  0.8969
 6183SOL    HW230009   2.580   1.767   8.528 -1.2995  3.4339  1.0709
 6184SOL     OW30010   3.647   0.270   3.494 -0.1628 -0.1070  0.3215
 6184SOL    HW130011   3.569   0.227   3.528 -0.4576 -0.9345 -1.4027
 6184SOL    HW230012   3.655   0.217   3.414 -0.5903 -0.2028  0.3413
 6185SOL     OW30013   3.729   1.629   7.836  0.2646  0.2862 -0.0701
 6185SOL    HW130014   3.661   1.696   7.825 -3.2194 -3.2941 -0.1950
 6185SOL    HW230015   3.730   1.611   7.930 -2.2435  0.9081  0.0626
 6186SOL     OW30016   4.026   3.567   2.835 -0.2115 -0.5769  0.0113
 6186SOL    HW130017   4.120   3.548   2.828  0.0663  0.2882  1.2795
 6186SOL    HW230018   3.985   3.499   2.783 -1.5917 -0.3458  0.8215
 6187SOL     OW30019   2.284   1.136   2.308  0.1698 -0.6055  0.2360
 6187SOL    HW130020   2.189   1.142   2.317 -0.0067 -3.2342  0.0807
 6187SOL    HW230021   2.318   1.179   2.386 -0.4137 -3.2103  1.9240
 6188SOL     OW30022   1.409   2.939   5.414  0.1948  0.4606 -0.8700
 6188SOL    HW130023   1.504   2.953   5.415  0.4300 -1.1176  0.5111
 6188SOL    HW230024   1.371   3.012   5.462  1.4167  0.0777  0.7041
 6189SOL     OW30025   2.959   1.490  17.447 -0.1868  0.3468  0.2141
 6189SOL    HW130026   2.920   1.412  17.408 -1.2918 -0.8384  3.6743
 6189SOL    HW230027   3.051   1.466  17.433  0.0304  1.7526 -0.7303
 6190SOL     OW30028   4.568   0.826  17.621 -0.1007 -0.6997  0.1714
 6190SOL    HW130029   4.560   0.910  17.575  0.1289 -2.3859 -2.9131
 6190SOL    HW230030   4.645   0.837  17.677 -2.0832  0.6722  2.6071
 6191SOL     OW30031   0.343   1.937   6.242 -0.2785 -0.3470  0.0204
 6191SOL    HW130032   0.323   1.845   6.223  0.1886 -0.7685  1.5782
 6191SOL    HW230033   0.337   1.972   6.153 -0.0277  2.1655  0.9913
 6192SOL     OW30034   4.398   0.001   5.754 -0.6640 -0.0229  0.2767
 6192SOL    HW130035   4.447   0.076   5.719 -0.7922 -0.3078 -0.5051
 6192SOL    HW230036   4.334   4.703   5.688  0.1982  0.3631 -0.6985
 6193SOL     OW30037   3.008   1.424   8.024  0.1201  0.5811 -0.2504
 6193SOL    HW130038   3.095   1.406   7.989 -0.2214 -0.1278 -0.7465
 6193SOL    HW230039   2.954   1.376   7.961 -0.0754 -0.4905  0.7404
 6194SOL     OW30040   3.666   0.762  11.475 -0.6352 -0.5517 -0.3117
 6194SOL    HW130041   3.633   0.850  11.460 -0.2658 -0.3098  0.2686
 6194SOL    HW230042   3.641   0.738  11.565  0.0569 -1.9030 -0.4760
 6195SOL     OW30043   1.777   3.166   1.567 -0.0437  0.4382  0.5015
 6195SOL    HW130044   1.735   3.215   1.496  2.6857  0.3121 -1.1777
 6195SOL    HW230045   1.868   3.168   1.537 -0.3799 -0.4149 -0.5804
 6196SOL     OW30046   0.514   2.696   3.078 -0.5178 -0.3910  0.0564
 6196SOL    HW130047   0.456   2.766   3.048 -1.3407 -2.1713 -2.5131
 6196SOL    HW230048   0.507   2.649   2.995 -0.4570 -0.5710  0.1551
 6197SOL     OW30049   1.089   0.374  17.656  0.1435 -0.0591  0.2701
 6197SOL    HW130050   1.061   0.351   0.036 -0.5327 -0.3088 -0.0062
 6197SOL    HW230051   1.103   0.284  17.628  2.4874 -0.1391  1.7288
 6198SOL     OW30052   3.362   2.865   1.340  0.2156  0.2846 -0.0291
 6198SOL    HW130053   3.379   2.846   1.432 -1.2212  1.1800  0.4282
 6198SOL    HW230054   3.384   2.958   1.344  3.1985 -0.3801 -1.2146
 6199SOL     OW30055   2.152   3.581   4.345  0.0173  0.2061 -0.6398
 6199SOL    HW130056   2.074   3.627   4.314  0.7744  0.6860 -1.8271
 6199SOL    HW230057   2.207   3.568   4.268 -0.6206 -0.0936 -1.0390
 6200SOL     OW30058   2.595   4.595   9.575  0.3795  0.2897  0.1390
 6200SOL    HW130059   2.523   4.555   9.527 -0.1035  1.1856  0.1213
 6200SOL    HW230060   2.539   4.631   9.643 -1.2527 -1.1252 -0.4627
 6201SOL     OW30061   2.402   0.853   8.780 -0.5629  0.0244  0.0610
 6201SOL    HW130062   2.327   0.831   8.836 -0.0432 -1.5283  0.1542
 6201SOL    HW230063   2.392   0.943   8.750  0.8888 -0.2058 -1.0800
 6202SOL     OW30064   4.480   4.587   4.886 -0.5158 -0.3190  0.2978
 6202SOL    HW130065   4.489   4.658   4.950  0.6959  0.8282 -1.1342
 6202SOL    HW230066   4.401   4.541   4.913 -0.4246  0.3071  1.6394
 6203SOL     OW30067   0.282   2.099   0.046 -0.3367  0.2455  0.0675
 6203SOL    HW130068   0.200   2.051   0.046  1.2499 -2.4956  0.2566
 6203SOL    HW230069   0.273   2.141   0.132  2.4619  1.0050 -0.0058
 6204SOL     OW30070   3.231   3.789   0.681 -0.2931 -0.3076 -0.0218
 6204SOL    HW130071   3.309   3.842   0.662 -0.5029  0.3908  1.0760
 6204SOL    HW230072   3.222   3.750   0.594  0.1724 -1.2820  0.3661
 6205SOL     OW30073   3.680   3.065   1.731 -0.3501 -0.2319 -0.1763
 6205SOL    HW130074   3.613   3.133   1.727 -1.2707 -1.1291 -0.0017
 6205SOL    HW230075   3.702   3.061   1.824 -1.2667 -0.0259  0.0467
 6206SOL     OW30076   2.705   3.908   6.369 -0.2119 -0.1659  0.1068
 6206SOL    HW130077   2.703   3.992   6.323  1.0422 -0.5378 -0.6047
 6206SOL    HW230078   2.651   3.928   6.446 -0.6583 -0.1276 -0.2161
 6207SOL     OW30079   1.278   4.486   4.302  0.0588 -0.1336  0.0345
 6207SOL    HW130080   1.313   4.514   4.386  0.5230 -2.2993  0.5728
 6207SOL    HW230081   1.241   4.567   4.267  0.2610 -0.4175 -0.8318
 6208SOL     OW30082   1.715   1.213  16.361 -0.4842 -0.4587  0.1357
 6208SOL    HW130083   1.790   1.233  16.305  0.1131  1.4522  1.6091
 6208SOL    HW230084   1.658   1.289  16.353  0.1063 -0.4483 -3.7345
 6209SOL     OW30085   3.665   2.616   5.848 -0.5628 -0.1784  0.1611
 6209SOL    HW130086   3.734   2.644   5.786 -1.9359 -0.5429 -1.5410
 6209SOL    HW230087   3.600   2.595   5.781  0.1982  0.0273 -0.6493
 6210SOL     OW30088   3.972   3.168   7.081 -0.6286  0.8107  0.3405
 6210SOL    HW130089   3.895   3.119   7.052  0.8703 -1.8189  0.7514
 6210SOL    HW230090   4.043   3.103   7.082 -1.8809 -0.6045 -2.5673
 6211SOL     OW30091   2.616   2.916  16.021  0.3575 -0.2654 -0.0317
 6211SOL    HW130092   2.521   2.907  16.022  0.1518  1.6973 -1.1462
 6211SOL    HW230093   2.643   2.877  16.104  1.5242  1.0652  0.2225
 6212SOL     OW30094   4.424   4.111  14.548  0.7822  0.2893  0.5015
 6212SOL    HW130095   4.499   4.053  14.534  0.8092  1.0020 -2.2163
 6212SOL    HW230096   4.383   4.079  14.629 -0.8998 -1.2591 -0.9518
 6213SOL     OW30097   2.549   3.279   8.821  0.2953 -0.1688 -0.3477
 6213SOL    HW130098   2.624   3.226   8.848  0.2184  0.9895  2.0481
 6213SOL    HW230099   2.538   3.333   8.899  0.4332 -1.2120  0.3884
 6214SOL     OW30100   0.832   0.678   9.955  0.2240 -0.0673 -0.5750
 6214SOL    HW130101   0.867   0.593   9.982 -1.5990 -0.7078 -0.2296
 6214SOL    HW230102   0.738   0.655   9.953  0.2140 -0.1899  1.4119
 6215SOL     OW30103   1.972   3.957   3.586  0.9011  0.3337 -0.4233
 6215SOL    HW130104   2.033   3.926   3.654  1.6503  1.3769 -0.6238
 6215SOL    HW230105   1.901   4.002   3.632  0.9246 -0.5574  0.5085
 6216SOL     OW30106   3.443   4.133   7.519  0.1628  0.2443  0.2434
 6216SOL    HW130107   3.407   4.075   7.453 -1.5091 -1.4254  2.6129
 6216SOL    HW230108   3.505   4.072   7.558 -2.7939 -2.3163  0.8780
 6217SOL     OW30109   3.968   4.229  10.801 -0.4063 -0.0032 -0.0520
 6217SOL    HW130110   3.952   4.223  10.707 -1.2096  2.0844 -0.0368
 6217SOL    HW230111   3.996   4.141  10.827  0.0910 -0.6829 -2.8698
 6218SOL     OW30112   0.456   2.479   3.430  0.3015  0.3986  0.3600
 6218SOL    HW130113   0.549   2.491   3.411  0.5322 -1.3635  0.4489
 6218SOL    HW230114   0.474   2.504   3.521  0.2643 -0.5428  0.6200
 6219SOL     OW30115   1.232   2.414   9.438  0.1536 -0.3046 -0.1164
 6219SOL    HW130116   1.319   2.455   9.447 -0.1975  0.6490 -1.0402
 6219SOL    HW230117   1.191   2.461   9.511  2.5473  3.0181 -0.8597
 6220SOL     OW30118   2.812   0.121  11.499 -0.0769  0.0539  0.2726
 6220SOL    HW130119   2.901   0.153  11.481  0.2855 -0.5524  1.0344
 6220SOL    HW230120   2.806   0.055  11.430 -1.9886  1.4885 -0.9366
 6221SOL     OW30121   1.632   0.507   5.724 -0.3147  0.3127 -0.5553
 6221SOL    HW130122   1.707   0.565   5.715 -0.1015  0.3032  1.2452
 6221SOL    HW230123   1.568   0.551   5.779 -2.1746 -0.4590 -2.0898
 6222SOL     OW30124   2.618   3.313  14.054 -0.3915  0.8205  0.1035
 6222SOL    HW130125   2.654   3.344  13.971  0.4278 -0.2082  0.0804
 6222SOL    HW230126   2.577   3.230  14.032  2.2899 -0.0496 -1.5253
 6223SOL     OW30127   0.314   1.056  13.593 -0.3181 -0.4227 -0.0509
 6223SOL    HW130128   0.223   1.068  13.619 -1.4821 -0.5107 -4.1337
 6223SOL    HW230129   0.368   1.050  13.673 -1.1741  0.2382  0.5748
 6224SOL     OW30130   2.768   2.244   9.373 -0.0759 -0.2929  0.4120
 6224SOL    HW130131   2.732   2.307   9.435 -1.8586  0.3137 -1.2353
 6224SOL    HW230132   2.690   2.235   9.318  0.4302 -0.5049 -0.2815
 6225SOL     OW30133   4.379   2.583   1.041 -0.5262  0.6614  0.6228
 6225SOL    HW130134   4.447   2.631   1.088  0.8556 -1.5592  0.9252
 6225SOL    HW230135   4.344   2.518   1.102  0.9744 -1.1449 -0.4491
 6226SOL     OW30136   3.280   3.412   1.249  0.4422  0.1972 -0.9939
 6226SOL    HW130137   3.210   3.468   1.283  0.0710 -0.0284 -1.3685
 6226SOL    HW230138   3.275   3.340   1.312 -1.0901  0.6152 -0.6173
 6227SOL     OW30139   0.115   3.077   9.326  0.1067 -0.3321  0.3973
 6227SOL    HW130140   0.041   3.016   9.322  0.5931 -0.8541 -0.5166
 6227SOL    HW230141   0.092   3.152   9.381 -1.0221 -0.3403 -0.0587
 6228SOL     OW30142   2.368   2.271   1.226 -0.1941  0.3677 -0.0623
 6228SOL    HW130143   2.451   2.300   1.187 -0.3436 -1.4624 -1.7302
 6228SOL    HW230144   2.383   2.266   1.320  0.5270 -2.4882 -0.3397
 6229SOL     OW30145   1.122   1.896  14.755  0.4218 -0.2853 -0.1452
 6229SOL    HW130146   1.178   1.973  14.764 -1.1739  0.9619 -1.0051
 6229SOL    HW230147   1.100   1.879  14.846 -0.4906  0.7810 -0.1701
 6230SOL     OW30148   3.787   1.446   2.790  0.7740  0.5225  0.4932
 6230SOL    HW130149   3.711   1.389   2.805 -0.4162  1.6936 -1.0810
 6230SOL    HW230150   3.860   1.388   2.770  1.6501  2.0386 -0.7336
 6231SOL     OW30151   1.403   3.057   6.892 -0.0771  0.2141 -0.3967
 6231SOL    HW130152   1.480   3.066   6.836  0.8983  1.7299  1.1891
 6231SOL    HW230153   1.337   3.040   6.825  0.2217 -0.8590 -0.4083
 6232SOL     OW30154   2.410   4.228   3.021 -0.0779 -0.4350 -0.0349
 6232SOL    HW130155   2.501   4.201   3.033  0.7463  2.6312  0.6609
 6232SOL    HW230156   2.395   4.288   3.094  2.4177 -0.6099  0.6170
 6233SOL     OW30157   1.872   2.710   8.757  0.1213 -0.1784 -0.2772
 6233SOL    HW130158   1.867   2.618   8.784 -1.7624 -0.8652 -3.0566
 6233SOL    HW230159   1.866   2.762   8.837 -2.3877 -0.3647 -0.3453
 6234SOL     OW30160   3.732   1.020   6.976  0.4860  0.3059  0.1855
 6234SOL    HW130161   3.646   0.982   6.993  0.9371 -0.6594  0.3016
 6234SOL    HW230162   3.716   1.089   6.911  2.4991  0.9358  0.3680
 6235SOL     OW30163   2.587   1.296   6.421 -0.2606 -0.5975 -0.3245
 6235SOL    HW130164   2.564   1.206   6.444 -2.6943 -0.2484 -1.4605
 6235SOL    HW230165   2.523   1.322   6.355  0.0689 -1.6390 -1.0630
 6236SOL     OW30166   4.239   2.026  11.592 -0.1970 -0.2845  0.3452
 6236SOL    HW130167   4.301   1.997  11.526  0.4769  3.8075 -0.8172
 6236SOL    HW230168   4.152   2.013  11.555  0.1933  0.0230 -0.6685
 6237SOL     OW30169   4.052   4.191  16.431  1.1186 -0.1401 -0.0622
 6237SOL    HW130170   4.100   4.143  16.364 -1.9282 -2.2497 -0.6811
 6237SOL    HW230171   4.071   4.130  16.502 -1.7334 -2.9749 -1.7803
 6238SOL     OW30172   3.453   4.325   3.682 -0.7967 -0.4257  0.4587
 6238SOL    HW130173   3.439   4.250   3.625  4.2730 -0.2537 -1.0063
 6238SOL    HW230174   3.544   4.316   3.711 -0.8179  1.1438  1.0298
 6239SOL     OW30175   0.252   3.868   1.017  0.4219 -0.1978 -0.1993
 6239SOL    HW130176   0.180   3.805   1.023 -0.8090  0.9892 -2.4951
 6239SOL    HW230177   0.210   3.953   1.004 -0.8720 -0.6286  1.0684
 6240SOL     OW30178   1.572   0.577   6.107  0.0960  0.5258  0.2667
 6240SOL    HW130179   1.570   0.500   6.164  1.1857 -0.0037 -0.4092
 6240SOL    HW230180   1.553   0.642   6.175  1.0179 -0.2795  1.3026
 6241SOL     OW30181   4.221   4.513   6.253 -0.2137 -0.2980  0.2509
 6241SOL    HW130182   4.302   4.558   6.278 -0.7805 -0.0940  1.7348
 6241SOL    HW230183   4.169   4.587   6.219 -2.8512 -2.6581 -0.8270
 6242SOL     OW30184   1.871   2.707   4.195  0.3511 -0.0060  0.1640
 6242SOL    HW130185   1.904   2.671   4.277 -1.5508  0.2736  1.0672
 6242SOL    HW230186   1.923   2.786   4.183 -0.8251  0.2836 -2.9552
 6243SOL     OW30187   0.309   4.517   7.214  0.3699 -0.0608 -0.5628
 6243SOL    HW130188   0.285   4.608   7.232 -1.3719 -0.3737 -1.2736
 6243SOL    HW230189   0.229   4.477   7.248  0.9434  0.4446  1.3674
 6244SOL     OW30190   0.563   2.995  11.510 -0.0270 -0.2576 -0.4455
 6244SOL    HW130191   0.583   3.018  11.419  0.4510  1.6674  0.1627
 6244SOL    HW230192   0.594   2.905  11.502  1.1015  0.0373  0.6304
 6245SOL     OW30193   0.299   0.446   4.818  0.4085  0.3405 -0.1706
 6245SOL    HW130194   0.312   0.532   4.858  0.1628 -0.2931  1.2927
 6245SOL    HW230195   0.207   0.454   4.795 -0.0110 -0.7835  1.0867
 6246SOL     OW30196   2.547   2.659   8.284  0.6355 -0.5983 -0.5909
 6246SOL    HW130197   2.632   2.615   8.292  0.4943 -0.3002  2.6903
 6246SOL    HW230198   2.561   2.754   8.281 -2.6021 -0.0652  0.8419
 6247SOL     OW30199   0.893   0.132   6.835  0.0179  0.3145  0.3682
 6247SOL    HW130200   0.905   0.127   6.930  1.1011  0.2351  0.2300
 6247SOL    HW230201   0.843   0.214   6.831  1.6098  1.4722  3.4799
 6248SOL     OW30202   2.410   2.985   7.065  0.2384 -0.4796 -0.2303
 6248SOL    HW130203   2.388   2.955   7.154 -0.1631  1.6012  0.3770
 6248SOL    HW230204   2.406   2.904   7.014  0.0107 -0.6301  0.0234
 6249SOL     OW30205   3.731   0.984   0.069  0.0316 -0.8584 -0.2536
 6249SOL    HW130206   3.791   0.956   0.138 -0.5482  2.2460  1.5338
 6249SOL    HW230207   3.776   0.959  17.697 -0.0553 -2.1805  0.0997
 6250SOL     OW30208   2.986   0.470   0.284 -0.2879 -0.7295 -0.2249
 6250SOL    HW130209   3.038   0.397   0.316  0.6160 -0.3650 -0.8358
 6250SOL    HW230210   2.894   0.445   0.291 -0.9456  1.1023 -2.0405
 6251SOL     OW30211   3.129   0.792  17.029  0.3175 -0.5706  0.0643
 6251SOL    HW130212   3.092   0.881  17.029  2.3815  0.2779  0.8546
 6251SOL    HW230213   3.112   0.762  16.939 -1.5714  3.0109 -0.7903
 6252SOL     OW30214   1.496   1.827   5.889 -0.1569 -0.8335 -0.1317
 6252SOL    HW130215   1.487   1.732   5.898  2.4122 -1.2258 -1.4372
 6252SOL    HW230216   1.590   1.836   5.905 -0.7779  3.1739  1.2536
 6253SOL     OW30217   3.478   2.892   1.612  0.4104 -0.8132  0.6785
 6253SOL    HW130218   3.517   2.805   1.616  1.1596 -0.5578 -0.7993
 6253SOL    HW230219   3.552   2.947   1.639 -0.1571 -0.7669  2.0966
 6254SOL     OW30220   0.500   2.952   8.461  0.5226 -0.4270  0.3489
 6254SOL    HW130221   0.468   3.039   8.484  0.8590  0.1073 -1.1701
 6254SOL    HW230222   0.416   2.910   8.442 -0.3782  0.1679  3.0236
 6255SOL     OW30223   0.484   3.372   8.802 -0.3336  0.3178 -0.0674
 6255SOL    HW130224   0.560   3.366   8.743 -1.0371 -1.5103 -0.7987
 6255SOL    HW230225   0.521   3.321   8.875 -1.1169 -1.1289 -0.6790
 6256SOL     OW30226   3.825   1.205  13.713  0.2436  0.2698  0.2938
 6256SOL    HW130227   3.738   1.172  13.694 -0.0156  2.2957 -2.0141
 6256SOL    HW230228   3.835   1.284  13.661 -1.7656  0.2357 -0.1328
 6257SOL     OW30229   0.115   2.760   3.841 -0.0742 -0.2915  0.0937
 6257SOL    HW130230   0.109   2.665   3.826 -1.1948 -0.0112 -1.2086
 6257SOL    HW230231   0.028   2.771   3.879 -0.4700 -0.0174 -0.8788
 6258SOL     OW30232   2.646   0.805   7.924 -0.4267  0.2801 -0.3584
 6258SOL    HW130233   2.613   0.719   7.952 -5.1802  1.9167 -0.8596
 6258SOL    HW230234   2.588   0.853   7.984 -2.2740 -0.4239 -1.5863
 6259SOL     OW30235   4.088   3.476   2.110  0.6125 -0.2101 -0.3136
 6259SOL    HW130236   4.155   3.508   2.050  0.1129  0.6475 -0.4184
 6259SOL    HW230237   4.062   3.557   2.154  0.8653  0.0558 -0.6639
 6260SOL     OW30238   1.632   0.684   6.407  0.3231 -0.4530 -0.2071
 6260SOL    HW130239   1.649   0.666   6.500 -2.4074 -1.5673  0.0720
 6260SOL    HW230240   1.699   0.626   6.370  0.3847 -0.3766 -0.2157
 6261SOL     OW30241   0.682   3.862   6.600  0.4881  0.3426 -0.2088
 6261SOL    HW130242   0.758   3.804   6.600  1.6081  1.8003  0.0850
 6261SOL    HW230243   0.684   3.892   6.691 -1.4678 -0.5886  0.1511
 6262SOL     OW30244   3.899   1.067  10.322  0.6455  0.0984 -0.4952
 6262SOL    HW130245   3.969   1.129  10.342  0.2811 -0.2521  1.8428
 6262SOL    HW230246   3.931   0.996  10.378  0.8056  1.6144  1.3062
 6263SOL     OW30247   3.126   3.188   9.262 -0.5485 -0.4882 -0.3220
 6263SOL    HW130248   3.127   3.243   9.183  1.7776  1.3533  0.9748
 6263SOL    HW230249   3.071   3.242   9.318  1.1314  0.2691  0.5995
 6264SOL     OW30250   4.681   2.257  11.284  0.0128  0.2067 -0.2281
 6264SOL    HW130251   4.667   2.199  11.209 -0.2912  1.5525 -1.2032
 6264SOL    HW230252   4.642   2.197  11.348  0.2335 -0.5149 -0.7806
 6265SOL     OW30253   1.705   1.162   1.998 -0.1585 -0.3908  0.7322
 6265SOL    HW130254   1.784   1.204   1.965  0.3878 -0.7342  1.6029
 6265SOL    HW230255   1.630   1.194   1.948  1.6483  1.9529 -0.4433
 6266SOL     OW30256   0.070   2.099   9.651  0.6322 -0.3178 -0.4437
 6266SOL    HW130257   0.119   2.107   9.569  0.9417  0.6032 -0.1722
 6266SOL    HW230258   0.048   2.006   9.648 -2.7358  0.4569 -0.2465
 6267SOL     OW30259   0.876   0.703   5.917  0.1250 -0.1237 -0.2904
 6267SOL    HW130260   0.826   0.779   5.947  1.0773  0.7923 -1.0455
 6267SOL    HW230261   0.890   0.722   5.825  0.6982  0.9402  0.0191
 6268SOL     OW30262   4.012   4.458   8.832  0.2390  0.1056 -1.0059
 6268SOL    HW130263   4.024   4.488   8.922  0.6649  1.2250 -1.4254
 6268SOL    HW230264   3.918   4.446   8.840  0.0489  1.8244 -0.7130
 6269SOL     OW30265   3.108   1.063   5.750 -1.1155  0.2654 -0.2382
 6269SOL    HW130266   3.189   1.013   5.760 -1.0840  0.1988 -0.8738
 6269SOL    HW230267   3.141   1.147   5.782 -1.5724  0.5172 -0.4281
 6270SOL     OW30268   3.569   2.578   5.498 -0.2204 -0.3451 -0.1038
 6270SOL    HW130269   3.528   2.604   5.581  3.6406  0.1585  1.6122
 6270SOL    HW230270   3.491   2.562   5.445 -1.1908  0.9053  0.9209
 6271SOL     OW30271   1.236   3.561   2.939 -0.1681 -0.3986 -0.0437
 6271SOL    HW130272   1.173   3.630   2.916  0.1282  0.7233  2.5614
 6271SOL    HW230273   1.193   3.489   2.894 -2.6733  1.2634 -0.3480
 6272SOL     OW30274   2.407   4.262  10.493 -0.1718  0.4186  0.3851
 6272SOL    HW130275   2.370   4.285  10.579  0.5279  0.1184  0.7712
 6272SOL    HW230276   2.330   4.228  10.448 -1.2787 -0.2348  2.7646
 6273SOL     OW30277   1.469   0.483   8.380 -0.0400 -0.0285  0.8626
 6273SOL    HW130278   1.520   0.552   8.337 -0.0945 -1.2305 -1.1699
 6273SOL    HW230279   1.445   0.511   8.468 -0.5872 -0.7741  0.9526
 6274SOL     OW30280   4.453   1.617   7.699 -0.0947  0.3554 -0.2396
 6274SOL    HW130281   4.446   1.545   7.636  5.1577  1.1450 -1.7409
 6274SOL    HW230282   4.402   1.688   7.660 -0.4296  0.2807  0.0595
 6275SOL     OW30283   0.161   1.901  13.977  0.2929  0.5401  0.0796
 6275SOL    HW130284   0.174   1.951  13.896  1.9795  1.0088  0.6439
 6275SOL    HW230285   0.236   1.841  13.980 -0.3534 -0.2325  0.4925
 6276SOL     OW30286   1.474   2.713   7.602 -0.0108  0.4365  0.1901
 6276SOL    HW130287   1.471   2.687   7.694 -2.4252  2.7204  0.7717
 6276SOL    HW230288   1.539   2.784   7.602 -0.9950  1.3318  0.1367
 6277SOL     OW30289   0.138   1.995   4.285 -0.1151 -0.4005 -0.2373
 6277SOL    HW130290   0.100   1.910   4.307  1.2615 -0.2997  2.5375
 6277SOL    HW230291   0.185   1.962   4.209 -1.1830 -2.9418  0.1800
 6278SOL     OW30292   2.248   0.946   7.077 -0.0828 -0.3785 -0.0486
 6278SOL    HW130293   2.172   1.000   7.100  0.4990 -0.4038  1.9596
 6278SOL    HW230294   2.275   0.931   7.168 -0.1881 -1.2471 -0.1599
 6279SOL     OW30295   0.455   0.832   6.001 -0.4247  0.4410 -0.4856
 6279SOL    HW130296   0.367   0.833   6.039 -0.0679 -0.4956  0.3778
 6279SOL    HW230297   0.473   0.738   6.012 -2.5749  0.1207  0.2962
 6280SOL     OW30298   0.231   3.256   9.159 -0.3984 -0.0066 -0.3717
 6280SOL    HW130299   0.177   3.193   9.206 -0.5493 -0.4268 -1.0979
 6280SOL    HW230300   0.180   3.333   9.131 -0.7670 -0.9197 -2.2374
 6281SOL     OW30301   1.084   3.124   1.600  0.3590 -0.0827  0.2439
 6281SOL    HW130302   1.136   3.056   1.557  0.3908 -0.6054  1.1034
 6281SOL    HW230303   1.106   3.206   1.556 -1.7908  0.9476  1.1076
 6282SOL     OW30304   0.328   3.148   2.626  0.6269 -0.3663 -0.7894
 6282SOL    HW130305   0.350   3.148   2.533  0.8454  1.2244 -0.7365
 6282SOL    HW230306   0.237   3.116   2.623  1.0377 -1.6199  0.1608
 6283SOL     OW30307   0.783   3.639   4.689 -0.3122  0.0055  0.5168
 6283SOL    HW130308   0.758   3.731   4.704  0.6218  0.5047 -0.9891
 6283SOL    HW230309   0.757   3.599   4.772  0.2938  0.6836  1.0334
 6284SOL     OW30310   4.382   1.842   3.295 -0.2072  0.0978  0.2104
 6284SOL    HW130311   4.328   1.764   3.304  0.7886 -0.1577  3.7460
 6284SOL    HW230312   4.310   1.905   3.289 -2.7196 -2.7059  0.8737
 6285SOL     OW30313   2.859   3.383   5.760 -0.5623 -0.3327  0.4734
 6285SOL    HW130314   2.801   3.372   5.685 -0.9905  0.8849  0.6263
 6285SOL    HW230315   2.911   3.303   5.751 -3.0736 -1.5779 -2.9247
 6286SOL     OW30316   4.133   4.566   0.096  0.0461  0.2919  0.5638
 6286SOL    HW130317   4.193   4.544   0.025  0.5842 -0.3194  1.2019
 6286SOL    HW230318   4.048   4.536   0.064 -0.9189 -0.9222  4.2485
 6287SOL     OW30319   1.296   0.166   5.312  0.0540  0.2976  0.3239
 6287SOL    HW130320   1.257   0.253   5.318 -1.0277 -0.1869  0.2275
 6287SOL    HW230321   1.387   0.191   5.297  0.5640  0.0514  2.9112
 6288SOL     OW30322   1.148   0.928   7.449 -0.0693  0.0144 -0.1065
 6288SOL    HW130323   1.084   0.906   7.516  0.1989 -0.9170 -0.1473
 6288SOL    HW230324   1.220   0.922   7.512  0.1274  1.3137 -0.2214
 6289SOL     OW30325   1.862   2.494   5.472 -0.0218 -0.1044 -0.4312
 6289SOL    HW130326   1.889   2.405   5.496  3.4144  0.9163 -0.5379
 6289SOL    HW230327   1.893   2.489   5.382 -0.7167  0.1616 -0.6815
 6290SOL     OW30328   3.511   2.331   6.540  0.1810 -0.8209  0.2009
 6290SOL    HW130329   3.525   2.421   6.512  2.2734 -0.3521  2.7306
 6290SOL    HW230330   3.602   2.300   6.532  0.7166  0.6787  0.4212
 6291SOL     OW30331   3.070   3.462  10.166  0.1298 -0.6488 -0.5608
 6291SOL    HW130332   3.004   3.393  10.154 -0.0727 -0.9034  1.9826
 6291SOL    HW230333   3.100   3.452  10.076  2.0765  0.6775 -0.0496
 6292SOL     OW30334   1.911   0.988   9.143  0.0755 -0.2660  0.0020
 6292SOL    HW130335   1.989   1.043   9.138  1.0336 -1.5999  0.0809
 6292SOL    HW230336   1.863   1.023   9.219  0.5750  0.8025 -0.1771
 6293SOL     OW30337   2.370   1.292   6.251 -0.2081  0.3708  0.0509
 6293SOL    HW130338   2.313   1.291   6.328 -0.8112  0.9495 -0.3795
 6293SOL    HW230339   2.314   1.239   6.193 -0.1860 -0.7008  1.0048
 6294SOL     OW30340   0.392   0.762  12.374  0.6656  0.2744 -0.6393
 6294SOL    HW130341   0.396   0.679  12.327  0.6729  0.5793 -1.1818
 6294SOL    HW230342   0.469   0.758  12.431  0.6654 -1.2156 -0.7383
 6295SOL     OW30343   0.089   0.035   2.618 -0.2336 -0.0347 -0.5916
 6295SOL    HW130344   0.044   0.060   2.699 -0.1462 -0.5829 -0.3761
 6295SOL    HW230345   0.126   4.676   2.637 -1.6829 -0.2758  1.0858
 6296SOL     OW30346   2.825   1.099   5.688 -0.9529 -1.1252 -0.3781
 6296SOL    HW130347   2.918   1.082   5.705 -0.5393  0.2004 -1.3089
 6296SOL    HW230348   2.824   1.184   5.644 -2.1209  0.5702  2.8741
 6297SOL     OW30349   1.193   2.168   7.516 -0.3251  0.0062 -0.6771
 6297SOL    HW130350   1.167   2.151   7.426  2.2389  0.0765 -1.4130
 6297SOL    HW230351   1.151   2.251   7.541 -1.1205 -0.1388 -1.5492
 6298SOL     OW30352   2.202   1.395   8.378 -0.2105 -0.3148  0.1000
 6298SOL    HW130353   2.204   1.302   8.400 -0.9528 -0.1519  0.8597
 6298SOL    HW230354   2.147   1.436   8.445 -0.7440  0.3108 -0.7130
 6299SOL     OW30355   3.313   0.629  13.277  0.2581 -0.0417 -0.5305
 6299SOL    HW130356   3.399   0.597  13.248  0.5348  0.1062  0.1405
 6299SOL    HW230357   3.335   0.681  13.354 -0.7148  1.5056 -1.3148
 6300SOL     OW30358   3.477   2.923   6.443 -0.0281  0.0855 -0.3680
 6300SOL    HW130359   3.561   2.879   6.426  0.1334 -0.0440  0.7441
 6300SOL    HW230360   3.496   2.974   6.521  2.4284 -1.1563 -0.1368
 6301SOL     OW30361   1.184   4.103   7.546 -0.3131  0.0395  0.0692
 6301SOL    HW130362   1.138   4.184   7.570  0.1725  0.5389 -0.6488
 6301SOL    HW230363   1.187   4.110   7.450  0.8210 -0.9848  0.0203
 6302SOL     OW30364   3.624   1.891  10.746  0.0875 -0.2696 -0.0896
 6302SOL    HW130365   3.665   1.939  10.817  0.8365 -0.1439 -0.6068
 6302SOL    HW230366   3.531   1.915  10.753  0.2987 -0.0366  1.7116
 6303SOL     OW30367   1.497   4.560  17.644  0.2018  0.1972  0.5459
 6303SOL    HW130368   1.412   4.518  17.652  0.3391 -0.1427  0.1829
 6303SOL    HW230369   1.482   4.652  17.665 -0.9194  0.4129 -1.2985
 6304SOL     OW30370   2.057   4.470   5.927  0.2852  0.0818 -0.2080
 6304SOL    HW130371   1.979   4.525   5.926 -0.2445 -0.6801 -1.1872
 6304SOL    HW230372   2.037   4.411   5.854 -2.8352  0.2090  0.5520
 6305SOL     OW30373   4.686   2.238   7.596 -0.2594 -0.0037  0.2686
 6305SOL    HW130374   4.636   2.313   7.626  0.1021  1.0455 -1.7602
 6305SOL    HW230375   4.621   2.220   7.528  2.8193  1.0850 -2.9685
 6306SOL     OW30376   3.839   2.413   4.345  0.1179 -0.0596 -0.2083
 6306SOL    HW130377   3.829   2.375   4.258  3.7778 -0.3821 -0.4591
 6306SOL    HW230378   3.786   2.351   4.395 -0.3747 -1.0588 -2.0042
 6307SOL     OW30379   3.427   0.493  11.768  0.1041  0.6140  0.2915
 6307SOL    HW130380   3.425   0.587  11.787 -1.1730  1.2767 -3.2207
 6307SOL    HW230381   3.491   0.458  11.830 -0.0407  0.2085  0.2130
 6308SOL     OW30382   1.855   1.831  13.930 -0.3032 -0.1149  0.0294
 6308SOL    HW130383   1.930   1.847  13.873 -1.1840  3.1165 -0.2288
 6308SOL    HW230384   1.888   1.858  14.016 -1.0920  2.4871 -0.4909
 6309SOL     OW30385   4.229   3.755  17.147 -0.3233 -0.3109 -0.0994
 6309SOL    HW130386   4.245   3.795  17.232  0.7983  0.5612 -0.7240
 6309SOL    HW230387   4.178   3.680  17.176 -1.8748  0.2646 -1.3105
 6310SOL     OW30388   0.809   2.024   8.469 -0.3233  0.6575  0.1767
 6310SOL    HW130389   0.800   1.990   8.380  2.3808 -2.2384  1.0187
 6310SOL    HW230390   0.775   1.952   8.522  0.8844 -0.7344 -0.9521
 6311SOL     OW30391   4.090   4.463  17.104  0.5908  0.3009  0.2531
 6311SOL    HW130392   4.111   4.462  17.011  0.1389  1.0762  0.1444
 6311SOL    HW230393   4.166   4.413  17.134 -0.9292 -2.1773 -0.1031
 6312SOL     OW30394   1.159   1.189   3.538 -1.0412 -0.7954 -0.0506
 6312SOL    HW130395   1.099   1.118   3.513 -0.2289 -1.3336 -0.4427
 6312SOL    HW230396   1.162   1.232   3.453 -1.7902  0.9815  0.8306
 6313SOL     OW30397   4.333   3.712   7.221 -0.1772  0.3821  0.6143
 6313SOL    HW130398   4.379   3.706   7.304 -0.5896 -0.0136  0.8099
 6313SOL    HW230399   4.304   3.622   7.208  0.3465  0.3629 -0.4446
 6314SOL     OW30400   3.304   4.219   9.606  0.3084  0.4070 -0.1677
 6314SOL    HW130401   3.244   4.245   9.676  0.4121 -0.6835  0.3150
 6314SOL    HW230402   3.262   4.258   9.530 -0.1492  1.0951  0.4284
 6315SOL     OW30403   4.146   1.169   9.133  0.3015 -0.8452 -0.5858
 6315SOL    HW130404   4.086   1.227   9.180  1.3804 -1.0881  1.0989
 6315SOL    HW230405   4.156   1.222   9.055 -3.4856  2.0059  0.8544
 6316SOL     OW30406   4.116   3.359   6.733  0.4281 -0.0672 -0.5779
 6316SOL    HW130407   4.122   3.283   6.676  0.1604 -0.5429  0.0290
 6316SOL    HW230408   4.031   3.345   6.774 -0.9540  1.6547 -2.8457
 6317SOL     OW30409   2.260   0.794  15.798 -0.2123 -0.0766  0.5038
 6317SOL    HW130410   2.165   0.799  15.791 -0.1228  0.3730 -0.4362
 6317SOL    HW230411   2.278   0.805  15.891  1.3876 -1.4927  0.3569
 6318SOL     OW30412   0.615   1.399  13.058  0.0768 -0.5796 -0.6868
 6318SOL    HW130413   0.709   1.384  13.053  0.3796  0.4316  2.3885
 6318SOL    HW230414   0.595   1.325  13.116  1.8127 -0.0363  0.6063
 6319SOL     OW30415   4.436   1.867   9.773  0.6044  0.0841 -0.0943
 6319SOL    HW130416   4.396   1.823   9.848  1.1022  0.2889  0.2913
 6319SOL    HW230417   4.364   1.871   9.711 -0.6124 -2.0835  1.1738
 6320SOL     OW30418   4.438   2.854   8.684 -0.1736 -0.1824 -0.3592
 6320SOL    HW130419   4.478   2.940   8.693 -0.4676  0.3691 -4.0299
 6320SOL    HW230420   4.368   2.853   8.749 -0.1961 -3.8036 -0.4165
 6321SOL     OW30421   3.005   2.157  10.172 -0.3021 -0.1847 -0.6788
 6321SOL    HW130422   3.022   2.230  10.232  2.5267  0.0210 -1.7353
 6321SOL    HW230423   3.027   2.200  10.089 -0.9227  1.1595 -0.1633
 6322SOL     OW30424   3.353   2.388   8.944 -0.6667 -0.1086  0.0199
 6322SOL    HW130425   3.291   2.440   8.995  1.9577  0.9244  2.1220
 6322SOL    HW230426   3.298   2.325   8.897  0.9521  0.6329 -2.8850
 6323SOL     OW30427   1.585   3.376  14.335  0.0773 -0.2072  0.1037
 6323SOL    HW130428   1.631   3.315  14.392 -0.9715 -0.3452  0.8145
 6323SOL    HW230429   1.523   3.319  14.289 -0.5180  0.1676  0.4495
 6324SOL     OW30430   4.339   1.393   8.835  0.0016 -0.2929  0.4220
 6324SOL    HW130431   4.275   1.389   8.906 -1.6834  2.6944 -0.9422
 6324SOL    HW230432   4.276   1.403   8.764  0.2481 -2.4100 -0.0925
 6325SOL     OW30433   1.554   0.338   6.250 -0.1883 -0.1946 -0.5046
 6325SOL    HW130434   1.620   0.297   6.306 -1.9898 -0.4930  1.4230
 6325SOL    HW230435   1.475   0.321   6.302  0.2947  0.3260  0.3861
 6326SOL     OW30436   0.782   1.193   3.631  0.3900 -0.0773 -0.3769
 6326SOL    HW130437   0.803   1.258   3.564  2.3947  0.6441  0.9326
 6326SOL    HW230438   0.812   1.111   3.592  0.8539 -1.1009  2.1275
 6327SOL     OW30439   1.987   1.687  13.669 -0.0533  0.8377 -0.5662
 6327SOL    HW130440   1.962   1.653  13.583 -2.3247  0.4317  0.2526
 6327SOL    HW230441   1.911   1.652  13.716  0.7382  0.8505  0.7391
 6328SOL     OW30442   1.160   3.551   7.207 -0.6494  0.5153  0.5913
 6328SOL    HW130443   1.231   3.612   7.186 -1.5828  1.6602  0.7887
 6328SOL    HW230444   1.210   3.481   7.249 -2.1460 -0.9573 -0.0745
 6329SOL     OW30445   1.311   2.479  12.942 -0.1030 -0.0110  0.7786
 6329SOL    HW130446   1.352   2.411  12.996 -2.3033 -2.1908 -0.2735
 6329SOL    HW230447   1.313   2.432  12.859 -3.2841 -0.1360  0.7566
 6330SOL     OW30448   0.297   2.037   5.985  0.3359 -0.1488  0.2418
 6330SOL    HW130449   0.297   1.958   5.930  1.9942  0.2027 -0.2392
 6330SOL    HW230450   0.205   2.064   5.985  0.6642  0.9946  2.8078
 6331SOL     OW30451   0.397   1.052   3.358 -0.0425  0.3692  0.9249
 6331SOL    HW130452   0.323   1.082   3.305  0.8747  0.5590 -0.2404
 6331SOL    HW230453   0.462   1.120   3.342  0.9270 -0.6972  0.3512
 6332SOL     OW30454   2.845   0.835   4.584 -0.0997 -0.4883 -0.2245
 6332SOL    HW130455   2.931   0.846   4.544  0.2668 -1.6337  0.2543
 6332SOL    HW230456   2.789   0.827   4.506 -1.7838  2.0243  0.7313
 6333SOL     OW30457   2.000   2.019  11.514  0.0047  0.4407 -0.2985
 6333SOL    HW130458   1.967   1.984  11.597  0.6279  0.3741 -0.0811
 6333SOL    HW230459   2.060   1.951  11.485  1.8205  1.7446  0.4250
 6334SOL     OW30460   1.286   1.732   3.308  0.1857  0.1958 -0.2385
 6334SOL    HW130461   1.232   1.716   3.231 -0.2375  1.6255 -0.2347
 6334SOL    HW230462   1.224   1.760   3.375 -3.0957  2.0618 -4.0440
 6335SOL     OW30463   2.461   2.681   5.300 -0.2646 -0.1894  0.0407
 6335SOL    HW130464   2.545   2.715   5.270 -0.5141  0.2459 -0.1819
 6335SOL    HW230465   2.438   2.629   5.223  0.6548 -0.8832  0.2410
 6336SOL     OW30466   0.319   4.572  16.752 -0.1805  0.0055 -0.5600
 6336SOL    HW130467   0.344   4.483  16.726  3.0233  0.9938 -0.8301
 6336SOL    HW230468   0.290   4.563  16.843  2.5509  1.4829  0.4343
 6337SOL     OW30469   0.511   0.053   9.323 -0.9990 -0.0279  0.1364
 6337SOL    HW130470   0.530   0.057   9.229 -0.0712  2.0379  0.4140
 6337SOL    HW230471   0.562   0.127   9.357 -2.7212  1.0557  0.3579
 6338SOL     OW30472   3.081   0.726   4.921  0.4174  0.0256  0.1006
 6338SOL    HW130473   3.174   0.727   4.898 -0.1088 -1.0448 -2.0728
 6338SOL    HW230474   3.074   0.782   4.998 -3.0642  2.1262 -1.7744
 6339SOL     OW30475   0.236   4.059   3.265 -0.3401 -0.0941  0.2825
 6339SOL    HW130476   0.230   4.000   3.339 -0.1907  0.0608  0.4175
 6339SOL    HW230477   0.308   4.020   3.214 -0.1334 -2.0227  2.0534
 6340SOL     OW30478   1.533   3.347   3.947  0.3520  0.1382 -0.1950
 6340SOL    HW130479   1.560   3.257   3.927  2.5057  0.9728 -1.0559
 6340SOL    HW230480   1.442   3.348   3.919 -0.0745  1.1196  1.2283
 6341SOL     OW30481   0.842   0.542  17.378  0.1169  0.0243 -0.1699
 6341SOL    HW130482   0.798   0.627  17.385 -2.5197 -1.3685 -0.0733
 6341SOL    HW230483   0.783   0.479  17.419  0.1324  1.3916  1.9865
 6342SOL     OW30484   4.608   0.778   1.616 -0.7043 -0.5330  0.3292
 6342SOL    HW130485   4.692   0.757   1.575 -0.4163 -0.9646  1.1344
 6342SOL    HW230486   4.590   0.862   1.573  1.0317  0.0542  0.7313
 6343SOL     OW30487   1.452   0.155   1.592  0.0906 -0.7951  0.3146
 6343SOL    HW130488   1.538   0.122   1.568 -0.0719 -2.1760  1.6703
 6343SOL    HW230489   1.472   0.176   1.683 -0.0667 -2.1936  0.6641
 6344SOL     OW30490   1.059   0.329   9.810 -0.1656  1.1311 -0.3570
 6344SOL    HW130491   1.072   0.254   9.868  1.4731  0.4773 -1.5796
 6344SOL    HW230492   1.005   0.287   9.744 -0.4691  0.0612  0.5707
 6345SOL     OW30493   0.828   4.361  12.644  0.3080 -0.0261 -0.7198
 6345SOL    HW130494   0.768   4.379  12.571 -0.9457 -0.5828  0.1784
 6345SOL    HW230495   0.886   4.433  12.620  0.6595  0.5933  2.0082
 6346SOL     OW30496   2.843   2.039  15.557 -0.1017 -0.0639  0.0254
 6346SOL    HW130497   2.768   2.064  15.503  0.7075  0.6965 -0.7470
 6346SOL    HW230498   2.897   1.991  15.495  0.7966  0.5020  0.3649
 6347SOL     OW30499   0.907   4.214  16.271  0.1253  0.7496 -0.2891
 6347SOL    HW130500   0.859   4.133  16.256  3.2888 -1.4535  1.5342
 6347SOL    HW230501   0.954   4.228  16.189 -0.5812  1.0750 -0.6458
 6348SOL     OW30502   1.686   3.916   0.890 -0.7586  0.3643  0.0019
 6348SOL    HW130503   1.767   3.958   0.861 -0.6086 -0.9965 -1.5766
 6348SOL    HW230504   1.619   3.964   0.842 -0.8585 -1.0893 -1.3292
 6349SOL     OW30505   2.927   1.166  16.143 -0.7452  0.2579 -0.3552
 6349SOL    HW130506   2.938   1.101  16.073  0.2318 -1.6229  1.5176
 6349SOL    HW230507   2.889   1.238  16.093  0.7490  0.6938 -0.8596
 6350SOL     OW30508   3.632   3.884   9.275 -0.5539 -0.8354 -0.2485
 6350SOL    HW130509   3.590   3.912   9.356 -1.9128 -0.5296 -1.0579
 6350SOL    HW230510   3.577   3.928   9.209  0.9515  0.9550 -0.3154
 6351SOL     OW30511   3.844   4.004  15.935  0.5200 -0.6815 -0.2418
 6351SOL    HW130512   3.928   4.034  15.899  0.5123 -1.6812 -1.1029
 6351SOL    HW230513   3.807   4.088  15.962  1.9262 -0.2454  0.3306
 6352SOL     OW30514   1.220   0.568  13.486  0.7720 -0.7167 -0.3667
 6352SOL    HW130515   1.213   0.658  13.519  1.0553 -1.4049  1.5573
 6352SOL    HW230516   1.316   0.566  13.484  0.8585 -0.2974  2.7157
 6353SOL     OW30517   1.690   1.032   3.143 -0.8661 -0.5952  0.3216
 6353SOL    HW130518   1.694   0.977   3.065  0.9705  0.8351 -0.5984
 6353SOL    HW230519   1.687   1.115   3.094  0.5201 -0.9755 -0.4097
 6354SOL     OW30520   3.104   2.449   8.685 -0.1691 -0.3021 -0.1018
 6354SOL    HW130521   3.186   2.498   8.681 -1.7549  2.2583 -1.3879
 6354SOL    HW230522   3.108   2.412   8.597  1.3876  1.3392 -0.7295
 6355SOL     OW30523   1.334   1.895  16.192 -0.7271  0.1435 -0.6978
 6355SOL    HW130524   1.328   1.802  16.169  1.4832 -0.3558  0.7148
 6355SOL    HW230525   1.418   1.914  16.149 -0.1211 -3.0970 -0.9427
 6356SOL     OW30526   0.562   1.928   3.600 -0.0113  0.2157  0.2972
 6356SOL    HW130527   0.469   1.933   3.624  0.2279 -0.5489  1.3448
 6356SOL    HW230528   0.590   2.016   3.624  0.6947  0.4988 -1.5319
 6357SOL     OW30529   3.199   2.034   6.791  0.0871 -0.7128  0.2777
 6357SOL    HW130530   3.171   2.114   6.747 -1.3153 -1.0469  0.5696
 6357SOL    HW230531   3.291   2.060   6.799 -0.1950  0.6999 -1.1528
 6358SOL     OW30532   2.129   2.086   3.016  0.1363 -0.1550 -0.6784
 6358SOL    HW130533   2.036   2.107   3.007  0.1747 -0.4964 -1.7964
 6358SOL    HW230534   2.110   1.994   3.034  1.4471  0.1091  2.1111
 6359SOL     OW30535   1.651   1.257   6.155 -0.5939 -0.2084 -0.4485
 6359SOL    HW130536   1.556   1.246   6.165 -0.4956 -1.7035 -1.1382
 6359SOL    HW230537   1.689   1.186   6.207  0.5704  0.7726  0.0155
 6360SOL     OW30538   1.830   1.576   8.454 -0.5431 -0.0512 -0.3778
 6360SOL    HW130539   1.850   1.485   8.436 -0.8551 -0.0279 -0.8443
 6360SOL    HW230540   1.901   1.593   8.516 -0.2958 -0.8255 -0.4543
 6361SOL     OW30541   3.609   1.600   8.820  0.2932  0.6745  0.0395
 6361SOL    HW130542   3.563   1.620   8.739 -1.0773  0.8546  0.8566
 6361SOL    HW230543   3.559   1.523   8.850  0.4024  0.5365 -0.1334
 6362SOL     OW30544   3.004   2.427   9.307  0.1115  0.0246  0.1648
 6362SOL    HW130545   2.934   2.398   9.365 -0.7721  3.8243  1.0412
 6362SOL    HW230546   3.076   2.408   9.367  1.3990 -0.4853 -1.5316
 6363SOL     OW30547   2.508   4.353   7.160  0.1295 -0.2989 -0.2130
 6363SOL    HW130548   2.554   4.418   7.212  0.3300  0.1358 -0.9271
 6363SOL    HW230549   2.537   4.373   7.071 -0.8675 -2.6884 -1.0785
 6364SOL     OW30550   2.069   4.720   4.951  0.4223  0.5513 -0.3302
 6364SOL    HW130551   2.159   4.688   4.942  0.2635 -0.1455  0.5281
 6364SOL    HW230552   2.018   4.659   4.898 -1.7570  0.7018  1.6092
 6365SOL     OW30553   0.694   1.786   8.542 -0.0079  0.3669  0.5772
 6365SOL    HW130554   0.670   1.704   8.586  1.1117 -1.4778 -2.2731
 6365SOL    HW230555   0.720   1.747   8.459  1.7873  1.0629  0.8165
 6366SOL     OW30556   4.287   2.095   5.088  0.0001  0.0031 -0.4147
 6366SOL    HW130557   4.252   2.021   5.137  1.9547  2.1171  4.1322
 6366SOL    HW230558   4.228   2.092   5.012  1.1141 -3.7310 -1.1335
 6367SOL     OW30559   4.388   0.219   9.017 -0.1092  0.1949 -0.0611
 6367SOL    HW130560   4.442   0.200   9.093 -2.1039 -0.7373  1.1273
 6367SOL    HW230561   4.453   0.269   8.968 -1.0603  2.2652  0.8047
 6368SOL     OW30562   4.041   4.554   2.679 -0.2225  0.5288  0.8612
 6368SOL    HW130563   4.073   4.464   2.672  0.8478  0.8844  1.1789
 6368SOL    HW230564   3.946   4.552   2.664 -0.2791 -0.4398  1.4123
 6369SOL     OW30565   3.529   0.142   9.237 -0.0085  0.0972 -0.0238
 6369SOL    HW130566   3.437   0.121   9.251  0.0928 -0.6357 -0.4368
 6369SOL    HW230567   3.532   0.227   9.281 -0.9205  0.3785 -0.5274
 6370SOL     OW30568   1.798   3.299   6.124  0.3378  0.2920  0.3854
 6370SOL    HW130569   1.840   3.240   6.061 -1.2797 -4.3908  3.6802
 6370SOL    HW230570   1.807   3.238   6.197  0.9598  1.2210  1.0765
 6371SOL     OW30571   2.305   3.742   7.004  0.1100  0.2595  0.3039
 6371SOL    HW130572   2.311   3.662   6.951 -2.2164  1.0003 -1.1005
 6371SOL    HW230573   2.396   3.771   7.010  0.8383 -1.9891  0.1211
 6372SOL     OW30574   2.876   1.442   0.538  0.4006  0.1169 -0.0867
 6372SOL    HW130575   2.900   1.434   0.446 -1.4440 -1.1444 -0.4621
 6372SOL    HW230576   2.851   1.534   0.546  0.0972 -0.0797  1.2982
 6373SOL     OW30577   4.283   1.152   5.128 -0.6245 -0.1194  0.3054
 6373SOL    HW130578   4.236   1.176   5.209  1.7081  0.2631  1.5438
 6373SOL    HW230579   4.338   1.230   5.127  0.2190 -0.7090  1.0121
 6374SOL     OW30580   1.253   3.101  16.070 -0.3311 -0.0677 -0.2692
 6374SOL    HW130581   1.246   3.181  16.018 -0.9122 -0.9342 -1.5309
 6374SOL    HW230582   1.240   3.044  15.994 -1.3831 -1.8848  1.2705
 6375SOL     OW30583   4.585   3.462  10.613 -0.5265 -0.4754 -0.5566
 6375SOL    HW130584   4.596   3.420  10.699  3.1121  0.2554 -0.6382
 6375SOL    HW230585   4.605   3.551  10.641 -1.1521 -0.2616 -0.8098
 6376SOL     OW30586   0.056   3.262   4.095 -0.0081  0.0704  0.1206
 6376SOL    HW130587   0.147   3.285   4.077  0.2754  0.3586  1.8526
 6376SOL    HW230588   0.016   3.278   4.010  1.5208  0.2894 -0.5376
 6377SOL     OW30589   4.583   1.085   4.493  0.1975  0.3462  0.3492
 6377SOL    HW130590   4.625   1.131   4.420  0.4920 -0.2727  0.1347
 6377SOL    HW230591   4.615   1.132   4.571  1.1923  1.7948 -0.9261
 6378SOL     OW30592   2.332   2.733   3.161 -0.3507  0.2362 -0.2889
 6378SOL    HW130593   2.392   2.783   3.106 -0.6603 -0.3878 -1.1873
 6378SOL    HW230594   2.387   2.654   3.160 -1.1898 -0.3851  1.2578
 6379SOL     OW30595   1.345   0.971  16.391 -0.1285 -0.4574 -0.5465
 6379SOL    HW130596   1.300   0.914  16.328  2.5448 -0.3619 -2.5865
 6379SOL    HW230597   1.318   0.924  16.469 -0.4334  1.3437  0.4331
 6380SOL     OW30598   0.164   3.372   5.380  0.0433  1.1512 -0.0007
 6380SOL    HW130599   0.145   3.343   5.291  0.7741 -0.1871  0.2849
 6380SOL    HW230600   0.200   3.459   5.363  3.1148  0.0698  0.8747
 6381SOL     OW30601   4.136   1.298   5.630 -0.2639  0.0749 -0.1475
 6381SOL    HW130602   4.116   1.205   5.627  0.4385 -0.0156 -2.3310
 6381SOL    HW230603   4.113   1.308   5.722  0.4449  1.4465 -0.1191
 6382SOL     OW30604   3.438   2.137   5.064 -0.8123 -0.4154  0.2480
 6382SOL    HW130605   3.417   2.063   5.121 -0.0195  0.2502  1.3880
 6382SOL    HW230606   3.405   2.103   4.981  0.2577 -0.8801  0.0153
 6383SOL     OW30607   0.646   0.770   0.335  0.0468  0.0462 -0.6657
 6383SOL    HW130608   0.664   0.861   0.359  1.0451  0.0352 -1.3591
 6383SOL    HW230609   0.592   0.771   0.256 -1.0021 -1.8575  0.0285
 6384SOL     OW30610   4.553   1.182  15.722  0.5455 -0.1145 -0.2738
 6384SOL    HW130611   4.501   1.228  15.789  1.5785 -0.3411  0.6820
 6384SOL    HW230612   4.644   1.200  15.745  0.7242 -0.3833 -0.7592
 6385SOL     OW30613   2.979   3.125  14.440 -0.1061 -0.3816 -0.5499
 6385SOL    HW130614   3.020   3.064  14.378  1.7697 -2.4823  2.7399
 6385SOL    HW230615   3.034   3.101  14.515 -1.8488  3.7981  2.0624
 6386SOL     OW30616   1.010   3.938   2.410 -0.0434  0.2413 -0.4294
 6386SOL    HW130617   1.095   3.905   2.442 -0.5091  1.0619  1.6912
 6386SOL    HW230618   1.007   3.901   2.322 -0.5028 -1.6822  0.4065
 6387SOL     OW30619   0.036   3.542  12.772 -0.0438 -0.0714  0.0662
 6387SOL    HW130620   4.726   3.453  12.771 -1.7356  0.6295 -0.7935
 6387SOL    HW230621   0.124   3.538  12.735  1.1325  0.5935  2.7483
 6388SOL     OW30622   0.021   3.476   6.796 -0.1512 -0.3825  0.0011
 6388SOL    HW130623   0.016   3.561   6.751 -0.1647 -0.2384  0.2733
 6388SOL    HW230624   0.026   3.514   6.884 -2.2981 -1.0668  0.4151
 6389SOL     OW30625   3.297   3.193  11.635  0.0495  0.5527 -0.6125
 6389SOL    HW130626   3.257   3.273  11.602 -1.8441  0.3218  1.0874
 6389SOL    HW230627   3.216   3.157  11.673 -0.6156  0.2142 -2.3347
 6390SOL     OW30628   1.931   1.640   3.884 -0.0116 -0.2253  0.3939
 6390SOL    HW130629   1.881   1.708   3.839  1.6558  0.5832 -0.2518
 6390SOL    HW230630   1.951   1.687   3.965 -0.0920 -2.8865  1.9483
 6391SOL     OW30631   4.150   2.939  16.958  0.0989  0.2213  0.0577
 6391SOL    HW130632   4.136   3.026  16.997 -4.3358 -1.1982  1.6002
 6391SOL    HW230633   4.133   2.881  17.032  1.2081 -0.4047 -0.1766
 6392SOL     OW30634   0.560   0.524   8.485 -0.2953 -0.3279 -0.0038
 6392SOL    HW130635   0.589   0.485   8.568 -2.0176  2.5482  1.9247
 6392SOL    HW230636   0.531   0.445   8.439 -2.0731  0.1881  0.2211
 6393SOL     OW30637   3.733   1.534  10.518  0.3019 -0.2184  0.7967
 6393SOL    HW130638   3.755   1.458  10.573 -3.3612 -1.8819 -0.0353
 6393SOL    HW230639   3.641   1.513  10.500  0.7409 -0.0384 -1.6357
 6394SOL     OW30640   1.212   3.032   4.169  0.4304 -0.3338 -0.9913
 6394SOL    HW130641   1.170   2.987   4.242  1.6592 -0.1581 -0.1924
 6394SOL    HW230642   1.254   3.107   4.210  2.4324 -1.9968 -0.0103
 6395SOL     OW30643   1.358   0.384  12.586  0.1888  0.4386  0.2861
 6395SOL    HW130644   1.421   0.434  12.534 -0.1676  0.2306 -0.3364
 6395SOL    HW230645   1.408   0.302  12.590 -2.7578 -1.2594  2.8372
 6396SOL     OW30646   0.449   3.038  17.612 -0.0217 -0.8483 -0.2106
 6396SOL    HW130647   0.373   3.095  17.614 -0.7401 -1.7825 -0.6350
 6396SOL    HW230648   0.518   3.104  17.620  0.2205 -1.1338  0.0826
 6397SOL     OW30649   1.858   4.692  16.169 -0.1634  0.2029 -0.1450
 6397SOL    HW130650   1.851   4.612  16.222  2.1547 -0.5706 -0.9934
 6397SOL    HW230651   1.944   4.724  16.197  0.3549 -1.2337 -0.1109
 6398SOL     OW30652   3.537   0.929   1.342  0.4605  0.3732 -0.0436
 6398SOL    HW130653   3.501   0.923   1.430  1.0340 -0.5878  0.1170
 6398SOL    HW230654   3.579   1.015   1.352 -0.7968  0.7032  2.3402
 6399SOL     OW30655   2.531   4.238   2.279 -0.4066  0.4371  0.6134
 6399SOL    HW130656   2.515   4.329   2.305  0.3102  0.5743  0.5725
 6399SOL    HW230657   2.597   4.247   2.211  0.8189 -1.7576  1.5363
 6400SOL     OW30658   1.553   3.948   3.029  0.4589 -0.7710 -0.0987
 6400SOL    HW130659   1.567   3.908   2.943 -1.3833  2.6043 -1.9737
 6400SOL    HW230660   1.598   4.032   3.026 -1.5506  0.2953 -0.5392
 6401SOL     OW30661   0.660   3.700   3.393 -0.1180  0.3110  0.1331
 6401SOL    HW130662   0.674   3.636   3.462 -0.2703  0.0013 -0.1269
 6401SOL    HW230663   0.587   3.662   3.345 -0.7390 -0.2752  1.5596
 6402SOL     OW30664   3.368   0.764   4.048 -0.1907 -0.7584 -0.5802
 6402SOL    HW130665   3.424   0.701   4.093 -1.3470 -1.6385 -0.3540
 6402SOL    HW230666   3.359   0.738   3.956 -0.2726  0.7716 -0.9958
 6403SOL     OW30667   1.750   1.733   9.171  0.3705 -0.0895  0.3694
 6403SOL    HW130668   1.786   1.793   9.106 -0.1598 -0.5648 -0.3532
 6403SOL    HW230669   1.757   1.787   9.249 -0.2579  0.7188 -0.1475
 6404SOL     OW30670   1.261   1.579  17.314 -0.4407 -0.0759  0.0163
 6404SOL    HW130671   1.188   1.533  17.357  0.8722 -0.5546  1.7185
 6404SOL    HW230672   1.303   1.605  17.396  1.0619 -1.1794 -0.4026
 6405SOL     OW30673   2.202   2.971   7.645 -0.1359 -0.3002 -0.4402
 6405SOL    HW130674   2.289   2.958   7.684  0.1333  0.1066 -0.9060
 6405SOL    HW230675   2.166   3.015   7.722 -1.9722 -1.7464 -0.4635
 6406SOL     OW30676   2.584   0.603   2.197 -1.0997 -0.3389  0.8954
 6406SOL    HW130677   2.657   0.544   2.179 -0.4752  0.6070  0.3760
 6406SOL    HW230678   2.634   0.678   2.228 -2.8386  0.0564  2.7628
 6407SOL     OW30679   3.428   3.661   7.612  0.1243  0.0795  0.3713
 6407SOL    HW130680   3.400   3.588   7.556  0.8057  0.9872 -1.1529
 6407SOL    HW230681   3.343   3.699   7.635  0.3047 -0.1349  1.3961
 6408SOL     OW30682   1.293   2.176  17.441  0.0563 -0.4709 -0.3074
 6408SOL    HW130683   1.275   2.083  17.427 -0.7414 -0.2955 -0.4517
 6408SOL    HW230684   1.388   2.173  17.445  0.0694  0.6439  0.2829
 6409SOL     OW30685   1.537   3.234   6.432  0.2992  0.4582 -0.5196
 6409SOL    HW130686   1.495   3.253   6.515  1.1569  2.1155 -0.4690
 6409SOL    HW230687   1.510   3.308   6.377  3.7049  1.2067 -1.1341
 6410SOL     OW30688   2.210   3.724  11.915 -0.2018 -0.6761 -0.3035
 6410SOL    HW130689   2.143   3.704  11.981  0.3234  0.1094  0.4712
 6410SOL    HW230690   2.226   3.636  11.880 -1.1425 -1.1708  0.5120
 6411SOL     OW30691   4.387   2.537  10.724  0.3190 -0.2444  0.5844
 6411SOL    HW130692   4.412   2.595  10.796  2.5854 -1.2400  0.6253
 6411SOL    HW230693   4.458   2.538  10.659 -2.4700  0.5378 -2.4487
 6412SOL     OW30694   3.556   2.349  10.364  0.4929 -0.0604 -0.0567
 6412SOL    HW130695   3.483   2.346  10.303 -0.3984 -0.0699  1.0202
 6412SOL    HW230696   3.546   2.442  10.385 -0.4861 -0.6185  1.9709
 6413SOL     OW30697   4.406   1.611  14.838  0.4391 -0.0087  0.1513
 6413SOL    HW130698   4.356   1.529  14.841  0.7527 -0.2114 -0.1926
 6413SOL    HW230699   4.357   1.647  14.764  3.2673  0.5567 -1.4241
 6414SOL     OW30700   4.200   3.733   9.913  0.1879 -0.4194 -0.3606
 6414SOL    HW130701   4.193   3.653   9.862 -1.1103  0.2803 -1.2799
 6414SOL    HW230702   4.289   3.760   9.892 -0.3729  1.6707 -0.0651
 6415SOL     OW30703   0.577   2.751   9.328  0.4353  0.0420 -0.7166
 6415SOL    HW130704   0.657   2.800   9.313  0.8807  0.0294  1.5610
 6415SOL    HW230705   0.580   2.738   9.423 -1.1594 -1.3091 -0.8551
 6416SOL     OW30706   3.483   2.505  12.592  0.2344 -0.6660 -0.7516
 6416SOL    HW130707   3.410   2.476  12.538 -0.3755 -2.1745  0.8874
 6416SOL    HW230708   3.561   2.477  12.543  0.0124 -1.4429 -0.6572
 6417SOL     OW30709   2.074   3.115   3.438 -0.1380 -0.3004  0.0886
 6417SOL    HW130710   2.004   3.116   3.503  0.3295  0.8582  0.5772
 6417SOL    HW230711   2.146   3.084   3.494 -1.2061  0.5905  1.9723
 6418SOL     OW30712   3.895   1.411   5.274  0.5298 -0.7037  0.3758
 6418SOL    HW130713   3.815   1.371   5.241  0.7385 -0.6739 -0.1573
 6418SOL    HW230714   3.854   1.449   5.352 -1.1249  1.0556 -1.3868
 6419SOL     OW30715   1.405   2.521  13.991  0.4463 -0.3222  0.0291
 6419SOL    HW130716   1.431   2.434  14.022 -0.2994 -1.3726 -2.2915
 6419SOL    HW230717   1.390   2.504  13.898  0.1527 -3.3619  0.6227
 6420SOL     OW30718   0.698   2.005   9.814 -0.2069 -0.2499 -0.3536
 6420SOL    HW130719   0.775   1.974   9.861 -1.9103 -0.5934  2.1664
 6420SOL    HW230720   0.686   1.937   9.748 -0.2931  1.4238 -2.0622
 6421SOL     OW30721   2.906   4.588   3.628  0.3285  0.6334 -0.1333
 6421SOL    HW130722   2.882   4.566   3.538  0.4217 -2.4789  0.5918
 6421SOL    HW230723   2.998   4.574   3.606  0.4246 -3.0143  2.6104
 6422SOL     OW30724   2.308   1.208   4.324  0.6304 -0.3985 -0.3660
 6422SOL    HW130725   2.293   1.117   4.349  1.4479 -1.2188 -2.9109
 6422SOL    HW230726   2.345   1.247   4.403  0.8420 -2.4156  0.5300
 6423SOL     OW30727   4.199   2.459  17.179  0.2723 -0.6333 -0.2571
 6423SOL    HW130728   4.168   2.542  17.141 -2.4549 -2.2973 -1.7015
 6423SOL    HW230729   4.133   2.456  17.249  0.3878 -0.9993 -0.1611
 6424SOL     OW30730   1.693   1.532   4.113  0.2560  0.2387 -0.2698
 6424SOL    HW130731   1.690   1.510   4.020 -0.2183 -0.2935 -0.1307
 6424SOL    HW230732   1.677   1.626   4.108  0.8926  0.4426  1.3790
 6425SOL     OW30733   4.636   1.101  16.237  0.5652  0.1475  0.2217
 6425SOL    HW130734   4.711   1.079  16.182  1.1703  0.5486  0.8896
 6425SOL    HW230735   4.657   1.100  16.330  1.0827 -0.0493  0.1001
 6426SOL     OW30736   3.808   1.872   2.180 -0.2796 -0.1843 -0.0448
 6426SOL    HW130737   3.716   1.876   2.206 -0.7275 -1.0692 -1.4845
 6426SOL    HW230738   3.804   1.924   2.099  2.1380 -0.4323 -0.3224
 6427SOL     OW30739   1.052   2.904  15.171 -0.6314  0.2667  0.1362
 6427SOL    HW130740   1.022   2.990  15.142 -1.2223 -0.0636 -0.2305
 6427SOL    HW230741   1.138   2.891  15.131 -0.6368 -0.8740  0.4975
 6428SOL     OW30742   2.407   0.791   8.107 -0.5177  0.0664 -0.4360
 6428SOL    HW130743   2.420   0.729   8.035  0.4212 -1.3505  0.9704
 6428SOL    HW230744   2.392   0.736   8.184  1.9815 -0.5231 -0.3833
 6429SOL     OW30745   3.824   1.113   3.637 -0.3168  0.4798 -1.2065
 6429SOL    HW130746   3.744   1.072   3.605 -1.3097  1.6038 -0.1901
 6429SOL    HW230747   3.828   1.066   3.720  3.4501  0.6483 -1.2650
 6430SOL     OW30748   4.163   0.750  14.289  0.0546 -0.0143  0.1932
 6430SOL    HW130749   4.176   0.753  14.194 -0.9818 -2.3093 -0.0366
 6430SOL    HW230750   4.068   0.759  14.301  0.1403 -2.7133  2.9557
 6431SOL     OW30751   1.441   4.258   7.357  0.5253 -0.1892 -0.2470
 6431SOL    HW130752   1.384   4.287   7.428  1.1469  2.9523 -1.0202
 6431SOL    HW230753   1.523   4.304   7.374  1.1692 -1.5219  0.2861
 6432SOL     OW30754   3.925   2.182   2.413 -0.2534  0.3202  0.4597
 6432SOL    HW130755   3.956   2.098   2.447  2.2145  0.8841 -0.4294
 6432SOL    HW230756   3.880   2.152   2.334  1.2375 -0.4742 -0.0952
 6433SOL     OW30757   3.538   1.166   7.533  0.1050 -0.3184 -0.0679
 6433SOL    HW130758   3.634   1.169   7.526  0.0021  2.3522 -0.4260
 6433SOL    HW230759   3.513   1.151   7.624 -1.9604  0.2229 -0.5453
 6434SOL     OW30760   0.551   1.984   8.672  0.7977  0.3072 -0.0660
 6434SOL    HW130761   0.514   2.023   8.593  1.4283 -1.5558 -1.2977
 6434SOL    HW230762   0.619   1.925   8.639 -1.8010 -1.5497 -2.0707
 6435SOL     OW30763   4.477   3.744   1.068 -0.6404 -0.4528  0.7994
 6435SOL    HW130764   4.427   3.805   1.123  1.5512 -0.3629  2.6800
 6435SOL    HW230765   4.418   3.694   1.013  0.6205 -2.0423  0.8818
 6436SOL     OW30766   1.233   1.199  16.681 -0.4494 -0.0541 -0.2611
 6436SOL    HW130767   1.158   1.162  16.727 -0.5545 -0.3978 -0.6993
 6436SOL    HW230768   1.235   1.286  16.721 -1.5132 -0.8249  1.4794
 6437SOL     OW30769   2.487   2.478  11.303 -0.0260 -0.1783 -0.1766
 6437SOL    HW130770   2.491   2.382  11.306  0.3450 -0.1601 -0.0535
 6437SOL    HW230771   2.395   2.491  11.326 -0.3821 -1.6904 -0.7472
 6438SOL     OW30772   0.311   1.009   1.639 -1.1205  0.3828  0.2982
 6438SOL    HW130773   0.256   1.026   1.562 -1.7273 -0.6770  0.5010
 6438SOL    HW230774   0.321   0.915   1.629  0.6920  0.5568  0.4025
 6439SOL     OW30775   4.621   0.708   1.869  0.0290  0.0583  0.6402
 6439SOL    HW130776   4.699   0.653   1.877  0.7685  1.3783  2.4257
 6439SOL    HW230777   4.613   0.732   1.776 -0.7913 -0.6205  0.5359
 6440SOL     OW30778   2.613   1.126   1.171 -0.4146 -0.0468 -0.5104
 6440SOL    HW130779   2.606   1.141   1.266 -1.5023  0.5962 -0.6932
 6440SOL    HW230780   2.656   1.209   1.151 -0.0370 -0.0963  0.1006
 6441SOL     OW30781   3.141   1.844   7.629 -0.1905 -0.0357 -0.4520
 6441SOL    HW130782   3.067   1.829   7.686 -0.2976 -0.5481 -0.7249
 6441SOL    HW230783   3.212   1.785   7.655 -1.5719 -0.9067  1.2629
 6442SOL     OW30784   4.214   0.471   4.793 -0.1330  0.1418  0.0620
 6442SOL    HW130785   4.188   0.479   4.702  1.6549  2.8165 -0.2044
 6442SOL    HW230786   4.242   0.560   4.813 -0.6262  0.1662  0.6870
 6443SOL     OW30787   1.019   3.292   9.508 -0.2023  1.0143 -0.5118
 6443SOL    HW130788   0.940   3.290   9.453 -0.7775  0.2113  0.3446
 6443SOL    HW230789   0.978   3.298   9.595  0.1136  0.9947 -0.3630
 6444SOL     OW30790   4.561   1.029   0.506  0.5351  0.6977 -0.0867
 6444SOL    HW130791   4.559   0.940   0.540 -2.1463  1.8501  2.7065
 6444SOL    HW230792   4.609   1.015   0.424  0.5153  2.2933 -0.3770
 6445SOL     OW30793   0.381   3.970   7.944  1.2250  0.2816  0.2485
 6445SOL    HW130794   0.433   4.026   7.886  0.4343 -0.5557 -1.2713
 6445SOL    HW230795   0.369   3.897   7.884  1.4597 -0.1801  0.7638
 6446SOL     OW30796   4.552   1.401   7.330 -0.1897  0.0943 -0.3260
 6446SOL    HW130797   4.620   1.421   7.394 -1.6878 -1.6865  1.8317
 6446SOL    HW230798   4.485   1.379   7.395 -0.2654  3.0120  0.5879
 6447SOL     OW30799   2.878   4.084   5.951  0.6107 -0.3273 -0.1806
 6447SOL    HW130800   2.823   4.035   6.013  1.4203  1.0177  1.6032
 6447SOL    HW230801   2.891   4.011   5.890 -1.1332  0.3500 -1.3720
 6448SOL     OW30802   3.332   0.933   5.107 -0.1279  0.2752 -0.3148
 6448SOL    HW130803   3.397   0.872   5.142  0.0057  0.7595  0.2724
 6448SOL    HW230804   3.248   0.889   5.114  1.0532 -1.9870 -0.5480
 6449SOL     OW30805   0.519   3.734  10.237  0.1288 -0.3493 -0.1703
 6449SOL    HW130806   0.474   3.662  10.282 -3.5821  1.6064 -0.7811
 6449SOL    HW230807   0.531   3.792  10.313  0.1195 -0.1568 -0.3158
 6450SOL     OW30808   3.535   3.584   2.591  0.2973  0.1310  0.1729
 6450SOL    HW130809   3.570   3.672   2.599  2.2756 -0.7979  1.8129
 6450SOL    HW230810   3.481   3.578   2.512  0.4607 -0.4147  0.0967
 6451SOL     OW30811   4.072   1.354   8.931  0.3975 -0.5243  0.4780
 6451SOL    HW130812   4.014   1.422   8.962 -0.7140 -1.0583 -0.4102
 6451SOL    HW230813   4.019   1.326   8.856 -0.2494 -0.2098  0.8236
 6452SOL     OW30814   2.055   0.127   7.197  0.2760 -0.7543  0.0010
 6452SOL    HW130815   1.980   0.145   7.252  1.2674 -0.6024  1.2931
 6452SOL    HW230816   2.047   0.190   7.125  2.3546 -0.7463 -0.2378
 6453SOL     OW30817   2.656   1.396   4.147 -0.3201  0.1911  0.6383
 6453SOL    HW130818   2.564   1.414   4.130 -0.8578 -0.6344  2.6271
 6453SOL    HW230819   2.693   1.391   4.059 -0.3146  3.0879  0.4877
 6454SOL     OW30820   1.714   2.476   3.002 -0.0565 -0.2870 -0.1428
 6454SOL    HW130821   1.714   2.533   2.925 -1.3221  1.2638  1.0126
 6454SOL    HW230822   1.633   2.429   2.983  0.1377 -0.5034 -0.4293
 6455SOL     OW30823   0.760   0.407   2.594 -0.3614  0.9423  0.0575
 6455SOL    HW130824   0.712   0.348   2.652  1.8375 -0.2349  0.6893
 6455SOL    HW230825   0.711   0.395   2.513  2.3182 -1.0985 -1.2833
 6456SOL     OW30826   0.227   0.864   2.647  0.4928 -0.2140 -0.2144
 6456SOL    HW130827   0.146   0.881   2.695 -0.0652  0.1516 -1.2686
 6456SOL    HW230828   0.221   0.768   2.640 -1.8186 -0.1845  1.3118
 6457SOL     OW30829   0.584   2.862   7.685 -0.2632  0.5282 -0.0881
 6457SOL    HW130830   0.510   2.922   7.675 -0.2644  0.5317 -0.0590
 6457SOL    HW230831   0.591   2.812   7.604  1.6702  0.2354  0.2633
 6458SOL     OW30832   3.999   1.209  12.145 -0.4285  0.6897 -0.3699
 6458SOL    HW130833   3.997   1.150  12.070 -2.6315 -0.5707  0.6995
 6458SOL    HW230834   3.972   1.141  12.206  0.5522  1.1849  0.6084
 6459SOL     OW30835   2.161   3.579   3.203  0.0633 -0.2036 -0.1732
 6459SOL    HW130836   2.085   3.571   3.146  0.9967 -2.5782 -1.0524
 6459SOL    HW230837   2.139   3.517   3.272 -1.3900 -0.8593 -1.2304
 6460SOL     OW30838   0.213   2.106  11.340  0.0676 -0.1794  0.1378
 6460SOL    HW130839   0.236   2.194  11.308  0.3261 -0.2317  0.1775
 6460SOL    HW230840   0.140   2.079  11.285  0.9821  0.2957 -1.2964
 6461SOL     OW30841   3.752   1.673   3.869  0.1647  0.1269 -0.1956
 6461SOL    HW130842   3.795   1.708   3.947 -0.7066  1.1961 -0.1956
 6461SOL    HW230843   3.825   1.692   3.810 -1.3661  0.6481 -1.9025
 6462SOL     OW30844   3.149   0.099  15.875  0.0732  0.1348  0.3431
 6462SOL    HW130845   3.091   0.028  15.903  1.5601 -0.7133  1.2336
 6462SOL    HW230846   3.202   0.096  15.954  0.6115 -1.3082 -0.0834
 6463SOL     OW30847   2.889   1.225   8.685  0.0528  0.0775 -0.4028
 6463SOL    HW130848   2.838   1.306   8.680 -0.0241 -0.0035 -0.9215
 6463SOL    HW230849   2.936   1.246   8.766 -2.8887  2.5776  0.6847
 6464SOL     OW30850   0.894   4.671  10.321 -0.7152  1.1168  1.1831
 6464SOL    HW130851   0.967   4.628  10.277 -0.9071  1.6805  0.2915
 6464SOL    HW230852   0.846   4.594  10.352 -0.1342  0.3145  0.0885
 6465SOL     OW30853   2.797   1.114   3.185 -0.0364 -0.3118  0.4221
 6465SOL    HW130854   2.815   1.191   3.131 -0.2049 -0.1368  0.6161
 6465SOL    HW230855   2.846   1.043   3.142  1.3745  0.6102  0.5084
 6466SOL     OW30856   4.341   1.303  15.451 -0.1485  0.3189 -0.4149
 6466SOL    HW130857   4.342   1.398  15.442  3.4034  0.1193 -2.2033
 6466SOL    HW230858   4.432   1.283  15.427  0.2515  1.2485  0.3377
 6467SOL     OW30859   0.964   1.871   6.864  0.1372  0.2697  0.0888
 6467SOL    HW130860   1.026   1.870   6.937 -0.3783 -1.1731  0.4851
 6467SOL    HW230861   0.900   1.802   6.879  0.9645 -0.7280 -0.9859
 6468SOL     OW30862   0.314   1.315   7.611  0.1120  0.2065 -0.3725
 6468SOL    HW130863   0.314   1.236   7.666  0.7636  0.0939 -0.5263
 6468SOL    HW230864   0.223   1.328   7.586 -0.0370  1.8392  1.0127
 6469SOL     OW30865   0.206   2.116   6.398 -0.5506  0.3102  0.1101
 6469SOL    HW130866   0.242   2.040   6.352 -0.5421 -0.4807  1.4262
 6469SOL    HW230867   0.283   2.173   6.406 -0.4320 -0.1570  2.2385
 6470SOL     OW30868   3.577   1.044   0.467 -0.2389  0.3261 -0.3120
 6470SOL    HW130869   3.550   0.955   0.488  0.6115  0.1764  0.1683
 6470SOL    HW230870   3.663   1.054   0.509 -0.9100  0.5712  1.0186
 6471SOL     OW30871   3.582   4.650   6.075 -0.2491 -0.0399 -0.3568
 6471SOL    HW130872   3.653   4.621   6.133  0.8750  1.7651 -0.8346
 6471SOL    HW230873   3.634   4.703   6.014  3.0444 -2.4322  0.3404
 6472SOL     OW30874   0.707   4.645   3.337 -0.8458 -0.2504 -0.0534
 6472SOL    HW130875   0.644   4.625   3.268  1.2558 -1.6313 -1.5658
 6472SOL    HW230876   0.670   4.577   3.394  0.5354  1.2328  2.6148
 6473SOL     OW30877   2.814   1.397   0.828 -0.3404 -0.5016  0.6167
 6473SOL    HW130878   2.831   1.490   0.812  2.4874 -0.7742  2.0917
 6473SOL    HW230879   2.879   1.371   0.893  0.0975 -1.3805 -0.1820
 6474SOL     OW30880   4.493   2.771   7.386 -0.0585 -0.2673 -0.3172
 6474SOL    HW130881   4.519   2.684   7.357  0.3051 -0.6494  1.1590
 6474SOL    HW230882   4.527   2.775   7.475 -0.4814 -1.9357 -0.0841
 6475SOL     OW30883   3.460   2.067  12.699  0.0410  0.2427  0.1823
 6475SOL    HW130884   3.436   2.060  12.606 -1.5013  0.8516  0.5246
 6475SOL    HW230885   3.380   2.066  12.751  0.4199  0.1288  0.7553
 6476SOL     OW30886   4.212   4.092   4.976 -0.4326 -0.4841 -0.5065
 6476SOL    HW130887   4.135   4.090   4.919 -0.7626 -0.7985 -0.0499
 6476SOL    HW230888   4.198   4.179   5.013  1.9995 -0.4097  0.2266
 6477SOL     OW30889   3.684   1.679  15.947 -0.1318 -0.1138 -0.3741
 6477SOL    HW130890   3.715   1.645  16.031  2.0731  0.5466 -0.9289
 6477SOL    HW230891   3.620   1.610  15.929  1.1851 -1.0061 -1.6171
 6478SOL     OW30892   1.578   3.477   0.622  0.1188  0.2271 -0.1581
 6478SOL    HW130893   1.510   3.519   0.569 -1.3672 -2.0695 -0.0426
 6478SOL    HW230894   1.631   3.437   0.552  0.1816 -1.7770  1.0506
 6479SOL     OW30895   1.253   1.300   8.394 -0.1008  0.1449 -0.5382
 6479SOL    HW130896   1.203   1.378   8.374 -0.0500  0.0694 -0.9593
 6479SOL    HW230897   1.284   1.316   8.484 -0.5067 -2.0702  0.0134
 6480SOL     OW30898   2.406   4.140  13.450 -0.4554  0.3348 -0.2015
 6480SOL    HW130899   2.411   4.129  13.355  2.1343 -0.9247  0.0696
 6480SOL    HW230900   2.319   4.103  13.465  0.0155 -1.3505 -1.5848
 6481SOL     OW30901   2.708   2.509   4.353 -0.0726 -0.2289  0.5480
 6481SOL    HW130902   2.792   2.465   4.364 -0.2030 -0.6936 -0.3207
 6481SOL    HW230903   2.720   2.603   4.366 -0.4903 -0.1360  0.2694
 6482SOL     OW30904   3.499   2.957   5.162 -0.1410  0.2486  0.0994
 6482SOL    HW130905   3.510   2.894   5.090 -1.9261  0.2572 -0.1759
 6482SOL    HW230906   3.545   2.919   5.236 -0.5259 -1.0992 -0.3503
 6483SOL     OW30907   0.143   1.997   3.385  0.1885 -0.3210 -0.8278
 6483SOL    HW130908   0.057   1.988   3.345  0.6657 -1.1565 -1.6670
 6483SOL    HW230909   0.194   1.948   3.320  0.0602 -1.8235  0.1868
 6484SOL     OW30910   0.431   0.250   8.418 -0.4935 -0.6549 -0.3702
 6484SOL    HW130911   0.510   0.240   8.364 -0.4760 -2.8731  0.0717
 6484SOL    HW230912   0.363   0.246   8.351 -0.3200  0.2849 -0.6072
 6485SOL     OW30913   0.158   4.618   4.118  1.0765  0.0008 -0.0927
 6485SOL    HW130914   0.143   4.704   4.078 -0.8083 -0.7183 -0.9700
 6485SOL    HW230915   0.156   4.644   4.210 -0.2890 -0.1934 -0.0579
 6486SOL     OW30916   3.475   2.362   5.210 -0.5248  0.0534  0.0227
 6486SOL    HW130917   3.455   2.276   5.174  1.8500 -0.7763  0.7220
 6486SOL    HW230918   3.539   2.396   5.148 -1.3717 -0.1945 -0.9836
 6487SOL     OW30919   3.846   2.017   0.653 -0.2648 -0.1555 -0.0218
 6487SOL    HW130920   3.844   2.013   0.749 -0.8655  2.1833  0.0509
 6487SOL    HW230921   3.831   2.109   0.633 -1.8563 -1.4855 -4.8571
 6488SOL     OW30922   4.240   2.518   1.381 -0.3120 -0.0421  0.2724
 6488SOL    HW130923   4.243   2.614   1.389  2.8691 -0.0427 -0.8829
 6488SOL    HW230924   4.330   2.493   1.400 -0.8518 -0.3787  2.3763
 6489SOL     OW30925   2.742   2.017  14.222 -0.4256  0.5597 -0.2051
 6489SOL    HW130926   2.674   2.014  14.290 -0.2456 -4.7696 -0.2362
 6489SOL    HW230927   2.794   2.092  14.249 -0.0509  0.0798  0.4206
 6490SOL     OW30928   3.130   3.584   9.493  0.0670  0.1341 -0.6230
 6490SOL    HW130929   3.097   3.619   9.575  2.6154 -1.1490  0.9562
 6490SOL    HW230930   3.180   3.508   9.523 -2.3495 -1.4089 -0.4470
 6491SOL     OW30931   3.495   2.449   9.214 -0.1720  0.3303 -0.1180
 6491SOL    HW130932   3.421   2.487   9.261 -0.4052  1.4004 -1.3610
 6491SOL    HW230933   3.442   2.382   9.170  0.3157 -1.4439  2.0206
 6492SOL     OW30934   1.058   2.166   8.295 -0.3097  0.4625 -0.0704
 6492SOL    HW130935   1.062   2.214   8.378  3.2061 -0.4483  0.2725
 6492SOL    HW230936   1.150   2.170   8.270 -0.0940 -2.6875  0.2984
 6493SOL     OW30937   0.196   3.376  16.819 -0.0504  0.4232 -1.1356
 6493SOL    HW130938   0.108   3.341  16.835  0.6170 -0.6098  0.2882
 6493SOL    HW230939   0.172   3.456  16.772  1.8218  0.6953 -1.6339
 6494SOL     OW30940   4.327   0.949   4.718 -0.1654  0.1967 -0.2770
 6494SOL    HW130941   4.259   1.016   4.707  0.3467  0.6855 -0.4420
 6494SOL    HW230942   4.383   0.992   4.782  1.4906  0.9705 -2.2579
 6495SOL     OW30943   0.109   4.601   8.012 -0.0837  0.6258  0.0087
 6495SOL    HW130944   0.067   4.619   8.096  0.7745  2.9220 -0.0636
 6495SOL    HW230945   0.033   4.564   7.968 -0.9727 -0.1483  2.1858
 6496SOL     OW30946   4.472   0.892   8.614 -0.3064  0.3583  0.1409
 6496SOL    HW130947   4.452   0.799   8.626 -0.9667  0.4784  0.0122
 6496SOL    HW230948   4.421   0.897   8.533 -0.7395  3.1477  0.5999
 6497SOL     OW30949   3.640   3.639   1.716 -0.5109  0.4252  0.2075
 6497SOL    HW130950   3.687   3.677   1.791  1.5129  0.5061 -1.0887
 6497SOL    HW230951   3.660   3.702   1.647 -2.2773  1.4104  0.6166
 6498SOL     OW30952   0.502   4.289  12.636 -0.7950  0.0150 -0.2188
 6498SOL    HW130953   0.449   4.369  12.641  1.6785  1.5507  1.4014
 6498SOL    HW230954   0.577   4.326  12.591  0.3500 -3.5785 -1.2822
 6499SOL     OW30955   3.257   4.039  12.268 -0.1580 -0.3404  0.2156
 6499SOL    HW130956   3.223   3.950  12.275  1.0832 -0.9826 -2.0012
 6499SOL    HW230957   3.345   4.037  12.307  0.1341  0.4042 -0.4013
 6500SOL     OW30958   3.049   3.773   2.083 -0.2327 -0.4215 -0.7744
 6500SOL    HW130959   2.962   3.813   2.079 -0.4589 -1.0215 -1.8557
 6500SOL    HW230960   3.042   3.692   2.033 -2.1660 -1.1096  0.6013
 6501SOL     OW30961   4.216   2.013   3.163 -0.0311  0.9438  0.5709
 6501SOL    HW130962   4.136   2.033   3.114  0.0376 -0.8714 -0.2454
 6501SOL    HW230963   4.283   2.030   3.097 -0.0293 -0.4142  0.2391
 6502SOL     OW30964   3.095   2.900   3.429 -0.3331 -0.7668  0.6033
 6502SOL    HW130965   3.004   2.872   3.442 -0.8804  0.4130 -0.7095
 6502SOL    HW230966   3.094   2.978   3.484  0.3148 -2.1432  2.5891
 6503SOL     OW30967   3.610   3.306  14.394  0.2307 -0.0234 -0.0030
 6503SOL    HW130968   3.684   3.246  14.400 -0.6250 -1.3154 -2.4809
 6503SOL    HW230969   3.598   3.292  14.300 -0.4090  0.6286 -0.0171
 6504SOL     OW30970   2.320   2.566   2.876 -0.5343 -0.3007 -0.7064
 6504SOL    HW130971   2.257   2.494   2.885 -0.5378 -0.5149 -2.4831
 6504SOL    HW230972   2.352   2.572   2.966 -0.7670  0.2787 -0.6676
 6505SOL     OW30973   1.830   0.550   0.881 -0.4048 -0.1175 -0.1544
 6505SOL    HW130974   1.745   0.526   0.846 -0.9278  0.9617  0.3756
 6505SOL    HW230975   1.865   0.470   0.921 -3.7518 -1.7411 -0.4813
 6506SOL     OW30976   1.656   3.626   3.120  0.2805  0.4545 -0.4606
 6506SOL    HW130977   1.641   3.594   3.031 -0.6668  2.7087 -1.1257
 6506SOL    HW230978   1.662   3.721   3.108 -1.3869  0.8893  1.9719
 6507SOL     OW30979   4.681   1.583  11.342  0.9277 -0.6855  0.0307
 6507SOL    HW130980   4.645   1.603  11.428 -0.3217 -1.5810 -0.2914
 6507SOL    HW230981   4.660   1.490  11.338  1.6378 -0.9403  2.1838
 6508SOL     OW30982   2.098   3.702   3.522  0.0964  0.1716  0.2834
 6508SOL    HW130983   2.167   3.769   3.525  0.5769 -0.2550 -1.1579
 6508SOL    HW230984   2.108   3.647   3.600  1.7330  0.8479  0.5521
 6509SOL     OW30985   0.944   0.076   3.487 -0.3214 -0.3277  0.3735
 6509SOL    HW130986   0.891   0.121   3.421  0.3969 -1.0269 -0.6849
 6509SOL    HW230987   0.931   0.133   3.563 -1.8702  0.3956 -0.4578
 6510SOL     OW30988   4.677   1.146  16.529 -0.6021  0.3528 -0.1506
 6510SOL    HW130989   4.585   1.133  16.552 -0.4885 -0.3308 -0.0797
 6510SOL    HW230990   4.714   1.184  16.609  0.4493  0.0633 -0.4935
 6511SOL     OW30991   0.002   1.828   3.808 -0.4916  0.0643  0.5455
 6511SOL    HW130992   4.639   1.841   3.836 -0.5851 -1.9267  1.1628
 6511SOL    HW230993   4.718   1.796   3.718  0.2375  2.0108 -0.2527
 6512SOL     OW30994   1.884   0.584   6.041  0.4953 -0.4485  0.1329
 6512SOL    HW130995   1.793   0.612   6.030  1.5859  3.6492  1.5509
 6512SOL    HW230996   1.910   0.572   5.950  0.8058  2.7207 -0.1931
 6513SOL     OW30997   3.899   3.412   7.134 -0.3273 -0.1134  0.5339
 6513SOL    HW130998   3.925   3.323   7.111  2.5800  0.7445  0.5353
 6513SOL    HW230999   3.980   3.439   7.178  1.9188 -2.6396 -2.0673
 6514SOL     OW31000   3.005   1.435   1.086 -0.1757  0.0767 -0.0578
 6514SOL    HW131001   3.004   1.531   1.082 -1.2845  0.1043  0.8857
 6514SOL    HW231002   3.096   1.419   1.060 -0.2656 -0.5154 -0.0213
 6515SOL     OW31003   3.550   0.407   5.945 -0.1632  0.8934  0.1204
 6515SOL    HW131004   3.630   0.437   5.903  0.3874  3.3605  2.9538
 6515SOL    HW231005   3.516   0.350   5.875  1.3302  1.0121 -0.6909
 6516SOL     OW31006   2.757   0.965   0.662  0.0911  0.4848 -0.1189
 6516SOL    HW131007   2.772   0.993   0.572 -1.6422 -3.0537 -1.5032
 6516SOL    HW231008   2.737   1.046   0.709 -1.2349  0.3157 -0.4030
 6517SOL     OW31009   1.711   0.262  15.571  0.5666 -0.3201  0.0344
 6517SOL    HW131010   1.768   0.333  15.602  0.6610  0.2651 -1.4939
 6517SOL    HW231011   1.666   0.241  15.653  1.7935 -0.5551  0.6576
 6518SOL     OW31012   2.269   0.890   6.786 -0.2266 -0.1227  0.2068
 6518SOL    HW131013   2.210   0.941   6.731  0.4137 -0.0034 -0.3729
 6518SOL    HW231014   2.248   0.913   6.876  1.3891 -1.2177  0.8628
 6519SOL     OW31015   4.349   1.514  17.399 -0.2144 -0.0400 -0.3806
 6519SOL    HW131016   4.384   1.602  17.418  0.6960 -0.3268 -0.7213
 6519SOL    HW231017   4.275   1.511  17.459  1.6849  0.5880  2.0331
 6520SOL     OW31018   3.706   4.665   6.403  0.4525  0.2184  0.4054
 6520SOL    HW131019   3.797   4.681   6.374  0.5453 -0.9079  0.0855
 6520SOL    HW231020   3.672   0.022   6.372 -0.5776  0.2835  1.7466
 6521SOL     OW31021   3.857   1.434   4.352 -0.4479  0.4023  0.4327
 6521SOL    HW131022   3.903   1.351   4.361  0.7141  1.3139  2.8666
 6521SOL    HW231023   3.884   1.458   4.263  0.8059 -0.7340  0.5031
 6522SOL     OW31024   0.346   4.166   5.681 -0.0219  0.5894  0.5780
 6522SOL    HW131025   0.378   4.083   5.715 -2.1760  0.2523  1.8265
 6522SOL    HW231026   0.262   4.137   5.645  0.7844  0.5117 -1.2188
 6523SOL     OW31027   4.028   4.080  17.704  0.4957 -0.4193 -0.3558
 6523SOL    HW131028   3.967   4.147   0.026 -0.2060 -1.1238 -0.2319
 6523SOL    HW231029   4.057   4.042   0.078 -1.6715  0.5774  0.8530
 6524SOL     OW31030   0.156   1.368  15.609 -0.6210  0.2298 -0.7718
 6524SOL    HW131031   0.143   1.411  15.694  0.8867  0.9951 -0.9327
 6524SOL    HW231032   0.070   1.380  15.567 -0.4899 -1.1196 -1.4403
 6525SOL     OW31033   4.283   3.932   8.757  0.2809  0.3254  0.3649
 6525SOL    HW131034   4.255   3.900   8.843 -1.8338 -0.9801 -0.7963
 6525SOL    HW231035   4.299   3.842   8.729  1.2621  0.9913 -1.1736
 6526SOL     OW31036   0.250   4.510   3.857  0.3762 -0.3520 -0.2247
 6526SOL    HW131037   0.240   4.531   3.950  0.8621  1.9324 -0.6872
 6526SOL    HW231038   0.251   4.597   3.819 -0.7951  0.1739  0.9449
 6527SOL     OW31039   3.872   4.715   3.723  0.6436  0.2924  0.4126
 6527SOL    HW131040   3.939   4.712   3.655 -0.8800  1.2479 -1.1321
 6527SOL    HW231041   3.894   4.641   3.779  1.6178  0.1902 -0.0966
 6528SOL     OW31042   2.937   1.029   7.198 -0.3606  0.1546 -0.5308
 6528SOL    HW131043   2.908   1.100   7.256  2.4477  1.4183 -0.6682
 6528SOL    HW231044   2.851   0.991   7.179 -0.4471  0.5343 -0.9196
 6529SOL     OW31045   0.251   0.053   8.910 -0.1757 -0.1151  0.1400
 6529SOL    HW131046   0.333   0.033   8.863  0.4177 -0.7473  1.4617
 6529SOL    HW231047   0.281   0.094   8.991 -0.6170  2.0445 -0.7717
 6530SOL     OW31048   0.325   3.171  12.352 -0.4010  0.6373 -0.7697
 6530SOL    HW131049   0.234   3.189  12.329 -0.8440 -0.0732  0.4322
 6530SOL    HW231050   0.368   3.250  12.322  1.8519 -0.5915 -0.7652
 6531SOL     OW31051   3.698   1.746  16.467  0.4194 -0.4104 -0.2791
 6531SOL    HW131052   3.747   1.681  16.417 -0.5360 -0.9797 -0.4761
 6531SOL    HW231053   3.712   1.714  16.556 -1.8177  0.0560  0.2448
 6532SOL     OW31054   3.206   1.331  10.441 -0.5816  0.4979  0.0377
 6532SOL    HW131055   3.176   1.345  10.351 -0.0633  0.2614 -0.1690
 6532SOL    HW231056   3.131   1.300  10.492 -0.8257 -0.1359 -0.7058
 6533SOL     OW31057   0.689   4.506   7.675 -0.0545  0.3797  0.4584
 6533SOL    HW131058   0.738   4.425   7.692 -0.5406  0.3166  1.5359
 6533SOL    HW231059   0.598   4.478   7.681 -0.0451  0.9032  2.9566
 6534SOL     OW31060   3.717   0.968   7.753  0.5704 -0.1995  0.1957
 6534SOL    HW131061   3.773   0.994   7.680  0.1149  0.8596  0.2231
 6534SOL    HW231062   3.756   0.988   7.838  1.3300  0.1564 -0.2394
 6535SOL     OW31063   2.886   3.975   8.505 -0.3314  0.5140 -0.0462
 6535SOL    HW131064   2.975   3.970   8.541 -0.1522 -2.8173 -0.9934
 6535SOL    HW231065   2.832   3.959   8.582 -0.4824  1.5234  0.0612
 6536SOL     OW31066   1.814   4.306   8.523  0.1035 -0.0285 -0.0154
 6536SOL    HW131067   1.724   4.317   8.553 -0.0590  0.5252 -0.6999
 6536SOL    HW231068   1.807   4.343   8.435  0.4067 -1.0174 -0.4589
 6537SOL     OW31069   0.584   0.419   7.412 -0.2747 -0.1656 -0.0301
 6537SOL    HW131070   0.583   0.342   7.355  1.2894 -1.4717  1.7008
 6537SOL    HW231071   0.490   0.413   7.432 -0.5635  1.1759 -1.0003
 6538SOL     OW31072   2.595   3.230  12.015 -0.3084  0.0562  0.4256
 6538SOL    HW131073   2.578   3.196  12.103 -0.6302  1.8414  1.0559
 6538SOL    HW231074   2.652   3.303  12.038  0.9787 -0.5044 -0.9989
 6539SOL     OW31075   1.127   3.492   8.418  0.3107 -0.3676  0.0610
 6539SOL    HW131076   1.151   3.585   8.416  1.6292 -0.7440 -1.4421
 6539SOL    HW231077   1.159   3.476   8.329  0.6381 -2.5876  0.5762
 6540SOL     OW31078   2.454   2.394  15.478  0.2325  0.4875  0.1707
 6540SOL    HW131079   2.404   2.314  15.459 -1.2740  1.2961  0.7126
 6540SOL    HW231080   2.535   2.358  15.513 -0.7788 -1.3141  0.6666
 6541SOL     OW31081   3.026   2.801   0.372  0.0988 -0.4892 -0.4896
 6541SOL    HW131082   3.031   2.736   0.442  1.4532  0.8592  0.6616
 6541SOL    HW231083   2.984   2.871   0.422  1.6112 -1.4586  2.1146
 6542SOL     OW31084   3.700   2.007   0.414  0.0508  0.2133 -0.0189
 6542SOL    HW131085   3.752   1.973   0.341 -2.4025 -1.4584 -0.9704
 6542SOL    HW231086   3.759   1.998   0.490  0.5987 -1.3994 -0.6304
 6543SOL     OW31087   2.198   2.542  10.546 -0.3102 -0.3534 -0.1382
 6543SOL    HW131088   2.132   2.504  10.605  0.7379 -0.8734  0.6814
 6543SOL    HW231089   2.237   2.461  10.515  0.1637 -0.3121  0.3570
 6544SOL     OW31090   2.704   2.904  10.647 -0.2486 -0.2925 -0.0018
 6544SOL    HW131091   2.650   2.974  10.684 -0.3966 -0.7537  0.6486
 6544SOL    HW231092   2.659   2.830  10.687  2.4786 -1.8135  0.2571
 6545SOL     OW31093   3.477   1.751   2.126 -0.1194 -0.2215 -0.0488
 6545SOL    HW131094   3.442   1.837   2.104  2.0282  0.0648 -2.2654
 6545SOL    HW231095   3.502   1.770   2.217 -0.7772  2.3556 -0.4044
 6546SOL     OW31096   1.914   3.559   2.078  0.0060 -0.0424 -0.3258
 6546SOL    HW131097   1.936   3.649   2.057  1.1419 -0.1993  0.1877
 6546SOL    HW231098   1.825   3.565   2.044 -1.0746  0.5598  2.5293
 6547SOL     OW31099   0.445   0.433   3.670  0.5491 -0.1393 -0.5927
 6547SOL    HW131100   0.508   0.364   3.648 -0.8148 -1.2405 -1.0066
 6547SOL    HW231101   0.443   0.420   3.765 -0.7994 -0.1766 -0.6280
 6548SOL     OW31102   2.227   0.222   2.371 -0.1843  0.0296 -0.5791
 6548SOL    HW131103   2.283   0.299   2.360 -0.9677  0.2811 -2.8467
 6548SOL    HW231104   2.221   0.233   2.465 -2.4203  1.9506 -0.9585
 6549SOL     OW31105   0.402   4.578  12.912 -0.0079  0.3098 -0.0412
 6549SOL    HW131106   0.469   4.646  12.902  0.7667 -0.8132 -2.6681
 6549SOL    HW231107   0.384   4.548  12.823 -1.8838 -2.1048  1.1438
 6550SOL     OW31108   3.666   3.579   2.853 -0.8857  0.1674 -0.0798
 6550SOL    HW131109   3.656   3.560   2.759 -1.6402  1.9473 -0.3595
 6550SOL    HW231110   3.643   3.493   2.888  0.5604  0.2070  0.9578
 6551SOL     OW31111   2.228   1.316   0.186  0.2062 -0.1929 -0.3203
 6551SOL    HW131112   2.311   1.333   0.231 -1.1496  2.0319  1.3726
 6551SOL    HW231113   2.247   1.262   0.110  1.2432  0.9735 -0.8978
 6552SOL     OW31114   3.511   1.993   0.636 -0.1102  0.5169  0.6420
 6552SOL    HW131115   3.429   2.037   0.613 -0.3251  0.4671  1.3123
 6552SOL    HW231116   3.548   1.994   0.547 -1.5596 -3.1007 -0.0227
 6553SOL     OW31117   0.395   1.159   2.982 -0.7595  0.6990 -0.0938
 6553SOL    HW131118   0.328   1.130   3.044 -0.3708 -0.9933 -0.4573
 6553SOL    HW231119   0.440   1.075   2.973  0.5435  1.2588  1.1937
 6554SOL     OW31120   1.543   0.612  12.944 -0.0937  0.3973 -0.8515
 6554SOL    HW131121   1.567   0.521  12.925  1.5531  0.3220  1.6070
 6554SOL    HW231122   1.523   0.647  12.858  4.3347  0.4817 -1.8307
 6555SOL     OW31123   3.003   3.838   6.718  0.5954 -0.3566  0.2010
 6555SOL    HW131124   3.082   3.892   6.715 -0.8958  1.8762  1.0457
 6555SOL    HW231125   2.938   3.899   6.754 -0.3286 -0.1042 -1.8960
 6556SOL     OW31126   1.312   1.011   4.426 -0.2361 -0.2189 -0.3478
 6556SOL    HW131127   1.329   1.057   4.344 -1.3171 -1.0907 -1.0633
 6556SOL    HW231128   1.216   1.020   4.427 -0.0845  1.4871 -1.0211
 6557SOL     OW31129   3.446   4.452   5.321  0.3912  0.2689 -0.7673
 6557SOL    HW131130   3.510   4.429   5.389  0.7033 -0.2409 -1.2389
 6557SOL    HW231131   3.397   4.528   5.353  0.7424 -1.1381  3.2262
 6558SOL     OW31132   4.269   1.750   7.246 -0.2585 -0.0603  0.0011
 6558SOL    HW131133   4.179   1.742   7.215  0.1909  0.7030 -1.4726
 6558SOL    HW231134   4.306   1.670   7.208  1.5085  1.3616 -1.2309
 6559SOL     OW31135   4.375   0.055   1.719  0.1861 -0.3630  0.2550
 6559SOL    HW131136   4.376   0.104   1.801 -1.1109  2.2606 -1.2594
 6559SOL    HW231137   4.292   0.083   1.681  1.3531  3.3693  0.4453
 6560SOL     OW31138   0.859   1.427   4.637 -0.2798  0.3132 -0.3843
 6560SOL    HW131139   0.810   1.493   4.588  1.2241  1.6221 -0.1322
 6560SOL    HW231140   0.921   1.399   4.569  0.1370 -0.3349  0.2664
 6561SOL     OW31141   0.635   4.178   8.164  0.2878  0.2264 -0.1268
 6561SOL    HW131142   0.668   4.221   8.085 -1.1073 -1.3846 -1.5777
 6561SOL    HW231143   0.671   4.089   8.158 -0.2400 -0.0557  0.8815
 6562SOL     OW31144   0.909   3.224   5.186  0.0592  0.4971 -0.1956
 6562SOL    HW131145   0.951   3.147   5.149  0.2559  1.3682 -1.7938
 6562SOL    HW231146   0.877   3.188   5.269  0.5879 -1.0559 -0.6789
 6563SOL     OW31147   1.479   2.561   8.262  0.1129 -0.2931  0.3042
 6563SOL    HW131148   1.554   2.524   8.309  0.8824 -1.0297 -1.4859
 6563SOL    HW231149   1.509   2.651   8.249  1.0299 -0.5371  0.6833
 6564SOL     OW31150   2.356   0.426   4.285 -0.5504  0.1553 -0.1192
 6564SOL    HW131151   2.447   0.418   4.314 -0.1033  2.0840 -0.9667
 6564SOL    HW231152   2.340   0.500   4.344 -0.3778  1.3919 -1.6301
 6565SOL     OW31153   1.228   1.862   6.013  0.0095  0.1169 -0.6909
 6565SOL    HW131154   1.305   1.808   6.029 -0.0895 -0.2511 -1.4565
 6565SOL    HW231155   1.261   1.935   5.961  0.0235  1.4884  1.2549
 6566SOL     OW31156   0.364   2.379  13.286  0.2265 -0.5704 -0.7889
 6566SOL    HW131157   0.331   2.403  13.373  0.9295  0.5966 -0.8476
 6566SOL    HW231158   0.340   2.453  13.230  1.3054 -1.6429 -2.6733
 6567SOL     OW31159   3.854   4.628  12.822  0.1004  0.5883  0.5176
 6567SOL    HW131160   3.886   4.650  12.734 -0.2955 -1.5081 -0.1667
 6567SOL    HW231161   3.901   4.696  12.869  0.1722  2.7803 -2.7402
 6568SOL     OW31162   2.378   1.963   4.822  0.0530 -0.3776 -0.2992
 6568SOL    HW131163   2.304   2.019   4.799  0.5953  0.9124  1.1142
 6568SOL    HW231164   2.367   1.893   4.757  0.0726 -0.9476  0.3103
 6569SOL     OW31165   1.775   4.526   0.742  0.2059  0.0717  0.4023
 6569SOL    HW131166   1.815   4.440   0.726 -1.6731 -0.4990 -1.1904
 6569SOL    HW231167   1.711   4.538   0.672  0.4995  1.4242  0.3670
 6570SOL     OW31168   4.016   3.698   2.224 -0.0808  0.1670  0.4517
 6570SOL    HW131169   3.934   3.707   2.271  0.0890  0.7467  0.6295
 6570SOL    HW231170   4.014   3.754   2.146  0.1800  0.7654  0.8729
 6571SOL     OW31171   2.671   3.025   2.010 -0.0050 -0.3180 -0.0977
 6571SOL    HW131172   2.696   3.076   1.933 -0.2199  0.7779  0.5602
 6571SOL    HW231173   2.604   3.079   2.053  1.4129  0.9232  0.5528
 6572SOL     OW31174   4.307   2.158   2.452 -0.1240 -0.0713  0.0412
 6572SOL    HW131175   4.249   2.110   2.510 -1.0533 -1.2725 -1.8799
 6572SOL    HW231176   4.272   2.247   2.452 -0.1703 -0.0948 -2.5616
 6573SOL     OW31177   4.393   0.892   4.462 -0.1767 -0.3298  0.5776
 6573SOL    HW131178   4.468   0.946   4.487 -0.7991  1.5094 -1.5130
 6573SOL    HW231179   4.364   0.861   4.548  1.0180 -0.0667  1.0821
 6574SOL     OW31180   3.754   4.524   8.533 -0.4474  0.2704  0.3150
 6574SOL    HW131181   3.819   4.593   8.521 -0.4379  0.6226  2.3209
 6574SOL    HW231182   3.743   4.536   8.628 -0.2285 -1.4439  0.5646
 6575SOL     OW31183   0.900   0.246   7.797  0.1206 -0.1541  0.2113
 6575SOL    HW131184   0.813   0.239   7.758 -0.6355  1.5634  1.5678
 6575SOL    HW231185   0.952   0.297   7.735  0.6985  1.3417  1.9232
 6576SOL     OW31186   1.546   2.127   4.332 -0.4361 -0.5216 -0.0679
 6576SOL    HW131187   1.525   2.073   4.255  3.6360 -0.1063 -1.4700
 6576SOL    HW231188   1.506   2.213   4.321  1.7522  0.4823  0.0070
 6577SOL     OW31189   0.286   0.206   2.775  0.1562  0.3411  0.4995
 6577SOL    HW131190   0.198   0.218   2.740  0.1172  1.4034  0.9442
 6577SOL    HW231191   0.274   0.262   2.852 -0.0786 -0.7365  1.2465
 6578SOL     OW31192   1.391   2.133   2.333  0.7088 -0.6062 -0.1222
 6578SOL    HW131193   1.318   2.112   2.275  0.6984 -1.7154  0.2717
 6578SOL    HW231194   1.454   2.069   2.297 -0.3393 -0.4423 -2.2301
 6579SOL     OW31195   4.051   4.377   8.560 -0.3612  0.2862  0.3531
 6579SOL    HW131196   4.030   4.411   8.647  1.5843  2.3994  0.0114
 6579SOL    HW231197   4.096   4.294   8.571  1.1606  1.1308  0.5190
 6580SOL     OW31198   1.270   4.283   6.152 -0.4294 -0.2239 -0.0104
 6580SOL    HW131199   1.248   4.191   6.136 -0.5829 -0.4324  1.4606
 6580SOL    HW231200   1.188   4.323   6.122  0.3769  1.1745 -0.3876
 6581SOL     OW31201   1.665   0.778   5.746 -0.4869  0.5696 -0.2255
 6581SOL    HW131202   1.623   0.830   5.814  2.3383  1.6051  0.7182
 6581SOL    HW231203   1.717   0.846   5.703  3.3765 -0.6218  2.5544
 6582SOL     OW31204   1.273   4.635   5.285 -0.3369 -0.6778 -0.0843
 6582SOL    HW131205   1.215   4.599   5.351 -0.4759 -0.9973 -0.3844
 6582SOL    HW231206   1.273   0.002   5.303  1.4799 -0.8559  0.8972
 6583SOL     OW31207   4.685   2.391   5.457 -0.6007 -0.4358  0.5016
 6583SOL    HW131208   4.617   2.330   5.427  0.6403 -1.5387 -0.0347
 6583SOL    HW231209   4.723   2.349   5.533 -0.9104 -0.1479  0.8191
 6584SOL     OW31210   0.813   2.854   3.832  0.0930 -1.0317 -0.4908
 6584SOL    HW131211   0.765   2.893   3.905  1.3746  0.4586 -0.4230
 6584SOL    HW231212   0.804   2.760   3.847  1.4380 -1.4325 -2.1525
 6585SOL     OW31213   3.462   0.987  11.483 -0.0646 -0.4890  0.0294
 6585SOL    HW131214   3.436   1.049  11.415 -0.8529 -1.0176 -0.1534
 6585SOL    HW231215   3.413   1.013  11.561 -1.0718  2.5231 -1.5890
 6586SOL     OW31216   2.609   2.108   8.835 -0.4051  0.1357 -0.2552
 6586SOL    HW131217   2.595   2.169   8.762 -2.4805 -0.5517 -0.4305
 6586SOL    HW231218   2.620   2.175   8.902 -0.1418  1.9347 -2.1085
 6587SOL     OW31219   2.002   0.848   5.771  0.0854  0.1052 -0.2680
 6587SOL    HW131220   2.006   0.867   5.677  0.1084  1.6260  0.0470
 6587SOL    HW231221   1.974   0.756   5.770  0.6442 -0.0744  0.4530
 6588SOL     OW31222   2.593   3.964  16.531 -0.4340 -0.1896  0.4905
 6588SOL    HW131223   2.685   3.951  16.553 -0.2951  1.2073  0.7718
 6588SOL    HW231224   2.575   4.040  16.587  3.8867  0.3734  1.0612
 6589SOL     OW31225   3.606   3.944   3.181 -0.0425 -0.3271  0.2546
 6589SOL    HW131226   3.578   3.888   3.109  0.2867 -0.8203  0.5000
 6589SOL    HW231227   3.658   3.876   3.225  1.4040  2.1002  2.2644
 6590SOL     OW31228   3.378   4.225   4.929 -0.3008 -0.3092 -0.0625
 6590SOL    HW131229   3.318   4.192   4.862 -2.4500  2.0008  0.7109
 6590SOL    HW231230   3.320   4.239   5.004 -1.0030  3.8678 -1.3974
 6591SOL     OW31231   3.675   0.405   2.697 -0.0911  0.1830  0.0166
 6591SOL    HW131232   3.699   0.434   2.609 -1.7795  2.4316  0.3067
 6591SOL    HW231233   3.665   0.487   2.746 -0.9448 -0.3011  0.6592
 6592SOL     OW31234   4.198   0.928   2.640 -0.1407 -0.3685  0.3153
 6592SOL    HW131235   4.276   0.938   2.584 -0.5132 -0.5042 -0.2240
 6592SOL    HW231236   4.212   0.837   2.664 -0.3745 -0.3607  0.4730
 6593SOL     OW31237   3.402   3.251  10.033 -0.1963 -0.7920  0.5452
 6593SOL    HW131238   3.496   3.253  10.016 -0.6620 -1.4547 -2.1370
 6593SOL    HW231239   3.396   3.198  10.112 -1.3368 -0.1562  0.8761
 6594SOL     OW31240   2.909   0.319   5.812 -0.6201  0.1376 -0.4060
 6594SOL    HW131241   2.832   0.355   5.768  0.6096  2.7683 -0.4135
 6594SOL    HW231242   2.924   0.379   5.886  1.5839 -1.8116  0.7329
 6595SOL     OW31243   2.728   4.311  16.673  0.1171  0.3502 -0.2568
 6595SOL    HW131244   2.676   4.382  16.711 -1.8648 -0.9710 -0.4724
 6595SOL    HW231245   2.664   4.240  16.673  1.0598 -0.4753  2.4603
 6596SOL     OW31246   1.542   1.428   7.215 -0.0989  0.2576 -0.3319
 6596SOL    HW131247   1.489   1.351   7.236 -0.9125  0.3061 -2.1682
 6596SOL    HW231248   1.494   1.446   7.134  0.3155  1.6761 -0.2549
 6597SOL     OW31249   2.008   3.687  12.076  0.7320 -0.4663  0.2658
 6597SOL    HW131250   2.036   3.741  12.150 -0.8390 -0.1140  0.6030
 6597SOL    HW231251   2.008   3.605  12.126  2.5317  0.9843  2.6228
 6598SOL     OW31252   4.011   0.297   1.440 -0.0162  0.4309  0.5658
 6598SOL    HW131253   4.018   0.259   1.352  3.4199 -0.1261  1.0827
 6598SOL    HW231254   4.006   0.390   1.417 -3.4970 -0.3188 -1.7196
 6599SOL     OW31255   0.036   1.369  11.059 -0.6460  0.1649 -0.0101
 6599SOL    HW131256   4.672   1.381  11.088  0.2500  1.5030  2.2355
 6599SOL    HW231257   0.077   1.403  11.139  1.4381 -0.9870 -0.6199
 6600SOL     OW31258   0.218   1.108   6.136 -0.4236 -0.4811 -0.1100
 6600SOL    HW131259   0.255   1.111   6.223  1.0158 -0.8036 -0.7162
 6600SOL    HW231260   0.180   1.196   6.126  2.6174  0.9809  1.3848
 6601SOL     OW31261   4.053   2.099   1.167 -0.2463  0.4507  0.3561
 6601SOL    HW131262   4.041   2.012   1.206 -0.9730  0.8034  0.9119
 6601SOL    HW231263   3.981   2.147   1.208  1.0317  2.3751  0.3451
 6602SOL     OW31264   1.956   2.611  17.532 -0.2204 -0.4206  0.0180
 6602SOL    HW131265   1.943   2.684  17.470  1.3994 -1.2869 -1.3182
 6602SOL    HW231266   2.048   2.589  17.523 -0.2817  0.5360 -3.0528
 6603SOL     OW31267   4.358   4.468   6.673 -0.5800  0.1656 -0.0325
 6603SOL    HW131268   4.277   4.421   6.693  1.8084 -3.7403  0.4433
 6603SOL    HW231269   4.424   4.402   6.653 -0.2443  0.6028 -0.3548
 6604SOL     OW31270   0.040   3.087   9.709 -0.0111 -0.2126  0.1525
 6604SOL    HW131271   0.073   3.003   9.678  0.5476 -0.1911  0.6982
 6604SOL    HW231272   0.057   3.138   9.629 -1.7255  0.2118  0.0402
 6605SOL     OW31273   1.478   4.326   4.233 -0.2045 -0.1926  0.2253
 6605SOL    HW131274   1.539   4.384   4.279 -0.6424 -0.2724  0.9076
 6605SOL    HW231275   1.406   4.389   4.221  1.2262  1.7350  1.8568
 6606SOL     OW31276   2.793   1.527   5.893  0.2392 -0.1381  0.6971
 6606SOL    HW131277   2.698   1.526   5.891  0.2432  0.6051 -0.0257
 6606SOL    HW231278   2.811   1.434   5.884 -1.6503 -0.2896 -1.3764
 6607SOL     OW31279   2.734   2.578   3.347  0.4565  0.6918 -0.2337
 6607SOL    HW131280   2.759   2.578   3.255  2.3832 -0.1254  0.2895
 6607SOL    HW231281   2.729   2.483   3.357 -1.1145  0.8126  0.0272
 6608SOL     OW31282   3.360   1.295   1.773 -0.9679 -0.5293 -0.3221
 6608SOL    HW131283   3.288   1.335   1.724  1.0934  2.2455 -1.1000
 6608SOL    HW231284   3.311   1.228   1.821  0.0001 -1.0750 -0.0952
 6609SOL     OW31285   1.327   1.587   0.806 -0.0075 -0.2216 -0.1173
 6609SOL    HW131286   1.379   1.662   0.774 -1.6584 -0.5668 -3.5413
 6609SOL    HW231287   1.377   1.525   0.753 -0.1945  1.2583 -2.0556
 6610SOL     OW31288   0.563   1.820   5.225  0.2546  0.6189  0.0359
 6610SOL    HW131289   0.592   1.888   5.164 -0.5085  0.6998 -0.2298
 6610SOL    HW231290   0.470   1.841   5.232  0.2160  0.8912 -1.3806
 6611SOL     OW31291   2.081   4.076   4.885 -0.1376  0.1803  0.2036
 6611SOL    HW131292   2.115   4.166   4.880 -0.3131  0.0603 -3.0181
 6611SOL    HW231293   2.144   4.019   4.841 -0.5539  0.4259 -0.6954
 6612SOL     OW31294   2.304   0.762   5.442  0.3253 -0.0672  0.5841
 6612SOL    HW131295   2.271   0.769   5.353  1.0517  0.0610  0.3230
 6612SOL    HW231296   2.343   0.850   5.450 -0.0225  0.1458 -0.0987
 6613SOL     OW31297   0.662   3.051   9.217 -0.2205  0.5705 -0.7868
 6613SOL    HW131298   0.601   3.112   9.259 -0.0592  1.4911 -1.8807
 6613SOL    HW231299   0.718   3.023   9.289 -1.1637 -0.8599 -0.6077
 6614SOL     OW31300   2.505   3.236  17.076  0.3109  0.0352 -0.3491
 6614SOL    HW131301   2.588   3.272  17.106  0.8057 -0.3696 -1.2278
 6614SOL    HW231302   2.526   3.195  16.992 -1.4838 -0.4000 -0.5775
 6615SOL     OW31303   3.837   4.421  11.491  0.3477  0.1363  0.1303
 6615SOL    HW131304   3.801   4.332  11.492  1.3896 -0.2978 -0.3568
 6615SOL    HW231305   3.916   4.395  11.540 -2.3898 -0.0093  4.4643
 6616SOL     OW31306   0.788   1.728   6.576 -0.5024  0.2556  0.1759
 6616SOL    HW131307   0.877   1.738   6.609 -0.2402  0.0429 -0.4729
 6616SOL    HW231308   0.805   1.737   6.483 -1.1966 -2.6556 -0.2405
 6617SOL     OW31309   4.020   1.942   8.041 -0.3860  0.9032 -0.3668
 6617SOL    HW131310   3.975   1.903   7.966  3.1839 -0.4540 -1.8011
 6617SOL    HW231311   3.946   1.994   8.073  0.9998  2.6428  0.0233
 6618SOL     OW31312   3.027   0.309   5.299  0.8262 -0.3964  0.6534
 6618SOL    HW131313   2.952   0.255   5.275  1.3855 -1.1843  0.6415
 6618SOL    HW231314   2.984   0.385   5.337  0.6294 -0.2688  0.1664
 6619SOL     OW31315   0.429   1.305   2.297 -0.2782  0.2393 -0.3811
 6619SOL    HW131316   0.513   1.268   2.323 -1.2213 -1.4383  0.3270
 6619SOL    HW231317   0.440   1.282   2.204 -0.9234  1.1750 -0.6889
 6620SOL     OW31318   2.444   2.164   9.748 -0.8047 -0.2010 -0.1499
 6620SOL    HW131319   2.390   2.118   9.812 -1.1510  0.2541 -0.1153
 6620SOL    HW231320   2.450   2.256   9.775 -0.2365 -0.2359 -0.1601
 6621SOL     OW31321   2.199   0.406   7.840  0.2686  0.0038  0.0014
 6621SOL    HW131322   2.156   0.488   7.818 -2.8774 -1.4114  0.7843
 6621SOL    HW231323   2.143   0.379   7.913 -0.5643  0.0185 -0.6286
 6622SOL     OW31324   0.317   4.335   3.286 -0.2875 -0.2968  0.6538
 6622SOL    HW131325   0.239   4.368   3.242 -0.0125 -0.2856  0.1829
 6622SOL    HW231326   0.315   4.242   3.265  2.1224  0.2526 -2.0104
 6623SOL     OW31327   3.380   0.771  11.771  0.0987  0.0814  0.8727
 6623SOL    HW131328   3.472   0.786  11.750 -0.2650 -0.2745 -0.9699
 6623SOL    HW231329   3.349   0.860  11.751 -2.3764 -1.0295 -0.2681
 6624SOL     OW31330   2.179   0.799   8.952  0.2906 -0.1482 -0.8346
 6624SOL    HW131331   2.089   0.822   8.929  0.2334  0.0355 -0.4241
 6624SOL    HW231332   2.199   0.831   9.040 -1.7654  0.4074 -0.5713
 6625SOL     OW31333   0.359   1.468   8.520 -0.0292 -0.5267  0.5482
 6625SOL    HW131334   0.362   1.384   8.567 -0.8362 -0.2610  1.0822
 6625SOL    HW231335   0.267   1.484   8.541 -0.1654  1.4205 -1.5720
 6626SOL     OW31336   4.220   1.085   2.864  0.4250  0.2654 -0.3638
 6626SOL    HW131337   4.166   1.160   2.837 -0.2531  0.1878  0.7841
 6626SOL    HW231338   4.248   1.043   2.783 -0.6921 -1.8666  0.3593
 6627SOL     OW31339   0.357   1.722   6.870 -0.3898 -0.1035 -0.4500
 6627SOL    HW131340   0.312   1.747   6.790  0.1443 -1.8122 -1.2886
 6627SOL    HW231341   0.449   1.712   6.847  0.0997  0.9366  1.0566
 6628SOL     OW31342   4.442   1.125   4.910 -0.1966  0.0552  0.0861
 6628SOL    HW131343   4.401   1.119   4.996  1.2014  1.6054  0.8595
 6628SOL    HW231344   4.458   1.219   4.900 -1.1913 -0.2678 -4.5780
 6629SOL     OW31345   4.203   3.748   5.051  0.4259  0.4493 -0.1794
 6629SOL    HW131346   4.173   3.723   4.963 -2.2250  3.5681 -0.1594
 6629SOL    HW231347   4.281   3.795   5.021 -0.2920  1.0069 -1.1734
 6630SOL     OW31348   3.862   3.012   2.943 -0.7276 -0.4188  0.6334
 6630SOL    HW131349   3.929   2.951   2.974 -0.4618 -0.6962 -0.4610
 6630SOL    HW231350   3.861   3.071   3.019  1.0454 -0.2945  0.5546
 6631SOL     OW31351   2.912   1.096   0.453 -0.1775 -0.2645 -0.0660
 6631SOL    HW131352   2.982   1.157   0.474 -0.2043 -1.3381  3.1848
 6631SOL    HW231353   2.876   1.141   0.376  1.5499 -0.9259 -1.2679
 6632SOL     OW31354   2.942   2.065   4.596  0.9572 -0.6701 -0.1957
 6632SOL    HW131355   2.945   2.156   4.626  1.3930 -0.8505  0.2952
 6632SOL    HW231356   3.001   2.058   4.521 -0.6833 -3.5860 -1.2414
 6633SOL     OW31357   1.971   1.568  13.416 -0.7157  0.2765  0.0136
 6633SOL    HW131358   1.935   1.595  13.332  0.8222 -1.2683 -1.1428
 6633SOL    HW231359   1.954   1.474  13.423  1.1364  0.1668  3.0302
 6634SOL     OW31360   2.734   2.150  15.120 -0.5835 -0.4399  0.5649
 6634SOL    HW131361   2.640   2.135  15.130 -0.4237  0.2656  3.0087
 6634SOL    HW231362   2.725   2.237  15.081 -0.0093 -1.5783 -2.1347
 6635SOL     OW31363   2.484   1.697   3.865  0.5077  0.4590  0.2752
 6635SOL    HW131364   2.422   1.646   3.917  1.9321  0.8033  2.3145
 6635SOL    HW231365   2.425   1.743   3.805  0.3895 -0.8606 -0.6103
 6636SOL     OW31366   4.052   2.413   5.107  0.1301  0.6545  0.7780
 6636SOL    HW131367   4.015   2.406   5.019 -0.1771  0.6144  0.9119
 6636SOL    HW231368   3.996   2.347   5.149  1.8006 -0.8838  0.6025
 6637SOL     OW31369   1.441   0.030   3.269 -0.0663  0.2410  0.2182
 6637SOL    HW131370   1.486   0.023   3.353 -0.4162  2.3353  0.5834
 6637SOL    HW231371   1.520   0.006   3.220  0.8119  0.4284  1.5298
 6638SOL     OW31372   1.645   4.321  14.089  0.1059 -0.1269 -0.0839
 6638SOL    HW131373   1.668   4.296  14.179  1.7028  1.6162 -0.0093
 6638SOL    HW231374   1.555   4.290  14.093 -0.4706  1.5493 -0.0533
 6639SOL     OW31375   2.688   2.700   1.813 -0.3339 -0.5591 -0.6644
 6639SOL    HW131376   2.768   2.752   1.800 -0.2118 -0.4579  0.4657
 6639SOL    HW231377   2.647   2.750   1.883 -1.1400  0.8175 -2.1465
 6640SOL     OW31378   1.722   1.962   7.839 -0.0080  0.0231 -0.1413
 6640SOL    HW131379   1.757   1.874   7.831 -1.6144 -0.7454  1.2586
 6640SOL    HW231380   1.801   2.016   7.833  0.8591 -1.1853  0.4354
 6641SOL     OW31381   2.823   0.584   6.742 -0.1704 -0.3546 -0.0915
 6641SOL    HW131382   2.848   0.636   6.819 -0.6459 -0.9629  0.4760
 6641SOL    HW231383   2.744   0.629   6.712  0.7674  2.3706  1.5880
 6642SOL     OW31384   0.096   3.860  13.392  0.3274  0.2528  0.4449
 6642SOL    HW131385   0.131   3.883  13.306  0.3093 -2.2747 -0.2390
 6642SOL    HW231386   0.012   3.905  13.382  0.8781  1.0547 -0.6214
 6643SOL     OW31387   0.557   3.123  11.268  0.4894  0.1301 -0.0178
 6643SOL    HW131388   0.630   3.185  11.262 -0.0416  0.7227 -0.4619
 6643SOL    HW231389   0.526   3.128  11.178 -1.6441 -0.0228  0.6930
 6644SOL     OW31390   2.604   2.928  11.095 -0.1988 -0.3319 -0.3000
 6644SOL    HW131391   2.669   2.996  11.113 -0.9952  0.4483 -0.3915
 6644SOL    HW231392   2.602   2.892  11.184 -0.1034  0.2056 -0.0778
 6645SOL     OW31393   1.359   4.274   4.530 -0.9326 -0.1893  0.1255
 6645SOL    HW131394   1.308   4.194   4.543  0.5539 -0.9088  1.6499
 6645SOL    HW231395   1.360   4.280   4.435 -3.0389  2.2545  0.2767
 6646SOL     OW31396   3.467   3.196   6.066  0.7025 -0.5936 -0.0099
 6646SOL    HW131397   3.512   3.137   6.125  0.9512  0.3325  0.7336
 6646SOL    HW231398   3.457   3.273   6.123  0.0483 -1.4645  1.0446
 6647SOL     OW31399   2.789   4.172   9.633 -0.8658 -0.1351  0.7012
 6647SOL    HW131400   2.720   4.131   9.686 -1.2923  1.6479  1.5047
 6647SOL    HW231401   2.734   4.178   9.554  0.4539  0.0502 -0.2002
 6648SOL     OW31402   4.585   2.803   3.928 -0.6388  0.0537  0.2755
 6648SOL    HW131403   4.554   2.783   3.839  1.7628 -1.4887 -0.2345
 6648SOL    HW231404   4.526   2.750   3.982 -2.3488  0.6780 -0.9714
 6649SOL     OW31405   1.866   1.145   7.567  0.5674 -0.3917 -0.1253
 6649SOL    HW131406   1.852   1.051   7.578  1.1885 -0.4718 -0.0649
 6649SOL    HW231407   1.807   1.185   7.632 -0.3943 -0.5096 -0.9136
 6650SOL     OW31408   3.871   0.710   2.298  0.4028  0.5156 -0.1489
 6650SOL    HW131409   3.883   0.674   2.210  0.5619 -0.8904  0.4397
 6650SOL    HW231410   3.962   0.730   2.318  0.7214 -0.8214 -0.2564
 6651SOL     OW31411   3.971   4.145   5.178 -0.3353  0.3884 -0.0182
 6651SOL    HW131412   3.972   4.052   5.157 -2.5497  0.7425 -1.7330
 6651SOL    HW231413   4.047   4.147   5.236  1.7592 -1.5266 -2.6862
 6652SOL     OW31414   3.140   2.921  15.477  0.1935  0.1051  0.4357
 6652SOL    HW131415   3.080   2.933  15.550 -1.6392 -0.2980 -0.9948
 6652SOL    HW231416   3.091   2.867  15.414 -0.6865  0.7066  0.6115
 6653SOL     OW31417   3.281   0.392   6.094  0.1331 -0.7189 -0.0477
 6653SOL    HW131418   3.261   0.471   6.044  0.5707  0.3282  1.4368
 6653SOL    HW231419   3.370   0.365   6.071 -0.0306 -0.9854 -0.3694
 6654SOL     OW31420   0.616   2.014  10.463 -0.3461 -0.0956 -0.1382
 6654SOL    HW131421   0.670   2.066  10.404  1.3969 -1.2905  0.4135
 6654SOL    HW231422   0.680   2.004  10.533 -0.1527  1.7079 -0.0604
 6655SOL     OW31423   1.295   0.085   3.992 -0.4061 -0.1204  0.5968
 6655SOL    HW131424   1.207   0.104   4.026 -0.3106  1.8765 -0.2756
 6655SOL    HW231425   1.266   0.010   3.939 -0.5511  1.1615 -1.1474
 6656SOL     OW31426   1.683   4.380  14.692 -0.6221  0.1313  0.2499
 6656SOL    HW131427   1.693   4.414  14.603 -2.1714  0.9658  0.3875
 6656SOL    HW231428   1.727   4.295  14.691 -1.0891 -0.1120  0.4679
 6657SOL     OW31429   3.376   2.673   6.546 -0.0961  0.6441  0.7063
 6657SOL    HW131430   3.456   2.649   6.498 -1.2838  0.6188 -1.2290
 6657SOL    HW231431   3.370   2.761   6.509 -0.2264  0.3025 -0.0801
 6658SOL     OW31432   2.101   3.332   2.043  0.5493  0.1122  0.3988
 6658SOL    HW131433   2.011   3.299   2.044  0.2755  0.8560 -0.0401
 6658SOL    HW231434   2.093   3.382   2.123 -0.9410  0.0663  0.2827
 6659SOL     OW31435   2.409   3.287  14.640  0.2084  0.0356  0.8990
 6659SOL    HW131436   2.403   3.235  14.560  1.7858 -1.0225  1.4698
 6659SOL    HW231437   2.420   3.377  14.610  1.6271 -0.0653  1.1361
 6660SOL     OW31438   2.726   2.113   3.626 -0.0083 -0.0882 -0.5936
 6660SOL    HW131439   2.665   2.092   3.697 -1.9552  0.4956 -2.0869
 6660SOL    HW231440   2.798   2.055   3.651 -1.4279 -1.9683 -0.9040
 6661SOL     OW31441   0.913   0.513   8.501  0.1686  0.0446 -0.1364
 6661SOL    HW131442   0.918   0.427   8.458  0.0937 -0.0799  0.1077
 6661SOL    HW231443   0.965   0.493   8.578 -2.2611 -3.0929  0.6834
 6662SOL     OW31444   1.522   0.962   1.816 -0.2489 -0.4162  0.2434
 6662SOL    HW131445   1.470   0.922   1.746  1.8885 -2.4285 -0.1716
 6662SOL    HW231446   1.538   1.047   1.774 -0.0303 -0.9077 -0.6597
 6663SOL     OW31447   0.650   4.278   8.750 -0.1979  0.2741 -0.3006
 6663SOL    HW131448   0.561   4.244   8.762  0.9272 -2.5856 -0.0649
 6663SOL    HW231449   0.669   4.279   8.656  1.7610 -3.4302  0.0435
 6664SOL     OW31450   4.112   4.259   4.701 -0.7276 -0.1513 -0.7206
 6664SOL    HW131451   4.144   4.336   4.749  1.0619 -1.4990  0.2317
 6664SOL    HW231452   4.194   4.222   4.670 -1.2947 -2.1137  0.1072
 6665SOL     OW31453   0.070   0.486   1.901  0.6903  0.0615  0.2058
 6665SOL    HW131454   0.102   0.415   1.845 -2.8270 -1.6539  0.3716
 6665SOL    HW231455   0.034   0.437   1.974  2.3304  1.6326  2.0912
 6666SOL     OW31456   2.289   0.000   7.178 -0.0030  0.2389 -0.7541
 6666SOL    HW131457   2.262   4.645   7.219 -0.8138  2.1332  2.4773
 6666SOL    HW231458   2.210   0.053   7.191  0.8626  1.3049  0.2008
 6667SOL     OW31459   0.871   4.473  10.047  0.0518  0.0267  0.0965
 6667SOL    HW131460   0.915   4.389  10.053 -1.9543 -0.8087  3.1372
 6667SOL    HW231461   0.805   4.462  10.115 -0.9778  0.0137 -0.9057
 6668SOL     OW31462   1.258   3.454   3.737 -0.3274  0.4772 -0.2794
 6668SOL    HW131463   1.296   3.367   3.731 -2.3546 -0.3177 -1.8114
 6668SOL    HW231464   1.230   3.477   3.648 -0.5334  1.1400 -0.0466
 6669SOL     OW31465   4.445   4.021   4.116 -0.2035  0.2311 -0.8925
 6669SOL    HW131466   4.376   3.956   4.130  0.8808 -0.8384 -0.5653
 6669SOL    HW231467   4.451   4.056   4.205 -0.6128 -2.4936  0.2075
 6670SOL     OW31468   3.740   0.636   1.615 -0.1305 -0.7210 -0.2208
 6670SOL    HW131469   3.706   0.679   1.694  1.3379 -0.3588  0.2225
 6670SOL    HW231470   3.664   0.619   1.559 -0.5003  0.0782  0.0350
 6671SOL     OW31471   0.969   0.385  13.920  0.0614 -0.2824 -0.3464
 6671SOL    HW131472   0.999   0.429  13.841 -0.6763 -2.0096 -1.5803
 6671SOL    HW231473   0.880   0.420  13.922  0.8134  1.5631  1.1999
 6672SOL     OW31474   3.128   2.899   4.157 -0.3435 -0.0076  0.5359
 6672SOL    HW131475   3.059   2.869   4.098  0.5468 -2.4151  0.7300
 6672SOL    HW231476   3.210   2.864   4.123 -1.9058 -3.6294  0.4328
 6673SOL     OW31477   4.219   0.324   7.439  0.5474  0.4622  0.5607
 6673SOL    HW131478   4.148   0.267   7.467 -0.8234  1.0513 -1.7813
 6673SOL    HW231479   4.284   0.284   7.497  0.6687  0.1892  0.2383
 6674SOL     OW31480   4.218   3.760   5.918 -0.0744 -0.5858  0.1607
 6674SOL    HW131481   4.267   3.707   5.981  0.7248 -1.0741 -0.8777
 6674SOL    HW231482   4.145   3.787   5.974  0.8152  0.7243  0.6956
 6675SOL     OW31483   2.005   4.597  14.763  0.2249  0.4976  0.6076
 6675SOL    HW131484   2.074   4.642  14.715 -1.6527 -0.0797 -2.6824
 6675SOL    HW231485   1.980   4.530  14.699 -2.3916  2.3977 -0.3891
 6676SOL     OW31486   1.674   0.302   7.784  0.5712  0.3759  0.0690
 6676SOL    HW131487   1.694   0.380   7.835  0.6112  0.1029  0.4756
 6676SOL    HW231488   1.594   0.309   7.733  0.4319 -2.7846 -0.1853
 6677SOL     OW31489   3.468   0.924   7.806 -0.8288  0.1262 -0.1094
 6677SOL    HW131490   3.484   0.886   7.892 -4.1209 -0.6860  0.1323
 6677SOL    HW231491   3.551   0.954   7.768  0.7913 -2.0336  1.6998
 6678SOL     OW31492   0.268   4.675  12.452 -0.2731  0.2814 -0.0763
 6678SOL    HW131493   0.243   0.029  12.407 -0.6678 -0.5968 -1.4263
 6678SOL    HW231494   0.249   4.709  12.540 -3.4520 -1.3229 -0.1186
 6679SOL     OW31495   1.485   3.033  17.634  0.0066 -0.2098 -0.9327
 6679SOL    HW131496   1.417   3.100  17.639  0.4041  0.2937 -2.0868
 6679SOL    HW231497   1.506   3.007   0.015 -0.3519  0.9404 -0.5285
 6680SOL     OW31498   3.479   3.866  16.129 -0.5610 -0.8227 -0.2707
 6680SOL    HW131499   3.516   3.923  16.062 -3.6128 -0.9040 -2.0633
 6680SOL    HW231500   3.404   3.919  16.157  0.1208  0.4881 -0.9224
 6681SOL     OW31501   0.663   1.471  17.494  0.0486 -0.2372  0.3550
 6681SOL    HW131502   0.583   1.517  17.519 -0.0925  0.5741 -1.5769
 6681SOL    HW231503   0.626   1.415  17.425 -1.7065  1.7106 -0.3111
 6682SOL     OW31504   4.519   0.022   2.755  0.3933  0.2643 -0.7862
 6682SOL    HW131505   4.453   4.708   2.812  0.6941  2.1789  0.9137
 6682SOL    HW231506   4.467   0.095   2.723 -1.4907 -1.4465 -1.6896
 6683SOL     OW31507   1.640   4.305   4.953 -0.1816  0.0236 -0.4223
 6683SOL    HW131508   1.586   4.313   4.875  1.4346  1.0190 -1.4567
 6683SOL    HW231509   1.578   4.310   5.026  0.0125 -1.7318 -0.1320
 6684SOL     OW31510   3.251   1.395  12.629  0.0874 -0.6711 -0.2001
 6684SOL    HW131511   3.171   1.407  12.679 -0.4447 -0.3860 -1.1164
 6684SOL    HW231512   3.317   1.391  12.698 -0.5303  2.4890  0.5961
 6685SOL     OW31513   3.206   1.173  14.975 -0.4539 -0.3672 -0.3465
 6685SOL    HW131514   3.276   1.115  15.004 -1.0149 -1.0918 -0.4491
 6685SOL    HW231515   3.216   1.166  14.880 -0.0317 -3.0346 -0.0834
 6686SOL     OW31516   3.880   2.856  10.375  0.8001  0.3707  0.2176
 6686SOL    HW131517   3.899   2.887  10.463  0.0810 -1.1758  0.9304
 6686SOL    HW231518   3.877   2.761  10.383  0.0857  0.4571  0.9738
 6687SOL     OW31519   2.980   3.738   8.053 -0.4922  0.0762 -0.5438
 6687SOL    HW131520   2.960   3.645   8.040  1.4822 -0.4007 -0.1787
 6687SOL    HW231521   2.956   3.746   8.145 -1.4553  0.4636 -0.8302
 6688SOL     OW31522   2.128   4.327  13.336  0.4127  0.3148 -0.3218
 6688SOL    HW131523   2.167   4.257  13.284  2.4854  1.7546 -0.7191
 6688SOL    HW231524   2.051   4.352  13.285  0.5770  0.4712 -0.4948
 6689SOL     OW31525   3.393   1.012   4.515  0.0155 -0.2484  0.1045
 6689SOL    HW131526   3.361   1.060   4.591  1.0115 -1.6334  1.4064
 6689SOL    HW231527   3.461   1.071   4.483  1.0804 -0.1223  2.5885
 6690SOL     OW31528   3.205   0.413   3.511  0.2387  0.1205 -0.0502
 6690SOL    HW131529   3.262   0.428   3.436 -1.4407  0.0739 -1.3464
 6690SOL    HW231530   3.250   0.343   3.557 -2.8098 -3.6074 -2.7605
 6691SOL     OW31531   1.826   3.418   5.016 -0.4592  0.3379 -0.2295
 6691SOL    HW131532   1.880   3.449   5.088  0.0504  0.1846 -0.5504
 6691SOL    HW231533   1.752   3.476   5.034 -0.1536  0.1062  1.8437
 6692SOL     OW31534   3.434   3.504   1.567  0.0318 -0.4373 -0.1505
 6692SOL    HW131535   3.469   3.563   1.634  0.2275  0.8681 -1.4072
 6692SOL    HW231536   3.384   3.559   1.507  2.8931 -1.0127 -3.0804
 6693SOL     OW31537   0.604   4.426   3.501 -0.2022  0.1423 -0.1526
 6693SOL    HW131538   0.517   4.415   3.541  1.2959 -0.7133  2.8850
 6693SOL    HW231539   0.615   4.344   3.453 -0.9070 -0.3768  0.5663
 6694SOL     OW31540   0.326   2.049   4.650  0.0798  0.7899 -0.5397
 6694SOL    HW131541   0.254   2.091   4.697 -2.7957 -1.6348 -2.7393
 6694SOL    HW231542   0.332   2.095   4.566 -1.8433  1.8625 -0.0680
 6695SOL     OW31543   0.333   2.359   3.958  0.3193  0.4675 -0.2380
 6695SOL    HW131544   0.335   2.413   4.037 -0.2992 -0.4680  0.4075
 6695SOL    HW231545   0.360   2.273   3.991 -0.7559 -0.3504 -1.5120
 6696SOL     OW31546   4.550   0.291   3.672  0.0375  0.1644  0.1064
 6696SOL    HW131547   4.489   0.287   3.745 -0.2570 -0.9870 -0.1929
 6696SOL    HW231548   4.579   0.202   3.652  1.9690  0.9208 -0.4309
 6697SOL     OW31549   3.395   1.848   5.130 -0.2987 -0.4359 -0.0212
 6697SOL    HW131550   3.385   1.784   5.201 -1.4031  0.2186  0.4126
 6697SOL    HW231551   3.306   1.841   5.096 -0.8736 -1.0269  1.5702
 6698SOL     OW31552   0.854   3.061   6.741 -0.3451  0.0935 -0.2618
 6698SOL    HW131553   0.833   3.105   6.823  2.9669  1.3100 -0.0411
 6698SOL    HW231554   0.949   3.065   6.727 -0.4535 -0.9215 -1.2841
 6699SOL     OW31555   4.704   1.653   1.501  0.4168 -0.2165  0.2384
 6699SOL    HW131556   0.026   1.723   1.458  1.1460 -1.8254 -1.5686
 6699SOL    HW231557   4.616   1.687   1.487  1.1761  2.0369  0.9762
 6700SOL     OW31558   3.376   4.211   6.351  0.3556  0.0877 -0.5090
 6700SOL    HW131559   3.390   4.129   6.304  1.1104  0.2675 -0.5900
 6700SOL    HW231560   3.319   4.257   6.289 -1.8335 -0.9499  0.7307
 6701SOL     OW31561   2.110   0.584   0.920 -0.7874 -0.7498  0.2278
 6701SOL    HW131562   2.074   0.672   0.906  0.1063 -0.4844 -0.4205
 6701SOL    HW231563   2.046   0.537   0.868 -0.2655 -4.1086  2.5977
 6702SOL     OW31564   4.718   1.212   4.693  0.1854 -0.3550 -0.2464
 6702SOL    HW131565   4.683   1.285   4.744 -1.3806 -1.0740 -0.2687
 6702SOL    HW231566   0.074   1.241   4.655 -0.1284 -1.8935 -2.1450
 6703SOL     OW31567   3.602   2.101  16.678 -0.3522 -0.3429 -0.3163
 6703SOL    HW131568   3.546   2.171  16.713  1.5879  0.4052  1.2462
 6703SOL    HW231569   3.600   2.131  16.587  1.4207  2.6354  0.6401
 6704SOL     OW31570   1.902   2.125   3.713 -0.2250  0.3226 -0.1618
 6704SOL    HW131571   1.951   2.158   3.788 -0.9828  0.8915  0.0790
 6704SOL    HW231572   1.954   2.135   3.634 -1.3067  1.3669 -0.7329
 6705SOL     OW31573   2.517   0.788   4.570 -0.9458 -0.3630 -0.0398
 6705SOL    HW131574   2.497   0.707   4.618  1.1525 -2.2053 -2.2586
 6705SOL    HW231575   2.450   0.851   4.596  1.1394  1.0859  1.7335
 6706SOL     OW31576   1.463   3.899   7.370 -0.4911  0.2471 -0.1528
 6706SOL    HW131577   1.521   3.834   7.408 -1.3633  0.0373  0.8296
 6706SOL    HW231578   1.462   3.872   7.279  1.6045  1.8344 -0.6356
 6707SOL     OW31579   1.811   0.403   4.904 -0.0906  0.2408 -0.5454
 6707SOL    HW131580   1.864   0.348   4.963 -0.6115 -1.9783 -2.1343
 6707SOL    HW231581   1.873   0.431   4.837  1.0398  2.0872  1.2631
 6708SOL     OW31582   4.123   3.028  15.213  0.4466 -0.2830  0.0177
 6708SOL    HW131583   4.102   3.119  15.233  0.8339 -0.1586 -0.1382
 6708SOL    HW231584   4.186   3.038  15.142 -0.1081 -0.6395 -0.5300
 6709SOL     OW31585   1.035   0.946  16.352  0.0203 -0.1055  0.4393
 6709SOL    HW131586   1.082   0.879  16.301  0.2005 -0.7330  1.4226
 6709SOL    HW231587   1.018   1.006  16.280  1.3601  0.4893  0.6062
 6710SOL     OW31588   3.741   1.601   3.260  0.7282 -0.1540 -0.0272
 6710SOL    HW131589   3.734   1.630   3.169 -0.3779  2.9660  1.0748
 6710SOL    HW231590   3.719   1.510   3.240  2.3701 -0.5257 -0.1818
 6711SOL     OW31591   4.435   3.167   8.154  0.0734 -0.0808  0.0712
 6711SOL    HW131592   4.497   3.173   8.227 -1.4232 -2.0424  1.4908
 6711SOL    HW231593   4.473   3.097   8.102 -1.7909  0.1259 -1.5442
 6712SOL     OW31594   1.797   3.138   8.178  0.3584  0.6082 -0.4523
 6712SOL    HW131595   1.877   3.134   8.230 -1.0037  0.5990  1.6444
 6712SOL    HW231596   1.777   3.045   8.170 -0.3394  0.8292 -1.2753
 6713SOL     OW31597   1.024   4.428  16.791  0.1357  0.2567  0.5505
 6713SOL    HW131598   1.110   4.468  16.773 -0.5630 -0.4275 -4.4008
 6713SOL    HW231599   0.966   4.439  16.716  1.0868 -0.5289 -0.3083
 6714SOL     OW31600   3.504   3.827   1.430  0.0044  0.1483 -0.2236
 6714SOL    HW131601   3.418   3.784   1.426  0.3603 -0.5016 -0.9485
 6714SOL    HW231602   3.505   3.848   1.524  3.7463  1.2188 -0.5115
 6715SOL     OW31603   4.198   4.333   1.579  0.0539  0.7107  0.0038
 6715SOL    HW131604   4.168   4.389   1.650 -1.0291 -1.3477  1.1508
 6715SOL    HW231605   4.191   4.244   1.613  0.2149  0.3691 -0.8496
 6716SOL     OW31606   0.076   0.663  17.469 -0.4472 -0.2964 -0.2796
 6716SOL    HW131607   0.019   0.587  17.482 -1.6475  0.7926  0.9445
 6716SOL    HW231608   0.018   0.739  17.458 -0.7459 -0.3658  0.8019
 6717SOL     OW31609   3.377   1.391   3.190  0.3335  0.1488  0.1421
 6717SOL    HW131610   3.331   1.437   3.260 -2.3509 -0.4682 -1.2216
 6717SOL    HW231611   3.469   1.418   3.194  0.9791 -1.7755 -1.6974
 6718SOL     OW31612   1.259   0.931  16.649 -0.2228 -0.5546 -0.7751
 6718SOL    HW131613   1.307   0.916  16.730 -1.0221  0.8956 -0.0278
 6718SOL    HW231614   1.248   1.024  16.633  1.0895 -0.2059  0.3925
 6719SOL     OW31615   0.145   1.574   4.550  0.7040  0.0431  0.7482
 6719SOL    HW131616   0.075   1.559   4.613 -0.3164 -0.1871 -0.4617
 6719SOL    HW231617   0.204   1.500   4.559  1.6551  0.8863  1.5104
 6720SOL     OW31618   4.282   4.368  10.583  0.3941  0.2363 -0.2814
 6720SOL    HW131619   4.267   4.282  10.621 -2.1731  0.9343  0.3418
 6720SOL    HW231620   4.239   4.354  10.499  1.4033 -2.2625 -0.3683
 6721SOL     OW31621   4.542   1.881   5.091 -0.0861 -0.1079  0.0094
 6721SOL    HW131622   4.575   1.846   5.008  0.9737  0.9526 -0.0193
 6721SOL    HW231623   4.478   1.945   5.058  0.2154  0.8787  1.3215
 6722SOL     OW31624   3.135   4.487   6.897  0.0822 -0.1727 -0.5371
 6722SOL    HW131625   3.083   4.468   6.819 -0.6879 -0.1971 -0.0174
 6722SOL    HW231626   3.076   4.484   6.972  2.4654  2.9198  1.4415
 6723SOL     OW31627   2.234   1.094   8.476 -0.1764 -1.0206 -0.0752
 6723SOL    HW131628   2.230   1.068   8.384  1.5538 -0.6073 -0.2575
 6723SOL    HW231629   2.190   1.021   8.519 -2.9620  0.2844 -0.6795
 6724SOL     OW31630   4.492   3.056  11.831  0.2647  0.4197  0.1656
 6724SOL    HW131631   4.550   3.113  11.780 -0.6943  1.4525  0.2101
 6724SOL    HW231632   4.479   2.984  11.770 -1.2913  2.4686 -1.9581
 6725SOL     OW31633   4.546   0.098   7.822 -0.1988 -0.0545  0.3163
 6725SOL    HW131634   4.549   0.004   7.836 -2.5826 -0.0580  0.8588
 6725SOL    HW231635   4.622   0.121   7.769  0.6166 -3.3198  0.0729
 6726SOL     OW31636   2.115   0.086   0.258 -0.6681  1.1143 -0.0676
 6726SOL    HW131637   2.047   0.032   0.298  1.0783 -0.7290  0.4055
 6726SOL    HW231638   2.122   0.170   0.303 -1.0857  1.1837 -0.1343
 6727SOL     OW31639   3.633   3.424   3.142  0.2427  0.0238  0.7060
 6727SOL    HW131640   3.636   3.490   3.211 -1.8056  2.7040 -1.7962
 6727SOL    HW231641   3.669   3.352   3.194 -2.4785 -1.9545 -0.1084
 6728SOL     OW31642   1.086   0.312  11.522  0.0892  0.2196  0.1953
 6728SOL    HW131643   1.098   0.279  11.611  0.8514  2.4479  0.9186
 6728SOL    HW231644   1.081   0.407  11.535 -2.0034  0.0410  0.6644
 6729SOL     OW31645   1.621   4.554  13.146 -0.2061  0.6039 -0.2643
 6729SOL    HW131646   1.538   4.555  13.098 -0.4519  1.2137  0.1691
 6729SOL    HW231647   1.574   4.577  13.226  0.5381  1.1897  0.0028
 6730SOL     OW31648   1.479   1.224   1.750  0.0235 -0.1020  0.1806
 6730SOL    HW131649   1.401   1.278   1.764 -0.3708 -0.5201 -0.4126
 6730SOL    HW231650   1.470   1.197   1.659 -1.1680 -0.4906  0.4195
 6731SOL     OW31651   2.922   4.366  12.173  0.5125 -0.2202  0.1084
 6731SOL    HW131652   2.886   4.352  12.260 -1.1373 -1.4444 -0.7865
 6731SOL    HW231653   2.919   4.461  12.169  0.4029 -0.2165  0.3065
 6732SOL     OW31654   3.997   1.587  11.680 -0.2184  0.4247  0.2130
 6732SOL    HW131655   3.942   1.635  11.742 -0.2443 -2.1497  2.1482
 6732SOL    HW231656   4.015   1.656  11.616 -1.7343  0.8826  0.2826
 6733SOL     OW31657   4.658   1.574  13.954  0.1442 -0.3465  1.0626
 6733SOL    HW131658   4.587   1.630  13.986  0.3653 -0.4878  1.7909
 6733SOL    HW231659   0.009   1.611  13.995  0.2205  1.4416 -0.7104
 6734SOL     OW31660   2.087   3.955   1.701 -0.6184  0.2899 -0.6865
 6734SOL    HW131661   2.075   4.046   1.730  1.5797 -0.0151  1.1282
 6734SOL    HW231662   2.102   3.901   1.779  2.7457  1.6812 -0.3479
 6735SOL     OW31663   1.921   3.727   5.552 -0.2805  0.3089  0.1384
 6735SOL    HW131664   1.938   3.821   5.546 -0.1545  0.2085 -1.0636
 6735SOL    HW231665   1.850   3.729   5.487 -0.2241  0.0738  0.0697
 6736SOL     OW31666   1.986   4.158   6.794  0.4223  0.2285  0.5147
 6736SOL    HW131667   2.053   4.094   6.769 -0.6318 -0.9272  0.5962
 6736SOL    HW231668   1.904   4.108   6.788  1.0534 -0.9639  1.8087
 6737SOL     OW31669   3.742   0.479   2.417  0.2271 -1.1157 -0.3788
 6737SOL    HW131670   3.686   0.447   2.347 -0.9133 -0.5019  0.2483
 6737SOL    HW231671   3.778   0.561   2.383 -2.7898  0.4988  0.2721
 6738SOL     OW31672   4.456   2.602  17.030 -0.4147  0.1993  0.5053
 6738SOL    HW131673   4.379   2.598  16.973 -1.3466  2.5109  1.5707
 6738SOL    HW231674   4.469   2.697  17.032  1.0010  0.0008  0.2605
 6739SOL     OW31675   2.925   3.140   0.538  0.4026 -0.0017 -0.4586
 6739SOL    HW131676   2.964   3.123   0.452  0.4268 -1.2255 -0.2055
 6739SOL    HW231677   2.979   3.202   0.587 -1.7861  1.1549  0.4747
 6740SOL     OW31678   0.300   2.627   4.986  0.3688 -0.3985 -0.1935
 6740SOL    HW131679   0.218   2.677   4.989  1.4781  1.3430  1.0559
 6740SOL    HW231680   0.283   2.566   5.057  1.2595 -0.9955 -0.4929
 6741SOL     OW31681   1.491   1.055  10.308 -0.0526 -0.3973 -0.4803
 6741SOL    HW131682   1.466   1.125  10.368 -0.0253  0.7292 -1.7584
 6741SOL    HW231683   1.537   1.100  10.237 -0.7086 -0.1775 -0.7690
 6742SOL     OW31684   3.855   3.340   6.809  0.6273 -0.3141  0.4456
 6742SOL    HW131685   3.819   3.263   6.765  0.2157 -0.3867  0.9030
 6742SOL    HW231686   3.775   3.385   6.840 -0.1869 -2.0842  0.9115
 6743SOL     OW31687   3.686   1.105   8.223 -0.6245 -0.1138  0.4761
 6743SOL    HW131688   3.642   1.182   8.259 -0.0250 -0.8396  2.7669
 6743SOL    HW231689   3.670   1.041   8.293  0.2692  0.1167  0.8888
 6744SOL     OW31690   4.378   2.442   6.475 -0.0628 -0.6521  0.0156
 6744SOL    HW131691   4.410   2.410   6.391 -2.0231 -0.9059 -0.6507
 6744SOL    HW231692   4.432   2.519   6.491 -1.7555  0.5695 -0.1124
 6745SOL     OW31693   4.118   0.547   9.398 -0.4005 -0.2590  0.1939
 6745SOL    HW131694   4.083   0.627   9.437  1.5034  1.5999 -1.9341
 6745SOL    HW231695   4.189   0.582   9.344 -1.5389 -3.1968 -3.2241
 6746SOL     OW31696   0.450   1.345   0.770  0.2196  0.2354  0.3062
 6746SOL    HW131697   0.473   1.326   0.679 -0.1639 -0.9148  0.4528
 6746SOL    HW231698   0.357   1.368   0.759  0.9197  2.2065 -1.6618
 6747SOL     OW31699   0.128   1.263   8.465 -0.1386  0.4931 -0.4463
 6747SOL    HW131700   0.150   1.312   8.386  0.6517  1.0832  0.1358
 6747SOL    HW231701   0.038   1.293   8.477  0.1315 -0.0818  3.0401
 6748SOL     OW31702   3.046   1.886  12.832  0.3078  0.5956  0.2139
 6748SOL    HW131703   3.120   1.946  12.843  1.3517 -0.6214 -0.0751
 6748SOL    HW231704   2.971   1.943  12.846  1.0075  1.4524  0.4918
 6749SOL     OW31705   1.982   4.014   8.130  0.4611 -0.0324  0.8181
 6749SOL    HW131706   2.028   4.052   8.055  0.0332 -1.9295 -0.4016
 6749SOL    HW231707   2.005   4.079   8.196  2.3655  0.5409 -0.4062
 6750SOL     OW31708   4.280   3.030   5.245 -0.5919 -0.0955 -0.2250
 6750SOL    HW131709   4.265   3.124   5.234  0.8279  0.5102  2.9452
 6750SOL    HW231710   4.193   3.004   5.217 -0.8936 -0.8890  1.4363
 6751SOL     OW31711   2.897   0.957   6.799 -0.6156  0.2243 -0.1786
 6751SOL    HW131712   2.856   0.944   6.713 -0.4597 -2.1756  0.1081
 6751SOL    HW231713   2.860   1.040   6.831  0.4470 -0.0635  1.7714
 6752SOL     OW31714   3.241   1.212   7.361  0.0368 -0.2897  0.9041
 6752SOL    HW131715   3.190   1.153   7.305  1.5000  0.3574 -1.1204
 6752SOL    HW231716   3.225   1.297   7.319 -0.3792 -1.0217 -0.4155
 6753SOL     OW31717   3.365   2.473   2.091 -0.7389 -0.6011  0.1557
 6753SOL    HW131718   3.392   2.500   2.003 -1.2483  0.9652  0.4947
 6753SOL    HW231719   3.288   2.421   2.067 -0.5482 -0.6516 -0.3550
 6754SOL     OW31720   3.482   1.746   3.000 -0.2050 -0.1643  0.2416
 6754SOL    HW131721   3.398   1.703   2.981  0.0705  0.1814 -1.6778
 6754SOL    HW231722   3.506   1.756   2.908 -0.3503 -0.3787  0.1798
 6755SOL     OW31723   4.722   3.863   7.164  0.0978 -0.0779  0.1485
 6755SOL    HW131724   0.055   3.914   7.217  1.2086  0.7356 -1.9365
 6755SOL    HW231725   4.688   3.795   7.223 -0.5619 -0.5186 -0.7302
 6756SOL     OW31726   4.461   2.920   3.579 -0.1108 -0.3796  1.0452
 6756SOL    HW131727   4.485   2.829   3.560 -0.9609 -0.1545 -1.1016
 6756SOL    HW231728   4.424   2.935   3.492 -1.1239  0.1287  1.5750
 6757SOL     OW31729   2.074   1.187   9.063  0.2249  0.4415 -0.0780
 6757SOL    HW131730   2.151   1.131   9.075  0.0910  0.4995  1.0857
 6757SOL    HW231731   2.104   1.238   8.989 -1.7325 -0.9209 -1.8062
 6758SOL     OW31732   0.077   0.042  15.657  0.6881 -0.0807 -0.1426
 6758SOL    HW131733   0.013   4.705  15.626  0.8410 -0.4905  0.3895
 6758SOL    HW231734   0.030   0.125  15.649  1.3866  0.1351 -1.9186
 6759SOL     OW31735   3.564   4.661   7.655  0.4701 -0.1409 -0.2122
 6759SOL    HW131736   3.474   4.628   7.657 -0.1263  1.6116  1.6667
 6759SOL    HW231737   3.552   0.028   7.646 -2.9686 -0.8914 -3.2778
 6760SOL     OW31738   4.083   2.172   4.326  0.0884 -0.1879  0.2903
 6760SOL    HW131739   4.012   2.236   4.329  0.9393  0.7954 -0.7589
 6760SOL    HW231740   4.156   2.230   4.308 -0.4073  0.3882  0.1346
 6761SOL     OW31741   3.769   4.525   2.377  0.3509 -0.0138 -1.0203
 6761SOL    HW131742   3.855   4.532   2.336  0.1012 -2.8654 -2.0643
 6761SOL    HW231743   3.709   4.575   2.322  0.2383  0.6942 -0.2459
 6762SOL     OW31744   1.628   1.043  12.281 -0.0554  0.0766 -0.0328
 6762SOL    HW131745   1.541   1.063  12.248 -0.8459 -1.7830  0.9277
 6762SOL    HW231746   1.637   1.099  12.358 -4.6617  0.4617  0.2044
 6763SOL     OW31747   2.865   1.981  16.684  0.0131 -0.1128 -0.0996
 6763SOL    HW131748   2.775   1.955  16.667 -0.1998  1.2326 -0.9427
 6763SOL    HW231749   2.868   2.074  16.663 -3.5033  0.1682  0.6902
 6764SOL     OW31750   2.030   1.552   7.019 -0.0178 -0.0115  0.3438
 6764SOL    HW131751   2.084   1.609   6.964 -0.0564 -1.7067 -1.4509
 6764SOL    HW231752   1.943   1.553   6.978 -0.5295  0.5019  1.4368
 6765SOL     OW31753   2.360   3.449   9.306  0.6230 -0.5576  0.2203
 6765SOL    HW131754   2.289   3.390   9.332 -1.2682  1.0243 -1.3802
 6765SOL    HW231755   2.418   3.458   9.382  1.7014 -2.7868 -0.3526
 6766SOL     OW31756   1.719   0.116   3.221 -0.1818  0.2648 -0.0030
 6766SOL    HW131757   1.724   0.209   3.197  1.9033 -0.6893 -3.2664
 6766SOL    HW231758   1.781   0.082   3.157 -1.2520 -3.2860  0.8454
 6767SOL     OW31759   1.251   3.463   8.676  0.2487  0.1778  0.3258
 6767SOL    HW131760   1.343   3.488   8.668  0.0828  0.4006 -0.8329
 6767SOL    HW231761   1.214   3.469   8.588  1.7613  0.3160 -0.2956
 6768SOL     OW31762   3.832   3.867   8.708 -0.1435 -0.2952  0.2388
 6768SOL    HW131763   3.867   3.941   8.757 -1.4238 -0.2931  1.1264
 6768SOL    HW231764   3.910   3.823   8.674 -0.2035 -1.6932  1.9148
 6769SOL     OW31765   2.245   2.871   0.865  0.2236 -0.1602  0.3745
 6769SOL    HW131766   2.326   2.903   0.825  0.0698  2.5387  2.2086
 6769SOL    HW231767   2.263   2.779   0.885 -1.1861 -0.9032 -1.7657
 6770SOL     OW31768   3.458   0.914   2.604  0.0005  0.1004  0.0632
 6770SOL    HW131769   3.429   0.842   2.548  1.1969 -0.5470  0.2712
 6770SOL    HW231770   3.541   0.942   2.565 -0.0494  0.0500 -0.0788
 6771SOL     OW31771   2.716   0.403  16.958 -0.2285  0.3718 -0.3439
 6771SOL    HW131772   2.625   0.375  16.962 -0.2385  0.2526 -1.3764
 6771SOL    HW231773   2.695   0.496  16.958  0.5727  0.5524 -0.4632
 6772SOL     OW31774   0.113   3.205   4.718  0.0396  0.0719 -0.0154
 6772SOL    HW131775   0.048   3.272   4.738  0.4582  0.3686  0.3622
 6772SOL    HW231776   0.104   3.159   4.802  1.0809  0.7961  0.4985
 6773SOL     OW31777   3.035   4.480   0.454  0.5070  0.5612 -0.2973
 6773SOL    HW131778   3.105   4.545   0.456  1.7758 -0.8470  0.7926
 6773SOL    HW231779   2.997   4.496   0.367  0.4899  1.0094 -0.2023
 6774SOL     OW31780   0.599   2.644   6.495 -0.3334  0.0885  0.4987
 6774SOL    HW131781   0.633   2.560   6.465  0.1159  0.5416 -0.2674
 6774SOL    HW231782   0.605   2.705   6.421 -2.4471  0.4082  0.5881
 6775SOL     OW31783   4.327   4.127   8.086  0.7981  0.0071 -0.1101
 6775SOL    HW131784   4.340   4.190   8.157 -3.3708 -2.1662  2.6000
 6775SOL    HW231785   4.407   4.138   8.036  0.2112 -1.0928 -1.2897
 6776SOL     OW31786   4.145   0.734  16.699  0.5554 -0.2953  0.2429
 6776SOL    HW131787   4.227   0.758  16.656  0.2422  0.5382  0.1172
 6776SOL    HW231788   4.165   0.776  16.783 -0.8333 -0.2487  0.5466
 6777SOL     OW31789   3.356   4.086   4.526  0.0543  0.3445  0.2607
 6777SOL    HW131790   3.439   4.126   4.552 -0.8365  2.3210  0.0771
 6777SOL    HW231791   3.297   4.127   4.590  0.0185 -1.2395  1.2437
 6778SOL     OW31792   0.661   4.210   4.135 -0.1704 -0.7024 -0.0122
 6778SOL    HW131793   0.576   4.177   4.107 -0.6692  1.1752 -0.7288
 6778SOL    HW231794   0.668   4.201   4.230  0.7124 -0.2012 -0.0241
 6779SOL     OW31795   2.371   0.021   1.530 -0.4988  0.5831  0.7220
 6779SOL    HW131796   2.410   4.663   1.552 -0.6564  0.0247 -1.1433
 6779SOL    HW231797   2.312   0.031   1.605  0.7036 -0.2733  1.7918
 6780SOL     OW31798   0.443   3.008   7.202 -0.5423 -0.2109 -0.1885
 6780SOL    HW131799   0.413   3.068   7.134 -1.7205 -0.7014 -0.1107
 6780SOL    HW231800   0.468   2.938   7.142 -1.4577  0.4273 -1.3201
 6781SOL     OW31801   0.828   2.897   5.609 -0.1367 -0.5627 -0.5990
 6781SOL    HW131802   0.757   2.901   5.673  0.9557  0.3365  0.5459
 6781SOL    HW231803   0.900   2.881   5.669 -0.4410 -0.5259 -0.2200
 6782SOL     OW31804   1.760   0.310   1.493 -0.8120 -0.3021  0.3324
 6782SOL    HW131805   1.759   0.266   1.578  1.6513 -0.3742  0.3238
 6782SOL    HW231806   1.687   0.371   1.495 -0.0813  0.5071  2.0769
 6783SOL     OW31807   0.316   2.838   3.010 -0.3450 -0.0379 -0.1645
 6783SOL    HW131808   0.248   2.788   2.965 -0.6301  2.3680 -2.3740
 6783SOL    HW231809   0.262   2.892   3.068  3.1806  2.2265  1.0308
 6784SOL     OW31810   3.161   3.903   6.391  0.6572 -0.0596 -0.1100
 6784SOL    HW131811   3.123   3.985   6.422  1.7211 -0.3839  2.0597
 6784SOL    HW231812   3.124   3.838   6.451 -0.5615  1.6921  1.0270
 6785SOL     OW31813   1.040   3.821   0.138 -0.3047  0.0647  0.7422
 6785SOL    HW131814   0.990   3.883   0.086  2.0171  1.3682  0.0697
 6785SOL    HW231815   1.131   3.834   0.111 -0.9619  0.7807 -1.1084
 6786SOL     OW31816   2.106   3.362  12.589  0.7295  0.2121 -0.2233
 6786SOL    HW131817   2.091   3.455  12.603 -0.5164  0.2519 -1.8331
 6786SOL    HW231818   2.093   3.329  12.678  3.1716 -2.6719 -0.9533
 6787SOL     OW31819   1.814   4.652   3.588 -0.4311 -0.2375 -0.5306
 6787SOL    HW131820   1.902   4.661   3.626 -1.2330  1.3389  0.9452
 6787SOL    HW231821   1.775   4.569   3.617  1.1387 -1.9427 -3.2708
 6788SOL     OW31822   4.452   3.683   6.573 -0.0460  0.1380 -0.5925
 6788SOL    HW131823   4.490   3.769   6.560  0.2958 -0.0253 -0.6724
 6788SOL    HW231824   4.510   3.637   6.634 -0.5173  1.6020  0.9377
 6789SOL     OW31825   4.319   2.385   4.584 -0.1279  0.2011 -0.1334
 6789SOL    HW131826   4.267   2.422   4.513 -1.2214 -0.9210  0.0746
 6789SOL    HW231827   4.308   2.290   4.572  0.3194  0.0269  0.8059
 6790SOL     OW31828   4.380   4.261   8.352 -0.2131 -0.1073 -0.4837
 6790SOL    HW131829   4.446   4.326   8.379  1.2407 -1.0779 -1.6779
 6790SOL    HW231830   4.376   4.215   8.436  0.8690 -0.7673 -0.7934
 6791SOL     OW31831   3.091   1.496   3.877  0.3316  0.5115 -0.0161
 6791SOL    HW131832   3.180   1.462   3.864 -0.4547 -1.4508 -0.2134
 6791SOL    HW231833   3.060   1.421   3.927 -2.5443  2.2440  0.8116
 6792SOL     OW31834   1.765   3.955  12.463  0.6309  0.2554  0.2992
 6792SOL    HW131835   1.770   3.956  12.367 -0.1107 -1.6460  0.2312
 6792SOL    HW231836   1.731   3.865  12.467  0.0170  0.4751 -0.0349
 6793SOL     OW31837   2.147   0.655   2.826 -0.7690 -0.0227 -0.4808
 6793SOL    HW131838   2.137   0.614   2.740  1.6537  1.8321 -1.6346
 6793SOL    HW231839   2.241   0.640   2.830 -0.6248  1.1134  0.5624
 6794SOL     OW31840   1.118   2.420   2.941  0.4633 -0.2091 -0.2838
 6794SOL    HW131841   1.040   2.395   2.891 -0.7310  1.1588  0.9209
 6794SOL    HW231842   1.185   2.432   2.873  1.8491  0.2154  1.1441
 6795SOL     OW31843   2.536   0.305   4.892 -0.4011 -0.0698  0.1462
 6795SOL    HW131844   2.500   0.220   4.919 -0.8766 -0.2915 -1.1567
 6795SOL    HW231845   2.556   0.346   4.976 -0.9768 -0.5912  0.5348
 6796SOL     OW31846   2.201   2.759   5.284  0.1761 -0.0424  0.5204
 6796SOL    HW131847   2.288   2.721   5.297  0.7656  1.8243  1.8586
 6796SOL    HW231848   2.220   2.837   5.232 -0.4883 -1.3638 -1.7207
 6797SOL     OW31849   1.270   3.175   9.554  0.9093 -0.0669  0.9440
 6797SOL    HW131850   1.239   3.085   9.546 -0.4526  0.2126  3.0756
 6797SOL    HW231851   1.194   3.233   9.563  0.2345 -0.3758 -2.5082
 6798SOL     OW31852   4.671   4.548  14.899 -0.4433  0.3147 -0.3978
 6798SOL    HW131853   4.690   4.563  14.806 -0.0436 -3.2735 -0.9198
 6798SOL    HW231854   4.663   4.452  14.901 -0.9658  0.2944 -2.9093
 6799SOL     OW31855   1.562   3.057  16.110 -0.4421  0.9563 -0.1995
 6799SOL    HW131856   1.533   3.024  16.025 -0.0896  1.7515 -0.6247
 6799SOL    HW231857   1.634   2.998  16.132  0.3484  1.4525 -1.4917
 6800SOL     OW31858   3.859   1.627   4.821  0.1621  0.1705 -0.3931
 6800SOL    HW131859   3.931   1.596   4.767 -1.0222 -0.4244 -1.6347
 6800SOL    HW231860   3.848   1.711   4.777 -0.2667  0.2780 -0.0858
 6801SOL     OW31861   4.345   3.518   4.541  0.2148 -0.0385 -0.1641
 6801SOL    HW131862   4.261   3.485   4.575  0.8829  0.1107  1.6239
 6801SOL    HW231863   4.376   3.430   4.519  1.3552 -0.1026  1.7205
 6802SOL     OW31864   4.398   1.358  16.596 -0.0090 -0.3268 -0.2775
 6802SOL    HW131865   4.340   1.417  16.645 -0.1143 -0.7157  0.0602
 6802SOL    HW231866   4.478   1.385  16.641 -0.3962 -0.5346  0.5321
 6803SOL     OW31867   3.995   1.531   1.579  0.0883 -0.6158  0.3617
 6803SOL    HW131868   4.017   1.451   1.531 -1.7487 -0.2939 -0.9885
 6803SOL    HW231869   3.921   1.562   1.527  0.5149 -0.0874  0.0694
 6804SOL     OW31870   3.053   1.094   4.990  0.3444  0.6691 -0.2270
 6804SOL    HW131871   2.964   1.107   4.958  0.0007 -1.4925 -0.1798
 6804SOL    HW231872   3.049   1.034   5.064 -0.3110  1.2066  0.1707
 6805SOL     OW31873   1.770   2.063   4.896 -0.8021  0.6238 -0.2041
 6805SOL    HW131874   1.772   2.028   4.985  3.0512 -2.4913 -1.5214
 6805SOL    HW231875   1.678   2.038   4.884 -0.7937  0.8717 -0.7629
 6806SOL     OW31876   2.207   4.692   9.797 -0.7370  0.8870 -0.8505
 6806SOL    HW131877   2.300   4.677   9.779 -0.6607  0.2834  0.0281
 6806SOL    HW231878   2.188   4.673   9.889 -0.8707  0.7849 -0.8992
 6807SOL     OW31879   0.456   2.796   3.337 -0.4808  0.5721 -0.2593
 6807SOL    HW131880   0.492   2.719   3.381 -0.9396  0.5130  0.0174
 6807SOL    HW231881   0.458   2.773   3.244 -0.8198 -0.2921 -0.0559
 6808SOL     OW31882   1.575   2.016  15.241 -0.0735 -1.0630 -0.3143
 6808SOL    HW131883   1.596   2.109  15.250 -0.0838 -1.2688  1.6944
 6808SOL    HW231884   1.511   2.000  15.310  0.3074 -0.2702  0.2174
 6809SOL     OW31885   4.473   3.807   0.294 -0.1785 -0.3068  0.7005
 6809SOL    HW131886   4.507   3.885   0.250  0.6008  0.1439  2.0910
 6809SOL    HW231887   4.548   3.780   0.347  2.5873 -0.7192 -3.3791
 6810SOL     OW31888   2.943   4.449   6.678  0.3449  0.3261  0.3078
 6810SOL    HW131889   3.012   4.421   6.619 -0.3345 -0.1794 -0.2462
 6810SOL    HW231890   2.871   4.390   6.658  1.3035  0.0130 -2.1437
 6811SOL     OW31891   4.485   2.594  12.439 -0.0182  0.3056  0.7602
 6811SOL    HW131892   4.404   2.566  12.397  0.3606  1.3294 -0.6662
 6811SOL    HW231893   4.525   2.518  12.482 -0.2484 -0.3513 -0.1964
 6812SOL     OW31894   4.548   4.453   3.038  0.1666 -0.3129  0.3292
 6812SOL    HW131895   4.600   4.375   3.019  1.0043  0.1565  0.6889
 6812SOL    HW231896   4.483   4.446   2.968  1.0012  1.0666 -0.5936
 6813SOL     OW31897   0.174   3.040   4.514  0.7231 -0.1116 -0.7053
 6813SOL    HW131898   0.148   3.112   4.572  1.6115  0.9154 -1.5748
 6813SOL    HW231899   0.187   2.972   4.579 -2.5521  1.0714  1.2320
 6814SOL     OW31900   3.926   4.202   6.523  0.4029 -0.2352 -0.4426
 6814SOL    HW131901   3.966   4.171   6.442 -0.4361 -1.8669 -0.2251
 6814SOL    HW231902   3.917   4.296   6.506  0.3931 -0.3469 -1.0451
 6815SOL     OW31903   3.107   0.030  13.180 -0.3578  0.1402  0.0858
 6815SOL    HW131904   3.158   4.710  13.114  0.0748 -0.1616  0.6289
 6815SOL    HW231905   3.029   4.706  13.201  0.8691 -1.0081  1.9727
 6816SOL     OW31906   3.497   2.447   3.981  0.0491 -0.4973 -0.6138
 6816SOL    HW131907   3.577   2.398   3.963 -1.0787 -2.1436 -1.1605
 6816SOL    HW231908   3.498   2.513   3.912  1.4225  0.8964  0.7397
 6817SOL     OW31909   3.674   0.621   8.615 -0.4102 -0.8487 -0.3525
 6817SOL    HW131910   3.659   0.701   8.565  0.9180  0.1300  0.7876
 6817SOL    HW231911   3.587   0.613   8.654 -0.4180  3.5034  0.5301
 6818SOL     OW31912   1.674   3.000   5.339 -0.0218  0.4772  0.5298
 6818SOL    HW131913   1.736   2.998   5.267  0.2729  0.1032  0.7934
 6818SOL    HW231914   1.626   3.077   5.307  1.0133  1.3467  1.0652
 6819SOL     OW31915   1.735   4.276   5.886 -0.0962 -0.1821  0.5333
 6819SOL    HW131916   1.707   4.259   5.796  0.7637 -0.0190  0.2389
 6819SOL    HW231917   1.682   4.344   5.928  0.3656  1.2279 -1.2126
 6820SOL     OW31918   0.607   3.533  10.793 -0.1660  0.2148  0.1002
 6820SOL    HW131919   0.516   3.535  10.763  0.2260  1.4062 -1.0308
 6820SOL    HW231920   0.648   3.460  10.746 -1.4128 -0.3270 -0.1332
 6821SOL     OW31921   4.059   3.672   4.744  0.2646 -0.7927 -0.4562
 6821SOL    HW131922   4.020   3.758   4.761  0.8539 -0.3943 -1.1578
 6821SOL    HW231923   3.979   3.620   4.749 -0.3789  0.4685  2.3229
 6822SOL     OW31924   2.370   2.783  17.135  0.1236  0.4050  0.6717
 6822SOL    HW131925   2.336   2.771  17.223  2.2285  2.1612  1.7302
 6822SOL    HW231926   2.448   2.829  17.166  1.5808 -0.6847 -1.3359
 6823SOL     OW31927   4.032   3.033  17.383 -0.1532 -0.2307 -0.5080
 6823SOL    HW131928   4.106   3.042  17.323 -0.1677 -2.1444 -0.8370
 6823SOL    HW231929   4.019   3.125  17.403  0.8236 -0.2720  0.3242
 6824SOL     OW31930   0.850   1.115   5.563 -0.5597  0.7611  0.1580
 6824SOL    HW131931   0.887   1.203   5.570  0.0402  0.5599 -0.4440
 6824SOL    HW231932   0.854   1.107   5.467 -0.4482 -1.4492  0.3379
 6825SOL     OW31933   1.910   1.893   5.521  0.1814 -0.6833  0.2926
 6825SOL    HW131934   1.911   1.854   5.434  0.4796 -0.8971  0.3907
 6825SOL    HW231935   1.841   1.838   5.559  1.9892 -0.9928  3.1371
 6826SOL     OW31936   2.287   3.416   3.596  0.1093  0.5245 -0.1873
 6826SOL    HW131937   2.348   3.342   3.603 -0.5462  0.1025  1.1545
 6826SOL    HW231938   2.251   3.418   3.685  1.4303  0.4328  0.3502
 6827SOL     OW31939   1.283   3.317   4.423 -0.1894 -0.2887  0.4711
 6827SOL    HW131940   1.216   3.270   4.373 -0.6577 -0.5063  1.2943
 6827SOL    HW231941   1.366   3.292   4.382 -0.3139 -2.6899  1.6667
 6828SOL     OW31942   2.120   3.501   5.123 -0.2107 -0.0153 -0.2535
 6828SOL    HW131943   2.197   3.511   5.179 -0.0507 -0.0243 -0.4722
 6828SOL    HW231944   2.131   3.583   5.077  1.0989  0.2631  0.5553
 6829SOL     OW31945   0.090   4.230   1.824 -0.1638 -0.1987  0.3682
 6829SOL    HW131946   0.146   4.219   1.901 -2.1033 -2.0061  1.5271
 6829SOL    HW231947   0.139   4.295   1.773  2.0641 -1.4204  0.9505
 6830SOL     OW31948   3.612   4.349   7.223 -0.0880  0.4073  0.3049
 6830SOL    HW131949   3.587   4.398   7.301  0.1477 -0.5057  0.9566
 6830SOL    HW231950   3.533   4.357   7.169  1.3053  0.0545 -1.8097
 6831SOL     OW31951   3.807   2.337   7.038 -0.6515  0.0809 -0.8818
 6831SOL    HW131952   3.745   2.277   6.999 -1.1637  0.0912 -0.0941
 6831SOL    HW231953   3.876   2.346   6.972 -0.8803  0.0915 -1.1187
 6832SOL     OW31954   2.949   1.933   9.126  0.0216 -0.3766 -0.5325
 6832SOL    HW131955   2.991   2.015   9.098  0.0324  0.2549  1.3187
 6832SOL    HW231956   2.958   1.942   9.221  3.0812  1.2726 -0.9705
 6833SOL     OW31957   4.671   0.903  13.656 -0.9256 -0.1314 -0.6928
 6833SOL    HW131958   4.607   0.832  13.660 -2.3097  1.0824 -0.9652
 6833SOL    HW231959   4.716   0.878  13.576  0.9720 -2.0788  1.0137
 6834SOL     OW31960   0.915   0.206   9.607  0.2506 -0.2156 -0.1908
 6834SOL    HW131961   0.868   0.283   9.577 -0.2713 -0.4786 -0.0506
 6834SOL    HW231962   0.864   0.134   9.570 -3.4720  1.3884  1.8363
 6835SOL     OW31963   3.308   2.304  15.712  0.3073  0.6906 -0.1632
 6835SOL    HW131964   3.395   2.344  15.717  0.3967  0.3597  0.9926
 6835SOL    HW231965   3.261   2.387  15.710  0.5825  0.8322 -0.7089
 6836SOL     OW31966   0.259   3.317   7.271  0.3341  0.4089 -0.6029
 6836SOL    HW131967   0.281   3.259   7.199 -2.3463  2.6157 -3.1722
 6836SOL    HW231968   0.211   3.390   7.232 -0.5929 -0.7980 -1.7039
 6837SOL     OW31969   3.763   0.180   0.340 -0.5957 -0.4158  0.1778
 6837SOL    HW131970   3.787   0.088   0.353 -0.8800 -0.4789  0.2528
 6837SOL    HW231971   3.852   0.215   0.349 -0.1486 -1.6709  0.5791
 6838SOL     OW31972   3.667   1.514   0.197 -0.0784 -0.2075  0.1838
 6838SOL    HW131973   3.596   1.450   0.193 -0.7955  0.5370  1.3013
 6838SOL    HW231974   3.708   1.510   0.111  1.5401  0.5088  0.9255
 6839SOL     OW31975   2.323   2.437   8.627 -0.7248 -0.0281 -0.0106
 6839SOL    HW131976   2.234   2.403   8.631  0.0229 -1.9386  0.2852
 6839SOL    HW231977   2.338   2.443   8.721 -0.5478 -0.9250  0.0149
 6840SOL     OW31978   0.861   2.691  13.857  0.0079 -0.3544  0.1040
 6840SOL    HW131979   0.887   2.737  13.778 -0.0476 -1.4485 -0.5595
 6840SOL    HW231980   0.768   2.679  13.838  0.5598 -0.7733 -2.3260
 6841SOL     OW31981   0.015   0.337  13.778  0.1272  0.6076  0.0745
 6841SOL    HW131982   4.679   0.399  13.815 -0.2249 -0.8633  1.9044
 6841SOL    HW231983   0.084   0.342  13.845 -1.0099 -1.1652  1.3702
 6842SOL     OW31984   1.461   3.606   7.690 -0.0043  0.1322 -0.2574
 6842SOL    HW131985   1.396   3.669   7.661 -0.9681 -0.5303  0.4748
 6842SOL    HW231986   1.472   3.547   7.615 -0.2326  0.4028 -0.4989
 6843SOL     OW31987   1.260   1.032   7.940 -0.2069  0.2189  0.1046
 6843SOL    HW131988   1.234   0.989   8.022  1.0192  1.7553  1.3306
 6843SOL    HW231989   1.354   1.018   7.952 -0.2962  0.0568  0.6523
 6844SOL     OW31990   0.729   2.714   6.192  0.3740 -0.1142  0.2075
 6844SOL    HW131991   0.752   2.770   6.118 -1.2972 -0.4626 -0.5715
 6844SOL    HW231992   0.641   2.688   6.166  0.5298 -1.0549  0.6351
 6845SOL     OW31993   1.802   3.133   8.784  0.0646 -0.1040  0.3672
 6845SOL    HW131994   1.803   3.110   8.691 -0.8931  0.5813  0.1988
 6845SOL    HW231995   1.713   3.160   8.803 -0.3761 -0.9957 -0.4020
 6846SOL     OW31996   1.337   4.010   5.094  0.1516 -0.3755  0.1895
 6846SOL    HW131997   1.248   4.038   5.115 -0.0294 -0.4483 -0.4906
 6846SOL    HW231998   1.336   4.035   5.002 -0.8116  1.4624  0.6854
 6847SOL     OW31999   3.423   2.231   2.728  0.2934  0.1821 -0.3887
 6847SOL    HW132000   3.438   2.190   2.814  2.1789  1.4598 -0.1059
 6847SOL    HW232001   3.380   2.309   2.762 -1.5538 -1.4172  0.9425
 6848SOL     OW32002   1.184   3.724   5.381 -0.0672  0.1977  0.1345
 6848SOL    HW132003   1.260   3.667   5.380 -0.9662 -0.9770 -0.9745
 6848SOL    HW232004   1.126   3.670   5.434 -0.0519  0.4455  0.4036
 6849SOL     OW32005   0.887   0.380   7.343  0.1334  0.6882  0.4506
 6849SOL    HW132006   0.809   0.386   7.399 -1.6028  0.4986 -1.9764
 6849SOL    HW232007   0.885   0.467   7.302 -0.6044  0.6585  0.4235
 6850SOL     OW32008   3.768   3.845   9.982  0.5602  0.1023  0.3924
 6850SOL    HW132009   3.809   3.764  10.012 -1.1990 -1.7968 -2.3654
 6850SOL    HW232010   3.824   3.869   9.908  1.0794  2.1664  1.4273
 6851SOL     OW32011   2.282   4.105   7.433 -0.5210 -0.2362 -0.0919
 6851SOL    HW132012   2.258   4.197   7.448 -0.4208 -0.0635 -1.0298
 6851SOL    HW232013   2.234   4.069   7.508 -0.0009 -0.1274  0.2982
 6852SOL     OW32014   0.721   1.105   3.271 -0.3539  0.2918  0.1680
 6852SOL    HW132015   0.777   1.105   3.193 -0.2184  0.9089  0.2662
 6852SOL    HW232016   0.772   1.045   3.325  2.1108  2.7600  0.5739
 6853SOL     OW32017   0.021   0.637   4.996 -0.3348 -0.2512 -0.1903
 6853SOL    HW132018   4.708   0.721   4.975  1.4451  0.5119 -0.5299
 6853SOL    HW232019   0.093   0.669   5.050  0.7682 -0.6726 -1.4280
 6854SOL     OW32020   3.557   1.482   7.519 -0.3943 -0.5030  0.2643
 6854SOL    HW132021   3.536   1.388   7.526 -0.3217 -0.4969  0.5588
 6854SOL    HW232022   3.504   1.523   7.587 -1.5700 -0.3329 -0.7509
 6855SOL     OW32023   0.695   0.973   8.661 -0.5575  0.4564 -0.4100
 6855SOL    HW132024   0.654   0.946   8.743  1.4852 -0.6675  0.2283
 6855SOL    HW232025   0.670   0.906   8.597 -2.4155 -0.0269  0.8303
 6856SOL     OW32026   4.551   2.835   3.056  0.8370 -0.3084  0.4421
 6856SOL    HW132027   4.471   2.884   3.075 -0.7347 -2.3527 -0.7834
 6856SOL    HW232028   4.507   2.751   3.040 -0.5381  0.7672 -1.4511
 6857SOL     OW32029   3.047   1.442   5.339 -0.3189  0.1390  0.0346
 6857SOL    HW132030   3.099   1.399   5.272 -1.9370 -1.7598 -0.0077
 6857SOL    HW232031   2.977   1.487   5.292  0.4406  1.4011  0.1033
 6858SOL     OW32032   1.728   4.433   4.512  0.0067 -0.3240 -0.1844
 6858SOL    HW132033   1.683   4.358   4.550  1.1970 -0.8131  0.2717
 6858SOL    HW232034   1.726   4.488   4.591 -2.7103 -0.1701 -0.3489
 6859SOL     OW32035   0.702   2.110   6.001  0.5090  0.2172 -0.0916
 6859SOL    HW132036   0.786   2.100   5.955 -0.0990 -0.3911 -1.0750
 6859SOL    HW232037   0.665   2.022   6.008  2.1210 -0.5073 -0.6928
 6860SOL     OW32038   1.968   3.518   6.907 -0.2932  0.4595 -0.0124
 6860SOL    HW132039   2.007   3.495   6.823 -0.6085  0.4963 -0.1708
 6860SOL    HW232040   1.995   3.608   6.922  3.5106 -0.2963 -2.3010
 6861SOL     OW32041   2.913   2.718  17.582 -0.1628  0.7363 -0.4775
 6861SOL    HW132042   3.002   2.687  17.568  0.6874  2.6499  0.7754
 6861SOL    HW232043   2.912   2.737  17.676 -1.0883  3.4056 -1.0137
 6862SOL     OW32044   4.598   3.659   9.387 -0.2346  0.4772  0.0556
 6862SOL    HW132045   4.644   3.612   9.457 -1.2357  0.8817  0.9848
 6862SOL    HW232046   4.663   3.724   9.363 -0.6153  0.4955 -0.9358
 6863SOL     OW32047   2.375   1.503   3.275  0.1458 -0.6882 -0.2847
 6863SOL    HW132048   2.399   1.422   3.229  0.9089 -0.5723 -0.0945
 6863SOL    HW232049   2.430   1.489   3.352 -0.9376  1.8302  0.9589
 6864SOL     OW32050   0.493   3.499   4.935  0.0212 -0.2441 -0.2603
 6864SOL    HW132051   0.563   3.441   4.906 -0.2919 -0.0765 -1.3516
 6864SOL    HW232052   0.546   3.577   4.921 -0.4734 -0.4419 -3.2733
 6865SOL     OW32053   1.488   4.308   5.188  0.5084 -0.1844  0.3827
 6865SOL    HW132054   1.398   4.323   5.160  0.0502  0.1053  1.9886
 6865SOL    HW232055   1.505   4.387   5.238 -1.4441  1.4994 -1.6029
 6866SOL     OW32056   4.536   4.168   6.034 -0.7896  0.4272 -0.3672
 6866SOL    HW132057   4.467   4.233   6.022 -0.8114  0.2556 -1.1944
 6866SOL    HW232058   4.610   4.223   6.060  0.6390 -0.7479 -1.8900
 6867SOL     OW32059   1.456   2.874  15.867 -0.1792 -0.0665 -0.4051
 6867SOL    HW132060   1.378   2.819  15.881 -0.1127  0.5907  2.4959
 6867SOL    HW232061   1.446   2.893  15.774  0.7590 -1.3363 -0.7565
 6868SOL     OW32062   1.142   2.497   2.306  0.2106  0.1611  0.2110
 6868SOL    HW132063   1.200   2.545   2.246 -0.0653  1.6651  1.1449
 6868SOL    HW232064   1.134   2.421   2.248  0.4507  0.4777 -0.2400
 6869SOL     OW32065   2.379   3.948   3.097  0.4531  0.4233  0.1255
 6869SOL    HW132066   2.344   4.036   3.090 -0.4664  0.2770  3.0228
 6869SOL    HW232067   2.388   3.927   3.004 -4.1209 -1.9815  0.2160
 6870SOL     OW32068   4.388   1.462   2.441 -0.1193  0.5366  0.1336
 6870SOL    HW132069   4.356   1.532   2.499  0.9554 -1.4292  3.1227
 6870SOL    HW232070   4.369   1.506   2.358  2.1679  0.3559 -0.4823
 6871SOL     OW32071   3.195   4.232   4.707 -0.1921 -0.1343 -0.0843
 6871SOL    HW132072   3.119   4.225   4.764  0.1387 -0.0377  0.3703
 6871SOL    HW232073   3.178   4.320   4.673  0.9466  0.0385 -0.2241
 6872SOL     OW32074   4.134   0.924   3.384 -0.5621  0.1375 -0.3165
 6872SOL    HW132075   4.039   0.915   3.372 -0.8087  1.7714  0.4109
 6872SOL    HW232076   4.139   1.017   3.402  1.6845  0.1314 -0.9079
 6873SOL     OW32077   2.944   1.780  16.490  0.7389 -0.1072  0.7897
 6873SOL    HW132078   3.007   1.819  16.430  1.0901 -1.3988  0.3226
 6873SOL    HW232079   2.923   1.849  16.553  0.9613  1.0521 -0.4276
 6874SOL     OW32080   4.570   1.815   1.820  0.2179  0.0175 -0.1006
 6874SOL    HW132081   4.535   1.798   1.907 -0.6568 -2.3028 -0.9039
 6874SOL    HW232082   4.489   1.847   1.780  0.6015  1.8118  0.5494
 6875SOL     OW32083   1.755   0.951   4.133 -0.1724 -0.4504  0.8557
 6875SOL    HW132084   1.667   0.915   4.142  0.1176 -1.6092 -0.7686
 6875SOL    HW232085   1.808   0.883   4.175 -0.6630 -1.4313 -0.1097
 6876SOL     OW32086   3.716   2.957   5.919  0.0536 -0.2968 -0.2365
 6876SOL    HW132087   3.681   2.944   5.831  0.0652 -1.0946 -0.1236
 6876SOL    HW232088   3.711   3.053   5.922 -0.0879 -0.2871 -0.8420
 6877SOL     OW32089   1.985   4.043   2.730 -0.5831 -0.2765 -0.3151
 6877SOL    HW132090   2.034   4.057   2.649  0.1870  1.2121  0.3916
 6877SOL    HW232091   2.020   4.116   2.782  2.0261 -1.3431 -0.6013
 6878SOL     OW32092   0.941   3.990   2.999  0.6975  0.1731 -0.9476
 6878SOL    HW132093   0.851   4.017   2.987  0.3258 -0.7149 -0.1979
 6878SOL    HW232094   0.990   4.050   2.942 -0.8102  1.3980 -0.9408
 6879SOL     OW32095   3.046   1.056  17.008 -0.4893  0.4302  0.4824
 6879SOL    HW132096   3.005   1.136  16.975  0.3572  1.0151  0.8587
 6879SOL    HW232097   3.023   1.060  17.100  1.1777  1.2029  0.8617
 6880SOL     OW32098   4.529   1.225   1.861 -0.1193 -0.1797 -0.4322
 6880SOL    HW132099   4.604   1.284   1.856 -1.1651  1.0976 -0.8627
 6880SOL    HW232100   4.537   1.185   1.947  2.0480 -1.1734 -1.0967
 6881SOL     OW32101   2.123   4.580   4.617  0.0529 -0.1619 -0.2110
 6881SOL    HW132102   2.047   4.574   4.675 -0.4072 -0.8181 -0.8859
 6881SOL    HW232103   2.107   4.524   4.541 -2.3047  1.2827 -0.8132
 6882SOL     OW32104   1.146   0.796   6.007  0.3477 -0.2598 -0.0159
 6882SOL    HW132105   1.168   0.862   5.941 -2.1414 -0.9551 -1.5162
 6882SOL    HW232106   1.057   0.777   5.978  1.4240 -1.9784 -2.1464
 6883SOL     OW32107   3.891   2.040   3.312 -0.2081 -0.3048  0.2444
 6883SOL    HW132108   3.809   2.059   3.266  0.4022  2.4958  0.3010
 6883SOL    HW232109   3.880   1.952   3.348 -0.0302 -1.3310 -2.2127
 6884SOL     OW32110   1.220   0.252   3.008  0.1323 -0.2289  0.3612
 6884SOL    HW132111   1.238   0.184   2.943 -0.6097 -3.0405  3.0731
 6884SOL    HW232112   1.138   0.296   2.988  0.1409 -0.2082  0.3717
 6885SOL     OW32113   3.525   0.944   6.152  0.2431  0.0214 -0.0538
 6885SOL    HW132114   3.516   0.927   6.246 -1.6699  0.9041 -0.0729
 6885SOL    HW232115   3.530   1.040   6.146  2.1599 -0.0847  0.0483
 6886SOL     OW32116   0.724   4.026   7.130  0.1303 -0.2076 -0.2893
 6886SOL    HW132117   0.808   4.049   7.171  0.0112  0.3269 -0.3450
 6886SOL    HW232118   0.732   4.086   7.056 -0.7769  0.5784  0.2418
 6887SOL     OW32119   0.682   3.853  13.032 -0.0307 -0.2092 -0.1402
 6887SOL    HW132120   0.707   3.804  13.109 -1.8790 -1.6800 -0.4618
 6887SOL    HW232121   0.700   3.940  13.068  1.5592 -1.4692  2.0686
 6888SOL     OW32122   2.673   4.080  13.510  0.4125  0.1552  0.0293
 6888SOL    HW132123   2.597   4.101  13.456  1.3950  0.9764 -1.0404
 6888SOL    HW232124   2.632   4.010  13.561 -0.9690 -0.1574 -1.4998
 6889SOL     OW32125   3.172   2.769   2.912  0.2514 -0.3822  0.0319
 6889SOL    HW132126   3.116   2.780   2.835  3.2079  0.6371 -1.9858
 6889SOL    HW232127   3.244   2.830   2.896  0.7334 -0.4543  1.9682
 6890SOL     OW32128   0.200   1.158   2.710 -0.1222  0.5940  0.0127
 6890SOL    HW132129   0.174   1.109   2.631  0.3636  0.8155 -0.2828
 6890SOL    HW232130   0.157   1.102   2.774 -1.1753 -0.1141 -1.3023
 6891SOL     OW32131   0.208   4.277   8.391  0.0920  0.3705 -0.3186
 6891SOL    HW132132   0.250   4.329   8.322  2.2438 -0.1711  0.5898
 6891SOL    HW232133   0.285   4.238   8.431 -0.3690  0.5929  0.7812
 6892SOL     OW32134   2.273   4.132  13.194  0.4752  0.3136 -0.0275
 6892SOL    HW132135   2.217   4.099  13.123 -1.9561  2.0075  1.0752
 6892SOL    HW232136   2.345   4.160  13.138  1.1549 -0.5729  0.4198
 6893SOL     OW32137   1.532   4.524   2.930 -0.0047 -0.8150  0.4598
 6893SOL    HW132138   1.540   4.552   2.839  1.9685 -1.2711  0.4965
 6893SOL    HW232139   1.581   4.593   2.975 -2.7901  1.8404 -0.5612
 6894SOL     OW32140   2.293   3.222   8.753  0.0411  0.0615 -0.2680
 6894SOL    HW132141   2.253   3.268   8.827  0.3067  0.0200 -0.0991
 6894SOL    HW232142   2.386   3.236   8.769  0.5166 -1.5821 -1.7075
 6895SOL     OW32143   2.361   4.647   7.815 -0.8158  0.4749  0.3872
 6895SOL    HW132144   2.339   4.723   7.869 -3.0365 -1.6908  2.5582
 6895SOL    HW232145   2.304   4.667   7.740 -2.0823  0.9065  1.4533
 6896SOL     OW32146   4.072   3.876  17.439 -0.1199  0.5527  0.1820
 6896SOL    HW132147   4.062   3.877  17.534  1.6383  0.9534  0.3701
 6896SOL    HW232148   4.157   3.836  17.422 -0.6564 -0.5459  0.1210
 6897SOL     OW32149   1.756   2.516   9.155  0.1623 -0.0224 -0.0548
 6897SOL    HW132150   1.721   2.560   9.233  1.8606  0.6184  0.3375
 6897SOL    HW232151   1.798   2.448   9.207 -3.3607 -0.0997  2.6974
 6898SOL     OW32152   3.283   3.331  15.944 -0.3139 -0.3054 -0.0985
 6898SOL    HW132153   3.302   3.424  15.951  0.0336 -0.3408 -0.5557
 6898SOL    HW232154   3.243   3.308  16.028  1.6221 -2.2674  0.2999
 6899SOL     OW32155   0.683   0.798  16.796 -0.0653  0.1630  0.8424
 6899SOL    HW132156   0.689   0.703  16.798 -2.8831 -0.0199  0.2774
 6899SOL    HW232157   0.747   0.818  16.864 -1.0451  0.2621  1.7280
 6900SOL     OW32158   2.147   1.518   2.967 -0.0914  0.1301  0.5929
 6900SOL    HW132159   2.128   1.531   2.874 -0.5328 -1.6825  0.4215
 6900SOL    HW232160   2.173   1.426   2.962 -0.6205  0.0544 -0.7835
 6901SOL     OW32161   3.964   4.722   9.032 -0.2589  0.4624 -0.1790
 6901SOL    HW132162   4.002   0.079   9.005  0.6104  0.0125 -0.3245
 6901SOL    HW232163   3.998   4.717   9.121 -2.4723  3.3661  0.8579
 6902SOL     OW32164   4.205   3.012   4.798 -0.0797 -0.2910 -0.1010
 6902SOL    HW132165   4.133   3.050   4.748 -0.2294 -0.9001 -0.3459
 6902SOL    HW232166   4.176   3.025   4.888  1.5935 -0.6486  0.5002
 6903SOL     OW32167   2.073   2.950  12.115 -0.3071  0.0090  0.2635
 6903SOL    HW132168   2.093   3.041  12.136 -2.3807  0.6093 -0.4147
 6903SOL    HW232169   2.146   2.906  12.160  0.1818  0.2863 -0.2577
 6904SOL     OW32170   1.957   1.272   2.912 -1.0262  0.2213 -0.7262
 6904SOL    HW132171   1.864   1.276   2.933 -0.9927 -0.3861 -0.4554
 6904SOL    HW232172   1.952   1.299   2.820  0.1742 -0.0253 -0.8710
 6905SOL     OW32173   3.226   0.657   6.789 -0.3654  0.3840 -0.7869
 6905SOL    HW132174   3.304   0.608   6.763 -1.7807 -1.9313 -0.7146
 6905SOL    HW232175   3.173   0.600   6.844  2.5818  0.4086  2.0603
 6906SOL     OW32176   4.001   4.565   2.992  0.1045  0.4491 -0.3780
 6906SOL    HW132177   4.013   4.604   2.905 -1.1173  0.4034 -0.5637
 6906SOL    HW232178   4.044   4.631   3.047  0.4173 -0.3460  0.3339
 6907SOL     OW32179   4.159   3.055   7.942 -0.2545  0.3091 -0.0582
 6907SOL    HW132180   4.101   2.979   7.944 -0.4472  0.4817  0.9590
 6907SOL    HW232181   4.218   3.033   7.870 -0.6597 -0.8062 -0.0624
 6908SOL     OW32182   3.883   4.317   7.084  0.2838 -0.1722  0.3259
 6908SOL    HW132183   3.948   4.268   7.035  0.4991 -0.5800  1.0145
 6908SOL    HW232184   3.831   4.376   7.029 -1.6663  0.3812  2.7157
 6909SOL     OW32185   0.780   4.499   4.335 -0.3847 -0.1281 -1.0372
 6909SOL    HW132186   0.856   4.468   4.285  1.4568 -0.5957  2.0809
 6909SOL    HW232187   0.793   4.442   4.410 -0.2737  1.1320 -0.1070
 6910SOL     OW32188   4.355   1.650  10.289  0.0735  0.2901 -0.1127
 6910SOL    HW132189   4.356   1.737  10.329  2.3353 -0.0075  0.5107
 6910SOL    HW232190   4.356   1.593  10.366  0.0405 -0.9077 -0.9894
 6911SOL     OW32191   4.598   2.486  10.583  0.4080 -0.0687 -0.3873
 6911SOL    HW132192   4.596   2.477  10.488  1.0950 -0.8488 -0.3189
 6911SOL    HW232193   4.685   2.525  10.580  1.0645 -1.6581 -1.3344
 6912SOL     OW32194   2.556   2.513  10.583 -0.0688 -0.4076 -0.1796
 6912SOL    HW132195   2.635   2.551  10.620  0.3991  0.0994 -1.7159
 6912SOL    HW232196   2.535   2.572  10.511  1.4079  2.4490  1.7428
 6913SOL     OW32197   2.017   2.278  10.386 -0.1394 -0.7256  0.1027
 6913SOL    HW132198   2.111   2.278  10.370 -0.1163 -1.0561  0.2430
 6913SOL    HW232199   2.027   2.292  10.480  2.0747  1.1994 -0.4356
 6914SOL     OW32200   2.899   0.547   6.455  0.0104 -0.3222  0.0633
 6914SOL    HW132201   2.813   0.529   6.418  0.2441  2.4351 -1.8264
 6914SOL    HW232202   2.879   0.558   6.548  2.7495 -1.0457  0.7453
 6915SOL     OW32203   4.163   0.599   7.976 -0.6813 -0.0077 -0.2683
 6915SOL    HW132204   4.100   0.637   8.038 -0.8450 -0.6117 -0.0601
 6915SOL    HW232205   4.209   0.535   8.031  1.3344  1.0626 -0.7406
 6916SOL     OW32206   3.238   2.384  10.742 -0.1805 -0.2571 -0.1345
 6916SOL    HW132207   3.332   2.384  10.729 -0.1534  0.7792  0.0880
 6916SOL    HW232208   3.218   2.400  10.834 -0.1183  1.3453 -0.3934
 6917SOL     OW32209   4.245   2.344   1.125 -0.5930  0.0574  0.0482
 6917SOL    HW132210   4.189   2.271   1.151  0.7991 -0.8644  0.4590
 6917SOL    HW232211   4.322   2.296   1.094 -0.7464 -0.9312  1.1923
 6918SOL     OW32212   0.643   0.518   7.918  0.0150 -0.1963 -0.1721
 6918SOL    HW132213   0.641   0.605   7.878 -1.7984  0.5789  1.6277
 6918SOL    HW232214   0.551   0.510   7.944  0.0391  0.3419  0.0641
 6919SOL     OW32215   3.439   3.622  12.885 -0.4842 -0.3385 -0.7185
 6919SOL    HW132216   3.449   3.603  12.792  0.1917  1.2912 -0.9874
 6919SOL    HW232217   3.510   3.683  12.903  0.4149 -0.8852 -2.4355
 6920SOL     OW32218   0.367   2.239   7.484  0.1670  0.2452 -0.0794
 6920SOL    HW132219   0.316   2.305   7.436  1.4510 -0.2276 -2.1149
 6920SOL    HW232220   0.443   2.235   7.425 -0.2771  1.6010 -0.7372
 6921SOL     OW32221   1.332   2.123   4.645 -0.5544 -0.0708  0.1927
 6921SOL    HW132222   1.312   2.163   4.561  1.6885 -1.3844 -0.9493
 6921SOL    HW232223   1.383   2.192   4.689  0.5335 -1.4571  1.1235
 6922SOL     OW32224   4.063   1.517  10.517  0.3515  0.1418 -0.0617
 6922SOL    HW132225   4.036   1.609  10.521 -2.1823 -0.7151  2.4081
 6922SOL    HW232226   4.157   1.533  10.505  0.1318  0.3093 -1.6051
 6923SOL     OW32227   2.458   2.814   2.253  0.3669 -0.7632 -0.5165
 6923SOL    HW132228   2.469   2.765   2.171  1.4205 -0.6343 -0.4530
 6923SOL    HW232229   2.425   2.901   2.232  1.2715  0.0322  1.3556
 6924SOL     OW32230   4.527   0.211  13.161 -0.0116  0.3061  0.3497
 6924SOL    HW132231   4.480   0.173  13.235 -1.6310 -1.1212 -1.3971
 6924SOL    HW232232   4.573   0.285  13.201  2.0112 -1.2651  0.9637
 6925SOL     OW32233   1.135   1.960   7.799  0.0494 -0.7280 -0.2272
 6925SOL    HW132234   1.208   2.004   7.756  0.4358 -2.1654 -1.0486
 6925SOL    HW232235   1.064   1.978   7.736 -0.6878 -0.7754  0.5948
 6926SOL     OW32236   0.932   0.605   7.180  0.1144 -0.0718 -0.8085
 6926SOL    HW132237   0.998   0.669   7.204  2.3232 -2.6213 -0.1639
 6926SOL    HW232238   0.975   0.559   7.108  2.6871 -1.0245  1.3540
 6927SOL     OW32239   4.378   3.537   6.882 -0.1673  0.0121 -0.0719
 6927SOL    HW132240   4.424   3.500   6.806  1.6943  0.1511  0.9926
 6927SOL    HW232241   4.373   3.459   6.937  0.5616 -0.5193 -0.7533
 6928SOL     OW32242   1.942   3.817   5.953 -0.5240  0.3033  0.1583
 6928SOL    HW132243   1.943   3.785   6.043  1.9457 -0.0332  0.0128
 6928SOL    HW232244   2.026   3.787   5.920 -0.1469  1.8592 -0.3144
 6929SOL     OW32245   1.241   4.169  14.868 -0.2905 -0.2724 -0.5567
 6929SOL    HW132246   1.198   4.206  14.945 -2.5715 -3.4435 -0.2805
 6929SOL    HW232247   1.325   4.135  14.901  0.9688  1.7742 -1.6546
 6930SOL     OW32248   0.154   2.011   9.397  0.1329  0.4180  0.1335
 6930SOL    HW132249   0.193   1.924   9.409 -1.1897 -0.0791  0.7997
 6930SOL    HW232250   0.133   2.000   9.304 -0.3610  0.0295  0.2891
 6931SOL     OW32251   2.580   1.981   3.416  0.2580 -0.1017  0.0525
 6931SOL    HW132252   2.535   2.059   3.449  1.5432  0.1711  1.1177
 6931SOL    HW232253   2.645   1.984   3.486 -1.2024 -0.6873  1.4301
 6932SOL     OW32254   0.470   4.712  14.200 -0.0801 -0.6783  0.0890
 6932SOL    HW132255   0.481   4.723  14.294 -0.5972 -2.9224  0.4254
 6932SOL    HW232256   0.417   4.632  14.200 -0.0888 -0.6735 -0.2747
 6933SOL     OW32257   0.869   4.705   7.632  0.3201 -0.2790 -0.4214
 6933SOL    HW132258   0.819   0.044   7.680  0.9167 -0.0962 -0.0560
 6933SOL    HW232259   0.818   4.626   7.653  1.6118 -0.5856  1.5596
 6934SOL     OW32260   4.542   1.906   5.995  0.0945  0.6582  0.1118
 6934SOL    HW132261   4.564   1.869   6.080  2.4375 -0.5559 -1.0072
 6934SOL    HW232262   4.457   1.863   5.987  0.7778 -0.0017 -3.6009
 6935SOL     OW32263   2.837   4.119  11.853 -0.0048  0.3796 -0.1852
 6935SOL    HW132264   2.804   4.043  11.901 -1.4446  1.7510  0.9839
 6935SOL    HW232265   2.930   4.107  11.870  0.2313 -0.2153 -1.8501
 6936SOL     OW32266   2.174   0.638   6.106 -0.0638  0.0154 -0.3184
 6936SOL    HW132267   2.184   0.572   6.037  0.9417 -0.0571 -0.1081
 6936SOL    HW232268   2.080   0.654   6.111 -0.0580  0.2908 -1.0851
 6937SOL     OW32269   4.507   3.818   1.929  0.0398  0.2141 -0.5295
 6937SOL    HW132270   4.448   3.774   1.867  1.1791 -0.1323 -1.3619
 6937SOL    HW232271   4.527   3.904   1.892 -0.7234  0.0987 -1.2160
 6938SOL     OW32272   0.613   0.550   3.921  0.1197  0.4481 -0.1199
 6938SOL    HW132273   0.701   0.512   3.925 -0.6650 -0.9436  4.0304
 6938SOL    HW232274   0.588   0.555   4.013  0.7813 -0.1148  0.0951
 6939SOL     OW32275   4.271   0.600  11.909 -0.1048  0.3497 -0.1990
 6939SOL    HW132276   4.261   0.610  11.814  0.7152 -0.0179 -0.3233
 6939SOL    HW232277   4.181   0.573  11.928 -0.2754 -0.0610 -1.5956
 6940SOL     OW32278   0.387   4.196   8.724  0.2877 -0.1224 -0.7511
 6940SOL    HW132279   0.327   4.124   8.739 -1.2441  1.7301  2.0565
 6940SOL    HW232280   0.405   4.192   8.630 -0.0550 -1.0210 -0.7696
 6941SOL     OW32281   4.316   2.512   2.456 -0.8042 -0.6008 -0.3107
 6941SOL    HW132282   4.357   2.576   2.398  0.6491 -1.0187  0.2600
 6941SOL    HW232283   4.239   2.491   2.403 -0.1221 -0.5063 -1.3385
 6942SOL     OW32284   3.962   1.735   5.262  0.2527  0.0912  0.1215
 6942SOL    HW132285   3.870   1.761   5.252  0.4734  0.7366 -0.2343
 6942SOL    HW232286   3.967   1.732   5.357  0.0525 -0.9151  0.1032
 6943SOL     OW32287   2.036   3.813   2.302 -0.2490  0.5868  0.6909
 6943SOL    HW132288   1.978   3.888   2.289  0.9785  1.4730  0.3623
 6943SOL    HW232289   2.086   3.814   2.220 -2.1937  0.3787 -0.4901
 6944SOL     OW32290   4.024   0.667  15.145 -0.5077  0.3025 -0.2546
 6944SOL    HW132291   3.932   0.642  15.133 -0.6532  0.9140 -0.4174
 6944SOL    HW232292   4.065   0.597  15.196 -0.9280 -0.0277 -0.3633
 6945SOL     OW32293   2.823   1.929   6.515 -0.2723 -0.5477  0.4776
 6945SOL    HW132294   2.909   1.950   6.478 -0.2918  0.7822  1.2192
 6945SOL    HW232295   2.774   1.890   6.442 -0.2331  0.2071  0.0482
 6946SOL     OW32296   0.336   0.353   3.906  0.6686  0.1473 -0.4198
 6946SOL    HW132297   0.409   0.337   3.966  0.5108 -1.1451 -0.5768
 6946SOL    HW232298   0.314   0.261   3.891  0.7397 -0.0136  0.4832
 6947SOL     OW32299   2.320   3.202   1.934  0.5430 -0.0278  0.4172
 6947SOL    HW132300   2.413   3.221   1.943  0.1967  2.0976 -0.8061
 6947SOL    HW232301   2.272   3.271   1.980 -1.5800 -0.8348 -0.6083
 6948SOL     OW32302   0.576   4.593  10.833  0.1722  0.4863  0.1172
 6948SOL    HW132303   0.539   4.583  10.746  0.1632  1.7722 -0.0249
 6948SOL    HW232304   0.575   4.688  10.848  0.5525  0.5822 -0.4890
 6949SOL     OW32305   2.902   3.916  10.389  0.0864 -0.2897  0.0150
 6949SOL    HW132306   2.872   3.830  10.359  0.6071 -0.1983 -0.7594
 6949SOL    HW232307   2.934   3.880  10.472 -2.3095 -0.1283  1.0195
 6950SOL     OW32308   3.027   3.482  12.827 -0.2038  0.0905 -0.3734
 6950SOL    HW132309   2.933   3.487  12.808 -0.6709  0.3629  1.9700
 6950SOL    HW232310   3.024   3.448  12.916  0.2694 -0.7469 -0.6832
 6951SOL     OW32311   0.490   3.643   7.298  0.6398  0.5409  0.6048
 6951SOL    HW132312   0.475   3.595   7.379  1.0994  0.2062  0.4905
 6951SOL    HW232313   0.579   3.679   7.298  0.7021  0.4223 -1.0937
 6952SOL     OW32314   0.847   3.158  17.706  0.4061  0.0711  0.0615
 6952SOL    HW132315   0.802   3.075   0.014  0.3925 -0.0208 -0.4209
 6952SOL    HW232316   0.897   3.137  17.627  1.4354  0.0392  0.7304
 6953SOL     OW32317   1.624   4.028   6.563  0.4476 -0.2971 -0.2627
 6953SOL    HW132318   1.556   4.086   6.531  0.0654 -0.2419  0.6511
 6953SOL    HW232319   1.701   4.031   6.506  0.6757  1.0547  0.1203
 6954SOL     OW32320   1.566   2.620   6.825  0.3981  0.1121  0.0771
 6954SOL    HW132321   1.618   2.600   6.903 -0.4906  1.0866  0.9187
 6954SOL    HW232322   1.478   2.600   6.856 -0.2522 -0.2338 -2.0093
 6955SOL     OW32323   2.466   4.497   2.319  0.3590 -0.7003  0.0881
 6955SOL    HW132324   2.540   4.556   2.313  0.8873 -1.1252  2.4084
 6955SOL    HW232325   2.401   4.558   2.285  2.0699  0.3199 -1.3303
 6956SOL     OW32326   4.340   0.645  11.068 -0.6498  0.1526  0.1775
 6956SOL    HW132327   4.422   0.649  11.020  1.0232 -2.0875  2.8666
 6956SOL    HW232328   4.313   0.555  11.048 -0.2109  0.0257  0.1692
 6957SOL     OW32329   2.008   0.842  12.149  0.0676  0.4791  0.0187
 6957SOL    HW132330   2.086   0.865  12.099 -0.4458  1.7916 -0.1689
 6957SOL    HW232331   1.960   0.913  12.107 -0.3166 -0.2332 -0.7635
 6958SOL     OW32332   0.436   3.806  14.736 -0.6135  0.4997 -0.3167
 6958SOL    HW132333   0.457   3.889  14.779 -0.6205  1.6613 -2.5229
 6958SOL    HW232334   0.475   3.824  14.650  1.1368 -2.4198 -0.1051
 6959SOL     OW32335   3.186   0.534   1.966  0.1871  0.1150  0.5252
 6959SOL    HW132336   3.134   0.584   1.902  0.2503  0.0906  0.4547
 6959SOL    HW232337   3.193   0.448   1.924  1.0193 -0.1503  1.2224
 6960SOL     OW32338   4.171   3.587   2.459  0.0200  0.2991 -0.4250
 6960SOL    HW132339   4.079   3.608   2.475 -0.6367 -1.4251 -1.9902
 6960SOL    HW232340   4.191   3.621   2.371  0.6051  1.4828  0.1643
 6961SOL     OW32341   3.987   3.057   0.017 -0.5837 -0.1139 -0.4899
 6961SOL    HW132342   3.992   3.068   0.112  2.0354  0.0914 -0.6509
 6961SOL    HW232343   4.061   2.998  17.709  0.1502  0.1379  1.7783
 6962SOL     OW32344   1.710   4.209   2.705 -0.4654  0.2825 -0.3675
 6962SOL    HW132345   1.748   4.208   2.793 -0.4681 -0.3358 -0.3801
 6962SOL    HW232346   1.747   4.281   2.654  2.1151  0.2573  1.5105
 6963SOL     OW32347   0.147   0.659   8.025  0.0975 -0.6545  0.0476
 6963SOL    HW132348   0.132   0.649   7.931  0.6245 -1.9275  0.0985
 6963SOL    HW232349   0.122   0.748   8.048 -0.6321 -1.1467  1.1647
 6964SOL     OW32350   1.624   0.868   2.050 -0.4831  0.8698  0.1278
 6964SOL    HW132351   1.590   0.913   1.973  0.9749  1.4988 -0.1403
 6964SOL    HW232352   1.586   0.780   2.045 -1.0515  1.1209  0.0484
 6965SOL     OW32353   0.269   3.948   4.903  0.1607 -0.4777  0.2922
 6965SOL    HW132354   0.304   3.928   4.816 -0.8493 -0.5067 -0.1127
 6965SOL    HW232355   0.218   3.869   4.920 -0.4444 -0.4437 -1.3315
 6966SOL     OW32356   1.482   3.044   6.232 -0.6316 -0.9153 -0.1748
 6966SOL    HW132357   1.567   3.001   6.225 -1.0247 -1.6201 -0.7122
 6966SOL    HW232358   1.502   3.137   6.227 -0.1982 -0.9461  1.1216
 6967SOL     OW32359   1.416   2.379   0.562 -0.6432  0.4263  0.6518
 6967SOL    HW132360   1.356   2.351   0.631 -0.2797  0.2823  0.9109
 6967SOL    HW232361   1.450   2.462   0.596 -0.0484  0.2023  0.6023
 6968SOL     OW32362   1.041   0.299   4.962  0.5227 -0.1977  0.2199
 6968SOL    HW132363   1.065   0.357   5.034 -0.3476 -0.2471  0.5601
 6968SOL    HW232364   1.078   0.215   4.989  3.3977  0.4328 -1.8004
 6969SOL     OW32365   2.763   0.656   0.101 -0.1436  0.3779 -0.4055
 6969SOL    HW132366   2.796   0.570   0.127  1.5011  0.7737 -1.2426
 6969SOL    HW232367   2.780   0.653   0.007 -0.8024  3.3539 -0.6159
 6970SOL     OW32368   4.289   0.101   7.940 -0.7534  0.4811 -0.2277
 6970SOL    HW132369   4.360   0.117   7.879 -1.1772  2.9954 -0.0742
 6970SOL    HW232370   4.236   0.042   7.886 -0.3655 -0.2273  0.1591
 6971SOL     OW32371   3.831   3.218  17.199 -0.0334  0.5598 -0.9300
 6971SOL    HW132372   3.893   3.212  17.127 -0.7045 -2.6843 -1.2647
 6971SOL    HW232373   3.750   3.201  17.150 -0.7210 -2.6584  1.3162
 6972SOL     OW32374   2.721   3.567   2.144  0.1860 -0.3201 -0.0419
 6972SOL    HW132375   2.704   3.571   2.050  1.2802  2.5491 -0.1478
 6972SOL    HW232376   2.666   3.494   2.170  0.6902 -0.6940 -0.0177
 6973SOL     OW32377   1.934   0.020  12.490 -0.4521 -0.4350 -0.0027
 6973SOL    HW132378   1.992   0.096  12.482 -1.4476 -0.0566 -3.2851
 6973SOL    HW232379   1.882   0.020  12.410  0.1698  2.1678 -0.3992
 6974SOL     OW32380   3.536   1.788  10.390  0.2433  0.4527  0.0401
 6974SOL    HW132381   3.564   1.880  10.386 -1.3613  0.8731 -1.3123
 6974SOL    HW232382   3.591   1.762  10.464  0.2855 -1.5709 -0.7050
 6975SOL     OW32383   2.916   0.930   2.998  0.5089 -0.2629  0.0453
 6975SOL    HW132384   2.909   0.841   2.963 -0.5639  0.0339 -0.5025
 6975SOL    HW232385   2.842   0.979   2.961  0.5387  0.5934  1.1035
 6976SOL     OW32386   0.206   3.777  16.604  0.2497 -0.1598  0.0491
 6976SOL    HW132387   0.279   3.821  16.647 -0.5790  2.0186 -0.7708
 6976SOL    HW232388   0.253   3.705  16.563  1.2464  0.3658  0.2843
 6977SOL     OW32389   3.252   3.665   5.695  0.3163  0.3954  0.1675
 6977SOL    HW132390   3.346   3.651   5.705  0.3792  0.5195 -0.2655
 6977SOL    HW232391   3.239   3.752   5.733  0.8537  0.8801 -0.7482
 6978SOL     OW32392   4.238   1.034   6.692  0.3913  0.4340  0.4713
 6978SOL    HW132393   4.233   1.060   6.600 -1.3554 -2.2417 -0.1847
 6978SOL    HW232394   4.148   1.035   6.723  0.1330  0.3992 -0.2782
 6979SOL     OW32395   3.224   4.430   5.640 -0.1236  0.0126 -0.0023
 6979SOL    HW132396   3.166   4.372   5.689  2.0157 -0.8160  1.5168
 6979SOL    HW232397   3.310   4.389   5.642  1.0707  2.3234 -2.7191
 6980SOL     OW32398   1.753   3.395  11.816 -0.4056 -0.1361 -0.4907
 6980SOL    HW132399   1.705   3.465  11.859 -2.0973 -1.3142 -0.4845
 6980SOL    HW232400   1.836   3.439  11.796 -0.8024  0.0532 -1.7095
 6981SOL     OW32401   3.079   3.233   5.348  0.3681  0.9005 -0.1376
 6981SOL    HW132402   3.158   3.180   5.341 -1.0078 -1.2129  0.4621
 6981SOL    HW232403   3.108   3.321   5.322 -1.2108  1.2061 -0.8480
 6982SOL     OW32404   1.790   0.703   1.650  0.4178 -0.0725  0.1184
 6982SOL    HW132405   1.700   0.676   1.635  0.6567 -0.7282 -0.1065
 6982SOL    HW232406   1.830   0.677   1.567  1.4613 -1.3141  1.0089
 6983SOL     OW32407   0.645   1.745  16.608 -0.3893 -0.0170  0.3508
 6983SOL    HW132408   0.710   1.766  16.541 -0.2484 -1.3645  0.0525
 6983SOL    HW232409   0.667   1.797  16.684 -1.3124  0.2557  0.4297
 6984SOL     OW32410   1.792   1.133   4.795 -0.3781 -0.4054 -0.0545
 6984SOL    HW132411   1.760   1.110   4.882 -1.8773 -1.1200 -0.8065
 6984SOL    HW232412   1.884   1.105   4.794 -0.6203 -1.2417  1.1758
 6985SOL     OW32413   2.135   4.147   8.326 -0.1733 -0.2423  0.6037
 6985SOL    HW132414   2.217   4.101   8.305 -0.3058 -0.5741  0.8268
 6985SOL    HW232415   2.138   4.137   8.421 -1.8561  0.7668  0.7531
 6986SOL     OW32416   2.322   2.288   3.074 -0.3723 -0.1080 -0.0516
 6986SOL    HW132417   2.252   2.223   3.062  1.4113 -2.2098  0.8334
 6986SOL    HW232418   2.399   2.237   3.047 -0.8337 -0.3786 -0.8568
 6987SOL     OW32419   2.855   4.089  12.153  0.2879 -0.2118 -0.3089
 6987SOL    HW132420   2.931   4.052  12.109  1.2738  3.3432 -1.5771
 6987SOL    HW232421   2.859   4.185  12.154 -0.8252 -0.1839  1.0681
 6988SOL     OW32422   0.478   2.791   1.510 -0.0404 -0.0348  0.5134
 6988SOL    HW132423   0.552   2.806   1.451 -0.2287  0.3269  0.3660
 6988SOL    HW232424   0.516   2.806   1.596  2.0042 -1.6371 -0.1392
 6989SOL     OW32425   3.076   3.240   9.782 -0.2010 -0.3321 -0.2671
 6989SOL    HW132426   3.146   3.242   9.848  1.1121  1.4623 -1.7231
 6989SOL    HW232427   3.017   3.314   9.799  0.7429  0.4543 -0.4240
 6990SOL     OW32428   0.513   2.183   4.046 -0.2367  0.8879 -0.3166
 6990SOL    HW132429   0.535   2.254   4.106  1.5564  1.5422 -1.7674
 6990SOL    HW232430   0.597   2.140   4.032 -0.3179  1.5487 -2.8266
 6991SOL     OW32431   2.131   3.945   8.559  0.0656 -0.5029 -0.0065
 6991SOL    HW132432   2.154   3.861   8.599  0.2801 -0.0268  0.8752
 6991SOL    HW232433   2.051   3.964   8.608 -1.2236 -1.4972 -1.7478
 6992SOL     OW32434   3.893   2.660   6.277 -0.1569  0.1083  0.5203
 6992SOL    HW132435   3.891   2.577   6.325 -1.7022  1.0708  2.0881
 6992SOL    HW232436   3.950   2.715   6.331 -2.5250  0.5650  2.5569
 6993SOL     OW32437   3.323   3.158   1.400  0.2984  0.0625  0.0368
 6993SOL    HW132438   3.329   3.172   1.494 -0.7091  1.5426 -0.1128
 6993SOL    HW232439   3.230   3.136   1.393  0.4715 -0.6054 -0.1866
 6994SOL     OW32440   2.571   2.222   3.929 -0.1774  0.1984 -0.3513
 6994SOL    HW132441   2.479   2.246   3.940 -0.6170 -0.3809 -2.8020
 6994SOL    HW232442   2.591   2.174   4.010 -1.8067 -0.3934 -0.2938
 6995SOL     OW32443   4.016   3.193  12.112 -0.2905 -0.0848  0.4446
 6995SOL    HW132444   4.109   3.211  12.096 -0.8143  0.8296 -1.6152
 6995SOL    HW232445   3.980   3.240  12.186 -0.5034  0.0485  0.2570
 6996SOL     OW32446   0.081   2.887  15.383 -0.2447  0.2858 -0.0077
 6996SOL    HW132447   0.137   2.823  15.339  0.3722  0.5706  0.3721
 6996SOL    HW232448   4.723   2.861  15.347 -0.5296  1.3195 -0.0650
 6997SOL     OW32449   0.516   0.643   9.060 -0.3047 -0.9439  0.6520
 6997SOL    HW132450   0.586   0.638   9.124  1.5225  0.6534 -1.2213
 6997SOL    HW232451   0.513   0.550   9.037  0.6405 -0.8726  0.2277
 6998SOL     OW32452   4.118   1.928   0.501  0.0140 -0.2328 -0.1036
 6998SOL    HW132453   4.163   1.994   0.553  1.9225  0.1434 -2.2499
 6998SOL    HW232454   4.031   1.916   0.540 -0.2505  1.6245 -0.1316
 6999SOL     OW32455   4.723   3.605   3.098  0.0352 -0.0788  0.3255
 6999SOL    HW132456   4.719   3.520   3.054 -1.0751  0.6151 -0.9384
 6999SOL    HW232457   4.709   3.660   3.021  2.9773  0.5190  0.2162
 7000SOL     OW32458   1.172   4.230   3.382 -0.0572  0.0296 -0.2603
 7000SOL    HW132459   1.199   4.182   3.459 -0.8752  1.5697  0.9874
 7000SOL    HW232460   1.205   4.169   3.316 -1.3591 -0.7034 -0.2315
 7001SOL     OW32461   3.730   2.355   7.861  1.1100  0.6312 -0.0018
 7001SOL    HW132462   3.679   2.290   7.910  1.5410  0.4784  0.2439
 7001SOL    HW232463   3.654   2.401   7.826  0.8321  0.6583  0.6326
 7002SOL     OW32464   3.001   1.690   4.419  0.2989 -0.2978 -0.0832
 7002SOL    HW132465   2.914   1.650   4.420 -0.2782  1.0062  2.1879
 7002SOL    HW232466   3.010   1.728   4.331  0.6337 -0.0389  0.0622
 7003SOL     OW32467   0.950   3.697  11.666 -0.3971  0.4845  0.2938
 7003SOL    HW132468   0.901   3.626  11.624  0.5326 -0.0792  0.1638
 7003SOL    HW232469   0.955   3.668  11.757  0.2583  0.0196  0.1053
 7004SOL     OW32470   1.577   0.890  17.375 -0.7062  0.5338 -0.0230
 7004SOL    HW132471   1.642   0.951  17.409 -2.2162  0.0421  3.7463
 7004SOL    HW232472   1.557   0.840  17.454 -1.9925  1.2442  0.1017
 7005SOL     OW32473   3.710   1.587   8.124  0.0592 -0.2561  0.0102
 7005SOL    HW132474   3.762   1.564   8.200  0.8527  1.6199  0.0509
 7005SOL    HW232475   3.629   1.630   8.153  0.1832  0.1904 -0.2889
 7006SOL     OW32476   2.729   4.001   5.435 -0.2372  0.0204 -0.7185
 7006SOL    HW132477   2.659   3.998   5.502 -0.2239 -2.0634 -0.7863
 7006SOL    HW232478   2.807   4.010   5.490 -0.1873 -0.1560 -0.7619
 7007SOL     OW32479   2.460   2.764   1.963 -0.3182  0.0040 -0.3273
 7007SOL    HW132480   2.382   2.717   1.932 -0.6107  0.1508  0.1983
 7007SOL    HW232481   2.466   2.839   1.904 -1.8575 -0.2838 -0.8609
 7008SOL     OW32482   1.736   1.460   7.579 -0.4587  0.5202 -0.5126
 7008SOL    HW132483   1.771   1.546   7.555  0.7281 -0.2080 -1.4260
 7008SOL    HW232484   1.806   1.430   7.638  2.2580  2.3081 -2.8019
 7009SOL     OW32485   4.491   0.571  17.627  0.5633  0.0972  0.2109
 7009SOL    HW132486   4.503   0.666  17.626 -0.3987  0.2257  0.3109
 7009SOL    HW232487   4.510   0.549  17.536 -1.7077 -0.7005 -0.0769
 7010SOL     OW32488   2.908   2.986  15.634  0.7874 -0.4844  0.1701
 7010SOL    HW132489   2.860   3.051  15.584  0.2577  0.4565  1.9147
 7010SOL    HW232490   2.844   2.915  15.636 -1.1984  1.3396  1.7832
 7011SOL     OW32491   1.714   3.155  11.896  0.5055  0.5762  0.1990
 7011SOL    HW132492   1.716   3.248  11.872 -1.2473  1.4547  3.4132
 7011SOL    HW232493   1.681   3.181  11.983  1.0373  0.9256  0.2988
 7012SOL     OW32494   0.044   2.966  12.701 -0.3630 -0.0359 -0.2445
 7012SOL    HW132495   0.033   2.931  12.613 -0.3017  3.0421 -1.5007
 7012SOL    HW232496   0.135   2.996  12.703  0.1525 -1.7980  1.8834
 7013SOL     OW32497   0.434   4.306   0.024  0.7669 -0.2814 -0.2399
 7013SOL    HW132498   0.370   4.272   0.087  0.1765 -1.0142 -1.2285
 7013SOL    HW232499   0.489   4.227   0.017 -1.8212 -1.9637 -1.8406
 7014SOL     OW32500   3.468   0.864   1.605  0.1796  0.1364  0.7086
 7014SOL    HW132501   3.509   0.818   1.678 -0.1853 -1.3618 -0.0413
 7014SOL    HW232502   3.377   0.843   1.623  0.1763 -1.3282 -1.0606
 7015SOL     OW32503   1.756   1.128   7.841  0.3014 -0.5385 -0.0105
 7015SOL    HW132504   1.738   1.036   7.858  2.8974 -1.3766 -1.8048
 7015SOL    HW232505   1.840   1.136   7.888 -0.3344  2.1820  0.6730
 7016SOL     OW32506   0.425   0.715   4.869  0.0160 -0.1432 -0.4740
 7016SOL    HW132507   0.414   0.789   4.809 -1.8666 -0.0894 -0.0613
 7016SOL    HW232508   0.520   0.708   4.882 -0.2161 -1.4636  0.4932
 7017SOL     OW32509   0.350   3.920  14.247  0.4977  0.3260  0.0817
 7017SOL    HW132510   0.414   3.850  14.259  2.1561  1.4737 -2.1348
 7017SOL    HW232511   0.286   3.896  14.314 -1.9785  0.3028 -2.2786
 7018SOL     OW32512   3.737   4.268   4.974  0.2467  0.6416  0.4595
 7018SOL    HW132513   3.773   4.240   5.058 -1.7596 -1.0858  0.7337
 7018SOL    HW232514   3.647   4.292   4.996  0.6185  0.9774  1.5995
 7019SOL     OW32515   2.420   2.127  13.928  0.0904  0.4231  0.0141
 7019SOL    HW132516   2.402   2.088  14.013  0.0903 -1.7777 -1.0094
 7019SOL    HW232517   2.396   2.218  13.946  0.8224  0.4697  0.7775
 7020SOL     OW32518   1.840   0.869   8.645  0.1316 -0.5261 -0.3361
 7020SOL    HW132519   1.783   0.804   8.603  0.2823 -2.4353  2.4925
 7020SOL    HW232520   1.840   0.841   8.736 -0.2850  2.2631  0.5488
 7021SOL     OW32521   0.192   2.654  15.329  0.0425 -0.5948 -0.0573
 7021SOL    HW132522   0.234   2.578  15.368  0.5459  0.4444  1.4672
 7021SOL    HW232523   0.103   2.625  15.345  0.2849 -3.0349 -3.2603
 7022SOL     OW32524   3.221   0.521   7.505 -0.3875  0.1203  0.0580
 7022SOL    HW132525   3.140   0.566   7.482  1.1040  3.4108  1.2178
 7022SOL    HW232526   3.222   0.436   7.462 -1.1073  0.1946 -0.1063
 7023SOL     OW32527   3.384   4.604   8.477 -0.3443  0.2225 -0.4433
 7023SOL    HW132528   3.329   4.638   8.407 -0.4200  1.6173  0.2763
 7023SOL    HW232529   3.378   4.511   8.459  0.2780 -0.7263  4.1279
 7024SOL     OW32530   2.769   0.615   9.587 -0.1961  0.0768  0.3540
 7024SOL    HW132531   2.676   0.617   9.567 -0.6587  0.5344  2.5716
 7024SOL    HW232532   2.798   0.579   9.503  2.0778  0.7337  0.8673
 7025SOL     OW32533   1.957   1.716   2.620  0.2257 -0.0933  0.0227
 7025SOL    HW132534   2.039   1.696   2.665 -0.8399  0.1503  2.0418
 7025SOL    HW232535   1.958   1.665   2.539 -0.9418 -1.8341  1.1244
 7026SOL     OW32536   2.983   4.245   8.815  0.1337 -0.2608 -0.2747
 7026SOL    HW132537   3.038   4.294   8.755 -0.2187 -0.5395 -0.8221
 7026SOL    HW232538   2.898   4.248   8.770 -1.2680 -0.7727  2.2946
 7027SOL     OW32539   3.785   2.292   5.963 -0.3786 -0.2547 -0.4243
 7027SOL    HW132540   3.774   2.383   5.990  0.3489  0.2317 -1.7338
 7027SOL    HW232541   3.735   2.290   5.882 -0.0614 -2.8845 -0.5667
 7028SOL     OW32542   0.513   0.974  16.918  0.0946  0.4261 -0.2283
 7028SOL    HW132543   0.429   0.995  16.877 -0.5833 -0.7964  0.5285
 7028SOL    HW232544   0.541   0.902  16.861  1.1823  0.1212  0.6941
 7029SOL     OW32545   2.343   3.124   1.528  0.4250  0.4749 -0.5041
 7029SOL    HW132546   2.402   3.199   1.530  0.8934  0.1335 -1.3044
 7029SOL    HW232547   2.280   3.161   1.589  0.1678  1.0232 -1.1052
 7030SOL     OW32548   4.541   4.311   1.737  0.0676 -0.2419 -0.1287
 7030SOL    HW132549   4.558   4.403   1.719  0.1374 -0.3843 -0.7759
 7030SOL    HW232550   4.629   4.276   1.752 -0.1568 -0.7890 -0.0788
 7031SOL     OW32551   2.427   3.603   3.091 -0.2014 -0.2556  0.4033
 7031SOL    HW132552   2.396   3.553   3.015  0.2506 -0.8624  0.6158
 7031SOL    HW232553   2.348   3.613   3.145 -0.8887  1.4965 -0.9223
 7032SOL     OW32554   1.758   2.760   3.359 -0.0182  0.1715 -0.2809
 7032SOL    HW132555   1.673   2.769   3.404 -0.1637 -0.2247 -0.4794
 7032SOL    HW232556   1.731   2.777   3.268 -0.8977 -1.5163 -0.3352
 7033SOL     OW32557   0.422   4.303   5.441  0.1859  0.1726 -0.1063
 7033SOL    HW132558   0.354   4.371   5.445 -0.9266 -0.9635  0.3824
 7033SOL    HW232559   0.414   4.275   5.532 -0.3941 -0.7740 -0.4454
 7034SOL     OW32560   3.316   4.542   7.695  0.4106 -0.0275  0.6472
 7034SOL    HW132561   3.380   4.472   7.711 -0.1616 -0.6946 -0.0033
 7034SOL    HW232562   3.249   4.524   7.761  1.0361 -1.6845  0.8393
 7035SOL     OW32563   2.551   0.231   3.812 -0.0960 -0.5733 -0.2387
 7035SOL    HW132564   2.583   0.249   3.901 -0.1470  0.5222 -0.4418
 7035SOL    HW232565   2.633   0.250   3.768  0.4835  0.1764  1.1619
 7036SOL     OW32566   2.549   2.863   5.685 -0.1699  0.0035 -0.2233
 7036SOL    HW132567   2.613   2.916   5.638  0.6985 -1.3557 -0.5758
 7036SOL    HW232568   2.543   2.902   5.772  3.6521  0.4555 -0.1910
 7037SOL     OW32569   3.837   0.276   5.660 -0.4157  0.0731  0.6042
 7037SOL    HW132570   3.882   0.295   5.743 -0.8103 -0.4933  0.9439
 7037SOL    HW232571   3.786   0.357   5.651 -0.9497 -0.0243  2.7782
 7038SOL     OW32572   0.256   2.587   8.797 -0.0398  0.2370  0.0060
 7038SOL    HW132573   0.332   2.592   8.855  0.0397 -1.2780  0.0379
 7038SOL    HW232574   0.220   2.675   8.803  0.3216  0.3425  0.6684
 7039SOL     OW32575   2.684   0.591  15.921 -0.3210  0.1958 -0.2951
 7039SOL    HW132576   2.627   0.665  15.942  1.9118  1.5999  0.8365
 7039SOL    HW232577   2.634   0.522  15.966 -0.6498  0.2375 -0.5955
 7040SOL     OW32578   3.630   3.631   6.008  0.1228 -0.2973 -0.0323
 7040SOL    HW132579   3.718   3.637   5.970  0.5641 -1.2914  0.8250
 7040SOL    HW232580   3.631   3.709   6.063  2.5558 -0.2241 -0.1883
 7041SOL     OW32581   1.972   2.528   3.059  0.8451 -0.1836  0.2541
 7041SOL    HW132582   2.016   2.476   2.992  0.2374 -1.1987  0.6549
 7041SOL    HW232583   1.881   2.504   3.043  0.7827  0.6486 -0.7094
 7042SOL     OW32584   1.937   1.306   5.321 -0.2380  0.5771 -0.8178
 7042SOL    HW132585   1.850   1.312   5.282 -0.4302 -0.6090 -0.5792
 7042SOL    HW232586   1.965   1.397   5.319  0.8739  0.2384 -0.2451
 7043SOL     OW32587   2.898   2.113   7.392  0.4520  0.4699 -0.1536
 7043SOL    HW132588   2.960   2.139   7.461 -1.6042 -0.0967  1.8981
 7043SOL    HW232589   2.950   2.061   7.331  0.4448  2.6811 -2.0341
 7044SOL     OW32590   4.439   1.829   6.357  0.5182 -0.1390 -0.0163
 7044SOL    HW132591   4.400   1.867   6.436 -0.3018  1.0987 -1.0214
 7044SOL    HW232592   4.373   1.761   6.342 -0.6387  1.6687 -3.1299
 7045SOL     OW32593   0.203   1.884   6.676  0.0703  0.0879  0.3006
 7045SOL    HW132594   0.161   1.817   6.623  0.9922  0.7399 -1.2692
 7045SOL    HW232595   0.295   1.880   6.649 -0.4363 -1.2356 -1.1329
 7046SOL     OW32596   2.471   1.385   9.235 -0.1750 -0.3178 -0.1172
 7046SOL    HW132597   2.457   1.438   9.314 -2.9506 -1.5208  0.2042
 7046SOL    HW232598   2.524   1.313   9.270  0.9026  0.4939 -0.1116
 7047SOL     OW32599   0.339   3.307  17.166 -0.6344  0.3161 -0.2969
 7047SOL    HW132600   0.417   3.291  17.218 -1.6194 -3.2975  0.0275
 7047SOL    HW232601   0.276   3.318  17.237  0.0498  0.7162  0.2390
 7048SOL     OW32602   3.947   3.044   6.328  0.3992 -0.0802 -0.6723
 7048SOL    HW132603   4.034   3.006   6.342  0.2220  0.2575  1.2843
 7048SOL    HW232604   3.889   2.994   6.385  0.4348 -0.5843 -1.0800
 7049SOL     OW32605   0.930   1.361   8.536 -0.0019 -0.3715  0.4475
 7049SOL    HW132606   0.923   1.317   8.451 -0.2540  0.2163  0.1607
 7049SOL    HW232607   0.838   1.356   8.564 -0.3769 -2.5147 -1.1362
 7050SOL     OW32608   0.730   0.967   9.310 -0.0420 -0.3732  0.0959
 7050SOL    HW132609   0.806   1.008   9.352  0.5636 -0.6862 -0.6791
 7050SOL    HW232610   0.658   0.999   9.364 -1.4176 -0.3270 -1.7904
 7051SOL     OW32611   3.080   2.808   6.393  0.2019  0.1300 -0.4371
 7051SOL    HW132612   3.116   2.809   6.482 -2.1527 -2.2581  0.5366
 7051SOL    HW232613   3.157   2.838   6.344  0.7804 -0.5078  0.0698
 7052SOL     OW32614   4.574   1.612   2.717 -0.5811 -0.1971  0.1581
 7052SOL    HW132615   4.576   1.707   2.701 -0.1080 -0.1466  0.5379
 7052SOL    HW232616   4.669   1.606   2.707 -0.9525 -1.8203 -2.4730
 7053SOL     OW32617   1.180   3.550   7.740  0.3885  0.0957 -0.4749
 7053SOL    HW132618   1.148   3.466   7.772 -0.8615  0.3451 -1.0306
 7053SOL    HW232619   1.243   3.509   7.681  2.8778  0.1929  2.1640
 7054SOL     OW32620   1.363   1.317   2.420 -0.3181  0.4313  0.4844
 7054SOL    HW132621   1.341   1.370   2.343 -1.8739  0.2739  0.8193
 7054SOL    HW232622   1.435   1.275   2.373 -0.4967 -1.0732  1.5586
 7055SOL     OW32623   1.210   2.724   5.644  0.1274  1.1579  0.1723
 7055SOL    HW132624   1.300   2.744   5.618  0.6491  0.2459  1.2800
 7055SOL    HW232625   1.217   2.680   5.729  0.9312 -2.0606 -1.5659
 7056SOL     OW32626   3.947   0.355   5.918  0.1359  0.0860  0.7262
 7056SOL    HW132627   4.040   0.372   5.903 -0.1980 -0.8270 -2.3924
 7056SOL    HW232628   3.930   0.370   6.011 -1.7968 -1.8719  0.6965
 7057SOL     OW32629   2.766   2.828  14.211 -0.4906 -0.3856  0.8574
 7057SOL    HW132630   2.725   2.896  14.264 -1.2423 -1.3657  1.5391
 7057SOL    HW232631   2.859   2.835  14.233 -0.4367 -0.4609  0.6590
 7058SOL     OW32632   1.007   3.905   6.870 -0.2395  0.2182  0.4419
 7058SOL    HW132633   1.065   3.954   6.928  0.8897  0.7426 -1.1178
 7058SOL    HW232634   1.056   3.828   6.838  1.3426  1.5439 -0.3507
 7059SOL     OW32635   1.454   0.745   3.631 -0.2235 -0.0547  0.2634
 7059SOL    HW132636   1.461   0.659   3.590  2.3507 -1.0548  2.7825
 7059SOL    HW232637   1.549   0.757   3.628 -0.1519 -0.4979  0.7210
 7060SOL     OW32638   4.562   2.700   7.648 -0.1717  0.0045 -0.2801
 7060SOL    HW132639   4.521   2.709   7.734 -0.4916 -1.9668 -0.2175
 7060SOL    HW232640   4.643   2.748   7.664 -0.3230  0.1700 -0.0099
 7061SOL     OW32641   3.853   1.646   0.681  0.2123  0.6514  0.6776
 7061SOL    HW132642   3.771   1.643   0.632  0.4956 -0.4525  0.2701
 7061SOL    HW232643   3.914   1.602   0.622 -1.6129 -0.5203 -0.3319
 7062SOL     OW32644   1.388   0.466   7.363  0.5521  0.3638 -0.4188
 7062SOL    HW132645   1.460   0.511   7.319  2.9646 -0.5169  2.5349
 7062SOL    HW232646   1.330   0.435   7.294 -1.3704  0.0925  1.3027
 7063SOL     OW32647   0.871   4.354  13.463 -0.0726  0.4420  0.1774
 7063SOL    HW132648   0.946   4.372  13.520 -0.7481  1.7763  0.6322
 7063SOL    HW232649   0.898   4.378  13.374 -0.3172 -0.5527 -0.1626
 7064SOL     OW32650   1.305   1.840   3.709 -0.3550  0.1712 -0.0132
 7064SOL    HW132651   1.253   1.869   3.635  1.0877 -1.0807 -1.5255
 7064SOL    HW232652   1.256   1.769   3.750 -0.7539  1.0775  1.0807
 7065SOL     OW32653   0.267   4.355  16.939  0.3537 -0.2373  0.1792
 7065SOL    HW132654   0.305   4.298  17.006  0.3392  0.2814  0.6257
 7065SOL    HW232655   0.262   4.295  16.865 -0.7688 -0.3250  0.3281
 7066SOL     OW32656   1.390   3.407   8.278 -0.4206 -0.2379  0.2783
 7066SOL    HW132657   1.450   3.406   8.204  0.6075  1.7408  1.0854
 7066SOL    HW232658   1.405   3.497   8.307  1.2381 -0.7057  0.8776
 7067SOL     OW32659   1.078   2.613   3.809 -0.0612 -0.4132 -0.5973
 7067SOL    HW132660   1.008   2.630   3.873  0.3913 -2.4021  0.4259
 7067SOL    HW232661   1.071   2.686   3.747  1.0578 -0.5111 -0.8287
 7068SOL     OW32662   0.833   3.460   2.462  0.5783 -0.0630 -0.1959
 7068SOL    HW132663   0.832   3.367   2.482 -0.2164  0.2947  1.4603
 7068SOL    HW232664   0.786   3.500   2.535 -1.6454 -1.7259 -0.7124
 7069SOL     OW32665   1.079   4.630   4.580  0.0820  0.4796 -0.0779
 7069SOL    HW132666   1.028   4.702   4.617  0.3124 -0.3835  1.9402
 7069SOL    HW232667   1.147   4.621   4.647  0.2933  0.9218 -0.2396
 7070SOL     OW32668   2.512   2.697  15.049  0.5836 -0.3821  0.1418
 7070SOL    HW132669   2.428   2.740  15.068  1.1573  2.0552 -2.8691
 7070SOL    HW232670   2.544   2.676  15.137  0.9951 -2.9441 -0.6137
 7071SOL     OW32671   0.184   2.020   7.090 -0.1766 -0.4426  0.1766
 7071SOL    HW132672   0.278   2.001   7.085 -0.0324 -0.0016  1.0937
 7071SOL    HW232673   0.153   2.064   7.012 -0.0534  1.9150  1.4668
 7072SOL     OW32674   0.459   4.465   9.164  0.4837  0.0583 -0.1804
 7072SOL    HW132675   0.551   4.463   9.192  1.2635 -0.3644 -2.6944
 7072SOL    HW232676   0.458   4.373   9.137  0.8823 -0.3681  1.2583
 7073SOL     OW32677   2.001   2.828   6.287  0.4049 -0.3053  0.5387
 7073SOL    HW132678   2.053   2.758   6.325 -0.4553  0.1521  2.5526
 7073SOL    HW232679   1.963   2.861   6.368  0.5408 -1.8997  1.2420
 7074SOL     OW32680   4.566   3.542  13.231 -0.2588 -0.3032 -0.0497
 7074SOL    HW132681   4.521   3.544  13.315  1.2984 -0.3833  0.7671
 7074SOL    HW232682   4.653   3.567  13.261 -0.5768  0.3250  0.3630
 7075SOL     OW32683   4.367   4.031  14.270 -0.0189 -0.4163  0.2060
 7075SOL    HW132684   4.391   4.055  14.359 -3.5073 -3.1173  1.8323
 7075SOL    HW232685   4.272   4.034  14.263  0.2155  1.2582 -2.5934
 7076SOL     OW32686   1.469   1.789   0.995  0.7315 -0.0474  0.1996
 7076SOL    HW132687   1.560   1.764   1.011  0.8074 -0.4672 -0.8559
 7076SOL    HW232688   1.468   1.819   0.904  0.2152  1.3820  0.6858
 7077SOL     OW32689   0.406   2.445  15.820  0.0155 -0.5149  0.4537
 7077SOL    HW132690   0.430   2.515  15.881 -0.1337 -0.5469  0.5485
 7077SOL    HW232691   0.409   2.490  15.736 -3.0850 -0.0163  0.6139
 7078SOL     OW32692   3.280   2.452   7.728 -0.0503  0.5084  0.1664
 7078SOL    HW132693   3.219   2.525   7.714 -0.3913  0.1189 -0.3622
 7078SOL    HW232694   3.321   2.480   7.810  2.0836 -0.6633 -0.5227
 7079SOL     OW32695   2.307   1.896   5.919  0.3367  0.3474  0.1540
 7079SOL    HW132696   2.244   1.883   5.849  1.4786  1.6950 -1.1356
 7079SOL    HW232697   2.333   1.984   5.892  0.0093  1.1290  2.4247
 7080SOL     OW32698   0.597   3.172   8.954  0.0606 -0.0184  0.1910
 7080SOL    HW132699   0.528   3.118   8.992  0.3065 -0.8951 -0.5971
 7080SOL    HW232700   0.662   3.167   9.024 -0.4388  0.3234  0.6757
 7081SOL     OW32701   2.905   0.382   9.814  0.2182  0.2059 -0.2252
 7081SOL    HW132702   2.897   0.315   9.882 -1.1784  0.5393 -0.0568
 7081SOL    HW232703   2.883   0.328   9.739  1.2695 -3.0781  1.8471
 7082SOL     OW32704   2.618   4.189   5.247  0.2494  0.4609  0.1686
 7082SOL    HW132705   2.653   4.157   5.163 -0.9781  0.4454 -0.3314
 7082SOL    HW232706   2.651   4.117   5.301 -2.0769 -1.0294 -0.4300
 7083SOL     OW32707   1.062   3.634   9.213  0.1250  0.7562 -0.7165
 7083SOL    HW132708   1.101   3.620   9.127 -0.0968 -2.6205 -0.2534
 7083SOL    HW232709   1.111   3.580   9.275  1.9220  0.8370 -2.0753
 7084SOL     OW32710   1.705   4.643   5.626 -0.0147  0.1612  0.0165
 7084SOL    HW132711   1.711   4.685   5.540 -0.3432  0.0938 -0.0388
 7084SOL    HW232712   1.655   4.565   5.604 -1.0970  0.8499  0.0350
 7085SOL     OW32713   2.106   0.717   7.283 -0.6014  0.0105 -0.3203
 7085SOL    HW132714   2.104   0.713   7.188 -0.7174  1.2195 -0.3615
 7085SOL    HW232715   2.122   0.629   7.318  0.1973  0.5274  0.6197
 7086SOL     OW32716   0.444   0.446   3.003  0.6589  0.0924 -0.5726
 7086SOL    HW132717   0.539   0.456   3.003  0.5380  1.2685  0.1772
 7086SOL    HW232718   0.422   0.537   3.023  1.2036  0.0639  0.1590
 7087SOL     OW32719   1.464   1.943   4.145 -0.0412 -0.6621  0.0864
 7087SOL    HW132720   1.469   1.859   4.097  0.1956 -0.0964 -0.8908
 7087SOL    HW232721   1.370   1.959   4.142  0.0373 -0.1211  0.8247
 7088SOL     OW32722   1.144   0.419  13.277 -0.1125  0.0506 -0.0013
 7088SOL    HW132723   1.163   0.483  13.346  0.3418 -0.7279  0.5948
 7088SOL    HW232724   1.061   0.395  13.318 -0.3130 -0.4365 -0.6936
 7089SOL     OW32725   2.821   3.244   3.978  0.2057 -0.3260 -0.5904
 7089SOL    HW132726   2.866   3.300   3.915 -2.3347  2.0772 -0.2714
 7089SOL    HW232727   2.898   3.218   4.028 -0.3778  0.0180  0.4908
 7090SOL     OW32728   2.817   2.201   6.588  0.0031  0.2701  0.0149
 7090SOL    HW132729   2.724   2.220   6.580 -0.4531 -1.5788  0.8430
 7090SOL    HW232730   2.814   2.105   6.589  2.1800  0.2021  0.7514
 7091SOL     OW32731   3.867   3.691   3.023 -0.2753  0.4680  0.3117
 7091SOL    HW132732   3.794   3.649   2.978 -0.6010  2.2428 -0.8236
 7091SOL    HW232733   3.936   3.654   2.968 -0.6579  0.5437 -0.2222
 7092SOL     OW32734   3.291   3.851  16.498 -0.4399  0.4694  0.3065
 7092SOL    HW132735   3.204   3.866  16.536 -1.5063  0.0201 -1.9488
 7092SOL    HW232736   3.316   3.769  16.540  1.1496  0.3257 -0.9005
 7093SOL     OW32737   0.986   0.049   5.538 -0.0878  0.0005 -0.3292
 7093SOL    HW132738   0.912   4.721   5.511 -0.5217  0.6029 -0.3601
 7093SOL    HW232739   0.959   0.126   5.488 -0.2566 -0.3925 -0.8477
 7094SOL     OW32740   2.847   0.132   8.197  0.2825 -0.1809  0.8455
 7094SOL    HW132741   2.849   0.194   8.124 -2.0516 -0.6905  0.3472
 7094SOL    HW232742   2.866   0.180   8.277  2.8905 -0.8293  0.6106
 7095SOL     OW32743   4.110   1.543   5.141  0.4087  0.9592  0.0618
 7095SOL    HW132744   4.056   1.607   5.186  0.2522  0.7420  0.1854
 7095SOL    HW232745   4.053   1.469   5.161 -0.5010  2.3632  2.6840
 7096SOL     OW32746   4.699   4.054   4.367 -0.2218  0.0380  0.1977
 7096SOL    HW132747   4.704   3.966   4.404  2.6461  0.4232  0.7724
 7096SOL    HW232748   4.607   4.072   4.383 -0.1583  1.3582 -0.9408
 7097SOL     OW32749   3.110   0.986   3.361 -0.6121  0.0635 -0.6333
 7097SOL    HW132750   3.186   1.002   3.305 -1.9010 -1.1390 -2.7037
 7097SOL    HW232751   3.105   1.071   3.405 -0.9145  1.0850 -2.6517
 7098SOL     OW32752   1.136   1.706  14.022 -0.2440  0.8831 -0.0112
 7098SOL    HW132753   1.220   1.727  14.063  0.3002  2.1761 -1.7466
 7098SOL    HW232754   1.165   1.672  13.937 -2.4771 -1.1421  0.0261
 7099SOL     OW32755   1.993   4.374   6.467 -0.3027 -0.1549 -0.2941
 7099SOL    HW132756   2.004   4.346   6.376 -1.0920 -0.0675 -0.4171
 7099SOL    HW232757   1.950   4.458   6.449  0.1188  0.2502  0.5882
 7100SOL     OW32758   2.075   2.977  10.013  0.4453 -0.0167 -0.8845
 7100SOL    HW132759   1.991   3.013  10.042  0.5910  0.5459 -1.1557
 7100SOL    HW232760   2.094   3.052   9.957  1.3030 -0.9167 -1.7896
 7101SOL     OW32761   2.091   2.895   4.082  0.3421 -0.7104  0.2627
 7101SOL    HW132762   2.175   2.921   4.043 -0.4050 -0.8729 -1.4319
 7101SOL    HW232763   2.037   2.974   4.079  0.1425 -0.8306  0.6675
 7102SOL     OW32764   0.187   1.111   3.166  0.7979  0.0914  0.4344
 7102SOL    HW132765   0.114   1.104   3.104 -0.9914  0.1332  2.5290
 7102SOL    HW232766   0.139   1.135   3.246  0.2367  2.5411 -0.6196
 7103SOL     OW32767   0.667   1.265  15.316  0.7218  0.7360  0.3842
 7103SOL    HW132768   0.727   1.196  15.287 -0.4291 -0.4285  0.7474
 7103SOL    HW232769   0.720   1.335  15.278  2.2564 -0.4087  0.3740
 7104SOL     OW32770   2.877   2.979   3.582  0.1717  0.0950  0.6382
 7104SOL    HW132771   2.793   3.025   3.576  0.0091 -0.2730  0.0443
 7104SOL    HW232772   2.854   2.888   3.564 -0.4068  0.2460  0.6327
 7105SOL     OW32773   4.069   3.246   0.820  0.2498 -0.0921  0.0099
 7105SOL    HW132774   3.996   3.195   0.856  0.5280 -0.5868 -0.1359
 7105SOL    HW232775   4.078   3.309   0.892 -1.3075  0.1086  0.0247
 7106SOL     OW32776   0.456   2.057  12.121  0.6441  0.2522  0.2454
 7106SOL    HW132777   0.529   2.112  12.090  2.2584 -2.1024 -0.1202
 7106SOL    HW232778   0.410   2.036  12.040  0.8459  0.0275  0.1878
 7107SOL     OW32779   0.642   0.139   4.619  0.0307 -0.0347 -0.0953
 7107SOL    HW132780   0.720   0.096   4.655  0.7092  0.6667 -0.7209
 7107SOL    HW232781   0.582   0.114   4.689 -0.6761 -0.3095 -0.7845
 7108SOL     OW32782   1.344   0.069   2.127  0.2414  0.6117 -0.2399
 7108SOL    HW132783   1.406   0.025   2.069 -0.6146  0.9465 -1.3967
 7108SOL    HW232784   1.341   0.012   2.204 -0.7324 -1.0263 -1.4984
 7109SOL     OW32785   2.290   4.600   5.641  0.0770 -0.6795 -0.4597
 7109SOL    HW132786   2.305   4.689   5.612 -1.8615 -0.8708 -2.0171
 7109SOL    HW232787   2.195   4.610   5.644  0.3015  0.8785  0.9760
 7110SOL     OW32788   3.349   2.431   5.430 -0.1528 -0.0313  0.3444
 7110SOL    HW132789   3.372   2.393   5.345  4.8942  1.1580  1.1821
 7110SOL    HW232790   3.343   2.349   5.478  1.6168 -1.0832 -1.2252
 7111SOL     OW32791   1.650   1.628  16.771 -0.2663 -0.3585  0.5015
 7111SOL    HW132792   1.677   1.619  16.862  1.7836 -1.9426 -0.2445
 7111SOL    HW232793   1.731   1.660  16.730 -0.3571 -2.3066 -1.2121
 7112SOL     OW32794   0.464   0.928   3.903 -0.3674 -0.1776  0.4362
 7112SOL    HW132795   0.412   0.939   3.823  0.4314  0.0649 -0.0493
 7112SOL    HW232796   0.541   0.879   3.875 -1.5862 -1.9232  0.1025
 7113SOL     OW32797   4.410   3.389   4.117 -0.2797 -0.0348  0.2132
 7113SOL    HW132798   4.486   3.443   4.140 -1.4658  1.3975  0.7632
 7113SOL    HW232799   4.335   3.434   4.156  1.2767  0.0496  3.0975
 7114SOL     OW32800   2.818   4.562   9.326  0.0587  0.3298  0.5027
 7114SOL    HW132801   2.744   4.605   9.283 -1.3547 -1.5241  1.1115
 7114SOL    HW232802   2.859   4.511   9.256 -2.1575 -2.2765  1.0775
 7115SOL     OW32803   3.807   1.030   1.783  0.0089 -0.2295  0.4244
 7115SOL    HW132804   3.768   1.117   1.786  0.6874  0.0354  1.5521
 7115SOL    HW232805   3.835   1.017   1.692 -2.9393  0.8043 -0.6607
 7116SOL     OW32806   0.352   3.243   9.701  0.3945 -0.2996 -0.6763
 7116SOL    HW132807   0.431   3.253   9.754  2.3335  2.4278 -4.0876
 7116SOL    HW232808   0.381   3.179   9.636  1.4385 -0.4885 -0.0167
 7117SOL     OW32809   3.465   3.319   4.336  0.2194  0.4622  0.3746
 7117SOL    HW132810   3.454   3.305   4.241 -1.7940  1.0488  0.5240
 7117SOL    HW232811   3.383   3.275   4.360 -1.1437  1.1976 -2.9065
 7118SOL     OW32812   2.730   2.648   7.778 -0.2592  0.0424  0.0023
 7118SOL    HW132813   2.675   2.629   7.854  2.2298 -1.0487  1.5683
 7118SOL    HW232814   2.743   2.563   7.738  0.4117 -1.1201  2.6401
 7119SOL     OW32815   0.436   2.637  16.007  0.0456 -0.0215 -0.0650
 7119SOL    HW132816   0.457   2.710  15.949  0.7937 -1.4223 -1.5566
 7119SOL    HW232817   0.388   2.685  16.075 -0.7486 -0.2037 -0.4931
 7120SOL     OW32818   3.075   2.529   5.732  0.1109  0.1078  0.1308
 7120SOL    HW132819   3.000   2.549   5.788  0.1105 -0.7400  0.4413
 7120SOL    HW232820   3.035   2.505   5.649  0.6228  0.8958 -0.3396
 7121SOL     OW32821   1.530   2.934   6.528  0.2050  0.4631 -0.1214
 7121SOL    HW132822   1.522   3.002   6.461  0.5388 -0.3955 -1.0411
 7121SOL    HW232823   1.440   2.901   6.531 -0.2797  1.7572 -0.4894
 7122SOL     OW32824   1.085   2.660  12.940  0.7544  0.5596  0.7100
 7122SOL    HW132825   1.063   2.703  13.022 -0.0425 -0.2343  0.9064
 7122SOL    HW232826   1.172   2.624  12.958  1.2878  1.2611 -0.4044
 7123SOL     OW32827   3.144   0.262   0.390 -0.0303 -0.6550 -0.5169
 7123SOL    HW132828   3.212   0.205   0.426  1.9231  3.1737  1.8599
 7123SOL    HW232829   3.074   0.198   0.396 -1.0910  0.7145  1.2924
 7124SOL     OW32830   0.428   2.140   5.127  0.4026  0.6775 -0.1873
 7124SOL    HW132831   0.371   2.213   5.154  0.9492  1.0031  0.1017
 7124SOL    HW232832   0.448   2.160   5.035 -2.8581  6.6169  0.3677
 7125SOL     OW32833   1.995   3.342  10.351  0.2173 -0.0516  0.2168
 7125SOL    HW132834   2.005   3.303  10.265 -1.6887 -0.9836  0.4227
 7125SOL    HW232835   1.940   3.279  10.398 -2.1694  0.5540 -1.7780
 7126SOL     OW32836   2.739   0.473  10.091  0.2882 -0.3327 -0.5687
 7126SOL    HW132837   2.774   0.434  10.171 -0.9927 -2.9386 -1.2728
 7126SOL    HW232838   2.668   0.419  10.056 -1.8061  1.0807  1.5345
 7127SOL     OW32839   1.639   2.953  11.716 -0.2066  0.5263  0.5113
 7127SOL    HW132840   1.674   3.019  11.776 -0.0643  0.4555  0.5074
 7127SOL    HW232841   1.557   2.995  11.692 -1.7387 -1.5993  2.0260
 7128SOL     OW32842   0.424   3.143   6.441 -0.1078 -0.3748  0.3700
 7128SOL    HW132843   0.446   3.057   6.406 -0.0190  0.4601 -1.6513
 7128SOL    HW232844   0.511   3.159   6.478  0.2706 -1.8812  0.1090
 7129SOL     OW32845   4.271   0.244   7.175  0.1550 -0.0793 -0.1465
 7129SOL    HW132846   4.183   0.266   7.145 -0.4951  0.0931  1.8670
 7129SOL    HW232847   4.263   0.261   7.269  1.9500  0.5846 -0.1140
 7130SOL     OW32848   4.328   4.591  11.706 -0.5310  0.4065 -0.1254
 7130SOL    HW132849   4.286   4.597  11.792 -0.7812 -0.0630 -0.2143
 7130SOL    HW232850   4.385   4.668  11.702 -0.3014  0.1047 -2.7469
 7131SOL     OW32851   2.139   3.554   6.488  0.3257  0.2792 -0.6089
 7131SOL    HW132852   2.080   3.538   6.414 -1.1767 -0.6115  0.7717
 7131SOL    HW232853   2.221   3.575   6.443  2.0815 -2.2019  1.4010
 7132SOL     OW32854   0.841   0.996   2.513 -0.0738 -0.3334  0.5477
 7132SOL    HW132855   0.932   0.968   2.525 -0.1201 -1.7250 -2.1732
 7132SOL    HW232856   0.822   0.926   2.451 -2.9029  0.4733  0.4990
 7133SOL     OW32857   4.519   1.160  14.767  0.0395  0.1559 -0.8053
 7133SOL    HW132858   4.530   1.075  14.726  4.5642 -0.0611  0.8231
 7133SOL    HW232859   4.425   1.175  14.760  0.1173  1.6030  1.1558
 7134SOL     OW32860   3.189   2.824   3.698 -0.1715 -0.2740 -0.3132
 7134SOL    HW132861   3.187   2.818   3.603  0.3094 -0.8880 -0.2850
 7134SOL    HW232862   3.285   2.830   3.706  0.0652  0.4434 -3.8096
 7135SOL     OW32863   3.946   4.479   5.750 -0.9510  0.1421  0.0184
 7135SOL    HW132864   3.964   4.414   5.817  0.6664  0.7510  0.1768
 7135SOL    HW232865   4.017   4.458   5.689 -2.8269  2.5338 -3.0316
 7136SOL     OW32866   0.605   0.135   7.957 -0.1198 -0.1587  0.1594
 7136SOL    HW132867   0.628   0.143   7.864 -0.1366 -3.7455 -0.1746
 7136SOL    HW232868   0.516   0.169   7.966 -0.1870 -0.7034  1.4277
 7137SOL     OW32869   1.220   2.334  11.935 -0.2429 -0.2940  0.1188
 7137SOL    HW132870   1.266   2.294  11.861 -1.3079 -0.6308 -0.3677
 7137SOL    HW232871   1.133   2.334  11.895 -0.0132  1.2729 -0.3775
 7138SOL     OW32872   0.948   3.435  10.960 -0.4120 -0.1575  0.1284
 7138SOL    HW132873   0.868   3.418  11.009 -0.3687 -1.3045 -0.2066
 7138SOL    HW232874   1.021   3.397  11.009  1.0919  0.5119 -1.5942
 7139SOL     OW32875   3.749   1.827   3.046  0.8993 -0.0212 -0.3125
 7139SOL    HW132876   3.749   1.893   3.116 -0.5315  0.1280 -0.4544
 7139SOL    HW232877   3.655   1.809   3.054  1.0547  0.2411  2.2463
 7140SOL     OW32878   4.415   1.168   3.529  0.5079 -0.0592 -0.2720
 7140SOL    HW132879   4.429   1.173   3.624  1.1162  0.5145 -0.3887
 7140SOL    HW232880   4.350   1.100   3.516  1.4913 -0.3702 -3.5163
 7141SOL     OW32881   2.664   4.466  17.564  0.0468  0.1469  0.1532
 7141SOL    HW132882   2.722   4.448  17.638  0.4612 -0.2950 -0.2727
 7141SOL    HW232883   2.654   4.559  17.580 -2.9737 -0.2464  0.5697
 7142SOL     OW32884   4.322   2.010   8.605  0.5833  0.1813 -0.6062
 7142SOL    HW132885   4.339   1.961   8.525 -1.5639  0.0167 -0.9808
 7142SOL    HW232886   4.385   2.081   8.607 -0.8138  1.3942  0.6856
 7143SOL     OW32887   2.054   3.229   2.519  0.2748  0.0277 -0.1280
 7143SOL    HW132888   1.986   3.263   2.461  1.0046  3.0163  0.7566
 7143SOL    HW232889   2.083   3.150   2.473 -0.4700 -0.2969 -0.0494
 7144SOL     OW32890   0.591   0.737   2.819  0.1116  0.3746 -0.0470
 7144SOL    HW132891   0.538   0.666   2.783 -0.4507  0.1122  1.2933
 7144SOL    HW232892   0.671   0.729   2.769  0.2405  0.9123  0.0691
 7145SOL     OW32893   0.622   1.736   7.067 -0.1238  0.5239 -0.1336
 7145SOL    HW132894   0.679   1.667   7.100  0.8559  0.4577 -2.0090
 7145SOL    HW232895   0.613   1.719   6.974  0.8093  1.0295 -0.3120
 7146SOL     OW32896   3.436   2.289  14.599  0.0907 -0.4810  0.6612
 7146SOL    HW132897   3.458   2.360  14.539 -0.6235  0.1844  1.1876
 7146SOL    HW232898   3.373   2.333  14.656  0.7369  1.0323  0.2055
 7147SOL     OW32899   1.141   0.675   5.126  0.3071 -0.2825 -0.8033
 7147SOL    HW132900   1.074   0.740   5.103  0.9660  1.0776  1.0964
 7147SOL    HW232901   1.185   0.685   5.042 -1.2888  0.0495 -1.5919
 7148SOL     OW32902   3.871   1.364   1.794 -0.3165  0.1190 -0.1515
 7148SOL    HW132903   3.883   1.452   1.757  0.2613  1.2572  2.7179
 7148SOL    HW232904   3.789   1.336   1.755  0.2632 -0.7205 -0.7658
 7149SOL     OW32905   3.620   3.661   6.518 -0.1232 -0.4362 -0.3205
 7149SOL    HW132906   3.546   3.632   6.571  0.1703 -3.4353 -1.5144
 7149SOL    HW232907   3.576   3.730   6.468 -2.2117 -2.1142 -0.8221
 7150SOL     OW32908   0.607   2.672   4.140  0.2889 -0.4305  0.2824
 7150SOL    HW132909   0.672   2.630   4.083 -0.1679  0.8220 -1.1609
 7150SOL    HW232910   0.647   2.759   4.145 -0.1741 -0.2433  0.6258
 7151SOL     OW32911   4.422   0.760   8.321 -0.2872  0.4807 -0.3296
 7151SOL    HW132912   4.465   0.685   8.280  0.3345  0.9137 -0.4652
 7151SOL    HW232913   4.398   0.708   8.398  0.3403 -0.3889 -0.7244
 7152SOL     OW32914   4.136   1.851   2.387  0.8074  0.2435  0.5933
 7152SOL    HW132915   4.044   1.867   2.409  0.4629 -0.8279 -0.1101
 7152SOL    HW232916   4.169   1.816   2.470 -0.7961 -0.2175  1.0383
 7153SOL     OW32917   0.280   4.628  17.300 -0.1885  0.1088 -0.3239
 7153SOL    HW132918   0.236   4.581  17.228 -0.4493  1.4408 -1.0322
 7153SOL    HW232919   0.292   4.714  17.262 -1.8716  0.7541  0.5933
 7154SOL     OW32920   3.130   1.681   4.651 -0.4869  0.3507 -0.1200
 7154SOL    HW132921   3.073   1.682   4.573 -1.4897 -1.1741  0.5920
 7154SOL    HW232922   3.125   1.590   4.681  0.9005  0.5954  0.8348
 7155SOL     OW32923   2.353   4.578  12.687  0.1713  0.0659 -0.2916
 7155SOL    HW132924   2.336   4.665  12.725  0.9732 -0.1874  0.6623
 7155SOL    HW232925   2.265   4.575  12.650 -0.0292 -0.6637  0.2438
 7156SOL     OW32926   1.941   4.354   3.905  0.2015  0.1892  0.3635
 7156SOL    HW132927   1.944   4.421   3.838 -2.2210  0.1220  0.1641
 7156SOL    HW232928   2.031   4.342   3.935  0.5411 -1.1830 -1.1971
 7157SOL     OW32929   1.692   1.928  11.760  0.4511  0.2474 -0.2538
 7157SOL    HW132930   1.781   1.895  11.768  0.3406 -0.1963 -0.8158
 7157SOL    HW232931   1.642   1.847  11.751  2.1934 -0.6301 -1.9974
 7158SOL     OW32932   3.637   1.150   5.484  0.2632 -0.3203  0.0128
 7158SOL    HW132933   3.615   1.234   5.525  2.4443  0.9286 -1.4096
 7158SOL    HW232934   3.573   1.139   5.414 -0.0491  0.1420  0.2223
 7159SOL     OW32935   1.510   0.309   3.339  0.0467 -0.3519 -0.2396
 7159SOL    HW132936   1.506   0.336   3.247 -1.1077 -0.2663 -0.1636
 7159SOL    HW232937   1.473   0.222   3.337  0.0873 -0.3932  1.0231
 7160SOL     OW32938   3.236   3.372   2.215 -0.4182  0.1410  0.0600
 7160SOL    HW132939   3.151   3.353   2.255 -1.5931  1.9031 -1.5898
 7160SOL    HW232940   3.288   3.340   2.289 -2.5812 -1.3706  0.9265
 7161SOL     OW32941   0.022   2.627  11.903  0.0475 -0.2973 -0.3001
 7161SOL    HW132942   0.007   2.570  11.978 -0.3753  2.4722  1.7361
 7161SOL    HW232943   4.658   2.652  11.886  0.6587  1.5859 -0.8631
 7162SOL     OW32944   3.533   4.056  15.932 -0.0158 -0.1658 -1.5479
 7162SOL    HW132945   3.588   4.132  15.912  0.4170 -0.4124 -1.2939
 7162SOL    HW232946   3.454   4.104  15.955 -0.6389 -2.0623  0.3004
 7163SOL     OW32947   3.499   0.042   2.012  0.0062  0.4690 -0.4098
 7163SOL    HW132948   3.483   4.681   1.977 -1.2197  1.5124 -2.4385
 7163SOL    HW232949   3.411   0.073   1.992  0.2593  1.4667  0.0142
 7164SOL     OW32950   0.818   3.272   9.122  0.0116 -0.3903 -0.4193
 7164SOL    HW132951   0.783   3.329   9.191 -0.1232 -0.1058 -0.7245
 7164SOL    HW232952   0.811   3.187   9.167 -1.5247 -0.3613 -0.6129
 7165SOL     OW32953   1.676   2.170   5.398  0.2216  0.4886  0.0622
 7165SOL    HW132954   1.641   2.141   5.482 -1.4560  0.5396 -0.6362
 7165SOL    HW232955   1.686   2.087   5.351 -1.2654  0.5423 -0.3388
 7166SOL     OW32956   1.605   0.716  16.183 -0.5297 -0.2518 -0.2673
 7166SOL    HW132957   1.557   0.660  16.245  1.1080  0.0563  1.2907
 7166SOL    HW232958   1.617   0.794  16.237 -1.9368  0.1417 -0.5053
 7167SOL     OW32959   0.252   3.046  16.628  0.4798  0.5407  0.4388
 7167SOL    HW132960   0.237   2.951  16.620 -0.1714  0.6339  0.5837
 7167SOL    HW232961   0.305   3.049  16.708  0.4294 -0.9668  0.5355
 7168SOL     OW32962   1.118   4.152   1.768 -0.7619 -0.3043 -0.8214
 7168SOL    HW132963   1.204   4.172   1.730 -0.3750  1.1280  0.8026
 7168SOL    HW232964   1.062   4.207   1.714  1.4108  0.9873 -1.7591
 7169SOL     OW32965   2.363   1.984   7.821  0.0781 -0.2364 -1.0420
 7169SOL    HW132966   2.324   2.071   7.814  2.3837  0.7372 -1.8611
 7169SOL    HW232967   2.355   1.953   7.731 -0.2353  2.2392 -1.8695
 7170SOL     OW32968   3.139   4.165   3.372  0.2450 -0.0184 -0.3598
 7170SOL    HW132969   3.111   4.118   3.294 -0.4398  1.8528 -1.2474
 7170SOL    HW232970   3.221   4.121   3.392 -0.1769  0.0700  1.6174
 7171SOL     OW32971   1.947   2.341   9.270 -0.8045 -0.0204  0.5414
 7171SOL    HW132972   1.981   2.340   9.360 -2.1061  3.3671  1.0645
 7171SOL    HW232973   2.024   2.355   9.214 -0.3835  2.5779  1.7749
 7172SOL     OW32974   0.252   0.087   3.856  0.2820  0.3023 -0.1956
 7172SOL    HW132975   0.174   0.084   3.911  0.2479 -0.8538 -0.3093
 7172SOL    HW232976   0.203   0.092   3.774 -0.2804 -0.5180  0.0851
 7173SOL     OW32977   2.969   2.967   9.018  0.1068  0.1826 -0.1612
 7173SOL    HW132978   3.030   2.896   8.999  0.2446  0.3740 -0.4288
 7173SOL    HW232979   3.014   3.049   8.996  2.5657 -0.7077  1.5105
 7174SOL     OW32980   2.703   0.795   4.368 -0.6261 -0.2372 -0.0180
 7174SOL    HW132981   2.749   0.726   4.320 -2.3357 -0.7550 -0.9222
 7174SOL    HW232982   2.614   0.766   4.392 -1.5490  1.4828 -1.3672
 7175SOL     OW32983   2.320   1.629  15.381  0.6550 -0.0120  0.0080
 7175SOL    HW132984   2.371   1.706  15.405  1.6162 -0.6436  0.0212
 7175SOL    HW232985   2.355   1.601  15.297 -0.5822 -0.1042 -0.4659
 7176SOL     OW32986   4.039   3.979  14.321  0.0652  0.1299  0.3149
 7176SOL    HW132987   4.013   4.070  14.340 -0.3788  0.2233 -0.7218
 7176SOL    HW232988   4.064   3.992  14.229  1.4678 -1.6664  0.4439
 7177SOL     OW32989   3.539   3.243   7.296 -0.4684  0.2021 -0.0828
 7177SOL    HW132990   3.465   3.290   7.334 -0.7656 -0.0344 -0.3754
 7177SOL    HW232991   3.580   3.310   7.241  2.6725 -0.7847  1.0716
 7178SOL     OW32992   0.729   2.000   7.148 -0.0987  0.2224 -0.0652
 7178SOL    HW132993   0.785   2.034   7.078  0.7460  0.5017  0.7420
 7178SOL    HW232994   0.718   1.913   7.110 -1.9667  0.8727 -1.0280
 7179SOL     OW32995   0.655   3.505  11.062 -0.1052  0.0439  0.3352
 7179SOL    HW132996   0.672   3.538  10.973 -0.3106 -0.8707 -0.0470
 7179SOL    HW232997   0.582   3.563  11.084 -0.6701 -0.5312 -0.0309
 7180SOL     OW32998   0.678   0.335   5.455  0.3408 -0.5313  0.5223
 7180SOL    HW132999   0.642   0.262   5.505  2.0024 -0.7253  1.4386
 7180SOL    HW233000   0.771   0.314   5.451  0.2906 -0.9712  1.7324
 7181SOL     OW33001   1.849   2.076   4.233 -0.3339 -0.3449  0.3562
 7181SOL    HW133002   1.842   2.098   4.326  1.4575  0.9711  0.1822
 7181SOL    HW233003   1.760   2.089   4.201  0.6880 -1.4713 -2.9060
 7182SOL     OW33004   4.105   1.682   1.891  0.2707  0.0241 -0.2116
 7182SOL    HW133005   4.125   1.752   1.829  0.0678 -0.1918 -0.5161
 7182SOL    HW233006   4.012   1.667   1.877  0.2761 -0.8476  0.6589
 7183SOL     OW33007   1.821   1.908   9.783 -0.0014  0.2020  0.2454
 7183SOL    HW133008   1.902   1.868   9.751  0.4736  0.8041  0.7012
 7183SOL    HW233009   1.825   1.877   9.873 -1.4127  0.0597  0.2596
 7184SOL     OW33010   2.653   3.874   8.090  0.3622 -0.0493 -0.0844
 7184SOL    HW133011   2.727   3.884   8.150  1.2688 -4.0030 -0.5951
 7184SOL    HW233012   2.594   3.814   8.137 -1.9955  2.3101  0.0127
 7185SOL     OW33013   4.607   1.503   2.014 -0.1027 -0.2560  0.2387
 7185SOL    HW133014   4.541   1.529   1.949  1.7873 -1.1741 -2.0406
 7185SOL    HW233015   4.555   1.435   2.056  2.1922 -1.6657  0.7937
 7186SOL     OW33016   2.973   0.145   9.283  0.6668 -0.3039  0.1094
 7186SOL    HW133017   2.932   0.186   9.207  3.3179 -1.8995 -2.1784
 7186SOL    HW233018   2.896   0.133   9.339  0.8045 -0.7323  0.2068
 7187SOL     OW33019   0.735   0.221   0.360 -0.3284  0.1937  0.2623
 7187SOL    HW133020   0.700   0.223   0.271 -1.2297  0.0961  0.6114
 7187SOL    HW233021   0.806   0.286   0.362  0.9932 -1.1502 -3.5957
 7188SOL     OW33022   2.858   2.190   6.300 -0.4391  0.2407  0.1710
 7188SOL    HW133023   2.844   2.198   6.394 -0.8175  0.4600  0.0977
 7188SOL    HW233024   2.929   2.126   6.294  0.9457  1.7741  0.2623
 7189SOL     OW33025   1.859   1.949   2.103 -0.0025 -0.0354 -0.0722
 7189SOL    HW133026   1.817   2.013   2.160 -2.4721 -3.1484  1.6107
 7189SOL    HW233027   1.950   1.980   2.100  0.1719 -0.3983  1.2671
 7190SOL     OW33028   1.852   1.914   8.661  0.2868  0.1664 -0.1291
 7190SOL    HW133029   1.892   1.871   8.585  0.9778 -1.7430  1.3073
 7190SOL    HW233030   1.783   1.849   8.677  0.8346 -0.0844  1.1747
 7191SOL     OW33031   1.181   1.250   1.814 -0.3862 -0.1721 -0.3326
 7191SOL    HW133032   1.095   1.254   1.774 -0.6394 -0.8150  0.1411
 7191SOL    HW233033   1.210   1.164   1.782  0.0178  0.2936 -1.2089
 7192SOL     OW33034   0.847   2.488   7.216 -0.6073 -0.2161  0.3482
 7192SOL    HW133035   0.827   2.404   7.258  0.5997  0.0643  1.4651
 7192SOL    HW233036   0.794   2.492   7.137  0.8255 -0.9988 -0.6455
 7193SOL     OW33037   3.022   0.374   2.915 -0.0205 -0.5102  0.1882
 7193SOL    HW133038   2.941   0.343   2.873 -0.4568  0.4177  0.3476
 7193SOL    HW233039   3.083   0.302   2.900 -3.1666 -3.1192 -0.3037
 7194SOL     OW33040   1.487   0.539  13.376  0.9024 -0.4725 -0.2789
 7194SOL    HW133041   1.524   0.513  13.460  0.4019  1.9660  0.6918
 7194SOL    HW233042   1.530   0.475  13.319  1.6946 -0.0074 -0.2073
 7195SOL     OW33043   2.937   0.153  14.126 -0.0082 -0.0155 -0.2477
 7195SOL    HW133044   2.920   0.240  14.163 -0.5987 -0.7501  1.2141
 7195SOL    HW233045   2.983   0.167  14.043  1.5216 -1.8956  0.2598
 7196SOL     OW33046   2.112   3.085   8.583  0.2900 -0.4532  0.5843
 7196SOL    HW133047   2.116   2.995   8.616 -0.4970 -0.7086 -0.0142
 7196SOL    HW233048   2.174   3.132   8.639  0.3806  0.6846 -0.4524
 7197SOL     OW33049   1.381   1.886  16.921  0.2124 -0.0033 -0.5890
 7197SOL    HW133050   1.440   1.947  16.964 -0.5404  1.0942 -1.1339
 7197SOL    HW233051   1.438   1.832  16.866 -0.8349 -1.5225 -0.2122
 7198SOL     OW33052   2.797   1.958   5.132 -0.1073 -0.0095  0.0331
 7198SOL    HW133053   2.839   2.008   5.201  0.0300 -0.1477  0.0487
 7198SOL    HW233054   2.848   1.992   5.058 -0.9279  0.5344 -0.2787
 7199SOL     OW33055   3.429   3.914  16.779 -0.0163  0.2647  0.6096
 7199SOL    HW133056   3.492   3.919  16.707 -0.7460  0.6817  0.0148
 7199SOL    HW233057   3.381   3.834  16.759  1.1929 -0.0288 -1.1250
 7200SOL     OW33058   4.185   0.801  10.632 -0.1434 -0.0206 -0.1012
 7200SOL    HW133059   4.177   0.706  10.641  0.2886 -0.1672 -1.2965
 7200SOL    HW233060   4.254   0.821  10.694 -2.9860  1.4169  2.6230
 7201SOL     OW33061   2.732   2.530  15.347  0.0546  0.5396 -0.0887
 7201SOL    HW133062   2.782   2.593  15.399  1.2766 -0.9784  0.5911
 7201SOL    HW233063   2.658   2.502  15.401 -0.5402 -0.0167 -1.1949
 7202SOL     OW33064   4.308   2.199  17.157 -0.2257  0.1458  0.3314
 7202SOL    HW133065   4.263   2.284  17.156 -0.2146  0.1836  2.6125
 7202SOL    HW233066   4.339   2.194  17.067 -1.2447 -0.5277  0.0097
 7203SOL     OW33067   4.544   3.654   3.315  0.2896  0.7993  0.1112
 7203SOL    HW133068   4.512   3.572   3.279 -0.2538  0.6803  0.8792
 7203SOL    HW233069   4.609   3.672   3.247  2.0453 -0.9254  1.3440
 7204SOL     OW33070   2.609   1.928  16.629  0.0761  0.3933  0.4673
 7204SOL    HW133071   2.537   1.921  16.692  1.4897  0.3310  2.0827
 7204SOL    HW233072   2.586   1.874  16.553  3.1755  1.1326 -0.9713
 7205SOL     OW33073   1.766   1.832   5.936 -0.3993 -0.7047  0.1982
 7205SOL    HW133074   1.819   1.911   5.951 -0.2367 -0.9066  0.6809
 7205SOL    HW233075   1.822   1.784   5.875 -1.4488 -0.6626 -0.8074
 7206SOL     OW33076   4.297   2.241   3.339 -0.3203  0.5287  0.3262
 7206SOL    HW133077   4.387   2.221   3.315 -0.4066 -0.7973  1.1504
 7206SOL    HW233078   4.264   2.276   3.256  2.8057  1.9916 -0.3130
 7207SOL     OW33079   2.223   0.993   5.838  0.2043  0.1904  0.5793
 7207SOL    HW133080   2.160   0.945   5.784  0.5736  0.3373  0.0182
 7207SOL    HW233081   2.303   0.977   5.788  0.3146 -0.8633  1.0921
 7208SOL     OW33082   3.944   1.437  16.786  0.3113  0.2264  0.0523
 7208SOL    HW133083   3.946   1.497  16.712  0.7773  0.1717  0.0252
 7208SOL    HW233084   3.857   1.397  16.775 -0.3493  2.1131 -1.4368
 7209SOL     OW33085   0.686   3.390   8.604  0.1680 -0.8407 -0.6909
 7209SOL    HW133086   0.686   3.396   8.509  0.2104 -0.0985 -0.6388
 7209SOL    HW233087   0.714   3.299   8.613  0.7373 -1.0259 -4.4131
 7210SOL     OW33088   4.229   4.352  13.984  0.1462  0.1845 -0.1199
 7210SOL    HW133089   4.300   4.407  14.015  0.6330  0.5655 -1.9254
 7210SOL    HW233090   4.221   4.385  13.894  1.1400 -0.8466 -0.5913
 7211SOL     OW33091   0.522   0.552   4.481  0.0938 -0.1993 -0.2221
 7211SOL    HW133092   0.538   0.467   4.442  1.5287  0.9545 -2.1490
 7211SOL    HW233093   0.445   0.537   4.536  0.0716 -1.6536 -0.6717
 7212SOL     OW33094   2.631   4.580   8.020 -0.0982 -0.5245  0.3541
 7212SOL    HW133095   2.622   4.638   8.095 -1.0436  2.0763 -1.7659
 7212SOL    HW233096   2.557   4.611   7.968 -0.4420 -1.5131  0.2540
 7213SOL     OW33097   2.846   4.083  14.821  0.2334 -0.4015 -0.1590
 7213SOL    HW133098   2.932   4.058  14.855  0.7618  2.3609  0.5224
 7213SOL    HW233099   2.867   4.170  14.787  0.9656 -0.0021  1.3163
 7214SOL     OW33100   0.672   4.289   5.283  0.2333 -0.3178 -0.5021
 7214SOL    HW133101   0.764   4.307   5.299 -0.3249  2.0946 -0.0070
 7214SOL    HW233102   0.619   4.328   5.352 -0.2408 -1.0351 -0.4595
 7215SOL     OW33103   1.932   3.721  17.702 -0.0793  0.4670 -0.5432
 7215SOL    HW133104   1.839   3.700  17.706 -0.2451  1.3017 -0.0100
 7215SOL    HW233105   1.938   3.809  17.667 -2.5571  1.2964  1.1739
 7216SOL     OW33106   3.493   1.513  13.659 -0.3048  0.3982  0.4440
 7216SOL    HW133107   3.518   1.493  13.749 -0.5526 -1.1679  0.1636
 7216SOL    HW233108   3.420   1.572  13.678 -2.0382 -1.6235  0.0000
 7217SOL     OW33109   1.964   0.445  11.497  0.0249 -0.3189 -0.2627
 7217SOL    HW133110   1.959   0.496  11.416  0.3642  0.7837  0.4022
 7217SOL    HW233111   1.873   0.427  11.519 -0.4399 -0.4729 -2.3410
 7218SOL     OW33112   1.521   2.061  10.957  0.1024  0.1546  0.0224
 7218SOL    HW133113   1.473   2.023  11.029  0.0668 -0.0889 -0.1312
 7218SOL    HW233114   1.587   1.998  10.927 -0.7761 -0.1743 -1.2320
 7219SOL     OW33115   4.329   3.025   3.006  0.4839 -0.2063  1.0477
 7219SOL    HW133116   4.291   3.112   2.993 -1.1976 -1.0007  0.5578
 7219SOL    HW233117   4.249   2.973   2.999 -1.0797  2.1334  1.2087
 7220SOL     OW33118   0.850   1.747   0.110  0.4225 -0.4197 -0.6696
 7220SOL    HW133119   0.773   1.753   0.054  1.0685  1.5082 -1.3556
 7220SOL    HW233120   0.909   1.805   0.063  0.1703  0.7997  0.4859
 7221SOL     OW33121   2.107   3.365   7.197 -0.0130  0.2463 -0.1322
 7221SOL    HW133122   2.021   3.329   7.174  0.8925 -1.0419 -1.4564
 7221SOL    HW233123   2.167   3.333   7.130  0.6502  1.3363 -0.0544
 7222SOL     OW33124   2.266   1.225  15.673  0.4886 -0.1919  0.0618
 7222SOL    HW133125   2.344   1.268  15.640 -0.3641 -0.9029 -2.8891
 7222SOL    HW233126   2.283   1.134  15.651  0.5789 -0.0719 -0.3727
 7223SOL     OW33127   0.262   2.417   5.181  0.4016  0.0880 -0.2195
 7223SOL    HW133128   0.306   2.468   5.249  1.8137  0.4510 -1.4024
 7223SOL    HW233129   0.204   2.356   5.225  0.7455 -0.2767 -0.2663
 7224SOL     OW33130   3.594   2.814   2.351  0.9871  0.8309  0.6530
 7224SOL    HW133131   3.531   2.750   2.385 -1.1392  2.3288 -0.4120
 7224SOL    HW233132   3.604   2.771   2.267 -0.9178 -0.4581  1.0653
 7225SOL     OW33133   3.799   0.691   3.001  0.1245  0.6097  0.1729
 7225SOL    HW133134   3.809   0.713   3.093 -0.0425  2.3858 -0.2150
 7225SOL    HW233135   3.706   0.709   2.987  0.6269  0.9802 -2.6780
 7226SOL     OW33136   2.356   2.143   5.544  0.4942  0.2704 -0.3741
 7226SOL    HW133137   2.322   2.232   5.531  3.2919  1.3644 -0.1694
 7226SOL    HW233138   2.273   2.098   5.560  0.6477  0.1555  0.1045
 7227SOL     OW33139   2.498   1.929   5.465 -0.5493 -0.2730  0.3211
 7227SOL    HW133140   2.469   2.008   5.510 -1.1733 -0.1372 -0.3155
 7227SOL    HW233141   2.420   1.883   5.435 -1.4285  1.2716  0.2214
 7228SOL     OW33142   2.927   4.723   7.726 -0.3827  0.0582 -0.2043
 7228SOL    HW133143   2.934   4.677   7.810 -2.8560 -1.4836 -0.8621
 7228SOL    HW233144   2.903   0.083   7.760 -1.7816 -0.2064 -0.5194
 7229SOL     OW33145   3.879   4.675  15.586 -0.1406  0.3321  0.1769
 7229SOL    HW133146   3.842   4.611  15.526  2.1576 -1.4456  0.6331
 7229SOL    HW233147   3.814   0.018  15.584 -1.1575 -0.6085  0.4367
 7230SOL     OW33148   0.629   1.778   4.305  0.8014  0.7478 -0.1109
 7230SOL    HW133149   0.706   1.783   4.248  1.5714  0.8859  0.9440
 7230SOL    HW233150   0.566   1.826   4.252 -0.2115  1.0072  1.3330
 7231SOL     OW33151   0.995   1.741  10.432  0.0959 -0.6529 -0.1674
 7231SOL    HW133152   1.040   1.658  10.448  2.0694  0.7196  1.4800
 7231SOL    HW233153   0.950   1.745  10.517 -0.7536  0.9229 -0.6796
 7232SOL     OW33154   1.220   4.286   5.600  0.2633  0.3887  0.0996
 7232SOL    HW133155   1.281   4.231   5.549 -0.6088  1.1125 -1.7345
 7232SOL    HW233156   1.133   4.261   5.569  0.1576  0.8662  0.0068
 7233SOL     OW33157   1.051   0.127   2.253 -0.5821  0.3171  0.6514
 7233SOL    HW133158   1.026   0.183   2.326  1.4782  2.9459 -0.6752
 7233SOL    HW233159   1.061   0.043   2.298 -1.1426  0.3442  0.8258
 7234SOL     OW33160   2.534   4.434   6.157 -0.4665 -0.5021  0.0716
 7234SOL    HW133161   2.497   4.475   6.079  0.8159 -0.4225 -0.4795
 7234SOL    HW233162   2.491   4.491   6.221  2.9712  1.8386  0.2665
 7235SOL     OW33163   2.061   2.905   5.758  0.1331 -1.0512 -0.2489
 7235SOL    HW133164   1.999   2.839   5.728 -3.2808  2.7258 -1.4351
 7235SOL    HW233165   2.143   2.879   5.715 -0.2577  1.1335 -2.3305
 7236SOL     OW33166   0.839   0.367   5.153  0.3059  0.4955 -0.1597
 7236SOL    HW133167   0.761   0.419   5.134  0.5791  0.7775 -0.5195
 7236SOL    HW233168   0.857   0.353   5.060 -0.1587  1.2364 -0.3602
 7237SOL     OW33169   4.136   3.906   2.802 -0.2693  0.1371 -0.0196
 7237SOL    HW133170   4.139   3.943   2.890  0.7496 -0.3997  0.1722
 7237SOL    HW233171   4.200   3.836   2.816  0.0232  0.4391  0.1816
 7238SOL     OW33172   2.112   2.451   7.825  0.5512  0.1477  0.0573
 7238SOL    HW133173   2.027   2.424   7.791 -0.1597 -0.9324  2.7007
 7238SOL    HW233174   2.102   2.474   7.917  0.3330  0.6483 -0.0862
 7239SOL     OW33175   3.933   3.197   1.083 -0.3716 -0.5164  0.2761
 7239SOL    HW133176   3.961   3.287   1.067  0.9264 -1.1440 -0.9543
 7239SOL    HW233177   3.877   3.215   1.158 -0.8840  0.5834 -0.3810
 7240SOL     OW33178   0.049   0.598   5.408  0.0307  0.0414  0.2727
 7240SOL    HW133179   0.140   0.625   5.396  0.3273 -0.3444  1.5699
 7240SOL    HW233180   0.041   0.586   5.503 -0.3824  0.6338  0.3141
 7241SOL     OW33181   0.076   1.835   5.471  0.3509 -0.0196  0.0550
 7241SOL    HW133182   0.064   1.776   5.545  1.8297  1.6142  1.5715
 7241SOL    HW233183   4.714   1.846   5.437  0.5730 -0.4077 -0.6510
 7242SOL     OW33184   1.577   0.054  15.439  0.0450  0.0875  0.9221
 7242SOL    HW133185   1.659   0.094  15.468  0.4868 -1.3203  1.6045
 7242SOL    HW233186   1.541   0.118  15.378  2.4329 -0.6188 -1.2244
 7243SOL     OW33187   1.458   0.295  16.725 -0.4820 -0.4036 -0.0601
 7243SOL    HW133188   1.389   0.335  16.673  0.1454  1.4053  0.5045
 7243SOL    HW233189   1.532   0.355  16.717 -0.9853  0.1261 -0.7625
 7244SOL     OW33190   3.251   2.028   1.024 -0.2025 -0.3541 -0.8029
 7244SOL    HW133191   3.200   1.992   0.951 -3.2792  0.1381  1.1044
 7244SOL    HW233192   3.262   2.121   1.005  1.3270 -0.2483  0.5901
 7245SOL     OW33193   0.516   1.170   1.382 -0.4750  0.2905 -0.5599
 7245SOL    HW133194   0.477   1.087   1.355 -0.4315  0.5505 -1.4020
 7245SOL    HW233195   0.442   1.226   1.405 -0.0043  0.6157  0.1847
 7246SOL     OW33196   1.240   1.132   1.499 -0.5887  0.8341  0.2637
 7246SOL    HW133197   1.244   1.078   1.578  1.3194  0.9153  0.2375
 7246SOL    HW233198   1.155   1.107   1.463  0.2960 -0.9690 -0.5903
 7247SOL     OW33199   4.180   3.928   3.669 -0.2029  0.1563 -0.7183
 7247SOL    HW133200   4.087   3.931   3.692 -0.1813 -0.9205 -0.4826
 7247SOL    HW233201   4.201   4.021   3.670 -1.2132  0.3861 -0.6596
 7248SOL     OW33202   0.615   2.727   9.604  0.0728 -0.1592  0.0533
 7248SOL    HW133203   0.544   2.667   9.627 -1.9355  1.8879 -0.8479
 7248SOL    HW233204   0.644   2.753   9.691 -1.4318 -0.3137  0.6031
 7249SOL     OW33205   4.427   1.080   9.333  0.0943 -0.3921 -0.1337
 7249SOL    HW133206   4.341   1.068   9.291 -0.1643  0.0073  0.2760
 7249SOL    HW233207   4.481   1.010   9.298 -0.4308 -1.0803  0.4350
 7250SOL     OW33208   1.825   1.102  13.368  0.4009 -0.5503 -0.0468
 7250SOL    HW133209   1.776   1.044  13.426 -0.4221  0.5614  0.3638
 7250SOL    HW233210   1.759   1.158  13.327 -0.5161 -0.3962  1.6560
 7251SOL     OW33211   3.185   0.608   5.943 -1.2317  0.3815  0.3380
 7251SOL    HW133212   3.219   0.639   5.859  0.3061 -3.7633 -0.5941
 7251SOL    HW233213   3.092   0.619   5.927 -1.1823  0.0411 -0.1887
 7252SOL     OW33214   0.448   3.832   5.093  0.0857  0.3034 -0.2977
 7252SOL    HW133215   0.378   3.871   5.041  0.0127  0.7853  0.1598
 7252SOL    HW233216   0.462   3.892   5.167  1.3004 -0.5467  0.1689
 7253SOL     OW33217   3.595   1.712   1.603 -0.0320  0.4904  0.2444
 7253SOL    HW133218   3.549   1.653   1.663 -0.5800  1.6269  0.9404
 7253SOL    HW233219   3.644   1.643   1.557 -0.9355  0.5538 -0.7946
 7254SOL     OW33220   3.017   0.840   0.423 -0.3362  0.6431 -0.6486
 7254SOL    HW133221   3.098   0.850   0.373  0.1046 -0.9925 -0.2598
 7254SOL    HW233222   2.979   0.928   0.434  1.2995  1.1974  0.5820
 7255SOL     OW33223   4.656   2.328  12.346 -0.2088 -0.0030 -0.4736
 7255SOL    HW133224   4.562   2.312  12.351 -0.0822 -0.9967 -1.2462
 7255SOL    HW233225   4.685   2.244  12.382  0.4367 -0.0594 -1.1281
 7256SOL     OW33226   1.760   0.369   3.142  0.2792 -0.0455 -0.5588
 7256SOL    HW133227   1.678   0.402   3.104 -0.1291  0.2323  0.5695
 7256SOL    HW233228   1.822   0.416   3.087  1.1126 -0.9943 -0.4323
 7257SOL     OW33229   2.617   0.368   4.339 -0.4283 -0.3220 -0.1554
 7257SOL    HW133230   2.669   0.448   4.326 -0.4180 -0.6030 -1.8451
 7257SOL    HW233231   2.636   0.341   4.429  0.9073  1.4831  0.1132
 7258SOL     OW33232   0.542   2.316   7.701 -0.4061  0.3866  0.2060
 7258SOL    HW133233   0.478   2.275   7.643 -0.7578 -0.0121  0.8755
 7258SOL    HW233234   0.580   2.380   7.641  0.6330 -1.3269 -0.9623
 7259SOL     OW33235   1.664   1.254   2.940  0.2915  0.6747  0.1739
 7259SOL    HW133236   1.591   1.316   2.944 -0.4125 -0.1223 -0.0850
 7259SOL    HW233237   1.625   1.205   2.867 -0.8099  1.8235 -0.0120
 7260SOL     OW33238   2.893   0.988   5.405 -0.4890 -0.2788 -0.3240
 7260SOL    HW133239   2.880   1.004   5.499 -1.1118 -2.6693 -0.0011
 7260SOL    HW233240   2.803   0.976   5.374 -0.3953 -2.9907  0.4207
 7261SOL     OW33241   3.557   0.351   5.471  0.5748  0.9761 -0.1215
 7261SOL    HW133242   3.537   0.437   5.434  1.3498  0.7321 -1.1079
 7261SOL    HW233243   3.638   0.338   5.422  0.3512  2.4498 -0.8836
 7262SOL     OW33244   0.519   2.434   4.380  0.1609 -0.0614 -0.5705
 7262SOL    HW133245   0.584   2.386   4.330 -1.2593 -2.0266 -0.5124
 7262SOL    HW233246   0.533   2.408   4.471  0.6521 -0.4577 -0.7624
 7263SOL     OW33247   4.584   2.161   5.375  0.0983 -0.2136 -0.1968
 7263SOL    HW133248   4.579   2.072   5.341 -2.1083 -0.3294  0.4646
 7263SOL    HW233249   4.505   2.186   5.423 -1.6863 -1.0394 -2.7113
 7264SOL     OW33250   1.009   3.855   9.365 -0.0197  0.0112 -0.3303
 7264SOL    HW133251   0.939   3.816   9.418 -1.1747  0.8526 -1.2447
 7264SOL    HW233252   1.034   3.778   9.313  0.8670  0.1170 -0.0513
 7265SOL     OW33253   4.558   1.861   5.367  0.9619 -0.4671 -0.5963
 7265SOL    HW133254   4.471   1.828   5.390  1.3303 -0.6719  0.4941
 7265SOL    HW233255   4.548   1.866   5.272 -2.1318 -0.5473 -0.2942
 7266SOL     OW33256   0.682   0.548  11.604  0.3169  0.4068 -0.2573
 7266SOL    HW133257   0.685   0.453  11.614  1.2025  0.7164  2.2827
 7266SOL    HW233258   0.772   0.573  11.585  0.7831 -0.9138  0.2242
 7267SOL     OW33259   2.014   2.853  12.437 -0.3707  0.1539 -0.5920
 7267SOL    HW133260   1.998   2.945  12.461 -0.1672 -0.2462  1.1307
 7267SOL    HW233261   2.100   2.863  12.396  0.4684 -0.1073  1.0790
 7268SOL     OW33262   1.597   0.066   3.478 -0.3526  0.6195 -0.2275
 7268SOL    HW133263   1.664   0.010   3.518 -1.4912  1.3103  2.6485
 7268SOL    HW233264   1.660   0.111   3.422 -1.7131  0.3543 -1.9682
 7269SOL     OW33265   2.091   0.263   5.739  0.2682 -0.4037 -0.3868
 7269SOL    HW133266   2.137   0.222   5.665  1.6495 -1.4317  1.0485
 7269SOL    HW233267   2.046   0.185   5.772 -1.4789  0.0016 -1.8037
 7270SOL     OW33268   4.544   3.434   7.314 -0.2342  0.3869  0.4203
 7270SOL    HW133269   4.613   3.500   7.305 -0.1503  0.7621  3.8105
 7270SOL    HW233270   4.585   3.366   7.368  1.1179  1.6231  0.9319
 7271SOL     OW33271   0.933   1.983   4.626  0.2209  0.2943  0.8055
 7271SOL    HW133272   0.973   1.920   4.566  0.8581  0.4931  1.0167
 7271SOL    HW233273   0.849   2.001   4.585  0.9856  2.2506  0.1143
 7272SOL     OW33274   2.686   1.056   4.230 -0.0377  0.2569  0.4122
 7272SOL    HW133275   2.763   1.049   4.173 -0.4954  0.0299 -0.1886
 7272SOL    HW233276   2.702   0.972   4.273  0.7902  1.2783  2.0673
 7273SOL     OW33277   0.806   4.635   2.583  0.1001 -0.4263 -0.0360
 7273SOL    HW133278   0.712   4.648   2.573  0.6351  2.5123 -1.3071
 7273SOL    HW233279   0.839   4.661   2.669  2.0216  0.4397 -1.0416
 7274SOL     OW33280   4.047   2.450   7.677 -0.3001  0.6789 -0.0098
 7274SOL    HW133281   3.968   2.494   7.706 -1.9619 -1.5439 -1.1773
 7274SOL    HW233282   4.094   2.507   7.615 -0.8869  0.4878 -0.6259
 7275SOL     OW33283   2.885   3.452   9.856  0.1312  0.7357 -0.5366
 7275SOL    HW133284   2.940   3.516   9.810 -0.7207  1.9333  0.0991
 7275SOL    HW233285   2.816   3.516   9.877  2.7531  2.5108  2.6829
 7276SOL     OW33286   4.008   3.892   8.195 -0.0578 -0.0442  0.4334
 7276SOL    HW133287   4.005   3.883   8.100 -1.1717  0.3870  0.4297
 7276SOL    HW233288   4.066   3.822   8.226  0.8256 -0.4408 -2.1761
 7277SOL     OW33289   2.686   2.787   3.751  0.1958 -0.2046 -0.1376
 7277SOL    HW133290   2.733   2.749   3.676 -0.0288  1.3192 -1.0583
 7277SOL    HW233291   2.712   2.730   3.823 -2.2424 -1.3512 -0.1778
 7278SOL     OW33292   4.525   0.426   6.932 -0.1229  0.4463 -0.3004
 7278SOL    HW133293   4.534   0.476   6.851 -2.4586 -1.7869 -1.9488
 7278SOL    HW233294   4.600   0.368   6.916 -0.8883 -0.3877 -0.8365
 7279SOL     OW33295   2.866   0.931  17.692  0.2418  0.0955  0.0920
 7279SOL    HW133296   2.864   0.991   0.057  1.0148 -0.0694  0.2389
 7279SOL    HW233297   2.774   0.903  17.690  0.3440 -0.3812  1.7924
 7280SOL     OW33298   3.994   1.212   0.111  0.4532  0.8330  0.1879
 7280SOL    HW133299   4.000   1.125   0.150 -0.4827  0.8451  0.3797
 7280SOL    HW233300   4.080   1.237   0.079  0.6370  2.1614  1.6963
 7281SOL     OW33301   1.577   2.147  11.844  0.6049 -0.0675  0.0084
 7281SOL    HW133302   1.612   2.070  11.798  0.1134  0.3854 -1.1331
 7281SOL    HW233303   1.649   2.162  11.905  1.5535 -1.0695 -0.8656
 7282SOL     OW33304   1.910   4.445  16.283 -0.3822  0.3455 -0.0578
 7282SOL    HW133305   1.818   4.442  16.307 -0.1538 -1.6807  0.5337
 7282SOL    HW233306   1.955   4.412  16.361 -1.4573 -0.4958  0.1960
 7283SOL     OW33307   3.402   2.332   6.178 -0.3488 -0.3145 -0.8214
 7283SOL    HW133308   3.467   2.402   6.172  0.7740 -1.1579  1.7496
 7283SOL    HW233309   3.452   2.250   6.184 -1.3255 -0.8392  0.1488
 7284SOL     OW33310   1.958   0.753   6.436 -0.3002  0.2398 -0.2094
 7284SOL    HW133311   1.883   0.794   6.480  2.1536  0.0155  4.1830
 7284SOL    HW233312   1.923   0.669   6.407 -0.6731  0.9139 -1.7085
 7285SOL     OW33313   2.690   1.764   2.533  0.1008  0.5637  0.2173
 7285SOL    HW133314   2.711   1.736   2.444 -0.0336 -2.0196  0.9855
 7285SOL    HW233315   2.769   1.742   2.583  1.0654  0.3219 -1.3929
 7286SOL     OW33316   2.647   2.625   7.026  0.2994  0.5125 -0.2572
 7286SOL    HW133317   2.588   2.685   6.980 -0.9376  0.1729  0.8961
 7286SOL    HW233318   2.684   2.572   6.955  0.1663  0.2771 -0.1500
 7287SOL     OW33319   4.353   1.883   8.368 -0.0916  0.4558 -0.1743
 7287SOL    HW133320   4.352   1.938   8.290  1.0683  0.0452 -0.4729
 7287SOL    HW233321   4.304   1.803   8.349 -1.4715  1.3817 -0.5233
 7288SOL     OW33322   1.855   3.837   8.943 -0.0915  0.0177 -0.0637
 7288SOL    HW133323   1.828   3.762   8.997 -0.0483  1.1553  1.5250
 7288SOL    HW233324   1.908   3.796   8.875 -0.8415 -1.4926  0.2593
 7289SOL     OW33325   0.044   1.671  13.157 -0.0848  0.2853  0.7846
 7289SOL    HW133326   0.120   1.612  13.168  0.7216  1.3351  0.8263
 7289SOL    HW233327   0.088   1.754  13.177 -3.0041  1.8609  0.5809
 7290SOL     OW33328   1.264   2.878  14.997  0.0361 -0.6532 -0.0981
 7290SOL    HW133329   1.225   2.821  14.931 -1.0036  1.4953 -1.3218
 7290SOL    HW233330   1.347   2.887  14.950 -0.4394  1.6584 -0.4882
 7291SOL     OW33331   4.156   0.580   5.372 -0.8187  0.2825 -0.0763
 7291SOL    HW133332   4.154   0.531   5.455 -0.7233 -0.9851 -0.8185
 7291SOL    HW233333   4.234   0.541   5.332 -0.3470  0.4223  0.6971
 7292SOL     OW33334   3.907   4.118   2.404  0.0700 -0.9141  0.4100
 7292SOL    HW133335   3.963   4.081   2.472 -0.0966 -0.2229  0.9209
 7292SOL    HW233336   3.892   4.040   2.350  0.8658 -0.3228 -0.6520
 7293SOL     OW33337   3.356   0.507   8.374  0.3111  0.0409  0.1264
 7293SOL    HW133338   3.436   0.554   8.354  0.8015  0.1692  2.4168
 7293SOL    HW233339   3.374   0.421   8.336 -3.6039 -0.1356 -1.3865
 7294SOL     OW33340   1.556   1.508   5.418  0.0946 -0.2556 -0.3670
 7294SOL    HW133341   1.482   1.454   5.443  1.0036 -0.2061  2.5375
 7294SOL    HW233342   1.594   1.446   5.356 -2.3321 -2.0652 -0.0112
 7295SOL     OW33343   2.091   2.244   6.807 -0.6868 -0.3949  0.0469
 7295SOL    HW133344   2.019   2.264   6.748 -0.9104  2.8558  1.4189
 7295SOL    HW233345   2.166   2.234   6.748 -1.0081 -0.3827 -0.3566
 7296SOL     OW33346   0.307   3.259   2.885 -0.1435  0.4041  0.1954
 7296SOL    HW133347   0.249   3.185   2.906  0.5419 -0.6633 -1.6711
 7296SOL    HW233348   0.316   3.242   2.791 -0.9599 -0.3701  0.2504
 7297SOL     OW33349   2.766   4.380  13.484 -0.0693  0.2383  0.4766
 7297SOL    HW133350   2.718   4.383  13.401  0.3692 -1.9554  0.1334
 7297SOL    HW233351   2.743   4.295  13.522 -2.7629  0.8768  0.2771
 7298SOL     OW33352   1.179   1.069   1.215 -0.0015  0.4464  0.1263
 7298SOL    HW133353   1.262   1.028   1.239 -0.9544 -1.3469  0.4119
 7298SOL    HW233354   1.124   1.024   1.280 -1.6015 -1.4649 -2.5280
 7299SOL     OW33355   1.296   2.777   9.022  0.3274 -0.1069  0.4669
 7299SOL    HW133356   1.385   2.767   9.056 -0.5948  0.2430  2.9235
 7299SOL    HW233357   1.325   2.802   8.934 -0.5726  0.9009  0.4425
 7300SOL     OW33358   3.026   2.196   8.467  0.0122 -0.0675  0.2964
 7300SOL    HW133359   2.958   2.131   8.447 -0.2881  0.3029  0.1132
 7300SOL    HW233360   3.067   2.155   8.542  0.9891  0.9412  0.3157
 7301SOL     OW33361   2.120   1.573   3.368  0.1858 -0.6127 -0.0843
 7301SOL    HW133362   2.210   1.561   3.336  0.9313  1.6015  1.1741
 7301SOL    HW233363   2.125   1.562   3.463  0.5730  1.1106  0.0915
 7302SOL     OW33364   1.542   0.251   6.744  0.1498 -0.3055 -0.2335
 7302SOL    HW133365   1.505   0.323   6.694  1.5332  0.3671 -0.3003
 7302SOL    HW233366   1.482   0.180   6.721 -0.0043 -0.2693  0.0616
 7303SOL     OW33367   4.691   3.502  16.429 -0.4576 -0.3380 -0.4334
 7303SOL    HW133368   4.698   3.493  16.334 -2.7195 -1.8040 -0.4560
 7303SOL    HW233369   4.597   3.491  16.438 -0.8803  1.6920 -2.3454
 7304SOL     OW33370   2.505   2.613  12.466 -0.0022  0.3123  0.2614
 7304SOL    HW133371   2.539   2.702  12.470 -0.7994  0.6570 -0.6825
 7304SOL    HW233372   2.409   2.616  12.466 -0.0305 -0.0700 -2.9950
 7305SOL     OW33373   2.800   0.353   0.849  0.2851  0.4552 -0.3978
 7305SOL    HW133374   2.845   0.327   0.769  1.5202 -1.1068  0.8202
 7305SOL    HW233375   2.716   0.383   0.814 -0.3307 -0.8121 -0.0321
 7306SOL     OW33376   2.452   1.436   7.115 -0.4134  0.6353  0.1005
 7306SOL    HW133377   2.370   1.387   7.124  0.9048 -1.4047  0.8774
 7306SOL    HW233378   2.494   1.403   7.036  0.1198  0.7735  0.3227
 7307SOL     OW33379   3.160   1.107   5.384  0.0063 -0.2351 -0.2382
 7307SOL    HW133380   3.087   1.049   5.406 -1.6368  1.5765 -0.9055
 7307SOL    HW233381   3.134   1.144   5.300  1.8617  1.3484 -0.1268
 7308SOL     OW33382   3.595   0.890   8.410 -0.0559 -0.2389 -0.4627
 7308SOL    HW133383   3.639   0.955   8.465 -1.6447 -0.2116  0.7827
 7308SOL    HW233384   3.504   0.919   8.420  0.1766 -0.3573  1.8930
 7309SOL     OW33385   2.158   2.876   1.239  0.8679  0.3579 -0.1774
 7309SOL    HW133386   2.229   2.858   1.300  1.6024  1.3778 -0.7167
 7309SOL    HW233387   2.085   2.825   1.273 -0.0561  1.2271 -0.8431
 7310SOL     OW33388   3.752   3.474   7.483 -0.5569  0.0801 -0.4381
 7310SOL    HW133389   3.750   3.446   7.392 -1.0323  0.4323 -0.5359
 7310SOL    HW233390   3.732   3.399   7.539  2.2023 -0.2928  0.0478
 7311SOL     OW33391   3.273   2.825   2.499  0.1595 -0.7255 -0.0596
 7311SOL    HW133392   3.267   2.916   2.470  1.3903 -0.8378 -0.6329
 7311SOL    HW233393   3.280   2.785   2.413  0.4627 -1.8156  0.4763
 7312SOL     OW33394   1.959   2.496   3.601  0.2859  0.7797  0.8070
 7312SOL    HW133395   1.997   2.483   3.514  0.4112 -2.7118  1.3528
 7312SOL    HW233396   1.892   2.555   3.569 -0.0924 -1.1099 -1.9119
 7313SOL     OW33397   3.713   4.196   8.212 -0.3314  0.1578  0.3016
 7313SOL    HW133398   3.809   4.186   8.215 -0.3755 -0.1435  0.7370
 7313SOL    HW233399   3.687   4.248   8.288 -1.8341 -2.2786  1.4435
 7314SOL     OW33400   3.482   0.160  11.833  0.0263 -0.3033 -0.1723
 7314SOL    HW133401   3.488   0.074  11.790  0.0372  0.2622 -1.3099
 7314SOL    HW233402   3.388   0.174  11.823 -0.0500  0.6262  1.8895
 7315SOL     OW33403   4.497   1.325   3.816 -0.0200  0.1991 -0.8037
 7315SOL    HW133404   4.459   1.374   3.889 -1.4727 -1.0165 -0.7302
 7315SOL    HW233405   4.490   1.236   3.850 -4.6188  1.1687  0.8254
 7316SOL     OW33406   0.925   4.649   5.962 -0.4107  0.0301 -0.7166
 7316SOL    HW133407   0.990   4.707   5.922  0.5602 -0.9972 -0.6262
 7316SOL    HW233408   0.849   4.707   5.965  0.0425  0.6013 -0.0523
 7317SOL     OW33409   3.889   3.976   6.252 -0.3986 -0.0008  0.5965
 7317SOL    HW133410   3.863   4.062   6.220 -0.5652  0.1273  1.0759
 7317SOL    HW233411   3.805   3.929   6.251 -1.4602  1.8953  0.4413
 7318SOL     OW33412   1.645   3.138   0.297 -0.4986  0.2371  0.2326
 7318SOL    HW133413   1.656   3.228   0.328  0.1326 -0.3813  1.8113
 7318SOL    HW233414   1.734   3.105   0.312 -0.4145 -0.2112 -1.2691
 7319SOL     OW33415   0.526   0.863   7.296  0.1143  0.1973 -0.4690
 7319SOL    HW133416   0.441   0.866   7.250  0.5320 -1.5895 -1.3686
 7319SOL    HW233417   0.510   0.916   7.374 -2.0991 -0.4934 -0.4503
 7320SOL     OW33418   0.357   3.100  10.719  0.0407 -0.6875  0.3624
 7320SOL    HW133419   0.381   3.062  10.804  0.3647 -0.1984  0.4889
 7320SOL    HW233420   0.373   3.019  10.670  0.5469  1.0955 -2.3566
 7321SOL     OW33421   1.297   2.938   2.961 -0.2297 -0.2893  0.0701
 7321SOL    HW133422   1.315   3.023   2.920 -1.7685 -0.5914 -1.2379
 7321SOL    HW233423   1.213   2.946   3.006  0.1852 -1.0981  0.9889
 7322SOL     OW33424   2.774   0.685   0.883 -0.4504  0.1426  0.2258
 7322SOL    HW133425   2.702   0.636   0.844 -2.1947  3.0705 -0.1853
 7322SOL    HW233426   2.797   0.622   0.952  0.0702  0.2762  0.1722
 7323SOL     OW33427   2.149   1.393   2.557  0.1029 -0.2122  0.5424
 7323SOL    HW133428   2.105   1.448   2.493  1.6110  0.6501  0.2315
 7323SOL    HW233429   2.082   1.331   2.586 -1.2231 -0.0591 -2.2064
 7324SOL     OW33430   4.671   4.095   9.283  0.0879  0.0021 -0.3143
 7324SOL    HW133431   4.663   4.140   9.199 -0.7856  2.4289  1.0815
 7324SOL    HW233432   4.579   4.079   9.303 -0.3979  2.6144 -0.5140
 7325SOL     OW33433   3.318   3.112  15.222 -0.2983  0.1076 -0.1587
 7325SOL    HW133434   3.400   3.106  15.174 -1.5960 -1.7465 -2.1698
 7325SOL    HW233435   3.347   3.122  15.313  3.3512  2.1540 -1.5642
 7326SOL     OW33436   3.108   3.569  11.146  0.3963  0.2073 -0.3951
 7326SOL    HW133437   3.190   3.615  11.131 -0.8132  2.4149 -0.2740
 7326SOL    HW233438   3.123   3.560  11.240 -0.3018 -0.3353 -0.3373
 7327SOL     OW33439   2.840   3.848   3.077  0.5210  0.1015  0.3106
 7327SOL    HW133440   2.766   3.789   3.078  0.3459  0.3329  0.8247
 7327SOL    HW233441   2.894   3.816   3.004  1.3155  0.2849  0.8100
 7328SOL     OW33442   0.729   2.624  14.099  0.0812  0.0352  0.3547
 7328SOL    HW133443   0.726   2.529  14.089 -0.7056  0.0413  0.5607
 7328SOL    HW233444   0.792   2.640  14.028 -0.0838 -1.7790 -0.2068
 7329SOL     OW33445   4.159   3.250  17.591 -0.4290  0.0426 -0.5382
 7329SOL    HW133446   4.099   3.191  17.636 -1.1068  0.1933 -1.2472
 7329SOL    HW233447   4.097   3.291  17.531 -1.0533 -0.3777 -0.1737
 7330SOL     OW33448   0.432   0.227   6.727  0.2932  0.0103  0.4557
 7330SOL    HW133449   0.415   0.141   6.765  0.7104 -1.2590 -2.2384
 7330SOL    HW233450   0.457   0.276   6.806 -1.3261 -1.8658  2.1149
 7331SOL     OW33451   2.797   2.766   8.117  0.2248  0.2401  0.4183
 7331SOL    HW133452   2.856   2.804   8.052  1.5196 -1.0722  0.8171
 7331SOL    HW233453   2.719   2.818   8.096  1.7254  1.8711 -1.1053
 7332SOL     OW33454   2.097   3.297  13.718 -0.1706 -0.0116  0.0106
 7332SOL    HW133455   2.136   3.384  13.730 -2.3705  0.6966  1.9708
 7332SOL    HW233456   2.003   3.316  13.714 -1.0129 -4.3551 -0.7081
 7333SOL     OW33457   3.837   3.840   4.830  0.5076 -0.8391  0.1379
 7333SOL    HW133458   3.814   3.825   4.922  1.1348  0.7580  0.5522
 7333SOL    HW233459   3.847   3.935   4.819  0.8055 -1.0907 -1.6716
 7334SOL     OW33460   1.810   2.418  17.378  0.2076  0.1308  0.6274
 7334SOL    HW133461   1.844   2.498  17.416 -0.3238  0.7066 -0.0872
 7334SOL    HW233462   1.879   2.385  17.321 -0.6019 -1.4799  0.5640
 7335SOL     OW33463   4.666   2.588   1.644  0.5565 -0.5188  0.0008
 7335SOL    HW133464   4.628   2.587   1.732  1.3641 -1.5934  0.3396
 7335SOL    HW233465   4.719   2.666   1.657  0.6510 -0.6692  0.5473
 7336SOL     OW33466   0.200   0.598   2.684 -0.6006 -0.5338  0.1630
 7336SOL    HW133467   0.267   0.545   2.727  0.0351  0.6460  0.6123
 7336SOL    HW233468   0.144   0.622   2.759 -1.7181 -0.2767 -0.7534
 7337SOL     OW33469   3.752   0.119   5.940 -0.1884  0.4965  0.1020
 7337SOL    HW133470   3.830   0.174   5.942 -2.1466  3.2807 -0.3925
 7337SOL    HW233471   3.778   0.050   5.878  0.9672  1.2742 -0.2775
 7338SOL     OW33472   2.745   3.508   8.348 -0.0035 -0.4491  0.1206
 7338SOL    HW133473   2.762   3.417   8.373  0.5029 -0.0856  1.0839
 7338SOL    HW233474   2.735   3.502   8.253 -0.2023  0.2380  0.1004
 7339SOL     OW33475   3.617   1.193   4.639  1.0533 -0.5381 -0.4105
 7339SOL    HW133476   3.608   1.185   4.544 -0.6871 -2.6457 -0.0543
 7339SOL    HW233477   3.615   1.289   4.642  0.3091 -0.5876  0.5238
 7340SOL     OW33478   4.545   2.293  16.474 -0.3445 -0.0133  0.2565
 7340SOL    HW133479   4.506   2.297  16.561 -1.1256  0.2843 -0.1035
 7340SOL    HW233480   4.599   2.216  16.488  1.1129  0.8213 -0.7181
 7341SOL     OW33481   0.526   2.929   2.141  0.2317 -0.0918  0.4685
 7341SOL    HW133482   0.553   2.893   2.225  0.4504  4.2934  2.3172
 7341SOL    HW233483   0.611   2.940   2.099  1.4166 -0.7966  2.7178
 7342SOL     OW33484   0.410   2.988   8.781 -0.0210  0.1675  0.7110
 7342SOL    HW133485   0.391   3.080   8.763 -0.2575 -0.3071 -1.5208
 7342SOL    HW233486   0.385   2.978   8.873  1.0585 -0.7933  0.9045
 7343SOL     OW33487   0.338   3.391   3.753  0.0337 -0.0644 -0.3686
 7343SOL    HW133488   0.305   3.338   3.826 -0.4831 -0.1634 -0.6752
 7343SOL    HW233489   0.322   3.479   3.786 -1.6179 -1.4427  2.4641
 7344SOL     OW33490   0.829   3.266   2.035 -0.0104  0.6256  0.3805
 7344SOL    HW133491   0.823   3.259   1.940  2.9403 -2.4326  0.4056
 7344SOL    HW233492   0.826   3.359   2.058 -0.1472  0.9282 -0.8715
 7345SOL     OW33493   1.038   0.548   3.510 -0.0995 -0.3556  0.4899
 7345SOL    HW133494   1.102   0.547   3.581 -1.8364 -1.8570  2.0478
 7345SOL    HW233495   1.000   0.460   3.510  0.2502 -0.5109 -0.4924
 7346SOL     OW33496   3.717   3.006   1.437 -0.3109 -0.3275  0.2691
 7346SOL    HW133497   3.631   3.048   1.436  0.4737  1.2747 -1.0462
 7346SOL    HW233498   3.774   3.074   1.471  1.8605 -2.7722  1.5228
 7347SOL     OW33499   4.249   4.507   9.635  0.0893 -0.4653 -0.1770
 7347SOL    HW133500   4.201   4.456   9.700 -0.4651 -0.6628 -0.7429
 7347SOL    HW233501   4.327   4.453   9.621 -0.8636 -2.3850  1.9081
 7348SOL     OW33502   3.095   3.286   6.290 -0.0822  0.4267 -0.1624
 7348SOL    HW133503   3.105   3.298   6.385  1.8603  1.1134 -0.4454
 7348SOL    HW233504   3.030   3.216   6.282 -0.7602  0.5781  3.8276
 7349SOL     OW33505   2.584   3.451  10.345  0.8439 -0.3289 -0.5705
 7349SOL    HW133506   2.535   3.400  10.410  0.6617  0.1727 -0.3151
 7349SOL    HW233507   2.668   3.443  10.392  1.6516  0.7620 -1.8469
 7350SOL     OW33508   0.587   1.565   8.694 -0.1683  0.6338 -0.2265
 7350SOL    HW133509   0.625   1.478   8.706 -0.9026  0.4278  0.5825
 7350SOL    HW233510   0.501   1.531   8.668 -0.1790 -1.4718  2.5687
 7351SOL     OW33511   3.924   3.479   5.586  0.2401 -0.1310  0.0734
 7351SOL    HW133512   3.996   3.522   5.631  0.1889 -0.6323  0.6364
 7351SOL    HW233513   3.953   3.389   5.604 -1.8165 -0.8813 -0.3496
 7352SOL     OW33514   0.012   3.037   8.761 -0.8180  0.2416  0.2093
 7352SOL    HW133515   0.008   3.105   8.828 -2.3421 -1.3050  1.6706
 7352SOL    HW233516   4.655   3.054   8.717 -1.0700 -1.3502  0.0912
 7353SOL     OW33517   0.792   1.664  17.350  0.0799  0.2617  0.0620
 7353SOL    HW133518   0.878   1.687  17.385 -0.2866 -0.7560  1.6202
 7353SOL    HW233519   0.764   1.587  17.399 -0.1351 -0.7791 -1.6665
 7354SOL     OW33520   2.550   2.664   6.576  0.3506  0.4484  0.0136
 7354SOL    HW133521   2.544   2.734   6.640 -0.3915 -1.0128  1.5371
 7354SOL    HW233522   2.640   2.630   6.581 -0.2975 -0.9927  1.7266
 7355SOL     OW33523   2.562   1.139   7.403  0.2044  0.0372 -0.4201
 7355SOL    HW133524   2.649   1.156   7.366  0.4394  0.1315  0.1684
 7355SOL    HW233525   2.542   1.221   7.449 -0.4843 -0.1490 -0.3888
 7356SOL     OW33526   2.494   1.288  10.641 -0.2137 -0.5531 -0.5607
 7356SOL    HW133527   2.437   1.329  10.577  0.7866  1.7775  0.0488
 7356SOL    HW233528   2.508   1.203  10.599  0.7030 -0.1914 -0.9906
 7357SOL     OW33529   3.482   3.081   6.687 -0.4499 -0.2973 -0.3224
 7357SOL    HW133530   3.390   3.101   6.705 -0.2393 -1.9193  2.5518
 7357SOL    HW233531   3.513   3.067   6.777 -2.0964 -0.0468  0.2838
 7358SOL     OW33532   2.075   1.986  16.428  0.1862 -0.1665 -0.1576
 7358SOL    HW133533   2.080   2.059  16.367 -0.4682 -1.2323 -1.5046
 7358SOL    HW233534   1.985   1.988  16.461  0.7106 -0.8724  1.3537
 7359SOL     OW33535   4.247   4.173  17.115 -0.5011 -0.4995  0.4030
 7359SOL    HW133536   4.162   4.185  17.072 -0.3347 -0.6518  0.0336
 7359SOL    HW233537   4.227   4.158  17.208 -0.3187  2.2149  0.8616
 7360SOL     OW33538   2.636   4.512  13.011 -0.6354  0.1853  0.3767
 7360SOL    HW133539   2.601   4.491  12.924 -1.2902  0.4900  0.5676
 7360SOL    HW233540   2.678   4.595  12.987  0.0359 -0.0086  0.8909
 7361SOL     OW33541   0.103   3.887   1.290 -0.6954 -0.4650  0.0758
 7361SOL    HW133542   0.038   3.822   1.263 -0.7571 -0.6686  0.7113
 7361SOL    HW233543   0.044   3.954   1.325  0.2556  0.7304 -0.5850
 7362SOL     OW33544   2.645   0.752  12.362  0.1579 -0.0897  0.4997
 7362SOL    HW133545   2.606   0.776  12.446  1.2798 -1.5523  1.4396
 7362SOL    HW233546   2.712   0.689  12.390  1.5159  0.8460 -0.6891
 7363SOL     OW33547   4.344   1.746   4.443 -1.0737 -0.5688 -0.0178
 7363SOL    HW133548   4.348   1.842   4.449 -3.0847 -0.4222 -0.7935
 7363SOL    HW233549   4.381   1.725   4.529  0.9972 -0.5602 -0.9154
 7364SOL     OW33550   1.426   3.564   5.325 -0.3644  0.5750  0.7985
 7364SOL    HW133551   1.509   3.521   5.344  0.8217  1.3841 -2.6662
 7364SOL    HW233552   1.440   3.609   5.242 -0.8875  0.4661  0.6486
 7365SOL     OW33553   1.349   0.937   3.769 -0.2513 -0.3140  0.0415
 7365SOL    HW133554   1.418   0.994   3.737  0.7568 -0.5155  1.8986
 7365SOL    HW233555   1.378   0.860   3.719  0.3338 -1.0395  1.4995
 7366SOL     OW33556   1.290   4.422  13.986 -0.6777 -0.0913 -0.2134
 7366SOL    HW133557   1.338   4.467  13.916  0.5798 -0.2088  0.5830
 7366SOL    HW233558   1.277   4.491  14.051  0.9226 -0.2847  0.3012
 7367SOL     OW33559   3.692   1.927   3.591  0.2318  0.5360  0.1363
 7367SOL    HW133560   3.776   1.907   3.550  1.3479 -0.2463  2.7523
 7367SOL    HW233561   3.724   1.958   3.676  1.6294 -0.8894  0.1323
 7368SOL     OW33562   2.349   2.912   4.248  0.3830  0.0753  0.3513
 7368SOL    HW133563   2.354   2.870   4.334 -1.1014  0.9024  0.8345
 7368SOL    HW233564   2.254   2.926   4.248  0.3567 -0.1065 -0.4964
 7369SOL     OW33565   1.837   4.721  12.779  0.0518 -0.3273 -0.4543
 7369SOL    HW133566   1.859   0.016  12.688  2.1448  3.3772  0.9256
 7369SOL    HW233567   1.770   4.654  12.770  0.0220 -0.3551 -0.0076
 7370SOL     OW33568   3.242   1.804  16.659 -0.2983  0.2267  0.1084
 7370SOL    HW133569   3.268   1.873  16.597  1.3841 -0.1606  0.3817
 7370SOL    HW233570   3.271   1.730  16.607 -2.0948 -0.5220  0.1867
 7371SOL     OW33571   0.602   1.752  16.033 -0.0337  0.6297 -0.5914
 7371SOL    HW133572   0.616   1.679  15.973 -0.4698 -0.0484  0.1290
 7371SOL    HW233573   0.528   1.797  15.992  1.0799  1.7730 -1.3419
 7372SOL     OW33574   4.171   0.201  15.279  0.0814 -0.3571  0.6162
 7372SOL    HW133575   4.217   0.198  15.196  0.2499 -0.0921  0.7017
 7372SOL    HW233576   4.250   0.198  15.333  1.3467 -2.7070 -1.3899
 7373SOL     OW33577   2.335   0.661   5.777  0.3183  0.2345  0.4954
 7373SOL    HW133578   2.253   0.676   5.730 -0.1207 -1.0012  0.8433
 7373SOL    HW233579   2.381   0.745   5.770 -0.0538  0.2810 -1.3461
 7374SOL     OW33580   1.470   1.281   8.104 -0.1088  0.1301  0.1880
 7374SOL    HW133581   1.495   1.211   8.043 -3.0013  0.6686 -1.6212
 7374SOL    HW233582   1.379   1.298   8.082 -0.5617 -1.7596  0.6482
 7375SOL     OW33583   2.835   2.105   7.947  0.3908 -0.9155  0.3027
 7375SOL    HW133584   2.768   2.097   8.015  1.6988 -1.0546  1.5804
 7375SOL    HW233585   2.772   2.137   7.882  0.3003 -1.8292 -0.0623
 7376SOL     OW33586   2.055   1.813   6.427 -0.0108  0.0933 -0.4295
 7376SOL    HW133587   2.110   1.772   6.361  0.2029 -1.7371  0.8669
 7376SOL    HW233588   2.000   1.873   6.376 -2.9184 -0.9843  1.4066
 7377SOL     OW33589   0.062   0.850   4.172  0.2060 -0.0397  0.1620
 7377SOL    HW133590   0.142   0.805   4.147 -0.0006 -0.0342 -0.5264
 7377SOL    HW233591   0.074   0.886   4.259  1.6615  1.1890 -0.5557
 7378SOL     OW33592   2.510   1.548  15.179  0.2103 -1.1115  0.7727
 7378SOL    HW133593   2.597   1.587  15.182 -0.0027 -0.4874 -0.9963
 7378SOL    HW233594   2.534   1.457  15.195  0.8664 -0.7848  1.6181
 7379SOL     OW33595   4.572   4.149   7.929  0.3617 -0.1455  0.7504
 7379SOL    HW133596   4.646   4.098   7.896  1.2349  1.2830  0.4938
 7379SOL    HW233597   4.621   4.189   8.001  1.4493 -0.7259  0.3313
 7380SOL     OW33598   3.654   1.363   3.157 -0.3284  0.1406  0.1134
 7380SOL    HW133599   3.640   1.375   3.063  3.3527 -2.9995 -0.8408
 7380SOL    HW233600   3.688   1.274   3.167 -1.7311 -0.4234 -0.1531
 7381SOL     OW33601   4.267   3.527  15.557  0.3424  0.1072  0.1332
 7381SOL    HW133602   4.171   3.530  15.557  0.3138 -0.7182 -2.0676
 7381SOL    HW233603   4.284   3.486  15.473 -2.0712 -2.1840  0.7364
 7382SOL     OW33604   3.520   2.402   8.544  0.2238  0.7047  0.2176
 7382SOL    HW133605   3.512   2.310   8.568 -1.5939  0.7113 -0.3093
 7382SOL    HW233606   3.512   2.447   8.628 -1.0476  0.2262  0.3509
 7383SOL     OW33607   0.065   2.820   4.965 -0.1966  0.1306 -0.4084
 7383SOL    HW133608   0.054   2.826   5.059 -3.5947 -1.3236 -0.7192
 7383SOL    HW233609   0.017   2.739   4.946  0.6564 -0.1996 -1.1809
 7384SOL     OW33610   0.112   2.702   2.870 -0.7928  0.4493  0.1378
 7384SOL    HW133611   0.023   2.669   2.882 -0.5738 -0.0957  0.2150
 7384SOL    HW233612   0.103   2.712   2.775 -1.0674 -3.1339 -0.1933
 7385SOL     OW33613   1.581   1.941  16.647  0.1804  0.2697 -0.6885
 7385SOL    HW133614   1.665   1.971  16.614 -0.4044  2.9224  0.2233
 7385SOL    HW233615   1.580   1.966  16.739  2.1133 -2.8415  0.1502
 7386SOL     OW33616   2.254   1.082   8.210 -0.0459 -0.3331 -0.8544
 7386SOL    HW133617   2.233   1.111   8.121 -2.2065 -0.2332 -0.3228
 7386SOL    HW233618   2.225   0.991   8.214 -4.9448  1.1763 -1.6821
 7387SOL     OW33619   3.209   2.925   9.278  0.0971 -0.0884  0.1892
 7387SOL    HW133620   3.126   2.899   9.318 -2.1514  1.1535 -3.7399
 7387SOL    HW233621   3.202   3.021   9.277 -0.0658 -0.0715  2.2736
 7388SOL     OW33622   0.194   1.620  16.331  0.4425  0.0832 -0.1662
 7388SOL    HW133623   0.286   1.631  16.307  0.0905  1.5517 -0.8134
 7388SOL    HW233624   0.150   1.697  16.296 -0.5216 -0.4779 -0.1878
 7389SOL     OW33625   2.519   2.369   6.808  0.0937  0.3707  0.3000
 7389SOL    HW133626   2.578   2.438   6.778 -0.1693  0.0179 -1.0364
 7389SOL    HW233627   2.551   2.299   6.751  2.1174  0.5840  1.1816
 7390SOL     OW33628   2.595   0.022   0.224  0.5204 -0.1080 -0.0214
 7390SOL    HW133629   2.507   4.716   0.208  0.6807 -0.0739 -1.0305
 7390SOL    HW233630   2.586   0.112   0.190 -4.8041 -1.1648 -1.4543
 7391SOL     OW33631   2.918   2.125   4.927  0.1183  0.0290  0.3692
 7391SOL    HW133632   2.832   2.137   4.886 -0.5248  1.1401  2.0271
 7391SOL    HW233633   2.946   2.215   4.945 -0.2293  0.0871  0.6172
 7392SOL     OW33634   3.271   4.607  16.057  0.0909  0.1616 -0.1756
 7392SOL    HW133635   3.201   4.579  16.116  0.4224  1.0100  0.6130
 7392SOL    HW233636   3.355   4.597  16.101 -0.8083 -0.8372  1.2898
 7393SOL     OW33637   4.491   4.662   6.298  0.0318  0.1645 -0.0680
 7393SOL    HW133638   4.453   4.634   6.381 -0.0424  0.0338 -0.1464
 7393SOL    HW233639   4.476   0.029   6.296 -0.1112  0.1583  1.0591
 7394SOL     OW33640   2.919   0.511   5.047  0.3510 -0.4725 -0.2582
 7394SOL    HW133641   2.992   0.471   5.094 -0.4483  0.5648  1.8645
 7394SOL    HW233642   2.955   0.593   5.011  0.4536  0.2204  1.4590
 7395SOL     OW33643   4.212   0.873  16.899  0.4012 -0.4466  0.0442
 7395SOL    HW133644   4.166   0.912  16.973 -1.8035 -1.0202 -0.9911
 7395SOL    HW233645   4.288   0.929  16.892 -0.4699  0.6181 -0.9501
 7396SOL     OW33646   0.130   2.830   2.606  0.1279  0.2107 -0.0434
 7396SOL    HW133647   0.166   2.914   2.635  0.8815 -0.6377  1.4899
 7396SOL    HW233648   0.043   2.859   2.579  0.3284  0.1447 -0.7683
 7397SOL     OW33649   4.096   0.112  16.762 -0.2267 -0.3309 -0.2534
 7397SOL    HW133650   4.030   0.093  16.829  0.1710 -0.1424  0.1958
 7397SOL    HW233651   4.055   0.181  16.711 -0.5510 -0.8770 -0.7264
 7398SOL     OW33652   1.114   0.663   2.318 -0.0932 -0.0445  0.1765
 7398SOL    HW133653   1.179   0.614   2.368  0.9089  1.6407  0.5511
 7398SOL    HW233654   1.173   0.701   2.253  0.6737 -0.8274  0.4131
 7399SOL     OW33655   1.470   1.771   5.444 -0.0575  0.2581 -0.3335
 7399SOL    HW133656   1.473   1.675   5.442 -0.0068  0.2164  2.1540
 7399SOL    HW233657   1.427   1.791   5.361  0.7911 -0.0174 -0.8445
 7400SOL     OW33658   1.183   0.215   1.527 -0.0104  0.0855  0.1957
 7400SOL    HW133659   1.148   0.127   1.515 -1.2125  0.3985  1.4190
 7400SOL    HW233660   1.271   0.194   1.558 -0.7937 -1.5959  1.3065
 7401SOL     OW33661   4.471   0.295   2.993  0.2307 -0.1297  0.3465
 7401SOL    HW133662   4.428   0.291   2.907  2.4880  0.3672 -0.8123
 7401SOL    HW233663   4.401   0.270   3.053 -1.0568  1.1535 -0.6132
 7402SOL     OW33664   3.555   1.476   7.135 -0.2361 -0.0334 -0.2184
 7402SOL    HW133665   3.471   1.482   7.182 -0.0047 -2.2417  0.4670
 7402SOL    HW233666   3.511   1.480   7.050 -0.3290  2.3661 -0.0504
 7403SOL     OW33667   1.005   1.736   1.238 -0.1950 -0.2152  0.7906
 7403SOL    HW133668   0.916   1.737   1.274  0.4449  3.4399  2.2534
 7403SOL    HW233669   0.971   1.749   1.150  2.3481  0.1672 -0.1334
 7404SOL     OW33670   0.657   3.722   4.932  0.1385  0.4333  0.6260
 7404SOL    HW133671   0.720   3.792   4.950 -1.0486  1.9323 -0.9907
 7404SOL    HW233672   0.583   3.750   4.987 -0.2541 -2.6858  1.6998
 7405SOL     OW33673   0.969   3.261  13.239  0.4672  0.1678  0.4101
 7405SOL    HW133674   0.952   3.231  13.150  0.2248  0.3567  0.3926
 7405SOL    HW233675   0.996   3.352  13.229 -0.7197  0.5510  0.7010
 7406SOL     OW33676   0.233   4.600  12.011 -0.4158  0.2445 -0.0184
 7406SOL    HW133677   0.304   4.614  12.074  1.5870 -1.3470 -1.8810
 7406SOL    HW233678   0.169   4.562  12.071 -0.6621 -2.0951 -1.7640
 7407SOL     OW33679   0.545   3.916   9.214  0.1306  0.0657  0.1907
 7407SOL    HW133680   0.572   3.996   9.170 -1.8563 -0.0246 -1.2084
 7407SOL    HW233681   0.616   3.853   9.201  0.8746  0.5157  2.0589
 7408SOL     OW33682   0.492   2.738   4.402  0.1247 -0.0613  0.3675
 7408SOL    HW133683   0.533   2.824   4.391  0.1282 -0.0214  0.7153
 7408SOL    HW233684   0.519   2.695   4.321  0.6535  0.7202  0.1198
 7409SOL     OW33685   0.445   1.340   6.553 -0.0531 -0.1053  0.0108
 7409SOL    HW133686   0.533   1.334   6.590  0.3545  0.0191 -0.9401
 7409SOL    HW233687   0.442   1.434   6.535 -1.5608  0.4640  3.2794
 7410SOL     OW33688   1.848   2.569   1.713  0.2451 -0.0069  0.3170
 7410SOL    HW133689   1.862   2.663   1.703 -1.2689  0.1482 -0.4347
 7410SOL    HW233690   1.758   2.560   1.683  0.3035  0.2547  0.0650
 7411SOL     OW33691   0.049   0.460   3.370  0.4147 -0.0902 -0.0370
 7411SOL    HW133692   4.713   0.514   3.417 -0.2704 -1.8855  1.1232
 7411SOL    HW233693   4.715   0.386   3.358  2.1475 -1.7044  1.0119
 7412SOL     OW33694   1.824   0.871   4.481  0.1435  0.7940 -0.0574
 7412SOL    HW133695   1.913   0.905   4.484  0.4566  0.0305 -0.6082
 7412SOL    HW233696   1.827   0.809   4.408  1.1515  1.3108 -0.4464
 7413SOL     OW33697   2.138   0.479   3.723  0.2696 -0.1235 -0.2472
 7413SOL    HW133698   2.080   0.513   3.791 -1.0447 -1.5500 -0.6631
 7413SOL    HW233699   2.223   0.493   3.765 -0.3600 -1.0287  1.3333
 7414SOL     OW33700   2.778   2.050   8.249 -0.4718 -0.0441 -0.6597
 7414SOL    HW133701   2.801   2.008   8.332  0.6483 -0.5383 -1.2139
 7414SOL    HW233702   2.690   2.084   8.266 -0.3296  0.3642 -0.7336
 7415SOL     OW33703   1.180   0.795   1.465  0.1047  0.0490 -0.3695
 7415SOL    HW133704   1.232   0.810   1.544 -0.3755  0.2914 -0.0983
 7415SOL    HW233705   1.133   0.878   1.459  0.0610  0.0362 -0.2160
 7416SOL     OW33706   1.789   1.586   7.223 -0.2964 -0.1269  0.4950
 7416SOL    HW133707   1.700   1.552   7.213 -0.7186  0.6326  1.7792
 7416SOL    HW233708   1.830   1.510   7.264 -0.0633  1.0758  2.4977
 7417SOL     OW33709   1.683   3.388   6.775 -0.1219  0.7602  0.3025
 7417SOL    HW133710   1.742   3.435   6.717 -0.6523 -0.0984 -0.9488
 7417SOL    HW233711   1.608   3.381   6.715 -0.7676 -2.8556  1.4915
 7418SOL     OW33712   3.159   1.848   7.348  0.1480  0.2365 -0.0651
 7418SOL    HW133713   3.240   1.804   7.375 -0.5083 -0.1190  1.2991
 7418SOL    HW233714   3.103   1.848   7.425 -0.3291 -2.5743 -0.3935
 7419SOL     OW33715   4.105   3.628   5.704  0.5161 -0.0285 -0.4961
 7419SOL    HW133716   4.166   3.555   5.695  0.8717  0.0604  1.1211
 7419SOL    HW233717   4.140   3.678   5.778 -1.0143 -2.2464  1.7599
 7420SOL     OW33718   2.175   4.097   6.482 -0.4785 -0.4516 -0.3017
 7420SOL    HW133719   2.255   4.128   6.440  0.0853 -1.0455  0.3488
 7420SOL    HW233720   2.119   4.077   6.406 -0.4812 -0.4874 -0.2898
 7421SOL     OW33721   0.535   2.352   5.696  0.3287 -0.3187 -0.4810
 7421SOL    HW133722   0.443   2.336   5.713  0.7427  0.0501  2.0973
 7421SOL    HW233723   0.550   2.264   5.663  0.9459 -0.0863 -0.8380
 7422SOL     OW33724   3.189   4.038  17.426  0.1114 -1.4018 -0.1622
 7422SOL    HW133725   3.248   3.975  17.467  2.0226 -0.5415 -1.5692
 7422SOL    HW233726   3.107   3.992  17.444 -0.7629  1.2635  2.6795
 7423SOL     OW33727   0.376   1.711   7.993  0.3750  0.3069 -0.1004
 7423SOL    HW133728   0.411   1.648   8.057 -2.9069 -2.5762 -1.1177
 7423SOL    HW233729   0.305   1.746   8.047 -2.5434 -2.2154 -2.3172
 7424SOL     OW33730   3.411   1.180  13.611  0.5587  0.1764  0.0150
 7424SOL    HW133731   3.483   1.124  13.642 -0.1124 -1.1418 -0.7817
 7424SOL    HW233732   3.377   1.204  13.696  1.3580 -2.1878  1.0177
 7425SOL     OW33733   2.899   2.266   3.439 -0.2142  0.1609  0.2366
 7425SOL    HW133734   2.808   2.268   3.411 -0.8027  1.0442  2.2003
 7425SOL    HW233735   2.893   2.201   3.510  0.3645 -0.1246  0.0235
 7426SOL     OW33736   1.287   2.157  14.928  1.0393  0.4249 -1.0029
 7426SOL    HW133737   1.318   2.214  14.999  0.3357  1.8758 -1.8538
 7426SOL    HW233738   1.328   2.078  14.963 -2.9614 -1.8402 -1.5727
 7427SOL     OW33739   2.677   0.842   9.310  0.3576  0.9296 -0.5009
 7427SOL    HW133740   2.663   0.752   9.283 -0.4202  1.6232 -2.4166
 7427SOL    HW233741   2.757   0.834   9.362  0.7287  1.3317 -1.0092
 7428SOL     OW33742   1.868   1.852  10.547 -0.1465  0.1453  0.0655
 7428SOL    HW133743   1.884   1.914  10.476 -2.7354  2.4022  1.4156
 7428SOL    HW233744   1.849   1.768  10.506  1.0201 -0.0575 -0.0555
 7429SOL     OW33745   4.348   4.496  17.675  0.3117  0.0373 -0.0607
 7429SOL    HW133746   4.412   4.567  17.677 -0.0802  0.4570 -2.6309
 7429SOL    HW233747   4.402   4.417  17.672 -1.0557 -0.8775 -0.5942
 7430SOL     OW33748   0.241   3.515   6.574  0.2066 -0.5295 -0.7051
 7430SOL    HW133749   0.191   3.582   6.621  1.4376 -0.5740  0.6400
 7430SOL    HW233750   0.175   3.459   6.533 -0.3926 -0.4545  0.1714
 7431SOL     OW33751   4.642   4.572  14.608  0.2664 -0.0013 -0.3040
 7431SOL    HW133752   4.583   4.497  14.602  2.2583 -1.5849  0.0421
 7431SOL    HW233753   4.596   4.644  14.564  1.5181  0.1914 -1.3143
 7432SOL     OW33754   4.655   3.626   3.946  0.2345  1.0454 -0.2590
 7432SOL    HW133755   4.665   3.534   3.919  1.5276  0.7059  1.4077
 7432SOL    HW233756   4.651   3.629   4.042  3.4455  2.0760 -0.1824
 7433SOL     OW33757   1.535   2.825   8.267  0.1582  0.4874  0.6180
 7433SOL    HW133758   1.464   2.818   8.331 -0.7134 -0.6620 -0.4752
 7433SOL    HW233759   1.508   2.900   8.214 -0.8647 -1.1331 -1.1471
 7434SOL     OW33760   0.196   1.744   8.835  0.1093  0.2969 -0.3236
 7434SOL    HW133761   0.162   1.825   8.797  1.0565 -0.0974 -2.0374
 7434SOL    HW233762   0.144   1.735   8.914  1.0711  2.0460  0.4960
 7435SOL     OW33763   2.446   0.458   3.689  0.0865 -0.0439 -0.1745
 7435SOL    HW133764   2.428   0.384   3.747  0.3369  1.5457  1.9364
 7435SOL    HW233765   2.525   0.422   3.650 -0.3525 -0.8925 -0.2854
 7436SOL     OW33766   1.313   4.438   7.511  0.2199 -0.2979 -0.3185
 7436SOL    HW133767   1.380   4.482   7.565 -0.8694 -0.8530  1.4791
 7436SOL    HW233768   1.248   4.507   7.497  1.7838  0.8984 -1.7221
 7437SOL     OW33769   3.653   0.325   0.726  0.6488  0.4673  0.1280
 7437SOL    HW133770   3.591   0.359   0.661 -1.6383 -0.2213  1.9506
 7437SOL    HW233771   3.718   0.394   0.739  0.3852  0.0639  3.5142
 7438SOL     OW33772   1.547   1.548   8.390 -0.4634  0.8109 -0.0450
 7438SOL    HW133773   1.569   1.463   8.352  0.0914 -0.3750  2.9122
 7438SOL    HW233774   1.634   1.587   8.401 -0.0972 -0.5059  1.7006
 7439SOL     OW33775   4.084   0.311   1.878  0.5276  0.1381  0.1625
 7439SOL    HW133776   4.148   0.321   1.808  0.4245 -0.6583 -0.0431
 7439SOL    HW233777   4.025   0.374   1.836  0.7486  2.3942  3.2059
 7440SOL     OW33778   1.077   1.861  15.016  0.3523 -0.0687  0.3940
 7440SOL    HW133779   1.059   1.767  15.025 -1.7716  0.2415 -0.5695
 7440SOL    HW233780   0.997   1.891  15.059  1.6137  0.6456  2.2618
 7441SOL     OW33781   4.222   0.371   5.911  0.6125  0.2492  0.5905
 7441SOL    HW133782   4.312   0.394   5.888  1.2725 -2.0997  0.7911
 7441SOL    HW233783   4.239   0.294   5.965 -0.9941 -0.4188  0.1651
 7442SOL     OW33784   2.091   0.599   1.871 -0.7082 -0.2205 -0.3686
 7442SOL    HW133785   2.067   0.689   1.896  0.5785 -0.7918  2.9262
 7442SOL    HW233786   2.124   0.614   1.782 -0.7925  0.1793 -0.3357
 7443SOL     OW33787   1.852   1.489   4.836  0.1121  0.1542 -0.0219
 7443SOL    HW133788   1.856   1.508   4.930 -1.3193  0.4124 -0.0187
 7443SOL    HW233789   1.766   1.527   4.818 -0.9576 -0.9968  2.6607
 7444SOL     OW33790   2.698   4.409   2.964 -0.0818 -0.6519 -0.4884
 7444SOL    HW133791   2.693   4.397   3.058  1.2886 -3.2233 -0.7308
 7444SOL    HW233792   2.680   4.317   2.942 -0.1793 -0.8894  0.6137
 7445SOL     OW33793   3.546   4.240   8.716  0.0256  0.3500  0.7792
 7445SOL    HW133794   3.467   4.251   8.663  1.2011 -1.8546 -1.4236
 7445SOL    HW233795   3.614   4.233   8.648  0.4186  0.8399  1.1172
 7446SOL     OW33796   1.198   4.448  12.233 -1.2290 -0.6779 -0.8034
 7446SOL    HW133797   1.256   4.398  12.175  1.8351  2.7859 -0.7551
 7446SOL    HW233798   1.156   4.501  12.166  0.2035  1.1572 -0.2663
 7447SOL     OW33799   2.328   4.338  10.719  0.2322 -0.1895  0.5174
 7447SOL    HW133800   2.381   4.418  10.723 -0.7195  0.4028  1.2558
 7447SOL    HW233801   2.238   4.371  10.721 -0.1293 -1.0849 -1.2957
 7448SOL     OW33802   0.384   1.253   8.718 -0.1149  0.2524 -0.3448
 7448SOL    HW133803   0.406   1.242   8.810 -2.1327  0.2164  0.1482
 7448SOL    HW233804   0.289   1.239   8.718  0.0493 -0.8408  1.0056
 7449SOL     OW33805   3.238   0.656   4.551  0.3509  0.3830  0.1336
 7449SOL    HW133806   3.266   0.590   4.614 -1.1578  0.7364  1.1670
 7449SOL    HW233807   3.200   0.587   4.496  0.7078 -0.5685  1.0894
 7450SOL     OW33808   2.314   2.554   7.479 -0.0134 -0.1315  0.2935
 7450SOL    HW133809   2.306   2.536   7.386 -0.7902  1.3628  0.0773
 7450SOL    HW233810   2.231   2.599   7.495 -0.3826 -0.6081 -0.3130
 7451SOL     OW33811   2.556   4.592  15.299  0.5531 -0.1567 -0.1325
 7451SOL    HW133812   2.650   4.584  15.285  0.4996 -3.0951  1.0674
 7451SOL    HW233813   2.532   4.499  15.310  0.6446 -0.2780 -0.9688
 7452SOL     OW33814   1.809   3.962  12.181 -0.6231  0.0460 -0.4745
 7452SOL    HW133815   1.856   4.021  12.122  1.4155 -0.3187  0.7869
 7452SOL    HW233816   1.867   3.888  12.199  0.2701  1.4360  2.2999
 7453SOL     OW33817   2.257   1.646   6.281 -0.1375 -0.4772 -0.2004
 7453SOL    HW133818   2.193   1.626   6.212  0.3723 -0.3184 -0.7119
 7453SOL    HW233819   2.253   1.565   6.332 -2.7792 -0.1800  0.0676
 7454SOL     OW33820   0.068   1.135  13.709 -0.4941  0.2028 -0.5203
 7454SOL    HW133821   0.000   1.078  13.673  2.6963 -2.7102 -1.8640
 7454SOL    HW233822   0.017   1.203  13.754  1.0131 -1.3418  3.5486
 7455SOL     OW33823   0.673   3.313   4.863 -0.0391  0.8783 -0.9420
 7455SOL    HW133824   0.657   3.219   4.869 -3.3022  1.5000 -0.1194
 7455SOL    HW233825   0.762   3.315   4.897 -0.6550  1.0976  0.6585
 7456SOL     OW33826   4.618   0.392  12.967  0.4527 -0.7523 -0.0346
 7456SOL    HW133827   4.625   0.445  12.888  0.3558  1.2538  1.3149
 7456SOL    HW233828   4.646   0.452  13.035 -0.2529 -1.0912  0.5592
 7457SOL     OW33829   2.967   0.046   5.759 -0.2590  0.1774 -0.3133
 7457SOL    HW133830   3.058   0.018   5.767 -0.4247 -0.1256  0.5162
 7457SOL    HW233831   2.973   0.132   5.800  0.3639 -0.4464  0.9110
 7458SOL     OW33832   2.770   3.914   5.188  0.2014 -0.6681 -0.5578
 7458SOL    HW133833   2.689   3.876   5.156 -1.1962  1.3320  0.6004
 7458SOL    HW233834   2.754   3.934   5.280 -2.2610 -0.0595 -1.1236
 7459SOL     OW33835   2.885   1.457   9.169  0.7593 -0.0947 -0.5277
 7459SOL    HW133836   2.883   1.529   9.232  2.1628  0.0440 -0.6383
 7459SOL    HW233837   2.960   1.406   9.199 -1.2720 -3.5386 -1.2716
 7460SOL     OW33838   0.836   1.171   4.781 -0.3845 -0.3420  0.5880
 7460SOL    HW133839   0.828   1.249   4.726  0.4362 -0.9244 -0.3784
 7460SOL    HW233840   0.755   1.125   4.756 -0.7166  0.0911  0.8771
 7461SOL     OW33841   2.748   0.967   9.943 -0.4372 -0.1643 -0.1894
 7461SOL    HW133842   2.814   1.014   9.995 -0.3982  0.2339 -0.5935
 7461SOL    HW233843   2.669   1.018   9.961 -0.5332 -0.2752 -0.2987
 7462SOL     OW33844   2.782   2.178  13.108  0.1890  0.1985  0.0740
 7462SOL    HW133845   2.737   2.243  13.163 -0.7094  0.1987 -0.6605
 7462SOL    HW233846   2.784   2.104  13.168  0.5362  1.8608  2.1261
 7463SOL     OW33847   0.481   0.957  10.746  0.2088  0.6167  0.2674
 7463SOL    HW133848   0.452   0.897  10.678 -1.6481 -0.7552  2.2899
 7463SOL    HW233849   0.431   0.914  10.815  0.3518  0.8540  0.5195
 7464SOL     OW33850   2.797   0.307   2.794  0.1586  0.0990 -0.1953
 7464SOL    HW133851   2.837   0.363   2.728  0.3094 -0.0141 -0.1993
 7464SOL    HW233852   2.712   0.351   2.791 -1.2287 -2.4177  2.3940
 7465SOL     OW33853   0.724   2.578  14.379  0.2776  0.2697  0.0326
 7465SOL    HW133854   0.782   2.607  14.309 -1.7529  1.3168 -1.2158
 7465SOL    HW233855   0.644   2.585  14.327  0.0658 -0.4253  0.2671
 7466SOL     OW33856   0.054   1.482  15.872 -0.3553  1.3842 -0.0469
 7466SOL    HW133857   4.724   1.514  15.942 -2.5237 -1.9122 -0.3035
 7466SOL    HW233858   0.133   1.536  15.871 -0.8463  2.0761 -1.4455
 7467SOL     OW33859   2.921   1.950  15.098 -0.4614  0.3034 -0.0337
 7467SOL    HW133860   2.937   1.964  15.191 -0.4418  2.7635 -0.3990
 7467SOL    HW233861   2.888   2.034  15.067 -0.1280  0.1867 -0.6933
 7468SOL     OW33862   1.877   3.313   1.795 -0.2647  0.4795 -1.0551
 7468SOL    HW133863   1.894   3.406   1.780 -0.5391  0.2524 -2.7820
 7468SOL    HW233864   1.912   3.270   1.717 -0.6491  1.6278 -1.8697
 7469SOL     OW33865   2.472   1.361  13.892 -0.3768 -0.3920  0.3222
 7469SOL    HW133866   2.435   1.329  13.975 -0.8346  0.4982  0.4649
 7469SOL    HW233867   2.531   1.430  13.923 -2.3478  1.5636 -0.2839
 7470SOL     OW33868   0.642   1.865   2.347  0.2155 -0.5910 -0.2479
 7470SOL    HW133869   0.584   1.847   2.273  1.8369  1.8341 -2.1474
 7470SOL    HW233870   0.658   1.959   2.336  1.2561 -0.6996  0.2916
 7471SOL     OW33871   0.368   1.472  12.615  0.1630 -0.0002  0.0030
 7471SOL    HW133872   0.423   1.443  12.687 -2.2342 -3.5429  0.3941
 7471SOL    HW233873   0.289   1.419  12.628  1.5361 -1.9170  0.4152
 7472SOL     OW33874   2.880   1.186  14.799  0.1808 -0.5854 -0.2791
 7472SOL    HW133875   2.939   1.261  14.802 -2.8126  1.6249  2.0631
 7472SOL    HW233876   2.852   1.182  14.708  0.2366  0.5382 -0.3375
 7473SOL     OW33877   1.909   0.639   5.532  0.5502 -0.6698  0.8090
 7473SOL    HW133878   1.830   0.655   5.480  0.7812 -2.3182 -0.0260
 7473SOL    HW233879   1.942   0.729   5.523  0.8674 -0.6039  2.6549
 7474SOL     OW33880   1.363   1.108   5.690  0.0092 -0.6681  0.2574
 7474SOL    HW133881   1.417   1.177   5.728  0.8454 -2.0613  1.6100
 7474SOL    HW233882   1.278   1.130   5.728  0.0842  2.4086 -1.3150
 7475SOL     OW33883   3.349   1.535   2.003 -0.3633 -0.2151  0.2052
 7475SOL    HW133884   3.386   1.612   2.046  0.2997  0.0069 -0.7444
 7475SOL    HW233885   3.260   1.558   1.979 -0.7872  0.9981  3.0266
 7476SOL     OW33886   2.942   2.313   8.861 -0.6168 -0.1923 -0.3714
 7476SOL    HW133887   3.002   2.371   8.814  0.8677 -2.1861 -0.9567
 7476SOL    HW233888   2.862   2.330   8.812 -0.4094  1.4077 -0.1350
 7477SOL     OW33889   3.085   0.701   1.357  0.0269 -0.2334 -0.0536
 7477SOL    HW133890   3.099   0.607   1.346 -0.1742 -0.3214  0.4604
 7477SOL    HW233891   3.122   0.737   1.276 -0.5717 -2.1914 -1.1939
 7478SOL     OW33892   0.694   0.538  14.854  0.2686  0.4831 -0.5101
 7478SOL    HW133893   0.629   0.552  14.924  0.7886 -1.3177  0.3361
 7478SOL    HW233894   0.738   0.622  14.861  0.9084  0.3593 -3.4706
 7479SOL     OW33895   2.828   4.005   0.560  0.0107  0.0674  0.2677
 7479SOL    HW133896   2.871   4.090   0.552 -0.9053  0.6745  1.8187
 7479SOL    HW233897   2.872   3.972   0.639 -0.7893  1.8479  1.4684
 7480SOL     OW33898   4.694   1.318   4.042  0.0245 -0.1033 -0.2205
 7480SOL    HW133899   0.026   1.307   3.967 -0.0089  0.8685 -0.3893
 7480SOL    HW233900   4.683   1.413   4.042 -0.5900 -0.1720  2.4436
 7481SOL     OW33901   4.079   3.745   3.298 -0.1578  0.3500  0.3169
 7481SOL    HW133902   4.175   3.742   3.295 -0.1491  1.1130 -0.2901
 7481SOL    HW233903   4.062   3.680   3.366  1.6738 -0.5490 -0.0941
 7482SOL     OW33904   4.523   2.236  17.340  0.3045 -0.1672 -0.0078
 7482SOL    HW133905   4.481   2.317  17.370 -0.1487 -1.7377  3.5706
 7482SOL    HW233906   4.464   2.209  17.270 -0.2031 -1.1839  0.8168
 7483SOL     OW33907   0.648   1.444   1.660  0.8899  0.0476  0.3420
 7483SOL    HW133908   0.566   1.453   1.709  2.0502  0.4944  2.2226
 7483SOL    HW233909   0.649   1.350   1.645 -2.3636  0.4857 -2.5723
 7484SOL     OW33910   2.678   0.955   0.956 -0.0005 -0.7928  0.1149
 7484SOL    HW133911   2.614   0.884   0.969 -0.6818 -0.2122 -0.0836
 7484SOL    HW233912   2.676   1.008   1.035 -1.3044  0.9945 -1.1333
 7485SOL     OW33913   2.290   2.308  10.430 -0.3917  0.3799 -0.2390
 7485SOL    HW133914   2.355   2.332  10.364  0.6890  0.6627  0.9168
 7485SOL    HW233915   2.337   2.248  10.488  3.3509  0.9618 -2.6845
 7486SOL     OW33916   0.013   2.492   3.785  0.0329  0.2943  0.3227
 7486SOL    HW133917   4.702   2.412   3.748  2.2715  0.3460 -2.0785
 7486SOL    HW233918   0.008   2.474   3.879 -1.7553  0.3896  0.2336
 7487SOL     OW33919   1.845   0.129   3.918 -0.4642  0.5931  0.2586
 7487SOL    HW133920   1.914   0.094   3.862  0.2049 -0.7204  1.9033
 7487SOL    HW233921   1.773   0.067   3.909 -0.1506 -0.0165  2.1077
 7488SOL     OW33922   0.426   3.289   6.201  0.1649 -0.2972 -0.2364
 7488SOL    HW133923   0.418   3.258   6.292  2.2757  0.0153  0.0598
 7488SOL    HW233924   0.459   3.208   6.162 -0.4677 -2.1465  3.0679
 7489SOL     OW33925   3.173   1.322   6.602 -0.2255  0.2873  0.5976
 7489SOL    HW133926   3.192   1.230   6.616 -1.1721  0.4674  2.9741
 7489SOL    HW233927   3.093   1.326   6.653 -1.2411 -0.3091 -0.9506
 7490SOL     OW33928   3.865   2.504   1.593  0.0269 -0.7945 -0.0642
 7490SOL    HW133929   3.942   2.464   1.553  2.5711  1.5676  2.5258
 7490SOL    HW233930   3.805   2.505   1.518 -1.8787 -1.2153  1.4187
 7491SOL     OW33931   1.623   4.451   3.569 -0.6505 -0.0242 -0.9553
 7491SOL    HW133932   1.574   4.431   3.490 -0.9094  0.9345 -1.0396
 7491SOL    HW233933   1.704   4.406   3.544 -0.2499  0.0983  0.1044
 7492SOL     OW33934   1.673   2.036   3.979  0.4635 -0.3552 -0.2255
 7492SOL    HW133935   1.593   2.000   4.018  1.6892 -2.0566  0.7326
 7492SOL    HW233936   1.668   2.126   4.010  1.5885 -0.6658  0.8696
 7493SOL     OW33937   2.532   3.578   2.449 -0.0429 -0.2001  0.5929
 7493SOL    HW133938   2.474   3.653   2.438  0.4170  0.1615  0.5957
 7493SOL    HW233939   2.607   3.607   2.397 -1.1810  1.0167 -0.3739
 7494SOL     OW33940   3.979   3.278   4.815 -0.1104  0.8279  0.4658
 7494SOL    HW133941   3.973   3.201   4.759  1.8178  1.8730 -1.1947
 7494SOL    HW233942   3.946   3.345   4.755  0.8250  2.3042  1.5924
 7495SOL     OW33943   2.714   3.700   9.635 -0.5919  0.0753 -0.8508
 7495SOL    HW133944   2.648   3.674   9.572  0.2270 -1.8335 -0.9311
 7495SOL    HW233945   2.658   3.700   9.713 -0.0878 -1.4021 -0.4641
 7496SOL     OW33946   2.016   3.699   7.447  0.3297  0.1065 -0.2909
 7496SOL    HW133947   2.050   3.675   7.360 -0.3558 -0.6679 -0.3509
 7496SOL    HW233948   2.065   3.637   7.502 -1.6354 -0.1102  1.2089
 7497SOL     OW33949   3.607   2.161   1.033 -0.6655  0.1637  0.3788
 7497SOL    HW133950   3.626   2.080   0.987 -2.1957 -1.3525  2.3962
 7497SOL    HW233951   3.535   2.138   1.092 -0.2304  0.3998  1.0011
 7498SOL     OW33952   3.167   2.299  10.360  0.1489 -0.1870 -0.3115
 7498SOL    HW133953   3.231   2.343  10.305  0.8049 -1.0707 -0.2515
 7498SOL    HW233954   3.221   2.225  10.386 -0.7085 -0.4397  0.7980
 7499SOL     OW33955   4.129   1.638   6.163  0.5619 -0.0826  0.0422
 7499SOL    HW133956   4.188   1.592   6.223 -0.8994 -0.6086  1.0787
 7499SOL    HW233957   4.047   1.637   6.213  0.5972  2.1603  0.1305
 7500SOL     OW33958   0.430   4.636   6.019  0.2802  0.0265 -0.4005
 7500SOL    HW133959   0.464   4.577   5.951  1.0294 -1.4698  1.2768
 7500SOL    HW233960   0.341   4.641   5.985  0.3932  0.2354 -0.6684
 7501SOL     OW33961   3.665   0.175  11.167 -0.5064 -0.2394  0.1786
 7501SOL    HW133962   3.638   0.099  11.219 -1.0055  1.5049  2.4814
 7501SOL    HW233963   3.728   0.142  11.104 -1.6962 -0.6729 -0.7754
 7502SOL     OW33964   2.711   3.594   3.096 -0.4998  0.0296 -0.1551
 7502SOL    HW133965   2.619   3.594   3.123  0.4528 -0.3917  3.0344
 7502SOL    HW233966   2.709   3.550   3.010  0.6534  1.0170 -0.6855
 7503SOL     OW33967   0.374   2.597   8.181  0.1420 -0.2405  0.2734
 7503SOL    HW133968   0.452   2.565   8.226  0.2802  1.3576  1.1719
 7503SOL    HW233969   0.303   2.539   8.207 -0.6892  1.0811  0.9778
 7504SOL     OW33970   2.777   1.014   4.789 -0.3818 -0.3191  0.0043
 7504SOL    HW133971   2.751   1.081   4.726 -0.0731 -1.2071 -1.0603
 7504SOL    HW233972   2.799   0.942   4.731  1.2510  0.2049 -0.0239
 7505SOL     OW33973   3.940   0.637   2.017 -0.3361  0.3239  0.4765
 7505SOL    HW133974   3.909   0.605   1.932  1.6824  0.1982 -0.2221
 7505SOL    HW233975   4.027   0.600   2.032  0.2555  0.2044 -3.1492
 7506SOL     OW33976   2.104   0.867   5.238  0.3166  0.4197  0.4587
 7506SOL    HW133977   2.149   0.937   5.190  1.3552 -0.0976  0.6730
 7506SOL    HW233978   2.013   0.897   5.230  0.7499  0.8997 -2.5697
 7507SOL     OW33979   1.455   1.132   3.553  0.1458 -0.2564 -0.4782
 7507SOL    HW133980   1.465   1.222   3.523 -0.6334 -0.8999 -2.6667
 7507SOL    HW233981   1.364   1.113   3.531  0.0221  2.0615 -1.9500
 7508SOL     OW33982   4.542   2.175  14.781  0.2479  0.2274 -0.1887
 7508SOL    HW133983   4.629   2.215  14.789 -0.3904  1.3113  1.3061
 7508SOL    HW233984   4.540   2.101  14.843  1.9242 -0.7609 -1.2937
 7509SOL     OW33985   1.635   3.621   1.807 -0.0574  0.0977  0.1162
 7509SOL    HW133986   1.674   3.706   1.828 -0.2917  0.6185 -1.5683
 7509SOL    HW233987   1.706   3.578   1.758 -0.9209 -1.8044  0.5077
 7510SOL     OW33988   4.309   0.828   7.881 -0.8045 -0.2256  0.4437
 7510SOL    HW133989   4.277   0.845   7.792 -0.6729 -2.9533 -0.0992
 7510SOL    HW233990   4.263   0.747   7.898 -0.1156 -0.8463 -0.6660
 7511SOL     OW33991   1.855   4.267   0.679 -0.1308 -0.0551  1.0360
 7511SOL    HW133992   1.883   4.192   0.731  1.0678 -1.3229 -1.4063
 7511SOL    HW233993   1.760   4.261   0.687 -0.2936  2.6410  1.2605
 7512SOL     OW33994   2.685   2.053   2.748 -0.2525 -0.5118  0.6884
 7512SOL    HW133995   2.778   2.054   2.727 -0.7571  0.7271 -1.5380
 7512SOL    HW233996   2.677   1.974   2.801  0.0371 -1.2163 -0.2979
 7513SOL     OW33997   2.670   3.703   3.789 -0.2071 -0.1959 -0.7349
 7513SOL    HW133998   2.742   3.715   3.728  1.4796 -0.5290  1.2053
 7513SOL    HW233999   2.619   3.641   3.737 -1.4528  0.2925 -0.1162
 7514SOL     OW34000   1.801   2.099  12.283 -0.5579  0.1459 -0.0611
 7514SOL    HW134001   1.858   2.107  12.207 -0.3238  1.1773  0.2199
 7514SOL    HW234002   1.775   2.006  12.283  0.7342 -0.2097  0.0793
 7515SOL     OW34003   1.580   2.308   8.803  0.4451 -0.4927 -0.1849
 7515SOL    HW134004   1.591   2.402   8.819 -0.8945 -0.5073  0.9391
 7515SOL    HW234005   1.499   2.285   8.849  1.5442 -1.0225  1.5023
 7516SOL     OW34006   2.640   1.442   8.561 -0.6992  0.2233  0.0866
 7516SOL    HW134007   2.676   1.487   8.637  0.3939  2.5551 -1.8144
 7516SOL    HW234008   2.583   1.504   8.516 -1.7799 -1.0566 -0.3399
 7517SOL     OW34009   1.953   2.415   1.528  0.0254  0.2700  0.3661
 7517SOL    HW134010   1.938   2.480   1.597 -0.8647  1.1961 -0.7065
 7517SOL    HW234011   1.869   2.415   1.484 -0.2642  0.6504  0.9220
 7518SOL     OW34012   0.907   1.051   3.068  0.2427  0.0685  0.5266
 7518SOL    HW134013   0.977   1.043   3.134 -0.1392  2.1832  1.1944
 7518SOL    HW234014   0.942   1.002   2.994 -0.5791 -1.0523  0.8839
 7519SOL     OW34015   1.240   0.167  14.170 -0.2010 -0.2880  0.2973
 7519SOL    HW134016   1.191   0.086  14.153 -0.8997 -0.3578  2.5289
 7519SOL    HW234017   1.172   0.231  14.152  0.9396  0.7438 -0.3084
 7520SOL     OW34018   0.485   2.204   8.203  0.1903  0.1510 -0.1542
 7520SOL    HW134019   0.533   2.167   8.130  2.5344 -0.2019  1.5575
 7520SOL    HW234020   0.519   2.293   8.199 -1.9944  0.9554 -0.5933
 7521SOL     OW34021   2.102   2.691   8.313 -0.4615  0.7256 -0.1361
 7521SOL    HW134022   2.196   2.673   8.310 -1.0766 -2.1413 -2.4126
 7521SOL    HW234023   2.099   2.786   8.322 -1.5393  0.6515  0.2178
 7522SOL     OW34024   2.736   0.327   6.176  0.1922 -0.0053 -0.5969
 7522SOL    HW134025   2.691   0.282   6.104  1.6487 -2.4758  0.0486
 7522SOL    HW234026   2.826   0.307   6.150  0.9151  2.6008 -0.0964
 7523SOL     OW34027   3.415   1.803   6.045  0.1580 -0.1293 -0.2209
 7523SOL    HW134028   3.416   1.708   6.055  0.3788 -0.1275 -0.2198
 7523SOL    HW234029   3.412   1.830   5.953  0.2560 -0.3698 -0.2950
 7524SOL     OW34030   1.126   3.002   2.340  0.3180 -0.5054 -0.2935
 7524SOL    HW134031   1.205   3.026   2.389  1.2799 -1.9662 -1.1356
 7524SOL    HW234032   1.114   3.076   2.281  2.1402  0.5056  0.6120
 7525SOL     OW34033   0.747   0.129   5.936 -0.0788 -0.9092 -0.3647
 7525SOL    HW134034   0.705   0.120   5.850  0.7957 -0.9322 -0.7928
 7525SOL    HW234035   0.784   0.217   5.929 -0.4675 -0.6935  0.2934
 7526SOL     OW34036   1.493   2.679   7.284  0.2688 -0.0556  0.7223
 7526SOL    HW134037   1.455   2.613   7.225 -0.2831  3.0860 -2.4534
 7526SOL    HW234038   1.419   2.697   7.342 -0.2046  0.5342 -0.0653
 7527SOL     OW34039   1.640   3.916   8.219 -0.1831 -0.5739  0.2449
 7527SOL    HW134040   1.566   3.858   8.207 -1.6617  1.3306  0.0891
 7527SOL    HW234041   1.717   3.860   8.220  0.2499  0.0321  0.9983
 7528SOL     OW34042   2.686   1.166   6.881  0.3436  0.3580 -0.6155
 7528SOL    HW134043   2.594   1.178   6.858  0.1527  1.8209  0.8821
 7528SOL    HW234044   2.693   1.249   6.929 -2.0224 -1.1251  2.2423
 7529SOL     OW34045   0.304   0.161   4.977 -0.1552 -0.1387  0.1799
 7529SOL    HW134046   0.371   0.103   4.942  0.5386  1.6953 -1.5817
 7529SOL    HW234047   0.309   0.234   4.914  1.3218 -0.5303 -0.1598
 7530SOL     OW34048   0.667   3.199   6.572 -0.4388 -0.2910 -0.8495
 7530SOL    HW134049   0.718   3.279   6.588 -0.2171 -0.3857 -1.0843
 7530SOL    HW234050   0.718   3.136   6.623  1.1219  2.3343  0.8404
 7531SOL     OW34051   4.293   3.807  10.532  0.7604  0.8059 -0.0803
 7531SOL    HW134052   4.218   3.767  10.576  1.1704  1.1890  0.9562
 7531SOL    HW234053   4.320   3.729  10.484 -0.4702  1.1905 -1.4212
 7532SOL     OW34054   0.597   3.212  10.632  0.1877 -0.9866  0.2005
 7532SOL    HW134055   0.527   3.171  10.682  0.8302 -2.2997  0.0255
 7532SOL    HW234056   0.563   3.220  10.543 -1.2533 -0.5537  0.8013
 7533SOL     OW34057   0.113   3.262   3.276 -0.0674 -0.0670  0.1552
 7533SOL    HW134058   0.107   3.167   3.263  1.5131  0.0726 -1.5665
 7533SOL    HW234059   0.186   3.278   3.337  0.6933  4.0750 -1.8738
 7534SOL     OW34060   2.194   3.441  17.116 -0.4931 -0.3217  0.7410
 7534SOL    HW134061   2.181   3.402  17.203  0.0499 -1.0575  0.4975
 7534SOL    HW234062   2.196   3.365  17.057 -0.7491 -0.6137  1.1076
 7535SOL     OW34063   3.371   2.816   2.747  0.1036 -0.4595  0.0808
 7535SOL    HW134064   3.434   2.745   2.731  0.5418 -0.5131  2.0249
 7535SOL    HW234065   3.346   2.830   2.656  0.9484  2.1667  0.2507
 7536SOL     OW34066   0.949   0.174   2.660  0.4379  0.3112 -0.6691
 7536SOL    HW134067   0.916   0.256   2.623  2.4361  2.2915  1.9397
 7536SOL    HW234068   0.898   0.171   2.742  0.2630 -1.2182 -0.8357
 7537SOL     OW34069   4.225   3.262  10.740 -0.2633 -0.6853 -0.2282
 7537SOL    HW134070   4.234   3.320  10.665 -0.4494  0.2855  0.5032
 7537SOL    HW234071   4.133   3.239  10.725 -0.4941  0.7097 -0.9380
 7538SOL     OW34072   3.526   1.227   9.445  0.5395 -0.1301  0.5965
 7538SOL    HW134073   3.516   1.278   9.525  0.1435  0.7844 -0.0456
 7538SOL    HW234074   3.441   1.188   9.423  0.1702  1.1302 -0.2164
 7539SOL     OW34075   2.154   2.830  16.215 -0.0879  0.0393  0.7028
 7539SOL    HW134076   2.068   2.864  16.238 -0.5316 -0.3476 -0.3727
 7539SOL    HW234077   2.190   2.846  16.302  0.0951 -1.0822  0.8373
 7540SOL     OW34078   3.650   2.504   5.034 -0.2034  0.3895  0.2041
 7540SOL    HW134079   3.734   2.503   5.079 -0.1983  1.2898  0.2088
 7540SOL    HW234080   3.674   2.527   4.944  0.5637 -2.0404 -0.2224
 7541SOL     OW34081   0.672   4.452  12.847  0.1481 -0.0963  0.4485
 7541SOL    HW134082   0.731   4.404  12.788 -0.8849  1.3385 -1.7621
 7541SOL    HW234083   0.592   4.410  12.815 -0.4619  1.3159  0.1351
 7542SOL     OW34084   1.832   0.188   8.179  0.1492 -0.2998 -0.0891
 7542SOL    HW134085   1.783   0.144   8.110  1.6344  1.2872 -2.1541
 7542SOL    HW234086   1.885   0.112   8.205 -0.4235 -0.0452  1.8343
 7543SOL     OW34087   1.184   3.457   6.791  0.1699 -0.3818  0.1106
 7543SOL    HW134088   1.149   3.459   6.702  0.8836  1.9190 -0.1160
 7543SOL    HW234089   1.209   3.549   6.777 -0.1592 -0.1990  0.7131
 7544SOL     OW34090   4.287   3.980   6.171 -0.2246  0.5904  0.0265
 7544SOL    HW134091   4.349   3.928   6.120 -0.8851  1.3641 -1.5490
 7544SOL    HW234092   4.346   4.030   6.229  0.4928 -0.3111  0.0768
 7545SOL     OW34093   1.327   1.792   4.515 -0.1105  0.0550 -1.2734
 7545SOL    HW134094   1.253   1.739   4.485 -0.6621  0.9876 -1.5619
 7545SOL    HW234095   1.293   1.875   4.481  0.0180 -0.0886 -1.7396
 7546SOL     OW34096   3.352   4.716  15.702  0.9915  0.2474 -0.1544
 7546SOL    HW134097   3.347   4.621  15.715 -0.6032  0.1274 -1.6318
 7546SOL    HW234098   3.274   0.012  15.752  0.1058 -0.9399 -0.9895
 7547SOL     OW34099   3.057   2.096   1.815 -0.1940  0.0856 -0.0809
 7547SOL    HW134100   2.987   2.052   1.767 -0.9621  0.5345  0.6114
 7547SOL    HW234101   3.116   2.109   1.741  1.3258 -1.5611  0.8486
 7548SOL     OW34102   1.491   1.147   7.328  0.1661  0.2011  1.0772
 7548SOL    HW134103   1.428   1.106   7.269 -0.2697  0.5416  1.2987
 7548SOL    HW234104   1.442   1.136   7.410 -0.6582 -0.5378  0.4741
 7549SOL     OW34105   1.784   1.793   2.357  0.0625 -0.5804 -0.1431
 7549SOL    HW134106   1.757   1.870   2.407  1.1443 -0.2220 -0.1003
 7549SOL    HW234107   1.843   1.840   2.298  2.0683 -0.1889  2.1963
 7550SOL     OW34108   2.984   2.927   3.851  0.3517 -0.2539 -0.2254
 7550SOL    HW134109   3.057   2.876   3.816  0.3140  0.2122 -0.9940
 7550SOL    HW234110   2.931   2.934   3.772 -0.2366 -4.2944 -0.1834
 7551SOL     OW34111   3.083   2.968  14.240  0.4252  0.0463  0.1576
 7551SOL    HW134112   3.017   2.977  14.171  0.6357  1.6157  0.1763
 7551SOL    HW234113   3.158   2.973  14.180  1.0259 -0.4873  0.8669
 7552SOL     OW34114   3.931   2.609  10.585 -0.3561 -0.0527  0.8291
 7552SOL    HW134115   3.901   2.586  10.497  3.6384  0.9968 -0.8229
 7552SOL    HW234116   3.868   2.564  10.641  0.4584 -0.0876  1.7096
 7553SOL     OW34117   4.189   3.659  12.406 -0.0870 -0.7630 -0.1915
 7553SOL    HW134118   4.266   3.715  12.401 -0.4706 -0.3598 -1.6986
 7553SOL    HW234119   4.224   3.570  12.406 -1.5170 -1.3385  0.0564
 7554SOL     OW34120   2.604   2.641  10.298 -0.1001 -0.5678  0.2070
 7554SOL    HW134121   2.660   2.718  10.313  0.5969 -0.2656 -3.7564
 7554SOL    HW234122   2.523   2.681  10.328 -0.6947 -1.3889 -0.3206
 7555SOL     OW34123   1.182   4.180   2.705 -0.0008 -0.1034  0.0845
 7555SOL    HW134124   1.174   4.259   2.757 -0.0312  0.0316 -0.1275
 7555SOL    HW234125   1.278   4.179   2.703  0.0003 -0.1168  0.1408
 7556SOL     OW34126   2.757   1.081   8.504  0.5275  0.0709 -0.4464
 7556SOL    HW134127   2.814   1.132   8.562  0.3073  1.1364 -1.1655
 7556SOL    HW234128   2.670   1.107   8.535  1.1756  1.6167  0.0774
 7557SOL     OW34129   4.630   2.861   9.433  0.5912 -0.2885 -0.2295
 7557SOL    HW134130   4.567   2.933   9.444  0.0513 -0.8928  0.6309
 7557SOL    HW234131   4.557   2.803   9.408  0.0982  0.6730 -1.0242
 7558SOL     OW34132   3.406   3.721  11.279 -0.3911 -0.1151 -0.6142
 7558SOL    HW134133   3.368   3.755  11.198 -0.7503 -1.4543 -1.0148
 7558SOL    HW234134   3.349   3.650  11.310 -1.5336  1.5141  1.0442
 7559SOL     OW34135   2.697   4.401   7.831  0.1378  0.3282  0.0508
 7559SOL    HW134136   2.693   4.456   7.910 -0.8944 -0.5313  0.5857
 7559SOL    HW234137   2.683   4.314   7.869  0.5812 -0.1294 -0.8421
 7560SOL     OW34138   4.252   2.587   2.766 -0.0441  0.1069  0.5280
 7560SOL    HW134139   4.206   2.504   2.755 -0.2456  0.3719 -0.6111
 7560SOL    HW234140   4.292   2.615   2.684  0.3807  1.1060  1.0794
 7561SOL     OW34141   0.230   1.620   3.855  0.2743 -0.0117  0.1338
 7561SOL    HW134142   0.278   1.585   3.780 -0.4284  0.2144 -0.4289
 7561SOL    HW234143   0.156   1.667   3.816  0.0209 -1.0430 -0.6508
 7562SOL     OW34144   0.383   3.199   8.134  0.0699 -0.3179 -0.6810
 7562SOL    HW134145   0.475   3.190   8.159 -0.3714  0.7681  1.3354
 7562SOL    HW234146   0.356   3.280   8.179  0.9007 -1.4358  1.8628
 7563SOL     OW34147   1.018   4.647   2.426  0.5571 -0.0946  0.5658
 7563SOL    HW134148   1.031   4.554   2.445 -0.0193 -0.5323 -1.2014
 7563SOL    HW234149   0.934   4.649   2.472 -0.2959 -1.9671 -0.9432
 7564SOL     OW34150   0.190   3.432   8.533 -0.4347 -0.2805 -0.0364
 7564SOL    HW134151   0.128   3.468   8.597 -0.0387  2.2568 -1.1061
 7564SOL    HW234152   0.192   3.343   8.568  1.3401 -0.7102 -1.2972
 7565SOL     OW34153   0.318   2.121   8.587 -0.1758  0.9208 -0.0969
 7565SOL    HW134154   0.250   2.164   8.536  1.0000  2.8277 -0.0535
 7565SOL    HW234155   0.362   2.077   8.515 -0.3029 -0.4537  0.6573
 7566SOL     OW34156   0.382   2.461   3.183  0.3255  0.4937  0.1407
 7566SOL    HW134157   0.403   2.457   3.277  1.6015  0.7129 -0.1307
 7566SOL    HW234158   0.441   2.531   3.156  1.0107  0.1053  0.6158
 7567SOL     OW34159   2.249   1.670   9.491 -0.1910  0.1942  0.2160
 7567SOL    HW134160   2.218   1.743   9.543  1.5794  0.5526  0.7831
 7567SOL    HW234161   2.262   1.715   9.408 -0.5037 -1.7618 -0.9032
 7568SOL     OW34162   1.197   0.074   2.583 -0.0008 -0.2290 -0.1029
 7568SOL    HW134163   1.129   0.126   2.625  0.0125 -0.9478  0.8363
 7568SOL    HW234164   1.137   0.017   2.536 -0.0110  0.2391 -0.6487
 7569SOL     OW34165   2.873   1.039  10.186  0.1972  0.0461 -0.0333
 7569SOL    HW134166   2.893   0.948  10.208 -3.1589 -0.7333 -0.1694
 7569SOL    HW234167   2.788   1.052  10.229 -1.8423  0.8943 -4.3506
 7570SOL     OW34168   4.143   4.271   2.273 -0.3767  0.0555  0.1785
 7570SOL    HW134169   4.209   4.244   2.337 -0.8042 -1.0615  0.1420
 7570SOL    HW234170   4.060   4.248   2.317  0.7509 -2.0081  1.2321
 7571SOL     OW34171   2.595   2.353   2.703  0.1994 -0.6156 -0.1836
 7571SOL    HW134172   2.654   2.305   2.761  2.0777  0.3449 -1.3400
 7571SOL    HW234173   2.645   2.332   2.625 -1.3792 -2.4793 -0.7041
 7572SOL     OW34174   4.231   1.165  16.484 -0.1625 -0.3083  0.6325
 7572SOL    HW134175   4.259   1.126  16.401 -2.4199  1.7029 -1.0589
 7572SOL    HW234176   4.299   1.232  16.490  0.6617 -1.1176  0.4143
 7573SOL     OW34177   3.572   4.536  16.129  0.1732 -0.6254  0.3454
 7573SOL    HW134178   3.639   4.573  16.187  0.4481 -1.7118  0.7370
 7573SOL    HW234179   3.561   4.449  16.169 -1.7199 -0.8043 -0.5459
 7574SOL     OW34180   3.815   0.557   0.375  0.0326 -0.1110 -0.2361
 7574SOL    HW134181   3.805   0.614   0.451 -0.0455  0.7666 -0.9056
 7574SOL    HW234182   3.905   0.527   0.389  0.4954  1.3119 -0.2266
 7575SOL     OW34183   1.582   1.544   4.757  0.4819 -0.4305  0.4492
 7575SOL    HW134184   1.494   1.575   4.778  0.2487 -1.9551  1.7193
 7575SOL    HW234185   1.561   1.456   4.726  2.5911 -1.3572  1.7277
 7576SOL     OW34186   4.449   1.021   7.552  0.0470  0.0109  0.1802
 7576SOL    HW134187   4.376   1.065   7.509  0.4461  1.0508  0.5641
 7576SOL    HW234188   4.405   0.941   7.582  2.4377 -0.4830  2.3696
 7577SOL     OW34189   4.052   4.393   5.486 -0.2191  0.0728 -0.1904
 7577SOL    HW134190   4.116   4.327   5.459 -0.7931 -0.5554 -0.0042
 7577SOL    HW234191   3.980   4.331   5.498 -0.3173  0.3413  0.5818
 7578SOL     OW34192   2.516   0.039  13.731 -0.0248  0.1985 -0.0005
 7578SOL    HW134193   2.421   0.039  13.742  0.2033  2.0758  1.7767
 7578SOL    HW234194   2.531   0.006  13.642 -2.5297 -2.0714  0.4376
 7579SOL     OW34195   3.295   0.564  17.108 -0.0697  0.5541 -0.5331
 7579SOL    HW134196   3.234   0.633  17.084  0.4857  1.5372  0.8920
 7579SOL    HW234197   3.292   0.577  17.202  0.2753 -0.0286 -0.4387
 7580SOL     OW34198   2.926   3.543   8.561 -0.0435  0.2742 -0.1966
 7580SOL    HW134199   2.879   3.551   8.644  1.6613  1.1457  0.6892
 7580SOL    HW234200   2.851   3.529   8.503 -1.5866  0.2063  1.7766
 7581SOL     OW34201   3.614   4.493   8.040  0.1323 -0.1057 -0.0069
 7581SOL    HW134202   3.628   4.441   7.961  0.9542  0.3113 -0.1365
 7581SOL    HW234203   3.702   4.508   8.074 -0.1224 -0.6967  0.8956
 7582SOL     OW34204   3.135   2.559  14.531  0.4112  0.1977  0.3165
 7582SOL    HW134205   3.099   2.520  14.610  0.2512 -1.0526 -0.3701
 7582SOL    HW234206   3.067   2.570  14.465  0.3458  1.2700  0.5661
 7583SOL     OW34207   4.388   4.168   4.709  0.2808  0.0789  0.1498
 7583SOL    HW134208   4.450   4.122   4.651  1.1961 -0.5213  1.5990
 7583SOL    HW234209   4.446   4.180   4.785 -0.2678  0.2467  0.5403
 7584SOL     OW34210   0.715   0.643   0.717  0.0938 -0.6061 -0.4029
 7584SOL    HW134211   0.638   0.670   0.767  0.4626 -1.2980  0.5415
 7584SOL    HW234212   0.780   0.669   0.782 -0.4085 -2.5095  0.8644
 7585SOL     OW34213   2.905   3.476   8.075 -0.2395  0.2840  0.4799
 7585SOL    HW134214   2.934   3.413   8.008 -0.2450 -0.4244  1.1447
 7585SOL    HW234215   2.812   3.476   8.053 -0.1725 -0.5109  0.1845
 7586SOL     OW34216   2.110   3.173   9.844 -0.0667  0.2075 -0.0430
 7586SOL    HW134217   2.085   3.222   9.766  0.5866  1.4949  0.5580
 7586SOL    HW234218   2.205   3.182   9.837  0.0106 -0.4032  0.2524
 7587SOL     OW34219   1.746   3.223   1.298 -0.3967 -0.0710 -0.0143
 7587SOL    HW134220   1.719   3.227   1.206  0.3621  0.3138 -0.2212
 7587SOL    HW234221   1.830   3.270   1.294  0.0354 -1.1173 -3.1253
 7588SOL     OW34222   0.170   0.390  13.156  0.0272 -0.0683  0.4027
 7588SOL    HW134223   0.158   0.300  13.186 -1.0672  0.2593  0.9471
 7588SOL    HW234224   0.130   0.384  13.069 -0.4402  0.1558  0.5991
 7589SOL     OW34225   0.122   4.695   4.992  0.9975 -0.4456 -0.2721
 7589SOL    HW134226   0.202   0.012   5.021  0.4372  0.5048 -0.1814
 7589SOL    HW234227   0.061   0.036   5.019 -0.8573 -1.6407 -1.5268
 7590SOL     OW34228   0.992   0.905   0.027 -0.5902  0.5455  0.2878
 7590SOL    HW134229   0.960   0.972   0.087 -0.8926  0.5722  0.0954
 7590SOL    HW234230   0.923   0.843   0.004  1.0171 -0.4969 -1.7124
 7591SOL     OW34231   4.291   3.339   2.480 -0.9589  0.6466 -0.0685
 7591SOL    HW134232   4.267   3.287   2.404  2.5141  0.0654 -0.7816
 7591SOL    HW234233   4.245   3.422   2.465  0.4175  1.1883 -1.3031
 7592SOL     OW34234   0.901   0.937   3.516  0.5056  0.0773  0.2539
 7592SOL    HW134235   0.954   0.944   3.436  0.2786  2.4866  0.3216
 7592SOL    HW234236   0.968   0.901   3.574 -2.9756 -1.5211  3.2517
 7593SOL     OW34237   3.816   1.027   8.005 -0.2645 -0.1357 -0.4154
 7593SOL    HW134238   3.805   0.931   8.007 -1.1076 -0.1075 -2.9772
 7593SOL    HW234239   3.758   1.058   8.075  0.8324  1.6454 -0.3147
 7594SOL     OW34240   0.326   2.838   9.266  0.0009 -0.0485 -0.6771
 7594SOL    HW134241   0.260   2.788   9.315  1.2850 -1.8654 -0.7910
 7594SOL    HW234242   0.411   2.804   9.293  0.1055  1.3282  0.7282
 7595SOL     OW34243   0.573   2.882   5.157  0.0251 -0.6236 -0.1579
 7595SOL    HW134244   0.497   2.938   5.170  0.1153 -1.1594  2.5587
 7595SOL    HW234245   0.611   2.891   5.244 -1.1077 -1.8014  0.4568
 7596SOL     OW34246   3.770   2.312   4.090 -0.2231 -0.0143 -0.0303
 7596SOL    HW134247   3.788   2.393   4.043  1.0016 -0.1421  0.2297
 7596SOL    HW234248   3.725   2.251   4.032  2.2810 -0.8130 -1.1365
 7597SOL     OW34249   3.211   2.117  12.836 -0.6218  0.1445 -0.2019
 7597SOL    HW134250   3.196   2.211  12.848  1.6773  0.3812  0.7949
 7597SOL    HW234251   3.265   2.094  12.912  0.5067  0.6570 -0.8589
 7598SOL     OW34252   2.304   2.634   3.601  0.5381  0.4217 -0.0173
 7598SOL    HW134253   2.367   2.593   3.542 -1.6302 -1.8006 -0.7845
 7598SOL    HW234254   2.239   2.661   3.536  0.5492  1.3424  0.3522
 7599SOL     OW34255   1.717   0.493   4.478  0.1359 -0.3802  0.3494
 7599SOL    HW134256   1.744   0.409   4.442 -1.2740 -0.0472 -1.4762
 7599SOL    HW234257   1.741   0.477   4.570  0.5814  0.3752  0.3686
 7600SOL     OW34258   3.018   3.576  15.244 -0.6543  0.2109 -0.2421
 7600SOL    HW134259   2.954   3.568  15.174  0.8837 -0.1894 -1.5994
 7600SOL    HW234260   3.091   3.534  15.199 -0.3100 -0.5347  0.9921
 7601SOL     OW34261   2.724   1.573   4.328  0.2322 -0.2645  0.5971
 7601SOL    HW134262   2.738   1.506   4.261  2.9107  0.3391  0.5230
 7601SOL    HW234263   2.630   1.588   4.321 -0.0602 -1.3360  2.1764
 7602SOL     OW34264   2.052   3.069   8.007  0.0244 -0.4601  0.5453
 7602SOL    HW134265   1.958   3.070   8.026 -0.3712  3.2574 -1.8148
 7602SOL    HW234266   2.076   2.977   8.018  1.3762  0.0072  1.5251
 7603SOL     OW34267   1.422   0.916   2.289 -0.1197  0.3134 -0.4537
 7603SOL    HW134268   1.337   0.940   2.324 -0.3501 -2.2944  0.7473
 7603SOL    HW234269   1.391   0.847   2.231 -1.0932  0.7732 -0.4799
 7604SOL     OW34270   3.596   2.514  16.488  0.8597  0.1560  0.2695
 7604SOL    HW134271   3.569   2.423  16.491 -1.4186  0.8013 -0.0935
 7604SOL    HW234272   3.549   2.550  16.412  0.6441  0.1250  0.3897
 7605SOL     OW34273   0.181   4.628   5.889 -0.7607 -0.1644 -0.2250
 7605SOL    HW134274   0.164   4.669   5.804  0.5324  0.2606 -0.2836
 7605SOL    HW234275   0.159   4.537   5.873  2.4351 -0.8136 -0.9883
 7606SOL     OW34276   0.659   2.339   6.475  0.0588  0.4483  0.5127
 7606SOL    HW134277   0.683   2.247   6.471  1.1183  0.7125  0.9792
 7606SOL    HW234278   0.705   2.370   6.553  0.2692 -0.0475  0.5821
 7607SOL     OW34279   2.878   0.892   7.999  0.6097  0.0351 -0.3827
 7607SOL    HW134280   2.815   0.833   7.959 -1.0347  2.8565 -1.8974
 7607SOL    HW234281   2.830   0.911   8.080  1.5539  1.4639 -0.1600
 7608SOL     OW34282   1.456   0.313   4.941  0.6334 -0.2630  0.3600
 7608SOL    HW134283   1.386   0.325   4.878  0.1205 -0.9532  0.7967
 7608SOL    HW234284   1.479   0.405   4.949 -0.7898  0.0950  0.1129
 7609SOL     OW34285   1.599   3.376   3.194  0.2130 -0.4728  0.0303
 7609SOL    HW134286   1.601   3.468   3.168 -1.0847 -0.1734  0.9681
 7609SOL    HW234287   1.679   3.367   3.245 -0.1788 -2.8405  0.2269
 7610SOL     OW34288   2.836   3.601  11.217  0.1466 -0.3948 -0.2409
 7610SOL    HW134289   2.913   3.615  11.161  0.1842 -0.9935 -0.3409
 7610SOL    HW234290   2.842   3.676  11.276  1.6582 -0.8988  0.2543
 7611SOL     OW34291   3.875   4.443   6.349  0.5640 -0.0683  0.6395
 7611SOL    HW134292   3.792   4.486   6.370  0.1013 -0.3502 -0.6008
 7611SOL    HW234293   3.940   4.511   6.327  0.2362  0.0965  0.1811
 7612SOL     OW34294   0.999   2.642   3.061  1.1699  0.3913  0.4675
 7612SOL    HW134295   1.070   2.586   3.028  1.5803  1.3168 -0.2421
 7612SOL    HW234296   0.917   2.593   3.062  0.9051  0.8170 -0.1822
 7613SOL     OW34297   2.848   0.668  11.023 -0.0950 -0.1253 -0.1685
 7613SOL    HW134298   2.844   0.577  11.049  0.9767 -0.5849 -1.5573
 7613SOL    HW234299   2.802   0.665  10.939  0.4111 -0.7772 -0.4210
 7614SOL     OW34300   2.694   2.320  13.343  0.3572  0.0427 -0.2828
 7614SOL    HW134301   2.666   2.230  13.365  1.6114 -0.2517  0.0946
 7614SOL    HW234302   2.626   2.359  13.399  0.0987 -0.4806 -0.2269
 7615SOL     OW34303   4.581   4.528   4.647  0.5026  0.3027 -0.0574
 7615SOL    HW134304   4.670   4.521   4.681  0.3403  3.2520  0.9612
 7615SOL    HW234305   4.541   4.566   4.726 -1.5352 -2.0998  0.0785
 7616SOL     OW34306   4.646   0.210   3.222 -0.0126 -0.2000 -0.1976
 7616SOL    HW134307   4.560   0.214   3.264  1.1878  2.5530  1.9262
 7616SOL    HW234308   4.616   0.261   3.146 -2.1507 -1.2314 -0.0449
 7617SOL     OW34309   1.640   2.205   7.660  0.4190  0.0546 -0.0654
 7617SOL    HW134310   1.628   2.284   7.608 -0.3717 -0.3702 -0.5249
 7617SOL    HW234311   1.663   2.245   7.743 -1.6558  1.7289 -0.3069
 7618SOL     OW34312   1.587   4.538   7.859  0.6327 -0.0707 -0.1660
 7618SOL    HW134313   1.682   4.535   7.872  0.6165  4.0196  1.0782
 7618SOL    HW234314   1.572   4.584   7.776  0.5191  1.6519  0.8041
 7619SOL     OW34315   0.187   1.173  10.926  0.4902  0.8218  0.1372
 7619SOL    HW134316   0.124   1.102  10.929  2.5489 -1.0075 -0.0342
 7619SOL    HW234317   0.125   1.234  10.965 -0.4478  2.5694 -4.1112
 7620SOL     OW34318   4.570   0.297   2.543  0.2858 -1.0811 -0.0469
 7620SOL    HW134319   4.639   0.234   2.561  1.0236 -0.0881  0.5930
 7620SOL    HW234320   4.576   0.320   2.451  4.1451  1.7965  0.9152
 7621SOL     OW34321   1.620   3.477   2.275 -0.1732  0.2409  0.6093
 7621SOL    HW134322   1.640   3.549   2.215 -0.1181 -0.5179 -0.2686
 7621SOL    HW234323   1.606   3.516   2.362 -1.3910  1.4067 -0.1083
 7622SOL     OW34324   1.668   0.546   6.657  0.0239  0.2646 -0.1822
 7622SOL    HW134325   1.763   0.553   6.664  0.1285  0.4888 -1.7791
 7622SOL    HW234326   1.639   0.533   6.747  2.0071 -0.6045  0.3353
 7623SOL     OW34327   1.929   3.692   2.581  0.0917  0.1029  0.3212
 7623SOL    HW134328   1.984   3.686   2.503  0.8486  0.0560  0.8588
 7623SOL    HW234329   1.908   3.600   2.599  0.0040 -0.1609 -1.1386
 7624SOL     OW34330   3.750   1.281   7.919  0.3598  0.3032  0.2132
 7624SOL    HW134331   3.743   1.191   7.951 -1.1817  0.1309 -0.5943
 7624SOL    HW234332   3.833   1.280   7.871  1.6039  0.9227  2.3205
 7625SOL     OW34333   1.251   0.983   5.103 -0.3578  0.3485  0.0745
 7625SOL    HW134334   1.211   0.972   5.017 -0.1098  1.1558 -0.1468
 7625SOL    HW234335   1.188   1.044   5.143 -1.3720 -0.1502 -0.7598
 7626SOL     OW34336   3.236   2.086   4.084  0.1646  0.0221 -0.6665
 7626SOL    HW134337   3.283   2.006   4.057  2.4580  1.1267  0.0774
 7626SOL    HW234338   3.161   2.065   4.030 -0.5028 -0.0746  0.2921
 7627SOL     OW34339   4.154   2.303   5.807  0.3057  0.2601 -0.0788
 7627SOL    HW134340   4.203   2.327   5.886  2.4779 -1.7729 -0.7879
 7627SOL    HW234341   4.132   2.211   5.823 -0.7495  0.7669  1.3901
 7628SOL     OW34342   1.020   4.642   6.563 -0.4870  0.1696 -0.0796
 7628SOL    HW134343   1.018   4.568   6.624  0.4636  0.9476  0.8937
 7628SOL    HW234344   1.098   4.621   6.511  0.5926  1.2087  1.1183
 7629SOL     OW34345   1.246   1.581   8.860 -0.1989  0.3341 -0.3652
 7629SOL    HW134346   1.199   1.560   8.779  2.8644  0.9274 -2.2713
 7629SOL    HW234347   1.277   1.669   8.839  1.8915 -0.8406 -2.1727
 7630SOL     OW34348   2.982   3.843   7.285  0.0960  0.3383  0.1101
 7630SOL    HW134349   2.928   3.853   7.363  0.8302 -1.7227  0.8707
 7630SOL    HW234350   2.938   3.898   7.220  0.3165  0.4921  0.0901
 7631SOL     OW34351   4.513   3.478   2.525  0.0021  0.2654 -0.1613
 7631SOL    HW134352   4.430   3.433   2.509 -0.7181  1.3462  0.5282
 7631SOL    HW234353   4.491   3.544   2.590 -0.8152 -1.8634  1.7483
 7632SOL     OW34354   4.075   2.378   0.365 -0.2180  0.0303 -0.2985
 7632SOL    HW134355   4.047   2.457   0.318  1.6852  1.2964  0.6785
 7632SOL    HW234356   4.166   2.386   0.394 -0.5716 -2.3563  1.4345
 7633SOL     OW34357   3.365   0.106   5.002 -0.2152 -0.1906  0.5848
 7633SOL    HW134358   3.328   0.058   4.928  1.4995  0.3233 -0.5924
 7633SOL    HW234359   3.392   0.038   5.063 -1.2254 -2.3891 -1.4263
 7634SOL     OW34360   4.672   0.679   0.460 -0.7028  0.2361 -0.2389
 7634SOL    HW134361   4.712   0.597   0.429  0.4728  1.3443 -1.6679
 7634SOL    HW234362   0.031   0.721   0.469 -0.9121  0.4386  0.7258
 7635SOL     OW34363   4.571   2.642   6.505  0.3874  0.7349 -0.2888
 7635SOL    HW134364   4.607   2.682   6.426  0.3785  1.1237 -0.0946
 7635SOL    HW234365   4.631   2.569   6.519 -0.5925 -0.1573 -0.7731
 7636SOL     OW34366   0.854   3.301  11.685  0.1512  0.3537 -0.0631
 7636SOL    HW134367   0.877   3.247  11.760 -0.8560 -0.9139 -0.6608
 7636SOL    HW234368   0.772   3.255  11.667  0.5021 -0.2948 -0.0169
 7637SOL     OW34369   0.185   3.641  12.199  0.0514  0.0159  0.2021
 7637SOL    HW134370   0.114   3.675  12.144 -0.9277 -0.0375  1.4326
 7637SOL    HW234371   0.265   3.650  12.147 -0.1269 -1.0726 -0.2662
 7638SOL     OW34372   2.257   4.539   0.413 -0.6146 -0.3470 -0.4790
 7638SOL    HW134373   2.320   4.558   0.482 -2.3331  2.0921  0.4178
 7638SOL    HW234374   2.278   4.602   0.344 -0.7821  1.3972  1.0918
 7639SOL     OW34375   3.781   2.191  10.701 -0.2055 -0.3823 -0.7291
 7639SOL    HW134376   3.824   2.159  10.781  0.4649  1.8279 -0.2070
 7639SOL    HW234377   3.767   2.115  10.645 -1.1719  0.1285 -1.1748
 7640SOL     OW34378   4.117   1.563   7.479  0.1975  0.2431 -0.5381
 7640SOL    HW134379   4.024   1.547   7.493  0.1841 -0.9965 -2.0454
 7640SOL    HW234380   4.121   1.598   7.390  1.1173 -0.4732 -0.7895
 7641SOL     OW34381   1.837   2.928  15.173  0.3395 -0.4121 -0.4717
 7641SOL    HW134382   1.896   2.925  15.248  0.1707  2.7763 -0.1897
 7641SOL    HW234383   1.846   3.019  15.144 -0.5277 -0.3783 -0.6351
 7642SOL     OW34384   1.679   2.836   3.096 -0.5978 -0.5605  0.0485
 7642SOL    HW134385   1.685   2.930   3.077  1.7413 -0.2149  2.4909
 7642SOL    HW234386   1.651   2.810   3.008  0.5908 -1.4626 -0.0679
 7643SOL     OW34387   2.508   4.480   8.805 -0.4379 -0.0285  0.0941
 7643SOL    HW134388   2.559   4.429   8.868  1.4513  0.0398 -1.3798
 7643SOL    HW234389   2.430   4.426   8.813  0.0891 -0.7201  0.5864
 7644SOL     OW34390   0.677   4.470   5.640  0.3294  0.8487  0.1283
 7644SOL    HW134391   0.597   4.463   5.693  0.8566  0.7633  0.9213
 7644SOL    HW234392   0.726   4.405   5.692  0.0537  1.1559  0.7673
 7645SOL     OW34393   0.678   0.822  16.503 -0.3104 -0.1750 -0.5618
 7645SOL    HW134394   0.631   0.814  16.586 -0.2770  0.7183 -0.4558
 7645SOL    HW234395   0.764   0.842  16.540 -0.0802 -1.4477 -0.3995
 7646SOL     OW34396   0.160   1.556   7.924  0.1980  0.6941  0.2207
 7646SOL    HW134397   0.121   1.590   7.844  0.1892  5.8689  2.3841
 7646SOL    HW234398   0.130   1.629   7.979 -2.7767 -0.4791  0.1481
 7647SOL     OW34399   0.367   2.982   0.886 -0.0536  0.3619 -0.2968
 7647SOL    HW134400   0.418   2.938   0.955 -1.8606 -0.8466  0.2878
 7647SOL    HW234401   0.296   2.917   0.879  0.0096  0.5511 -2.6207
 7648SOL     OW34402   2.964   3.268  11.510 -0.3231  0.1879  0.1731
 7648SOL    HW134403   3.040   3.326  11.505  0.1807 -0.5476 -0.7299
 7648SOL    HW234404   2.960   3.234  11.600 -0.6026  1.1806  0.5405
 7649SOL     OW34405   4.035   3.484   0.164 -0.2716 -0.1958 -0.0380
 7649SOL    HW134406   4.018   3.494   0.258  0.0956  1.3964 -0.1316
 7649SOL    HW234407   3.950   3.513   0.132  0.4980 -1.5979 -3.3647
 7650SOL     OW34408   3.304   2.888   8.357  0.0720 -0.2965  0.0785
 7650SOL    HW134409   3.269   2.799   8.352 -0.5033 -0.0630 -0.1708
 7650SOL    HW234410   3.263   2.923   8.436  1.1350  1.4083 -0.1480
 7651SOL     OW34411   4.086   4.242   3.773 -0.5210  0.4924 -0.3314
 7651SOL    HW134412   4.129   4.226   3.857 -2.7977 -0.2549  0.6763
 7651SOL    HW234413   4.162   4.263   3.719  0.5081  1.1772  1.3851
 7652SOL     OW34414   4.470   4.375  14.509 -0.3196 -0.0030  0.0928
 7652SOL    HW134415   4.446   4.286  14.536 -1.0986 -0.2845 -1.5393
 7652SOL    HW234416   4.425   4.381  14.425 -0.3903 -0.4304  0.0962
 7653SOL     OW34417   1.375   1.814  16.559  0.2643 -0.0434  0.3536
 7653SOL    HW134418   1.461   1.854  16.576 -0.4630  2.1928 -1.2790
 7653SOL    HW234419   1.391   1.720  16.568 -0.8039 -0.2769 -0.1730
 7654SOL     OW34420   0.649   3.763   6.985  0.2907  0.4484 -0.5866
 7654SOL    HW134421   0.609   3.826   7.045  0.5325 -0.4757  0.5295
 7654SOL    HW234422   0.628   3.807   6.902 -1.1988 -0.9239 -0.9377
 7655SOL     OW34423   1.843   3.451   2.676 -0.5862 -0.3338  0.2035
 7655SOL    HW134424   1.792   3.414   2.748 -0.3954 -0.4426  0.2819
 7655SOL    HW234425   1.813   3.387   2.612 -0.9651 -1.3194  1.3589
 7656SOL     OW34426   3.112   2.564   6.596 -0.0624 -0.4842  0.4087
 7656SOL    HW134427   3.203   2.594   6.604 -0.7224  1.3378  1.0557
 7656SOL    HW234428   3.121   2.492   6.533  0.2879 -0.7818  0.7978
 7657SOL     OW34429   4.379   0.130   7.553 -0.0169 -0.3369 -0.2065
 7657SOL    HW134430   4.444   0.159   7.617  0.2954 -0.7307 -0.3433
 7657SOL    HW234431   4.405   0.048   7.512  2.6111  0.7951 -0.8136
 7658SOL     OW34432   0.117   4.169   5.544 -0.5068  0.3966 -0.0274
 7658SOL    HW134433   0.115   4.141   5.452  0.8294  1.3781 -0.3583
 7658SOL    HW234434   0.028   4.154   5.577  0.2681 -0.3496  1.7092
 7659SOL     OW34435   3.707   3.133   5.063 -0.1306 -0.1613  0.3163
 7659SOL    HW134436   3.625   3.139   5.112 -1.3095 -0.1495 -1.6621
 7659SOL    HW234437   3.743   3.051   5.095 -0.1738 -0.5499 -0.6380
 7660SOL     OW34438   2.200   4.644   2.605 -0.5386 -0.0550 -0.1473
 7660SOL    HW134439   2.292   4.665   2.618 -0.4710 -0.9494  0.7915
 7660SOL    HW234440   2.158   0.003   2.601 -0.9439 -0.2056  0.9036
 7661SOL     OW34441   0.033   1.911   2.576 -0.4175  0.3901  0.0827
 7661SOL    HW134442   0.077   1.935   2.495  0.6317  0.1686  0.5835
 7661SOL    HW234443   0.089   1.848   2.621  0.4311  2.4780  1.9730
 7662SOL     OW34444   0.654   1.179   1.639 -0.1306 -0.4548  0.3642
 7662SOL    HW134445   0.722   1.146   1.580  1.2833  0.0583  1.7173
 7662SOL    HW234446   0.576   1.141   1.598 -0.6755  0.8031  0.2395
 7663SOL     OW34447   3.051   2.276   5.435 -0.3622 -0.0151 -0.2921
 7663SOL    HW134448   3.110   2.268   5.511  0.8132  1.1264 -1.0893
 7663SOL    HW234449   2.992   2.345   5.466 -0.5444 -0.3618  0.1445
 7664SOL     OW34450   2.681   0.083   1.175  0.3297  0.3758  0.2223
 7664SOL    HW134451   2.752   0.139   1.147  0.0318  1.0821  0.8943
 7664SOL    HW234452   2.620   0.097   1.102 -0.5041  0.7019  0.9772
 7665SOL     OW34453   2.905   2.883   7.436  0.3097 -0.3961  0.4622
 7665SOL    HW134454   2.955   2.963   7.453  1.3690 -0.8151 -0.6881
 7665SOL    HW234455   2.855   2.911   7.359 -0.9590 -2.9953  0.3407
 7666SOL     OW34456   1.852   0.571   2.669  0.1654  0.0059 -0.2313
 7666SOL    HW134457   1.805   0.614   2.598  0.6758  2.0968  0.6936
 7666SOL    HW234458   1.939   0.585   2.631  0.6224  2.2242  1.6599
 7667SOL     OW34459   4.158   1.874   5.123 -0.0580  0.4603 -0.2531
 7667SOL    HW134460   4.116   1.826   5.195 -0.5772 -1.1311 -1.5982
 7667SOL    HW234461   4.170   1.797   5.066  2.3288 -0.4107  1.4172
 7668SOL     OW34462   2.943   1.840  15.986 -0.4935 -0.0204 -0.3971
 7668SOL    HW134463   3.015   1.898  15.960 -3.6944  3.0054 -2.5302
 7668SOL    HW234464   2.865   1.881  15.948 -1.1196 -1.4445 -0.6704
 7669SOL     OW34465   2.286   1.465   5.338  0.3654 -0.1755 -0.3462
 7669SOL    HW134466   2.287   1.520   5.416  1.8962 -1.6480  0.6602
 7669SOL    HW234467   2.371   1.421   5.340  1.6945  2.4983  1.1521
 7670SOL     OW34468   4.287   1.599   3.605  0.3695  0.1163  0.5796
 7670SOL    HW134469   4.380   1.608   3.583 -0.0210 -1.5540 -1.7992
 7670SOL    HW234470   4.251   1.600   3.516 -0.5405  1.8834  0.9778
 7671SOL     OW34471   2.969   1.054   2.357  0.1994 -0.2318  0.7251
 7671SOL    HW134472   3.032   1.114   2.317 -0.0327 -1.2007 -1.0714
 7671SOL    HW234473   2.898   1.065   2.294 -0.1050 -0.1145  1.0854
 7672SOL     OW34474   3.415   4.140   7.870  0.2299  0.1042 -0.0617
 7672SOL    HW134475   3.333   4.112   7.910  0.7910  1.2565  1.9002
 7672SOL    HW234476   3.463   4.139   7.953  1.7073 -0.8641 -0.9417
 7673SOL     OW34477   0.167   4.312   2.489 -0.1684 -1.1967  0.1803
 7673SOL    HW134478   0.142   4.390   2.540  0.4422 -0.8151 -0.1121
 7673SOL    HW234479   0.114   4.321   2.410 -2.4827  0.2165  1.8622
 7674SOL     OW34480   2.504   1.039   2.165 -0.1228 -0.5479  0.2334
 7674SOL    HW134481   2.429   1.090   2.195 -0.2121  0.0786 -1.0730
 7674SOL    HW234482   2.540   1.008   2.248  1.2910  0.8467  0.1580
 7675SOL     OW34483   2.071   4.162   7.895 -0.2248 -0.1186  0.2507
 7675SOL    HW134484   2.113   4.233   7.847 -0.5961  0.7796  1.2630
 7675SOL    HW234485   1.993   4.135   7.847  0.2464  1.0260 -1.1760
 7676SOL     OW34486   4.466   2.320   6.227  1.0344 -0.7384 -0.0671
 7676SOL    HW134487   4.403   2.328   6.155  1.3401 -1.3056 -0.3928
 7676SOL    HW234488   4.553   2.313   6.187  0.5891  1.5604 -1.4469
 7677SOL     OW34489   3.290   2.667   9.348  0.9869  0.3765  0.1472
 7677SOL    HW134490   3.326   2.663   9.437 -3.2455  0.8491  1.9164
 7677SOL    HW234491   3.279   2.761   9.338 -0.5009  0.0464 -1.3006
 7678SOL     OW34492   3.860   4.284   2.781 -0.5932  0.2013  0.1271
 7678SOL    HW134493   3.835   4.211   2.724 -0.2825  1.7634 -2.0164
 7678SOL    HW234494   3.825   4.359   2.733  0.2304  0.8578  0.5674
 7679SOL     OW34495   4.524   4.655   4.054  0.1928 -0.3564 -0.6160
 7679SOL    HW134496   4.495   4.717   4.122  0.2318  2.4244 -3.1609
 7679SOL    HW234497   4.525   4.572   4.102  3.0051  1.5475  2.5749
 7680SOL     OW34498   3.524   3.873   7.829 -0.2187  0.0879 -0.5724
 7680SOL    HW134499   3.562   3.911   7.907  2.7340 -0.1497 -1.8933
 7680SOL    HW234500   3.432   3.897   7.837 -0.4508 -0.9550 -0.0289
 7681SOL     OW34501   2.431   4.023   4.340  0.2080 -0.5159 -0.1735
 7681SOL    HW134502   2.415   4.041   4.247  1.7652  1.9319  0.0246
 7681SOL    HW234503   2.487   4.100   4.353 -1.3147  1.0219 -2.7232
 7682SOL     OW34504   1.071   1.748   2.216 -0.5514 -0.2365 -0.0117
 7682SOL    HW134505   1.048   1.819   2.276 -0.3204 -0.1894  0.0189
 7682SOL    HW234506   1.028   1.683   2.270 -2.4072  0.9235 -0.0666
 7683SOL     OW34507   3.544   2.452  17.517 -0.3697  0.0987 -0.0068
 7683SOL    HW134508   3.480   2.464  17.586  0.3618 -1.8411  0.9849
 7683SOL    HW234509   3.584   2.539  17.527  1.5411 -0.5786 -1.6682
 7684SOL     OW34510   1.931   2.187   6.464 -0.1172 -0.0685  0.0870
 7684SOL    HW134511   1.986   2.186   6.386  0.0590 -1.7531  0.2278
 7684SOL    HW234512   1.855   2.141   6.428  0.5829 -1.7216  0.6963
 7685SOL     OW34513   4.257   2.274   7.125  0.3803 -0.8881  0.2059
 7685SOL    HW134514   4.339   2.302   7.085  1.1839 -1.6120  1.3693
 7685SOL    HW234515   4.240   2.186   7.090 -0.3382 -0.5711 -0.2385
 7686SOL     OW34516   1.110   1.873  16.398 -0.1529 -0.6350  0.0299
 7686SOL    HW134517   1.137   1.877  16.490  0.2529  1.2181 -0.1763
 7686SOL    HW234518   1.198   1.897  16.369 -0.2290 -1.7887 -1.1499
 7687SOL     OW34519   2.034   4.701  10.602 -0.1710 -0.5581  0.3967
 7687SOL    HW134520   2.119   0.008  10.632 -0.2515  0.3063 -0.3339
 7687SOL    HW234521   2.006   4.645  10.673 -0.7406 -3.2750 -1.9918
 7688SOL     OW34522   1.065   2.416   7.608  0.3527  0.4433 -0.1904
 7688SOL    HW134523   0.971   2.404   7.620  0.6690 -1.9177 -0.1628
 7688SOL    HW234524   1.092   2.479   7.675 -2.5155 -0.7955  2.0967
 7689SOL     OW34525   1.774   1.017  12.040 -0.3398 -0.5299  0.3966
 7689SOL    HW134526   1.806   1.102  12.009 -1.6501  0.0666  0.6601
 7689SOL    HW234527   1.738   1.033  12.128 -1.3076 -0.0024 -0.0908
 7690SOL     OW34528   2.841   2.249   3.903  0.2675 -0.1186  0.3646
 7690SOL    HW134529   2.745   2.249   3.893  0.2364 -0.9587  0.6606
 7690SOL    HW234530   2.844   2.329   3.956 -0.1196 -1.2500  2.1021
 7691SOL     OW34531   1.797   2.412   8.148  0.3909  0.4191  0.2119
 7691SOL    HW134532   1.776   2.368   8.230 -0.1443 -0.3783 -0.3524
 7691SOL    HW234533   1.749   2.365   8.079  0.4065  0.4136  0.2049
 7692SOL     OW34534   3.471   1.771   9.002 -0.1350  0.2421 -0.2964
 7692SOL    HW134535   3.514   1.713   9.064 -0.2410 -1.1111 -1.4917
 7692SOL    HW234536   3.511   1.731   8.924 -1.3488 -0.4702 -0.5533
 7693SOL     OW34537   0.909   2.720   2.781  0.3047 -0.0000 -0.7194
 7693SOL    HW134538   0.919   2.680   2.867  1.1420 -0.5349 -1.0688
 7693SOL    HW234539   1.001   2.727   2.757  0.1395 -1.6137 -1.8038
 7694SOL     OW34540   4.254   1.138   8.548 -0.0385 -0.3799 -0.2343
 7694SOL    HW134541   4.240   1.179   8.463 -1.9665 -0.3030  0.1089
 7694SOL    HW234542   4.343   1.103   8.548  0.1940  0.2213  0.1087
 7695SOL     OW34543   2.016   2.117   1.030 -0.4308  0.2315  0.4117
 7695SOL    HW134544   2.095   2.084   1.074 -0.8298  0.7192  1.5095
 7695SOL    HW234545   1.951   2.079   1.089 -1.9323  0.0776 -1.3571
 7696SOL     OW34546   1.389   1.337   6.089  0.2913  0.3988 -0.1674
 7696SOL    HW134547   1.302   1.308   6.062  0.9399 -0.6733 -1.1399
 7696SOL    HW234548   1.382   1.316   6.182 -3.8070 -1.8590 -0.9941
 7697SOL     OW34549   3.973   3.034   4.659  0.2792  0.0594 -0.5982
 7697SOL    HW134550   3.896   2.993   4.697  0.2135  1.4235  0.7267
 7697SOL    HW234551   3.944   3.036   4.568 -0.7945 -1.3067 -0.3014
 7698SOL     OW34552   4.319   2.533   3.628  0.2939 -0.3492  0.0335
 7698SOL    HW134553   4.265   2.566   3.557  3.4584  0.2943 -2.0550
 7698SOL    HW234554   4.397   2.588   3.627  0.0785 -0.0757 -1.2357
 7699SOL     OW34555   3.556   3.292   1.434  0.8403 -0.1937  0.0546
 7699SOL    HW134556   3.475   3.271   1.388  1.5042 -3.6434  0.5051
 7699SOL    HW234557   3.530   3.375   1.476 -3.0250 -2.5150  2.2789
 7700SOL     OW34558   4.244   2.126   4.538  0.1251  0.2961 -0.0416
 7700SOL    HW134559   4.208   2.054   4.590 -0.9226  1.6442  1.0869
 7700SOL    HW234560   4.188   2.110   4.462  1.0526  1.8670 -1.0501
 7701SOL     OW34561   0.750   2.902   0.132 -0.1519 -0.1182 -0.3970
 7701SOL    HW134562   0.673   2.890   0.187 -0.2764 -1.0394 -0.7701
 7701SOL    HW234563   0.812   2.905   0.205 -1.5854 -0.6297  0.8293
 7702SOL     OW34564   3.963   4.605   4.550 -0.6087  0.2665  0.4030
 7702SOL    HW134565   3.979   4.594   4.457  1.2148 -2.0999  0.9842
 7702SOL    HW234566   4.053   4.615   4.581 -0.6994  2.8990 -0.1890
 7703SOL     OW34567   0.190   3.990   6.834 -0.0655 -0.1714  0.8567
 7703SOL    HW134568   0.212   4.083   6.834 -1.1133  0.0586 -2.3262
 7703SOL    HW234569   0.108   3.989   6.785 -0.6729  0.6603  1.8675
 7704SOL     OW34570   4.054   0.679   1.568  0.0003 -0.8379 -0.0960
 7704SOL    HW134571   4.143   0.674   1.604  0.6630 -2.0285 -1.9160
 7704SOL    HW234572   4.034   0.772   1.578 -0.3719 -0.8215 -1.0448
 7705SOL     OW34573   0.582   0.719   6.377 -0.9318  0.1438  0.3579
 7705SOL    HW134574   0.514   0.667   6.419 -1.1864  0.2000  0.0247
 7705SOL    HW234575   0.561   0.699   6.285  1.0178 -1.7678  0.3320
 7706SOL     OW34576   0.824   0.174   1.105  0.1851 -0.2196  0.2280
 7706SOL    HW134577   0.868   0.161   1.189  1.1526  1.0586 -0.0804
 7706SOL    HW234578   0.905   0.189   1.055  1.0412 -0.7813  1.4336
 7707SOL     OW34579   1.249   1.072   6.842  0.5015 -0.3039 -0.3121
 7707SOL    HW134580   1.187   1.023   6.788  0.5400 -0.6447 -0.0487
 7707SOL    HW234581   1.181   1.116   6.893  1.3463  1.7090 -0.9301
 7708SOL     OW34582   4.592   3.741   5.766 -0.0142 -0.4327  0.1834
 7708SOL    HW134583   4.534   3.809   5.732 -1.9785 -2.4322 -0.4658
 7708SOL    HW234584   4.543   3.661   5.752  0.0096 -0.3877 -0.1612
 7709SOL     OW34585   0.319   3.970   9.815  0.0444 -0.1139  0.1018
 7709SOL    HW134586   0.312   3.985   9.720 -1.7741 -0.2629  0.2183
 7709SOL    HW234587   0.265   3.893   9.833  0.8584 -0.5671  0.5952
 7710SOL     OW34588   1.673   0.825   2.503  0.3239  0.0652 -0.0714
 7710SOL    HW134589   1.645   0.793   2.417  0.2756 -0.7538  0.2550
 7710SOL    HW234590   1.588   0.833   2.545  1.6678  0.4850  2.5533
 7711SOL     OW34591   2.643   0.291   4.071  0.3639 -0.0368 -0.1948
 7711SOL    HW134592   2.702   0.216   4.080 -1.7356 -1.4485  1.7268
 7711SOL    HW234593   2.637   0.307   4.165  0.2851 -0.8679 -0.0567
 7712SOL     OW34594   3.248   3.996  16.206  0.1211  0.0813  0.2647
 7712SOL    HW134595   3.295   4.044  16.273  0.1784  0.6510 -0.1829
 7712SOL    HW234596   3.161   4.018  16.239 -0.7446 -0.5979 -1.5516
 7713SOL     OW34597   4.247   2.928   0.207  0.5014 -0.2672 -0.2196
 7713SOL    HW134598   4.188   2.982   0.260  1.1184 -0.3869  0.5759
 7713SOL    HW234599   4.316   2.988   0.176  1.9521 -1.6103  0.4549
 7714SOL     OW34600   3.310   2.535   3.493  0.1179  0.4426  0.5313
 7714SOL    HW134601   3.336   2.456   3.539 -0.7993 -0.1639  0.0041
 7714SOL    HW234602   3.227   2.504   3.457  0.3503 -0.5230  0.8424
 7715SOL     OW34603   0.972   0.892  16.601 -0.3986  0.1408  0.4578
 7715SOL    HW134604   0.982   0.911  16.508  0.8788  4.2211  1.4588
 7715SOL    HW234605   1.063   0.888  16.630 -1.3972 -1.4792  3.4423
 7716SOL     OW34606   2.911   2.324  14.030  0.4230  0.4919 -0.4682
 7716SOL    HW134607   2.835   2.337  14.087 -0.0838  0.5628 -1.1625
 7716SOL    HW234608   2.887   2.240  13.989 -0.1343 -0.2883  1.4236
 7717SOL     OW34609   0.304   1.021  16.765 -0.1578 -0.0154 -0.3673
 7717SOL    HW134610   0.261   1.100  16.732  0.8381 -0.6867 -3.2967
 7717SOL    HW234611   0.269   0.957  16.703 -0.1943 -1.3252  1.0114
 7718SOL     OW34612   1.649   2.582   4.290  0.0251  0.1246 -0.2163
 7718SOL    HW134613   1.730   2.608   4.246 -0.1684  1.0249 -0.0492
 7718SOL    HW234614   1.600   2.663   4.276  0.5172  0.4286 -0.1963
 7719SOL     OW34615   0.168   1.872  14.989  0.2409  0.6131 -0.1485
 7719SOL    HW134616   0.245   1.855  14.934  0.9491  0.3850  0.9127
 7719SOL    HW234617   0.098   1.820  14.949 -0.1678 -1.4614  3.2885
 7720SOL     OW34618   3.417   4.453  14.008 -0.5684  0.4569  0.1063
 7720SOL    HW134619   3.448   4.450  13.917 -0.0175  0.0654  0.3054
 7720SOL    HW234620   3.328   4.489  14.006 -1.1202 -1.0051 -1.4572
 7721SOL     OW34621   3.161   1.530   9.739  0.6297 -0.0212 -0.5591
 7721SOL    HW134622   3.126   1.615   9.765  3.1207  1.4515 -1.9923
 7721SOL    HW234623   3.240   1.517   9.793 -0.8646  2.9435  2.3506
 7722SOL     OW34624   2.562   0.971   0.355 -0.4522  0.5456  0.1701
 7722SOL    HW134625   2.556   0.877   0.338 -2.6530  1.5257 -4.3477
 7722SOL    HW234626   2.633   0.991   0.293 -0.7368  1.0395  0.0108
 7723SOL     OW34627   2.640   0.428   5.138  0.3938  0.0658 -0.0902
 7723SOL    HW134628   2.704   0.497   5.121  1.4194 -0.6707  0.7416
 7723SOL    HW234629   2.630   0.431   5.233  1.7745 -0.6523  0.0785
 7724SOL     OW34630   1.155   3.497   6.518 -0.2328  0.1635  0.6074
 7724SOL    HW134631   1.226   3.540   6.471 -1.6241  0.2884 -1.4081
 7724SOL    HW234632   1.118   3.441   6.449  2.1712 -0.7458  0.0624
 7725SOL     OW34633   0.492   0.910  14.943 -0.3065  0.3315  1.0284
 7725SOL    HW134634   0.489   0.815  14.957  2.5044  0.2492  0.9714
 7725SOL    HW234635   0.404   0.939  14.969 -1.0329 -1.3831  0.5257
 7726SOL     OW34636   2.271   0.737   7.777 -0.3066  0.1614 -0.1656
 7726SOL    HW134637   2.230   0.821   7.794 -2.3108 -0.3748 -2.4300
 7726SOL    HW234638   2.277   0.737   7.681 -0.7341 -0.6521 -0.1862
 7727SOL     OW34639   0.669   3.185   3.203  0.2269  0.2775 -0.4362
 7727SOL    HW134640   0.666   3.139   3.286 -0.9565  3.2885  1.1906
 7727SOL    HW234641   0.758   3.219   3.209  0.1546  0.3126  0.3859
 7728SOL     OW34642   2.024   2.548   8.082  0.4429 -0.2216 -0.0669
 7728SOL    HW134643   1.936   2.521   8.107  1.3822 -2.2247  1.0729
 7728SOL    HW234644   2.068   2.566   8.166 -0.2785 -1.0486  0.4827
 7729SOL     OW34645   1.624   1.698  14.036  0.0988  0.3108 -0.1291
 7729SOL    HW134646   1.665   1.637  14.097 -1.9027  0.2778  1.1910
 7729SOL    HW234647   1.696   1.755  14.008 -2.2354  2.7056 -1.3036
 7730SOL     OW34648   0.476   3.095   5.997  0.6076  0.3916  0.2666
 7730SOL    HW134649   0.443   3.159   5.934 -0.8902 -2.4000 -1.8102
 7730SOL    HW234650   0.548   3.067   5.941 -1.5240 -1.5776 -1.4649
 7731SOL     OW34651   0.815   4.686   3.871 -0.1839 -0.2502  0.3013
 7731SOL    HW134652   0.806   4.681   3.775 -0.2508  4.5348  0.0768
 7731SOL    HW234653   0.848   4.597   3.885 -0.2563 -0.5726 -1.4506
 7732SOL     OW34654   1.458   2.111   5.947 -0.1829 -0.0275  1.2181
 7732SOL    HW134655   1.476   2.038   5.887 -1.4424  1.2369 -0.6758
 7732SOL    HW234656   1.490   2.186   5.897 -0.0762  0.5190  2.1053
 7733SOL     OW34657   2.722   2.369  13.792  0.2333  0.3011 -0.1170
 7733SOL    HW134658   2.729   2.387  13.886 -0.8392 -1.3283  0.2671
 7733SOL    HW234659   2.754   2.279  13.785 -0.1073  0.1195  0.7659
 7734SOL     OW34660   1.258   1.512   2.258 -0.3432 -0.2360 -0.8038
 7734SOL    HW134661   1.231   1.478   2.173 -1.9355 -2.0897  0.4524
 7734SOL    HW234662   1.314   1.582   2.224  0.4438 -1.4009 -1.9383
 7735SOL     OW34663   1.255   3.165   7.920 -0.1865 -0.3907 -0.6167
 7735SOL    HW134664   1.173   3.140   7.962 -1.3391 -1.0485 -3.2749
 7735SOL    HW234665   1.246   3.259   7.939  1.4136  0.2751 -3.0934
 7736SOL     OW34666   1.923   3.136  17.511  0.0881  0.1824  0.0954
 7736SOL    HW134667   1.937   3.137  17.417  1.1960 -0.4779  0.2556
 7736SOL    HW234668   1.959   3.224  17.526 -0.0372 -0.0422  1.7785
 7737SOL     OW34669   1.092   1.192   5.201 -0.2024  0.0823  0.3345
 7737SOL    HW134670   1.081   1.275   5.156  1.1903 -0.0692 -0.2831
 7737SOL    HW234671   1.000   1.165   5.203  0.7868 -3.2638  1.0574
 7738SOL     OW34672   2.908   1.067  11.324 -0.1210 -0.4336 -0.3923
 7738SOL    HW134673   2.813   1.063  11.333 -0.0978 -1.2585 -0.5083
 7738SOL    HW234674   2.915   1.162  11.339 -1.1159 -0.2716 -1.0140
 7739SOL     OW34675   2.324   2.512   8.339  0.0012  0.3728  0.8821
 7739SOL    HW134676   2.403   2.566   8.329 -0.5056  0.9354 -0.0695
 7739SOL    HW234677   2.326   2.481   8.429  0.9396  1.0681  1.1093
 7740SOL     OW34678   4.436   1.251   2.942 -0.0690  0.3741  0.0144
 7740SOL    HW134679   4.440   1.293   2.856 -0.7599  2.2847  0.9135
 7740SOL    HW234680   4.347   1.218   2.936  0.5695 -1.4045  0.3833
 7741SOL     OW34681   3.467   0.850  16.191 -0.0348  0.3564  0.1878
 7741SOL    HW134682   3.518   0.771  16.210 -2.0171 -1.0818 -0.4823
 7741SOL    HW234683   3.384   0.823  16.232  0.5026 -2.9634 -0.8850
 7742SOL     OW34684   4.668   4.529   7.518 -0.5542  0.3360  0.6592
 7742SOL    HW134685   4.572   4.528   7.517 -0.5343  1.5925 -1.3342
 7742SOL    HW234686   4.695   4.614   7.552 -0.0889  0.2613  0.4800
 7743SOL     OW34687   1.689   2.380   7.878  0.0784  0.1029  0.0413
 7743SOL    HW134688   1.613   2.435   7.857  1.4803  1.9744 -0.1496
 7743SOL    HW234689   1.759   2.425   7.832 -1.3791 -0.3930 -2.6193
 7744SOL     OW34690   3.551   2.643   1.626  0.5832  0.2750  0.1464
 7744SOL    HW134691   3.579   2.614   1.539  0.3581  0.5460 -0.0174
 7744SOL    HW234692   3.606   2.575   1.665  1.9389 -0.6728 -3.4473
 7745SOL     OW34693   4.187   0.065   1.994  0.0099 -0.5262 -0.3207
 7745SOL    HW134694   4.153   0.146   1.956 -1.4942 -1.4680 -0.9998
 7745SOL    HW234695   4.104   0.025   2.022  1.4152 -2.4726  1.0812
 7746SOL     OW34696   3.801   1.676  17.479 -0.2480  0.0601  0.1197
 7746SOL    HW134697   3.707   1.674  17.463 -0.0383  1.0641 -1.3124
 7746SOL    HW234698   3.824   1.739  17.410  1.5812 -0.3572  0.3454
 7747SOL     OW34699   3.879   0.240   5.404 -0.3170  0.4288 -0.7740
 7747SOL    HW134700   3.858   0.267   5.493  1.2017 -3.5532  0.8108
 7747SOL    HW234701   3.975   0.246   5.410 -0.3779  0.2671  0.4482
 7748SOL     OW34702   2.465   2.487  10.847 -0.1997 -0.1597  0.9445
 7748SOL    HW134703   2.503   2.546  10.912 -0.9609  2.4302 -0.9769
 7748SOL    HW234704   2.490   2.509  10.758  1.1990  2.9278  2.1105
 7749SOL     OW34705   1.445   1.360   3.420 -0.2777 -0.5383 -0.3015
 7749SOL    HW134706   1.370   1.375   3.361 -1.4639  0.3529  1.4304
 7749SOL    HW234707   1.491   1.444   3.416 -1.1207 -0.0858 -0.5152
 7750SOL     OW34708   4.047   2.772   3.647  0.3516  0.1146  0.1249
 7750SOL    HW134709   4.079   2.713   3.578 -0.4225 -0.1909  0.0262
 7750SOL    HW234710   4.087   2.854   3.617 -0.9613  0.5433 -0.4282
 7751SOL     OW34711   0.316   1.569   5.950 -0.6513 -0.1898 -0.1448
 7751SOL    HW134712   0.391   1.594   6.004 -1.5504  2.5544 -0.1577
 7751SOL    HW234713   0.268   1.514   6.012 -0.3712  0.8647  1.0131
 7752SOL     OW34714   3.094   3.985  12.051 -0.5876  0.7648  0.5135
 7752SOL    HW134715   3.134   3.901  12.071  0.6786  1.2541  0.0579
 7752SOL    HW234716   3.152   4.037  12.106  2.0222 -1.0705 -0.4873
 7753SOL     OW34717   1.873   0.846   7.335  0.0156 -0.1736  0.0789
 7753SOL    HW134718   1.855   0.877   7.424 -3.8391 -2.3139  0.0601
 7753SOL    HW234719   1.966   0.825   7.338  0.1884  0.8624  2.6322
 7754SOL     OW34720   4.552   3.545  12.307 -0.0058 -0.4164  0.3720
 7754SOL    HW134721   4.612   3.591  12.366 -0.8464 -0.0976  0.9638
 7754SOL    HW234722   4.486   3.506  12.363  0.7543 -0.7330  1.0497
 7755SOL     OW34723   2.800   4.017   2.722  0.2521  0.7161  0.1949
 7755SOL    HW134724   2.745   4.036   2.645  3.2378  0.4833 -1.9922
 7755SOL    HW234725   2.856   4.089   2.693 -1.3280  1.6529 -0.5499
 7756SOL     OW34726   3.360   0.982  13.880 -0.1336 -0.1592  0.3221
 7756SOL    HW134727   3.450   1.002  13.853 -0.3555  0.1818 -0.1489
 7756SOL    HW234728   3.312   1.057  13.846  1.2563  0.7025  0.2818
 7757SOL     OW34729   4.659   4.561   4.391 -0.6654 -0.1201 -0.0915
 7757SOL    HW134730   4.633   4.554   4.483 -0.4631  0.3351 -0.0021
 7757SOL    HW234731   0.027   4.571   4.398 -0.6559  0.6787 -1.2363
 7758SOL     OW34732   2.666   2.294   3.314  0.3725 -0.0536  0.0119
 7758SOL    HW134733   2.668   2.259   3.225  0.1926 -2.0578  0.8023
 7758SOL    HW234734   2.578   2.267   3.340 -0.0698  2.3139  0.9808
 7759SOL     OW34735   4.504   0.035   8.145  0.0491 -0.2344 -0.2670
 7759SOL    HW134736   4.489   0.041   8.240  0.9062  0.4195 -0.1670
 7759SOL    HW234737   4.420   0.058   8.107 -0.2233 -0.5693  0.1261
 7760SOL     OW34738   2.643   3.542   5.279 -0.3915 -0.7238 -0.4531
 7760SOL    HW134739   2.736   3.557   5.264  0.3477 -1.8722  2.7786
 7760SOL    HW234740   2.634   3.492   5.198 -0.5998 -1.7076  0.1761
 7761SOL     OW34741   3.418   3.068   4.701 -0.0675 -0.1270 -0.4070
 7761SOL    HW134742   3.474   3.141   4.728 -0.7912 -0.3363  1.6417
 7761SOL    HW234743   3.464   3.026   4.628  1.0612  0.1220  0.1507
 7762SOL     OW34744   1.685   3.655   2.842  0.2112  0.0994 -0.0476
 7762SOL    HW134745   1.697   3.743   2.807 -0.9948  1.1423  2.1627
 7762SOL    HW234746   1.751   3.614   2.786  0.2514 -0.2499  0.2518
 7763SOL     OW34747   3.672   0.435  11.625  0.4906 -0.4179 -0.1107
 7763SOL    HW134748   3.725   0.451  11.703  1.4625 -0.9752 -0.6531
 7763SOL    HW234749   3.589   0.411  11.665 -0.5200  2.9133 -0.2776
 7764SOL     OW34750   2.529   3.030   3.244  0.1049  0.0706  0.3933
 7764SOL    HW134751   2.528   2.941   3.279  1.5973 -1.0990 -2.5263
 7764SOL    HW234752   2.434   3.033   3.226  0.2459  0.1701 -0.3380
 7765SOL     OW34753   4.190   1.607   3.350  0.2733 -0.7382  0.0522
 7765SOL    HW134754   4.241   1.527   3.342  1.1489 -0.1821  0.0452
 7765SOL    HW234755   4.156   1.612   3.261  3.1772 -0.3087 -1.0193
 7766SOL     OW34756   0.873   4.218   1.935 -0.0069  0.4461  0.7030
 7766SOL    HW134757   0.933   4.181   1.869  0.7539 -1.7068  2.5859
 7766SOL    HW234758   0.913   4.293   1.979  1.0347  0.1549  0.2610
 7767SOL     OW34759   4.292   2.359   8.714 -0.5373 -0.1099  0.3875
 7767SOL    HW134760   4.254   2.284   8.760 -1.3372 -0.0655 -0.2047
 7767SOL    HW234761   4.248   2.356   8.630  0.0209 -1.1555  0.1296
 7768SOL     OW34762   2.536   1.012   2.670  0.6394  0.4098 -0.2783
 7768SOL    HW134763   2.487   1.076   2.618 -1.8322 -1.9799 -0.8673
 7768SOL    HW234764   2.579   0.963   2.600  1.6706  2.6156 -1.2067
 7769SOL     OW34765   0.380   0.278   8.014  0.1481  0.1846  0.5321
 7769SOL    HW134766   0.407   0.352   8.069 -0.5502  0.3343  0.6719
 7769SOL    HW234767   0.354   0.322   7.933 -1.3348 -0.9084  0.4086
 7770SOL     OW34768   0.824   3.892   4.344 -0.8320  0.1766  0.1663
 7770SOL    HW134769   0.918   3.881   4.335 -0.6096  1.0826  1.3782
 7770SOL    HW234770   0.796   3.861   4.258  0.2615 -4.5451  1.5182
 7771SOL     OW34771   3.588   3.153  12.719 -0.3277 -0.0000  1.2380
 7771SOL    HW134772   3.591   3.234  12.668  0.2980 -1.8965 -1.7242
 7771SOL    HW234773   3.495   3.148  12.744 -0.3941  0.5156  1.0835
 7772SOL     OW34774   3.126   2.367   7.138 -0.0695  0.1439  0.0085
 7772SOL    HW134775   3.127   2.342   7.231 -1.0013 -0.0623 -0.0366
 7772SOL    HW234776   3.042   2.326   7.118 -0.3056  0.5860  0.1021
 7773SOL     OW34777   0.059   2.483   9.003  0.3079 -0.5529 -0.3030
 7773SOL    HW134778   0.092   2.570   9.024 -1.6067 -0.3601  1.8035
 7773SOL    HW234779   0.023   2.496   8.915 -0.1628  0.4584  0.0468
 7774SOL     OW34780   0.363   0.458   1.621 -0.0424 -0.3098 -0.1428
 7774SOL    HW134781   0.399   0.408   1.549  0.0741 -1.0793  0.4492
 7774SOL    HW234782   0.330   0.393   1.684 -1.2287  0.0967 -0.3326
 7775SOL     OW34783   3.336   4.365   3.941 -0.0686  0.2254  0.7927
 7775SOL    HW134784   3.272   4.302   3.909 -0.2115  0.2879  0.9582
 7775SOL    HW234785   3.388   4.374   3.861  1.3864  0.7351  1.7998
 7776SOL     OW34786   2.893   0.825   9.502 -0.3516 -0.1927 -0.0551
 7776SOL    HW134787   2.864   0.741   9.538  1.3572 -1.2405 -1.1035
 7776SOL    HW234788   2.987   0.814   9.519 -0.4302  0.3222  0.7356
 7777SOL     OW34789   4.227   4.546   8.152 -0.5384  0.2792 -0.2261
 7777SOL    HW134790   4.190   4.479   8.210  1.7100 -1.3163 -0.6227
 7777SOL    HW234791   4.280   4.599   8.212  0.1380  0.0974 -0.6566
 7778SOL     OW34792   0.768   0.677   4.452  0.5493  0.4490 -0.1950
 7778SOL    HW134793   0.683   0.633   4.449  1.4700 -1.3919  1.1647
 7778SOL    HW234794   0.775   0.734   4.375 -0.9927  0.3570 -0.4048
 7779SOL     OW34795   3.348   0.293  10.412 -0.1007  0.5948  0.1110
 7779SOL    HW134796   3.278   0.288  10.347  0.4702 -1.2102 -0.3751
 7779SOL    HW234797   3.403   0.351  10.360  1.6639 -0.8456  0.3800
 7780SOL     OW34798   2.059   2.720   9.832 -0.0552 -0.1622 -0.2683
 7780SOL    HW134799   2.069   2.812   9.859 -1.1114 -0.2839  0.5296
 7780SOL    HW234800   1.978   2.694   9.875  0.5860 -0.8948  0.4941
 7781SOL     OW34801   4.114   2.713  15.819  0.2411 -0.3824 -0.2310
 7781SOL    HW134802   4.029   2.738  15.856  0.8381  1.5183 -0.1085
 7781SOL    HW234803   4.172   2.786  15.843  0.1227  0.0318 -1.2317
 7782SOL     OW34804   1.092   1.152   8.647 -0.0988 -0.2233  0.1926
 7782SOL    HW134805   1.179   1.192   8.655  0.3207 -1.3929  1.5186
 7782SOL    HW234806   1.040   1.225   8.614 -0.6215 -0.5559  0.2893
 7783SOL     OW34807   0.555   0.469   3.254  0.5637  0.3337 -0.0406
 7783SOL    HW134808   0.520   0.381   3.246  0.3022  0.2705  1.6641
 7783SOL    HW234809   0.476   0.523   3.262  0.9289  0.6680  1.3242
 7784SOL     OW34810   4.226   2.629  16.864 -0.0738 -0.3005 -0.5390
 7784SOL    HW134811   4.236   2.668  16.777  0.3777  1.0884  0.1377
 7784SOL    HW234812   4.134   2.642  16.890 -0.4595 -1.0923 -1.5339
 7785SOL     OW34813   2.219   1.829   5.399 -0.3486 -0.6733 -0.4167
 7785SOL    HW134814   2.133   1.854   5.368 -0.0880  0.3075 -0.3428
 7785SOL    HW234815   2.265   1.798   5.321 -0.3097  0.2513 -0.7654
 7786SOL     OW34816   4.014   2.435  17.386 -0.0351  0.5782  0.5446
 7786SOL    HW134817   4.072   2.407  17.456  1.4086 -0.7805 -1.1988
 7786SOL    HW234818   3.956   2.498  17.430 -2.0419 -1.3270  0.6297
 7787SOL     OW34819   3.868   4.200   5.591  0.2060 -0.4580 -0.1719
 7787SOL    HW134820   3.894   4.109   5.574  1.3724 -0.3811  1.2181
 7787SOL    HW234821   3.840   4.189   5.682 -0.0850  2.1409  0.0349
 7788SOL     OW34822   3.180   3.440   1.776 -0.5167  0.1619 -0.5558
 7788SOL    HW134823   3.137   3.456   1.693 -0.9970  2.2287  0.1136
 7788SOL    HW234824   3.139   3.505   1.832 -0.8513 -0.1150 -0.4804
 7789SOL     OW34825   3.901   0.730   8.759  0.1553  0.0730  0.1124
 7789SOL    HW134826   3.951   0.777   8.692  1.8255  0.8184  1.8827
 7789SOL    HW234827   3.813   0.722   8.721 -0.3594 -0.0385  1.3452
 7790SOL     OW34828   1.235   0.960   2.007  0.2479  0.1111 -0.4871
 7790SOL    HW134829   1.287   0.879   2.000  0.1103 -0.0468  0.2656
 7790SOL    HW234830   1.170   0.953   2.077  0.4336 -0.3270 -0.3530
 7791SOL     OW34831   4.051   3.917   3.074  0.5141  0.2278 -0.2624
 7791SOL    HW134832   3.984   3.867   3.028 -0.6639  1.8064 -0.2570
 7791SOL    HW234833   4.084   3.852   3.137 -0.7410 -0.2569 -0.1016
 7792SOL     OW34834   1.574   3.980  11.850  0.3315  0.5723  0.1770
 7792SOL    HW134835   1.667   3.982  11.871  0.2472  1.7575  0.4447
 7792SOL    HW234836   1.567   4.050  11.784  0.6649 -0.8326 -1.3474
 7793SOL     OW34837   1.676   0.615  10.468 -0.4869  0.1004  0.4896
 7793SOL    HW134838   1.672   0.615  10.563 -0.3960  0.4874  0.4950
 7793SOL    HW234839   1.592   0.655  10.444 -1.1001 -1.1184  0.6080
 7794SOL     OW34840   0.446   1.595   4.028 -0.6564 -0.2046 -0.0038
 7794SOL    HW134841   0.375   1.625   3.971  0.8946  2.3304 -0.6218
 7794SOL    HW234842   0.466   1.671   4.083 -0.3664  0.0938 -0.5167
 7795SOL     OW34843   4.378   3.555   1.279 -0.1291 -0.2480  0.2478
 7795SOL    HW134844   4.319   3.480   1.277 -0.7855  0.2829 -0.7910
 7795SOL    HW234845   4.420   3.542   1.193 -1.0737  0.4162 -0.3093
 7796SOL     OW34846   2.446   3.517  15.336  0.0496  1.1730 -0.5433
 7796SOL    HW134847   2.540   3.521  15.320 -0.1641 -2.6677 -2.7687
 7796SOL    HW234848   2.406   3.459  15.272  0.2454  0.4466 -0.0067
 7797SOL     OW34849   2.225   1.778   3.634 -0.3805  0.0508  0.2357
 7797SOL    HW134850   2.282   1.783   3.556  0.5980  0.5613  0.9815
 7797SOL    HW234851   2.235   1.865   3.671  0.3386  0.1345 -0.1571
 7798SOL     OW34852   3.971   0.316   9.368  0.2080 -0.1087  0.4058
 7798SOL    HW134853   3.939   0.355   9.287 -3.1820 -0.3338  1.6253
 7798SOL    HW234854   4.046   0.375   9.378  0.3884 -0.1802 -0.5078
 7799SOL     OW34855   2.890   1.941   2.159 -0.1663  0.1247  0.1773
 7799SOL    HW134856   2.869   1.867   2.216 -0.9630  0.9615  0.9609
 7799SOL    HW234857   2.806   1.986   2.159  0.2375  0.8600  2.3651
 7800SOL     OW34858   2.488   1.234   3.182 -0.0519 -0.5303  0.5388
 7800SOL    HW134859   2.541   1.229   3.261 -0.7549  0.5405  1.0891
 7800SOL    HW234860   2.555   1.227   3.114 -0.9204  3.0194 -0.6656
 7801SOL     OW34861   1.982   2.447   0.205 -0.1561 -0.6453  0.0364
 7801SOL    HW134862   2.018   2.523   0.158  2.5342  0.1685  3.4402
 7801SOL    HW234863   1.900   2.478   0.243 -0.2012 -2.0186  1.0550
 7802SOL     OW34864   4.710   3.769   0.476  0.3236  0.1545  0.1040
 7802SOL    HW134865   0.044   3.838   0.502  2.1792 -0.7466 -1.8349
 7802SOL    HW234866   0.019   3.713   0.545 -2.4492 -2.3423 -0.4845
 7803SOL     OW34867   2.234   2.571  11.770 -0.6149  0.5354  0.1493
 7803SOL    HW134868   2.315   2.581  11.719 -1.0380 -3.5562 -1.2906
 7803SOL    HW234869   2.228   2.653  11.819 -0.8859 -0.0679  1.1171
 7804SOL     OW34870   2.006   1.155   2.318  0.5699 -0.0739  0.1335
 7804SOL    HW134871   1.996   1.212   2.242  1.5910 -0.3220 -0.1845
 7804SOL    HW234872   1.927   1.103   2.305  0.3161  0.6956 -1.2950
 7805SOL     OW34873   1.664   2.381   6.133 -0.5611  0.1773  0.3969
 7805SOL    HW134874   1.721   2.456   6.113 -2.1648  1.0148 -1.0474
 7805SOL    HW234875   1.685   2.323   6.060 -0.3266  0.5943  0.1281
 7806SOL     OW34876   3.801   2.865   5.102  0.2350  0.3269 -0.5606
 7806SOL    HW134877   3.793   2.799   5.033 -1.3378  0.1384 -0.1999
 7806SOL    HW234878   3.747   2.819   5.166  1.0893 -0.6372 -0.5395
 7807SOL     OW34879   0.416   0.575  15.725  0.1945  0.1324 -0.3083
 7807SOL    HW134880   0.329   0.598  15.757 -0.2757 -1.3909 -0.4592
 7807SOL    HW234881   0.443   0.534  15.807  0.0259 -1.0368 -0.8275
 7808SOL     OW34882   2.827   0.757   1.490 -0.2720 -0.2458 -0.7708
 7808SOL    HW134883   2.916   0.733   1.464 -0.4997 -2.3670  0.4524
 7808SOL    HW234884   2.807   0.806   1.410  3.2331  0.4064 -1.2249
 7809SOL     OW34885   2.676   3.290   1.879  0.4116 -0.2174  0.0090
 7809SOL    HW134886   2.634   3.373   1.856 -0.1178 -0.5248 -0.1443
 7809SOL    HW234887   2.768   3.295   1.853  0.2565  0.1218 -0.4650
 7810SOL     OW34888   1.970   1.810   5.235 -0.3534 -0.1784 -0.6823
 7810SOL    HW134889   1.993   1.849   5.151 -1.9548 -2.8011 -2.2914
 7810SOL    HW234890   1.875   1.820   5.236 -0.2800  0.4944  0.2175
 7811SOL     OW34891   3.287   1.018   3.630 -0.6415 -0.4821  0.2513
 7811SOL    HW134892   3.319   0.967   3.556 -1.6934  1.4326 -1.5115
 7811SOL    HW234893   3.347   1.092   3.619 -2.0834  0.8153  1.2164
 7812SOL     OW34894   1.339   4.697   6.185 -0.1116  0.0619  0.4748
 7812SOL    HW134895   1.361   0.054   6.226 -1.0350  1.1572 -1.2812
 7812SOL    HW234896   1.280   4.721   6.113 -0.1510  0.1925  0.5495
 7813SOL     OW34897   0.242   3.515  16.435  0.2381 -0.0158  0.2980
 7813SOL    HW134898   0.148   3.529  16.446  0.2308 -0.4662  0.8076
 7813SOL    HW234899   0.240   3.420  16.444 -1.7462  0.1851  1.7598
 7814SOL     OW34900   2.771   3.595  12.740 -0.3344  0.0405  0.0777
 7814SOL    HW134901   2.778   3.659  12.669  1.3386  0.6284  0.7765
 7814SOL    HW234902   2.679   3.569  12.744 -0.1130 -0.6686  0.4874
 7815SOL     OW34903   4.401   2.997  13.824  0.3138 -0.2120 -0.2039
 7815SOL    HW134904   4.307   3.000  13.838  0.5124  2.1076  0.6730
 7815SOL    HW234905   4.405   2.911  13.781 -0.5321 -0.5560  0.4072
 7816SOL     OW34906   3.583   3.781   9.792  0.1245  0.1468 -0.1725
 7816SOL    HW134907   3.551   3.709   9.847 -0.4606  1.6997  1.4976
 7816SOL    HW234908   3.640   3.820   9.858 -0.3061 -0.7580  0.7337
 7817SOL     OW34909   2.462   3.707   8.192  0.1860  0.2092  0.0270
 7817SOL    HW134910   2.375   3.747   8.197 -0.3798 -1.0327  0.1675
 7817SOL    HW234911   2.479   3.693   8.285  1.1440 -0.9787 -0.3232
 7818SOL     OW34912   3.328   0.989   1.022  0.5615  0.1124  0.2867
 7818SOL    HW134913   3.306   1.050   1.093 -1.4024 -1.0035  0.6131
 7818SOL    HW234914   3.309   1.047   0.948  1.1076 -0.8388 -0.5914
 7819SOL     OW34915   1.256   3.199  14.912 -0.4720  0.0073 -0.1951
 7819SOL    HW134916   1.167   3.167  14.920 -0.3003  0.1670  2.3666
 7819SOL    HW234917   1.301   3.126  14.869 -1.7466 -1.9168  1.7066
 7820SOL     OW34918   0.954   0.608   6.348  0.3659 -0.1775 -0.0455
 7820SOL    HW134919   0.925   0.526   6.388  0.0172 -0.9655 -1.9533
 7820SOL    HW234920   0.923   0.593   6.259  1.2283 -1.5973 -0.1156
 7821SOL     OW34921   4.243   1.067   5.815  0.1865 -0.3617 -0.6367
 7821SOL    HW134922   4.225   1.149   5.859 -1.4823 -1.1091  0.0592
 7821SOL    HW234923   4.331   1.092   5.787  0.4097 -2.2108 -1.6743
 7822SOL     OW34924   3.506   1.240   1.442  0.0668 -0.1302  0.1765
 7822SOL    HW134925   3.419   1.223   1.407 -0.0872  0.6627  0.1704
 7822SOL    HW234926   3.538   1.309   1.383 -2.4692 -0.0909 -1.1477
 7823SOL     OW34927   3.954   2.412   4.854  0.5483 -0.1644 -0.1758
 7823SOL    HW134928   4.005   2.483   4.814  0.3511  0.2608  0.3322
 7823SOL    HW234929   3.884   2.396   4.791  1.8526 -4.5298 -0.5383
 7824SOL     OW34930   0.166   4.202   4.681  0.3313 -0.8236 -0.1497
 7824SOL    HW134931   0.233   4.267   4.660  0.6544 -1.4749 -1.1538
 7824SOL    HW234932   0.155   4.147   4.604  0.3827 -0.7447 -0.2134
 7825SOL     OW34933   2.232   1.335   8.111  0.2675 -0.3297 -0.2053
 7825SOL    HW134934   2.317   1.380   8.110  0.4774 -0.7477 -1.0068
 7825SOL    HW234935   2.209   1.363   8.200  2.0318  1.3647 -0.2746
 7826SOL     OW34936   1.008   3.296   4.199 -0.0962  0.3610  0.2610
 7826SOL    HW134937   0.936   3.345   4.239 -0.1581  0.6172 -0.1647
 7826SOL    HW234938   0.991   3.205   4.223 -0.5585  0.0838 -1.1543
 7827SOL     OW34939   1.072   0.654   7.890  0.0870 -0.0936 -0.0029
 7827SOL    HW134940   1.087   0.598   7.813  0.5595 -0.0871  0.0902
 7827SOL    HW234941   1.163   0.678   7.907  0.1058  1.7958 -2.6266
 7828SOL     OW34942   2.889   2.198  14.337  0.0449 -0.2035 -0.5184
 7828SOL    HW134943   2.813   2.252  14.361  1.3338  0.4185  2.2382
 7828SOL    HW234944   2.956   2.262  14.314 -0.7878  1.8542  2.7762
 7829SOL     OW34945   3.169   4.186   5.117  0.0362 -0.7229 -0.2094
 7829SOL    HW134946   3.189   4.218   5.205 -2.9004 -0.6004  0.4090
 7829SOL    HW234947   3.114   4.111   5.138 -0.1619 -1.3057 -2.7382
 7830SOL     OW34948   1.375   2.833  10.170  0.2850 -0.7611 -0.2127
 7830SOL    HW134949   1.441   2.792  10.226  0.5867 -0.3472 -0.2648
 7830SOL    HW234950   1.345   2.901  10.230  1.1630 -2.2711  1.9527
 7831SOL     OW34951   1.340   2.774   0.260  0.0840  0.3273 -0.6095
 7831SOL    HW134952   1.270   2.803   0.202 -1.8329 -0.2654  1.4038
 7831SOL    HW234953   1.415   2.829   0.235  1.3409 -0.1783  2.0115
 7832SOL     OW34954   2.752   2.562   3.076 -0.5454  0.4462 -0.2585
 7832SOL    HW134955   2.837   2.605   3.070 -0.6551  1.3342  4.1717
 7832SOL    HW234956   2.765   2.481   3.027 -3.1231 -0.2267  0.1680
 7833SOL     OW34957   1.954   3.609   1.029 -0.4088 -0.5202  0.1840
 7833SOL    HW134958   1.995   3.523   1.037  2.0142  0.5958 -0.5475
 7833SOL    HW234959   1.883   3.604   1.094 -2.2786 -0.2857 -1.8360
 7834SOL     OW34960   0.363   4.055   1.994 -0.1573 -0.3927 -0.6726
 7834SOL    HW134961   0.450   4.058   1.954  0.2838 -2.6356  0.0838
 7834SOL    HW234962   0.390   4.022   2.080  0.7039  1.8071 -0.1081
 7835SOL     OW34963   3.095   1.378  15.133  0.2399 -0.4621 -0.2478
 7835SOL    HW134964   3.034   1.343  15.198  1.3173 -1.2769  0.3192
 7835SOL    HW234965   3.139   1.296  15.110 -0.9947 -1.0662 -0.4611
 7836SOL     OW34966   1.866   0.772   2.125 -0.2938 -0.6837  0.5596
 7836SOL    HW134967   1.777   0.794   2.095 -0.2430  1.1708  1.7534
 7836SOL    HW234968   1.923   0.801   2.054 -0.3198 -0.8755  0.4609
 7837SOL     OW34969   0.298   3.705   9.166 -0.5936 -0.2904  0.0442
 7837SOL    HW134970   0.357   3.692   9.093 -0.5415  1.6104 -0.2638
 7837SOL    HW234971   0.333   3.779   9.216 -0.0530 -0.1616 -0.5318
 7838SOL     OW34972   4.585   1.119   3.317 -0.7504 -0.4249  0.3292
 7838SOL    HW134973   4.533   1.041   3.297 -1.1571  0.2019 -1.1229
 7838SOL    HW234974   4.519   1.162   3.372 -0.2128 -2.1882  2.3273
 7839SOL     OW34975   0.756   4.242   2.734  0.0983  0.5199  0.5358
 7839SOL    HW134976   0.821   4.172   2.723 -1.8721 -1.0593 -0.9678
 7839SOL    HW234977   0.766   4.292   2.654 -1.0206  0.4025  0.3256
 7840SOL     OW34978   3.133   2.777   5.988 -0.1756 -0.4411  0.4038
 7840SOL    HW134979   3.202   2.838   5.962 -0.2332  0.8294  3.2146
 7840SOL    HW234980   3.166   2.743   6.071 -1.4469  0.1493  1.1385
 7841SOL     OW34981   0.376   0.915  17.531 -0.6880 -0.1867  0.1316
 7841SOL    HW134982   0.447   0.884  17.588  1.0070  3.7172  0.1141
 7841SOL    HW234983   0.343   0.991  17.578  3.8220  2.0148 -0.2655
 7842SOL     OW34984   0.743   3.786   3.719  0.2556  0.0894 -0.2584
 7842SOL    HW134985   0.681   3.721   3.753  0.4423 -0.6001 -1.2374
 7842SOL    HW234986   0.822   3.776   3.773  0.1277 -0.3943 -0.1524
 7843SOL     OW34987   1.463   3.631   3.869  0.1430 -0.6143 -0.2165
 7843SOL    HW134988   1.398   3.569   3.835 -0.4559 -0.1147  0.0251
 7843SOL    HW234989   1.467   3.702   3.806  1.9700 -0.3355  0.2054
 7844SOL     OW34990   0.343   0.957   4.731 -0.6829 -0.4192 -0.4702
 7844SOL    HW134991   0.349   1.023   4.799 -0.5590 -1.6954  0.7501
 7844SOL    HW234992   0.251   0.960   4.705 -0.9061 -0.7570  0.2919
 7845SOL     OW34993   2.899   2.991   4.871  0.0497 -0.0300 -0.3027
 7845SOL    HW134994   2.954   2.920   4.902 -0.9554 -0.4733  0.4888
 7845SOL    HW234995   2.812   2.954   4.887 -0.3794  0.5137 -1.4144
 7846SOL     OW34996   0.233   2.455   2.964  0.3881  0.0898  0.2848
 7846SOL    HW134997   0.221   2.549   2.952  1.2179  0.2937  1.0416
 7846SOL    HW234998   0.297   2.455   3.036  3.0274  1.0333 -2.0479
 7847SOL     OW34999   1.080   4.444   9.146  0.4554  0.1125 -0.0668
 7847SOL    HW135000   1.128   4.525   9.164  0.4405 -0.0334  0.6064
 7847SOL    HW235001   1.095   4.456   9.052 -1.6029 -0.7858 -0.5221
 7848SOL     OW35002   2.299   1.870   1.069  0.0450 -0.0170 -0.2384
 7848SOL    HW135003   2.387   1.834   1.072 -0.7594 -1.8776  0.8766
 7848SOL    HW235004   2.291   1.896   1.161  1.6506  1.1543 -0.4281
 7849SOL     OW35005   1.715   0.243   4.694  0.3607 -0.0633 -0.1724
 7849SOL    HW135006   1.809   0.259   4.688  0.4125  0.6392  2.3522
 7849SOL    HW235007   1.699   0.297   4.772 -1.7532 -0.5382 -0.2577
 7850SOL     OW35008   0.629   2.176   3.705  0.1177 -0.6854 -0.2593
 7850SOL    HW135009   0.593   2.263   3.720  0.5114 -0.7035  0.7554
 7850SOL    HW235010   0.661   2.144   3.789 -0.5471  2.6973  1.2782
 7851SOL     OW35011   2.615   1.925  10.072  0.3340 -0.7366  0.0995
 7851SOL    HW135012   2.665   1.855  10.114  2.4609  1.3053  0.9465
 7851SOL    HW235013   2.631   1.992  10.138 -2.5183  1.3740 -1.3578
 7852SOL     OW35014   0.879   4.501  16.278 -0.1473 -0.5378  0.0673
 7852SOL    HW135015   0.847   4.421  16.236  1.2080 -0.1280 -1.7402
 7852SOL    HW235016   0.796   4.526  16.318  0.0704  1.4739 -0.7814
 7853SOL     OW35017   0.447   4.052   4.409  0.2211  0.0165 -0.2792
 7853SOL    HW135018   0.372   4.074   4.464 -0.0273 -0.4612 -0.4204
 7853SOL    HW235019   0.407   3.980   4.359 -0.0658 -0.4717  0.6506
 7854SOL     OW35020   2.445   1.746   6.891  0.3227 -0.6227 -0.2728
 7854SOL    HW135021   2.532   1.708   6.885 -1.1113 -3.8574 -0.9425
 7854SOL    HW235022   2.429   1.773   6.801 -3.2996 -0.8164  0.2919
 7855SOL     OW35023   3.230   1.377  17.342  0.5666  0.3399 -0.0333
 7855SOL    HW135024   3.253   1.391  17.250 -0.1122 -1.5652 -0.4981
 7855SOL    HW235025   3.295   1.309  17.357  0.2443  0.2448  0.8963
 7856SOL     OW35026   0.091   3.104   2.920 -0.2255 -0.0706  0.3560
 7856SOL    HW135027   0.035   3.042   2.873  0.3146 -0.9391  0.8647
 7856SOL    HW235028   0.086   3.063   3.007  2.1485  0.6129  0.8282
 7857SOL     OW35029   0.003   2.426   6.487  0.5176  0.1630 -0.5377
 7857SOL    HW135030   4.715   2.357   6.423 -0.5557 -0.3124  0.2214
 7857SOL    HW235031   0.098   2.437   6.488  0.3994  1.0045  2.4042
 7858SOL     OW35032   4.615   3.944  11.053 -0.0315 -0.1627  0.3171
 7858SOL    HW135033   4.652   3.873  11.105  1.3757 -0.0029 -0.4635
 7858SOL    HW235034   4.568   3.987  11.125 -2.5306  1.6444 -2.4023
 7859SOL     OW35035   3.861   4.593  17.169  0.8061  0.3844 -0.2249
 7859SOL    HW135036   3.871   4.594  17.264 -0.5894  2.0619 -0.1064
 7859SOL    HW235037   3.951   4.562  17.156 -0.2389 -2.1101 -1.5152
 7860SOL     OW35038   3.779   4.536   1.712 -0.3839  0.8035 -0.4345
 7860SOL    HW135039   3.838   4.611   1.722 -1.2337  1.4096  0.0271
 7860SOL    HW235040   3.700   4.581   1.741 -0.3936  0.5251 -0.0259
 7861SOL     OW35041   3.543   2.356   1.332 -0.0476  0.5146  0.6093
 7861SOL    HW135042   3.634   2.341   1.307 -0.2742  0.8335 -0.3994
 7861SOL    HW235043   3.511   2.279   1.285  0.2301  0.5201  0.4103
 7862SOL     OW35044   3.132   0.603   3.007  0.0262  0.8133  0.5795
 7862SOL    HW135045   3.186   0.656   2.948 -1.3387  1.4424 -0.1037
 7862SOL    HW235046   3.094   0.538   2.948  1.4174 -1.6560  2.4583
 7863SOL     OW35047   2.106   4.620   4.355 -0.1438  0.1267 -0.3506
 7863SOL    HW135048   2.129   4.689   4.417  2.5279 -0.8754 -0.2222
 7863SOL    HW235049   2.096   4.666   4.272  0.7267  1.0262  0.0432
 7864SOL     OW35050   4.044   3.168  11.739  0.0092 -0.4515  0.6941
 7864SOL    HW135051   3.949   3.166  11.731  0.1351 -0.8199 -0.7481
 7864SOL    HW235052   4.050   3.095  11.800 -1.2537 -1.1764 -0.0527
 7865SOL     OW35053   1.708   2.909   4.038  0.6193  0.0774  0.7222
 7865SOL    HW135054   1.749   2.964   4.104  1.2901  0.1336  0.2628
 7865SOL    HW235055   1.787   2.873   3.998  0.7912  2.4495 -1.1333
 7866SOL     OW35056   4.115   2.744  15.284  0.4704  0.3852 -0.6119
 7866SOL    HW135057   4.100   2.712  15.195 -0.5704  2.5449 -1.2090
 7866SOL    HW235058   4.117   2.837  15.265  2.3273  0.5422  0.3335
 7867SOL     OW35059   1.904   4.365  13.071 -0.4108  0.1203 -0.4210
 7867SOL    HW135060   1.933   4.448  13.033  0.9741  0.8222  2.1083
 7867SOL    HW235061   1.829   4.388  13.125 -0.1133 -2.4944  1.1044
 7868SOL     OW35062   3.473   1.269   0.634  0.3394 -0.5996 -0.0414
 7868SOL    HW135063   3.444   1.228   0.552  2.8891 -1.1583 -0.6719
 7868SOL    HW235064   3.559   1.297   0.601  1.0444 -0.9862  1.4826
 7869SOL     OW35065   3.452   1.699   8.177 -0.3928  0.6735 -0.3023
 7869SOL    HW135066   3.409   1.745   8.105  2.9433  1.6625 -1.6560
 7869SOL    HW235067   3.453   1.762   8.249  0.6385  1.0799 -0.6803
 7870SOL     OW35068   0.166   3.134   1.658  0.4049  0.1560 -0.1531
 7870SOL    HW135069   0.129   3.046   1.665 -1.2579  0.8391 -0.3277
 7870SOL    HW235070   0.112   3.172   1.588  0.8940 -0.4039 -0.8298
 7871SOL     OW35071   1.061   0.433   0.773 -0.2534  0.1947  0.1430
 7871SOL    HW135072   1.005   0.438   0.695 -1.3985  0.4562  0.9861
 7871SOL    HW235073   1.023   0.350   0.804 -0.2048 -0.2168 -0.8874
 7872SOL     OW35074   1.679   3.711   4.621  0.4417 -0.9020 -0.1182
 7872SOL    HW135075   1.678   3.719   4.717  0.0785  3.3747 -0.5054
 7872SOL    HW235076   1.587   3.720   4.595  0.5437 -2.4028 -1.0191
 7873SOL     OW35077   3.044   1.583   7.736  1.0911  0.5648  0.5020
 7873SOL    HW135078   3.009   1.537   7.660  2.5057  0.1021  0.1315
 7873SOL    HW235079   2.989   1.544   7.804  1.2889  1.2204  1.0421
 7874SOL     OW35080   2.701   1.719  14.620  0.0511 -0.2098  0.3467
 7874SOL    HW135081   2.752   1.667  14.559  0.7606 -1.3912  1.9275
 7874SOL    HW235082   2.766   1.785  14.646  0.1604 -0.4423  0.6664
 7875SOL     OW35083   2.471   2.477   5.132 -0.2355  0.3722  0.0945
 7875SOL    HW135084   2.512   2.400   5.094 -2.1190 -0.2885 -0.5768
 7875SOL    HW235085   2.417   2.505   5.058 -2.0160  0.5349  1.4627
 7876SOL     OW35086   0.243   3.722   7.241 -0.1779  0.0196 -1.0600
 7876SOL    HW135087   0.279   3.794   7.189  0.0646  1.3319  0.8938
 7876SOL    HW235088   0.328   3.689   7.270  1.7411  2.7332 -3.6356
 7877SOL     OW35089   4.073   4.674   3.572 -0.5329  0.1831  0.5279
 7877SOL    HW135090   4.059   4.608   3.505  0.5933  2.0114 -1.5013
 7877SOL    HW235091   4.165   4.700   3.564 -0.4670 -0.2638 -0.1824
 7878SOL     OW35092   4.592   0.554  13.356  0.5976 -0.0164 -0.3597
 7878SOL    HW135093   4.625   0.593  13.275 -2.8309 -1.6711 -2.5147
 7878SOL    HW235094   4.625   0.619  13.419 -0.5137  0.8409 -0.6595
 7879SOL     OW35095   1.296   3.122   5.557  0.2648  0.0109 -0.7101
 7879SOL    HW135096   1.308   3.211   5.589 -1.1487  0.5798 -1.7590
 7879SOL    HW235097   1.232   3.087   5.620  0.4096 -1.4346 -1.3551
 7880SOL     OW35098   3.853   4.257   9.580  0.3839  0.0867  0.3112
 7880SOL    HW135099   3.948   4.272   9.577  0.6265 -1.4987  0.3682
 7880SOL    HW235100   3.834   4.272   9.673 -0.0818  1.3750  0.0196
 7881SOL     OW35101   4.229   3.212   7.299 -0.2428  0.4054 -0.4118
 7881SOL    HW135102   4.206   3.120   7.284 -0.4484  0.1995  1.2444
 7881SOL    HW235103   4.282   3.207   7.378 -0.2931  1.8191 -0.2833
 7882SOL     OW35104   4.124   4.176  14.173 -0.1004 -0.3782  0.5761
 7882SOL    HW135105   4.043   4.224  14.187 -0.1371  0.5010 -2.6623
 7882SOL    HW235106   4.163   4.229  14.102  0.3124 -2.2084 -0.5646
 7883SOL     OW35107   2.963   4.075   8.183 -0.0464  0.5403  0.0526
 7883SOL    HW135108   3.014   4.006   8.140  1.7527  1.3815  0.8179
 7883SOL    HW235109   3.015   4.155   8.174 -0.3732  0.6868 -0.5839
 7884SOL     OW35110   0.603   2.175   5.339  0.5046 -0.4389 -0.0084
 7884SOL    HW135111   0.543   2.153   5.411  3.1350  0.3208  2.3735
 7884SOL    HW235112   0.552   2.136   5.268  0.0412 -0.9798  0.6205
 7885SOL     OW35113   1.911   3.268   7.786  0.2886 -0.3362 -0.3648
 7885SOL    HW135114   1.983   3.217   7.823  0.5513  1.4034  1.5251
 7885SOL    HW235115   1.851   3.197   7.764 -1.7035  0.7906  1.4557
 7886SOL     OW35116   2.684   0.400   0.276  0.1688 -0.6191  0.2249
 7886SOL    HW135117   2.643   0.347   0.208 -0.7286  0.0712  0.2179
 7886SOL    HW235118   2.607   0.422   0.330 -0.2958 -2.5340  0.3489
 7887SOL     OW35119   3.052   3.407   7.514  0.4249  0.0491 -0.1653
 7887SOL    HW135120   3.061   3.448   7.599  0.7498  1.2221 -0.7688
 7887SOL    HW235121   2.964   3.437   7.491 -0.3724 -0.5738  2.1343
 7888SOL     OW35122   3.397   1.634   9.381  0.3240  0.0720 -0.3073
 7888SOL    HW135123   3.426   1.725   9.382  1.1962 -0.2184  0.7965
 7888SOL    HW235124   3.438   1.600   9.301 -0.3957 -0.4019 -0.4747
 7889SOL     OW35125   2.301   2.738   2.463 -0.1245 -0.0485 -0.3998
 7889SOL    HW135126   2.359   2.751   2.388 -0.7279 -1.6452 -1.1409
 7889SOL    HW235127   2.360   2.694   2.524 -3.5477 -2.2546  1.3414
 7890SOL     OW35128   3.006   3.664   6.487  0.3326 -0.4088  0.2586
 7890SOL    HW135129   2.944   3.591   6.481 -0.6977  0.6734 -2.3846
 7890SOL    HW235130   2.969   3.716   6.559 -0.5120 -0.4050 -0.1824
 7891SOL     OW35131   0.813   2.559   5.076  0.0284 -0.2402  0.6053
 7891SOL    HW135132   0.894   2.606   5.096  0.8194 -0.9017 -1.0657
 7891SOL    HW235133   0.813   2.572   4.982 -0.5779  1.2359  0.8100
 7892SOL     OW35134   0.273   1.800  16.804  0.5461  0.2673  0.4557
 7892SOL    HW135135   0.190   1.843  16.822  0.3786 -0.0716  0.5005
 7892SOL    HW235136   0.295   1.743  16.878  1.1694  0.5625  0.4930
 7893SOL     OW35137   0.848   2.217   6.987 -0.2738 -0.2068 -0.2697
 7893SOL    HW135138   0.795   2.296   6.980  1.4783  1.0104  0.1565
 7893SOL    HW235139   0.858   2.195   6.894  0.8736 -3.8177  0.7096
 7894SOL     OW35140   0.618   3.240   4.154 -0.4373 -0.2537  0.3244
 7894SOL    HW135141   0.686   3.233   4.087  0.1998 -0.4163  0.9976
 7894SOL    HW235142   0.564   3.167   4.124 -1.5270  0.2640  1.0366
 7895SOL     OW35143   3.308   1.064   4.212 -0.4795  0.0087  0.5608
 7895SOL    HW135144   3.401   1.071   4.234 -0.1860 -0.6695 -0.4909
 7895SOL    HW235145   3.300   1.098   4.123 -0.5007  0.3491  0.6904
 7896SOL     OW35146   1.826   1.470  14.862 -0.3464  0.2891  0.3336
 7896SOL    HW135147   1.873   1.528  14.922  0.7314 -0.8780  0.6270
 7896SOL    HW235148   1.867   1.385  14.879  0.3522  0.4310 -0.6464
 7897SOL     OW35149   4.491   0.616   8.843  0.7830  0.0196  0.6307
 7897SOL    HW135150   4.443   0.557   8.900 -0.5080  0.1567 -0.3185
 7897SOL    HW235151   4.537   0.558   8.782  0.8005 -0.2559  0.9050
 7898SOL     OW35152   4.527   1.682  15.606 -0.4040  0.2208 -0.6365
 7898SOL    HW135153   4.589   1.721  15.667 -0.6713  1.7318 -1.3421
 7898SOL    HW235154   4.453   1.742  15.609 -0.7538 -0.2213 -0.3831
 7899SOL     OW35155   2.633   1.823  12.008 -0.4148 -0.4326  0.5383
 7899SOL    HW135156   2.627   1.900  11.953 -0.8627 -0.7924  0.0855
 7899SOL    HW235157   2.719   1.843  12.044  0.7018  0.7180 -2.7681
 7900SOL     OW35158   2.294   3.770   2.424  0.5190 -0.0921  0.7164
 7900SOL    HW135159   2.278   3.856   2.461 -0.0375  0.6197 -1.1589
 7900SOL    HW235160   2.211   3.768   2.376  1.4166  0.9569 -0.8801
 7901SOL     OW35161   2.906   2.824  16.091  0.0763  0.9786 -0.0735
 7901SOL    HW135162   2.852   2.858  16.020 -0.9913 -2.3404 -0.8577
 7901SOL    HW235163   2.850   2.756  16.128 -0.6773  0.2543 -2.5541
 7902SOL     OW35164   1.530   4.627  12.538  0.0610  0.0830  0.0112
 7902SOL    HW135165   1.446   4.649  12.577  0.0186 -0.7916  0.4126
 7902SOL    HW235166   1.512   4.562  12.470  1.7472 -1.8777  1.4076
 7903SOL     OW35167   2.163   0.032   3.342  0.3568 -0.4060 -0.0023
 7903SOL    HW135168   2.189   0.120   3.313  0.4195  0.2684  2.1467
 7903SOL    HW235169   2.097   0.040   3.411 -0.0230 -3.5258 -0.0022
 7904SOL     OW35170   3.015   3.332  13.158  0.3670  0.1516 -0.1602
 7904SOL    HW135171   2.950   3.306  13.223 -0.0774 -0.7501 -0.9762
 7904SOL    HW235172   3.012   3.428  13.158  1.4555  0.1753  0.9277
 7905SOL     OW35173   3.853   2.598   7.948  0.0351  0.2334  0.1263
 7905SOL    HW135174   3.837   2.512   7.908 -1.6648  0.2981  0.6918
 7905SOL    HW235175   3.823   2.652   7.875 -0.1111  1.1803  0.8918
 7906SOL     OW35176   3.117   1.890   2.031  0.2278  1.1716 -0.2081
 7906SOL    HW135177   3.102   1.928   1.945  0.0238 -0.5203 -0.9257
 7906SOL    HW235178   3.038   1.906   2.083 -1.3985 -3.1160 -1.3578
 7907SOL     OW35179   1.657   3.318  15.042 -0.5876  0.3418  0.3751
 7907SOL    HW135180   1.714   3.327  15.118 -1.8910  0.1240  1.3789
 7907SOL    HW235181   1.580   3.263  15.057  0.7595 -1.6496  0.1457
 7908SOL     OW35182   0.234   2.885   4.724 -0.2219  0.3028  0.2193
 7908SOL    HW135183   0.189   2.850   4.801  1.4832  0.4676  1.2881
 7908SOL    HW235184   0.297   2.940   4.771 -2.1071  1.8619  0.8931
 7909SOL     OW35185   1.642   2.268   3.669 -0.0695  0.7805  0.6794
 7909SOL    HW135186   1.732   2.241   3.684  0.7681  1.6011 -2.7961
 7909SOL    HW235187   1.584   2.203   3.709  0.7084 -1.1056 -1.2363
 7910SOL     OW35188   0.245   3.274   9.939 -0.1315 -0.0144 -0.0008
 7910SOL    HW135189   0.152   3.277   9.915 -0.7582  1.9608  2.5992
 7910SOL    HW235190   0.282   3.252   9.854 -1.3004 -2.2490  0.0585
 7911SOL     OW35191   4.530   0.385   0.733 -0.3943 -0.8066 -0.1310
 7911SOL    HW135192   4.501   0.306   0.777 -0.5797 -0.9677 -0.5425
 7911SOL    HW235193   4.618   0.365   0.699  0.8989  4.7974 -0.1478
 7912SOL     OW35194   3.626   2.521   6.121 -0.3692  0.2616  0.4002
 7912SOL    HW135195   3.586   2.602   6.154 -0.2219 -0.4577  2.3127
 7912SOL    HW235196   3.644   2.548   6.031 -1.4016 -0.4950 -0.0382
 7913SOL     OW35197   3.873   2.160  17.383 -0.2147  0.1423 -0.5526
 7913SOL    HW135198   3.924   2.210  17.446 -0.7627 -0.0202  0.0133
 7913SOL    HW235199   3.948   2.129  17.332  0.5851 -0.0217  0.7317
 7914SOL     OW35200   3.547   0.872   2.149  0.0643  0.3202  0.7370
 7914SOL    HW135201   3.635   0.849   2.120 -1.0991 -1.5556 -1.3186
 7914SOL    HW235202   3.553   0.962   2.182 -0.0928  0.0199  1.5778
 7915SOL     OW35203   2.099   0.316   0.413  0.4520 -0.1025  0.2873
 7915SOL    HW135204   2.057   0.376   0.475  0.9571  1.7177 -1.1316
 7915SOL    HW235205   2.171   0.280   0.465 -0.3526 -0.5180  1.1131
 7916SOL     OW35206   4.061   0.489  14.900  0.0021 -0.3933  0.0348
 7916SOL    HW135207   4.018   0.540  14.831 -1.7472  2.6619  3.4259
 7916SOL    HW235208   4.025   0.530  14.978  1.9128  0.9329  0.2095
 7917SOL     OW35209   3.947   4.615   6.834 -0.2438 -0.4427 -0.6592
 7917SOL    HW135210   3.964   4.557   6.760  1.4310  0.4313 -0.9620
 7917SOL    HW235211   3.886   4.556   6.878 -1.0809 -1.1933 -2.8323
 7918SOL     OW35212   2.328   3.763  17.093 -0.0474  0.1370 -0.3899
 7918SOL    HW135213   2.365   3.683  17.055  1.8947  0.8575 -0.0142
 7918SOL    HW235214   2.287   3.732  17.174 -0.8258 -0.4723 -1.0088
 7919SOL     OW35215   4.397   0.650   0.170 -0.0045 -0.4266  0.3394
 7919SOL    HW135216   4.429   0.585   0.107  0.3024 -0.0648  0.1256
 7919SOL    HW235217   4.306   0.660   0.143 -0.1024  0.4484  1.0164
 7920SOL     OW35218   1.906   2.454   6.582  0.7564  0.4739 -0.0774
 7920SOL    HW135219   1.938   2.371   6.546 -1.8449  0.4466 -2.3792
 7920SOL    HW235220   1.882   2.421   6.668 -0.4454 -0.9979 -0.9693
 7921SOL     OW35221   2.503   1.174   8.557 -0.0107 -0.0350  0.0587
 7921SOL    HW135222   2.415   1.158   8.523  0.0310 -0.2011  0.0274
 7921SOL    HW235223   2.518   1.269   8.556  2.7546 -0.4362  1.1358
 7922SOL     OW35224   3.930   3.635   3.901 -0.5569  0.4392  0.1016
 7922SOL    HW135225   3.913   3.644   3.994  0.6245 -1.6101  0.5248
 7922SOL    HW235226   3.844   3.609   3.867 -0.8109  0.5783  0.6396
 7923SOL     OW35227   2.588   2.828   8.712  0.0889  0.1171 -0.2592
 7923SOL    HW135228   2.569   2.846   8.804  3.6421 -1.4296  0.7510
 7923SOL    HW235229   2.510   2.776   8.691 -1.6590  1.7614  2.1798
 7924SOL     OW35230   3.274   3.744   2.864 -0.2114 -0.1736  0.3774
 7924SOL    HW135231   3.219   3.821   2.872 -2.4068 -1.7005  0.0327
 7924SOL    HW235232   3.264   3.743   2.768 -3.2692  0.6839  0.6766
 7925SOL     OW35233   1.881   3.222   2.150  0.2189 -0.4051 -0.2723
 7925SOL    HW135234   1.859   3.251   2.239 -0.4989  4.4976 -2.0605
 7925SOL    HW235235   1.823   3.287   2.111  1.6687  1.0388 -0.0160
 7926SOL     OW35236   4.369   3.795   4.583 -0.2149 -0.3325 -0.0117
 7926SOL    HW135237   4.455   3.794   4.623 -1.3027  1.2491  2.3414
 7926SOL    HW235238   4.353   3.701   4.568 -0.3997 -0.2704 -0.2149
 7927SOL     OW35239   3.175   1.231   2.341  0.1859 -0.3195 -0.7117
 7927SOL    HW135240   3.234   1.247   2.268  0.6719  1.2962  0.0360
 7927SOL    HW235241   3.220   1.225   2.425  0.9030 -2.0466 -1.2232
 7928SOL     OW35242   3.847   2.281   0.498 -0.3093 -0.7847 -0.4639
 7928SOL    HW135243   3.929   2.329   0.493 -0.3322 -1.0462 -3.2058
 7928SOL    HW235244   3.791   2.303   0.424  0.6964  0.2115 -0.9258
 7929SOL     OW35245   1.020   4.344   4.275 -0.0010 -0.2345  0.9913
 7929SOL    HW135246   1.102   4.391   4.292  1.3422 -1.3417 -2.4736
 7929SOL    HW235247   1.048   4.253   4.259 -2.7769 -0.6792 -1.3176
 7930SOL     OW35248   0.637   1.281   6.221  0.1208 -0.2958  0.0177
 7930SOL    HW135249   0.559   1.273   6.276  0.8583  2.9607  1.5350
 7930SOL    HW235250   0.674   1.363   6.254  1.1458  0.3043 -2.6701
 7931SOL     OW35251   1.190   4.541   2.218 -0.1680 -0.1919 -0.1388
 7931SOL    HW135252   1.156   4.607   2.279 -0.7954  0.1237 -0.8312
 7931SOL    HW235253   1.252   4.490   2.271 -0.6294 -0.6703 -0.0630
 7932SOL     OW35254   0.006   0.880   8.105 -0.5208 -0.0587  0.4578
 7932SOL    HW135255   0.041   0.969   8.110  0.5744 -0.2527 -3.5146
 7932SOL    HW235256   0.015   0.856   8.197 -1.0934  0.8803  0.7634
 7933SOL     OW35257   2.693   2.308  11.524  0.3658 -0.5852  0.2133
 7933SOL    HW135258   2.677   2.394  11.563  1.3290 -0.3283  0.0408
 7933SOL    HW235259   2.661   2.338  11.439  0.8156 -2.4499 -0.6049
 7934SOL     OW35260   3.788   2.181   8.403  0.0542 -0.1340 -0.6410
 7934SOL    HW135261   3.699   2.193   8.437 -0.8334 -1.2977 -2.5160
 7934SOL    HW235262   3.853   2.205   8.469 -0.5453  1.1840 -0.5248
 7935SOL     OW35263   2.897   0.648  17.159 -0.1925 -0.8237  0.1009
 7935SOL    HW135264   2.891   0.718  17.224 -2.6042 -1.8475  0.9726
 7935SOL    HW235265   2.984   0.662  17.121  0.7003 -3.0911  1.2987
 7936SOL     OW35266   3.615   4.583  17.329  0.5065 -0.0779  0.3530
 7936SOL    HW135267   3.552   4.603  17.260 -0.0905  0.0933  0.9561
 7936SOL    HW235268   3.645   4.495  17.307 -3.7882 -0.9416 -2.0568
 7937SOL     OW35269   2.868   0.896   4.100 -0.4074 -0.4040 -0.1496
 7937SOL    HW135270   2.847   0.857   4.016  0.8894 -1.3948 -0.0166
 7937SOL    HW235271   2.961   0.872   4.104 -0.2087  0.6528  2.1212
 7938SOL     OW35272   2.795   3.179   7.355  0.3162 -0.4434  0.6029
 7938SOL    HW135273   2.716   3.228   7.380 -0.6122 -1.0134 -1.2151
 7938SOL    HW235274   2.851   3.175   7.432  0.9702 -0.0961  0.1427
 7939SOL     OW35275   1.501   2.891   1.328  0.3319  0.0593  0.3241
 7939SOL    HW135276   1.594   2.886   1.348  0.2742 -0.4056  0.4945
 7939SOL    HW235277   1.475   2.799   1.339 -0.1803  0.3666  1.5630
 7940SOL     OW35278   2.968   1.015   7.531  0.3002 -0.1114  0.0561
 7940SOL    HW135279   2.947   0.941   7.588 -0.0153  0.2605  0.4236
 7940SOL    HW235280   2.879   1.047   7.518  0.8086  1.4841  0.5397
 7941SOL     OW35281   4.139   4.459   4.031 -1.2252  0.3035 -0.0928
 7941SOL    HW135282   4.201   4.405   3.981 -0.9639 -0.5328  1.1296
 7941SOL    HW235283   4.176   4.444   4.118 -1.2650  0.4554 -0.0499
 7942SOL     OW35284   2.614   0.754   2.612  0.2577  0.2630  0.5615
 7942SOL    HW135285   2.576   0.770   2.699  1.2827  2.0970  0.6820
 7942SOL    HW235286   2.640   0.662   2.609  3.5057  1.1489  0.9888
 7943SOL     OW35287   3.881   0.868   8.511  0.3911 -0.5171 -0.1933
 7943SOL    HW135288   3.889   0.793   8.451 -0.0989 -0.3562 -0.4604
 7943SOL    HW235289   3.974   0.877   8.530 -0.0624  0.8457  1.3961
 7944SOL     OW35290   3.865   1.755  10.687  0.2831  0.3630 -0.2005
 7944SOL    HW135291   3.830   1.670  10.660  1.5299 -0.5009  0.8933
 7944SOL    HW235292   3.785   1.800  10.711 -0.1686  0.1795 -1.3746
 7945SOL     OW35293   1.888   0.230   7.647  0.0066  0.4394 -0.0209
 7945SOL    HW135294   1.925   0.172   7.714  0.2097 -0.5663 -1.0027
 7945SOL    HW235295   1.814   0.258   7.701  0.8653 -0.1603  1.4767
 7946SOL     OW35296   3.392   1.526   2.657 -0.1444 -0.3609 -0.6089
 7946SOL    HW135297   3.442   1.607   2.666  1.0241 -1.0448 -0.9350
 7946SOL    HW235298   3.375   1.500   2.748  0.5785  1.5190  0.0541
 7947SOL     OW35299   1.132   4.026  14.653  0.7063  0.0891  0.0872
 7947SOL    HW135300   1.145   4.079  14.732 -0.6757 -1.1910  1.1926
 7947SOL    HW235301   1.090   3.945  14.684  1.5546  0.0621  1.1776
 7948SOL     OW35302   1.619   2.120   0.345  0.1094 -0.1116 -0.1109
 7948SOL    HW135303   1.614   2.122   0.440  1.0165 -1.1870 -0.0307
 7948SOL    HW235304   1.555   2.189   0.331 -0.0420 -0.2158  0.0713
 7949SOL     OW35305   2.822   2.027   2.514 -0.1147  0.0066  0.0587
 7949SOL    HW135306   2.770   2.108   2.506  0.5279  0.2505 -1.6002
 7949SOL    HW235307   2.757   1.958   2.528 -0.3170 -0.4057 -2.8288
 7950SOL     OW35308   3.251   1.073   6.603 -0.3937  0.1863 -0.0404
 7950SOL    HW135309   3.251   0.998   6.544 -3.5307  1.0388 -1.1426
 7950SOL    HW235310   3.222   1.029   6.683  1.8526 -2.8886 -0.9270
 7951SOL     OW35311   0.036   3.769   6.082 -0.3366 -0.0868  0.1946
 7951SOL    HW135312   0.062   3.842   6.139 -1.8350  1.0854 -0.6056
 7951SOL    HW235313   0.091   3.698   6.114  0.3985 -0.1062 -1.1260
 7952SOL     OW35314   1.328   0.736   7.931 -0.2745 -0.3573 -0.2224
 7952SOL    HW135315   1.342   0.782   8.014  1.5172 -1.3052  0.0028
 7952SOL    HW235316   1.389   0.664   7.947  0.2259  0.1863  0.3169
 7953SOL     OW35317   4.291   3.180  14.153 -0.6246 -0.8174  0.1874
 7953SOL    HW135318   4.284   3.087  14.131  0.2194  0.1064 -3.8681
 7953SOL    HW235319   4.377   3.179  14.195  0.1763  0.3123 -1.4483
 7954SOL     OW35320   4.397   1.400   4.638  0.6917  0.2888 -0.4261
 7954SOL    HW135321   4.336   1.351   4.583 -0.6126 -1.3212  2.4984
 7954SOL    HW235322   4.348   1.414   4.719  1.0307  0.2134 -0.2073
 7955SOL     OW35323   1.259   3.973   9.417 -0.5742 -0.1087  0.1587
 7955SOL    HW135324   1.174   3.931   9.405  0.5432 -1.7504 -2.2201
 7955SOL    HW235325   1.266   3.979   9.512  0.6728  1.0009 -0.0072
 7956SOL     OW35326   0.948   1.993   8.019 -0.8162  0.1609  0.1973
 7956SOL    HW135327   1.032   1.989   7.972 -2.5337 -2.4756 -2.6467
 7956SOL    HW235328   0.966   1.934   8.092 -0.6306 -0.1141 -0.0711
 7957SOL     OW35329   3.928   2.601   6.007  0.3433 -0.5850  0.1886
 7957SOL    HW135330   3.854   2.621   5.950  0.5460  0.0000  0.1333
 7957SOL    HW235331   3.897   2.616   6.096  0.8759  1.1274  0.0805
 7958SOL     OW35332   2.939   3.061   6.358  0.3247 -0.1373  0.1456
 7958SOL    HW135333   2.984   2.977   6.361  1.8511  0.6540 -0.2653
 7958SOL    HW235334   2.924   3.075   6.451  1.2266 -0.3144  0.3179
 7959SOL     OW35335   4.167   1.473  10.178 -0.5229  0.2570  0.2811
 7959SOL    HW135336   4.243   1.524  10.205  0.6496 -0.3154 -1.9156
 7959SOL    HW235337   4.166   1.504  10.087  1.3908 -0.8107 -0.1157
 7960SOL     OW35338   1.316   1.668  10.689  0.1015  0.4853 -0.0894
 7960SOL    HW135339   1.269   1.709  10.763  1.2760  2.7179 -0.5716
 7960SOL    HW235340   1.394   1.631  10.731 -0.8923 -1.9502 -0.4159
 7961SOL     OW35341   4.687   1.192   0.699 -0.2483 -0.3761  0.2525
 7961SOL    HW135342   4.615   1.254   0.703  0.8271  0.9783 -1.5443
 7961SOL    HW235343   4.651   1.134   0.632  2.9380 -1.6657 -0.3297
 7962SOL     OW35344   4.196   0.473  14.661  0.0420  0.2185  0.4431
 7962SOL    HW135345   4.158   0.389  14.633 -2.6491  1.9005 -1.0101
 7962SOL    HW235346   4.168   0.469  14.753  0.2104 -0.4758  0.4636
 7963SOL     OW35347   0.890   2.365  15.933 -0.0093 -0.0389 -0.4620
 7963SOL    HW135348   0.958   2.297  15.926  1.9832  1.7791  1.3611
 7963SOL    HW235349   0.914   2.411  15.853 -1.1823 -0.0440 -0.8163
 7964SOL     OW35350   1.157   4.389   8.162  0.3697 -0.2717 -0.4003
 7964SOL    HW135351   1.108   4.447   8.104 -0.3981 -0.8010 -0.2933
 7964SOL    HW235352   1.234   4.370   8.108 -0.8386 -1.5117 -1.6873
 7965SOL     OW35353   3.531   1.577   3.745 -0.3835  0.3833 -0.3001
 7965SOL    HW135354   3.611   1.613   3.783  1.7654 -1.6727 -2.9022
 7965SOL    HW235355   3.532   1.624   3.661 -0.0819  0.9889  0.0434
 7966SOL     OW35356   0.164   3.438   4.915 -0.0041 -0.4481 -0.5288
 7966SOL    HW135357   0.212   3.521   4.917 -0.7205 -0.0260 -0.8810
 7966SOL    HW235358   0.094   3.456   4.853 -0.9452  0.4492  0.7977
 7967SOL     OW35359   3.705   3.461   8.876  0.0872  0.0008  0.1533
 7967SOL    HW135360   3.680   3.518   8.804 -1.9837  0.9653  1.6332
 7967SOL    HW235361   3.688   3.374   8.838  0.7462 -0.3412  0.6241
 7968SOL     OW35362   1.341   0.181   6.360  0.4954 -0.1681 -0.2753
 7968SOL    HW135363   1.318   0.266   6.324  0.0329 -0.7669 -1.3919
 7968SOL    HW235364   1.280   0.175   6.433 -0.1964  1.3211 -0.7383
 7969SOL     OW35365   3.563   3.958   4.731 -0.0166  0.6246 -0.5022
 7969SOL    HW135366   3.578   4.036   4.678  0.6179  3.4598  3.8571
 7969SOL    HW235367   3.615   3.902   4.673  0.6135  0.8731 -0.1841
 7970SOL     OW35368   4.391   0.548   2.008 -0.2191 -0.3867  0.0735
 7970SOL    HW135369   4.357   0.635   1.987  1.4819  0.1618 -0.4196
 7970SOL    HW235370   4.474   0.578   2.046  1.8490 -3.9635 -1.6447
 7971SOL     OW35371   0.043   3.721   3.714  0.6339 -0.0006 -0.3434
 7971SOL    HW135372   0.040   3.692   3.805 -2.5707  0.7089 -0.2277
 7971SOL    HW235373   4.718   3.653   3.671  0.1412 -1.0122  1.8770
 7972SOL     OW35374   0.615   0.010   8.195  0.1417 -0.1512 -0.1137
 7972SOL    HW135375   0.606   0.035   8.103 -1.2458 -0.1390  0.0207
 7972SOL    HW235376   0.656   0.092   8.223  1.4335 -1.3591  1.5557
 7973SOL     OW35377   2.017   1.232  14.877 -0.2898 -0.2142 -0.2200
 7973SOL    HW135378   2.077   1.183  14.933  0.0351  1.5751  0.9797
 7973SOL    HW235379   2.023   1.190  14.791 -1.2337  0.3763 -0.5828
 7974SOL     OW35380   3.206   1.502   4.186  0.3613 -0.1427  0.3786
 7974SOL    HW135381   3.176   1.428   4.238 -1.0555  0.2300  0.0882
 7974SOL    HW235382   3.163   1.494   4.100 -0.0479 -0.5866  0.6266
 7975SOL     OW35383   3.460   1.438  10.456  0.1199 -0.0886  0.1508
 7975SOL    HW135384   3.511   1.397  10.386  0.3431 -0.1097  0.3257
 7975SOL    HW235385   3.381   1.387  10.473  0.1035 -0.0727  0.1232
 7976SOL     OW35386   0.369   3.272   5.047 -0.3053  0.4210 -0.4237
 7976SOL    HW135387   0.292   3.312   5.005 -1.8648 -1.5113  0.6080
 7976SOL    HW235388   0.430   3.338   5.014  1.3456 -0.8681  0.0598
 7977SOL     OW35389   3.366   4.317   8.469 -0.4625 -0.2825 -0.0328
 7977SOL    HW135390   3.332   4.230   8.450  0.9843 -0.7655 -0.4156
 7977SOL    HW235391   3.436   4.336   8.406 -1.0177  1.9914  0.0112
 7978SOL     OW35392   4.591   2.665   5.806  0.5495  0.2427  0.2399
 7978SOL    HW135393   4.574   2.731   5.873  0.8955  0.5900 -0.0155
 7978SOL    HW235394   4.677   2.637   5.838  0.7757 -0.1043 -0.6635
 7979SOL     OW35395   2.036   1.458   6.382 -0.6103 -0.3295 -0.0775
 7979SOL    HW135396   2.066   1.436   6.471 -0.7997  3.2827  0.8974
 7979SOL    HW235397   1.966   1.523   6.377 -0.7538 -0.4558  0.2787
 7980SOL     OW35398   0.514   2.822   6.679 -0.2314  0.6927 -0.4602
 7980SOL    HW135399   0.600   2.864   6.678  0.6784 -1.2208 -2.0219
 7980SOL    HW235400   0.540   2.749   6.622 -2.2504 -0.2479 -0.1901
 7981SOL     OW35401   0.707   1.617  13.817  0.1999  0.3903  0.2975
 7981SOL    HW135402   0.706   1.633  13.912 -0.6911  0.6360  0.2412
 7981SOL    HW235403   0.781   1.674  13.795 -1.0253  1.8727  0.0372
 7982SOL     OW35404   4.250   4.678   5.509  0.4195 -0.3394  0.0683
 7982SOL    HW135405   4.293   4.604   5.468  0.9796  0.5906 -1.0060
 7982SOL    HW235406   4.175   4.632   5.547  1.1903 -1.3731  0.3413
 7983SOL     OW35407   4.344   4.421   5.492  0.1721 -0.8015  0.0565
 7983SOL    HW135408   4.302   4.353   5.546  0.0793 -0.2812  0.6458
 7983SOL    HW235409   4.433   4.388   5.479  0.6232  0.0738  0.8876
 7984SOL     OW35410   3.224   4.220   6.944 -0.0050  0.1451  0.0263
 7984SOL    HW135411   3.199   4.308   6.918  2.6285  0.1021 -2.5032
 7984SOL    HW235412   3.292   4.232   7.010  0.9864 -0.6914 -0.8516
 7985SOL     OW35413   2.473   2.311   8.182  0.2856 -0.1694 -0.4334
 7985SOL    HW135414   2.429   2.360   8.252 -0.3951  1.5655 -2.0726
 7985SOL    HW235415   2.560   2.352   8.182 -0.3973  1.3010  1.5928
 7986SOL     OW35416   3.515   3.663   5.754  0.6530 -0.1601  0.2415
 7986SOL    HW135417   3.526   3.730   5.822  3.8986  0.2289 -0.6667
 7986SOL    HW235418   3.532   3.586   5.809 -0.2153 -0.7190 -0.2647
 7987SOL     OW35419   3.134   4.186   5.901 -0.0578  0.2464  0.3746
 7987SOL    HW135420   3.088   4.213   5.821 -0.0495 -0.1362  0.2410
 7987SOL    HW235421   3.057   4.150   5.945  0.7778 -0.5709  1.1632
 7988SOL     OW35422   1.533   0.515  16.405 -0.0186 -0.0613 -0.0350
 7988SOL    HW135423   1.546   0.480  16.493 -4.1416  1.8561  1.3486
 7988SOL    HW235424   1.487   0.444  16.360 -3.1923 -0.0305  3.1573
 7989SOL     OW35425   1.213   0.126   3.491  0.1881 -0.1921 -0.3604
 7989SOL    HW135426   1.232   0.032   3.495 -1.5862 -0.4163  2.4286
 7989SOL    HW235427   1.120   0.117   3.469  0.0065 -1.0905  0.7809
 7990SOL     OW35428   4.422   0.213  15.051 -0.4154  0.4273  0.3813
 7990SOL    HW135429   4.493   0.204  15.116 -0.3956  0.0722  0.3116
 7990SOL    HW235430   4.458   0.174  14.971 -1.2691 -0.7173  0.5674
 7991SOL     OW35431   3.678   2.196   4.433 -0.2345  0.8349  0.2574
 7991SOL    HW135432   3.694   2.110   4.470  0.4323  0.9545  0.2627
 7991SOL    HW235433   3.600   2.176   4.382  1.6503  1.4324 -2.8414
 7992SOL     OW35434   4.170   4.043   2.571  0.5264  0.0363 -0.1967
 7992SOL    HW135435   4.187   3.977   2.638  2.8261  0.2631 -0.5663
 7992SOL    HW235436   4.177   3.982   2.497 -0.4637  0.0351 -0.2901
 7993SOL     OW35437   1.046   3.802   7.746  0.0117 -0.0849 -0.2606
 7993SOL    HW135438   1.125   3.815   7.693  1.3147  1.4852  2.0677
 7993SOL    HW235439   1.066   3.714   7.778  1.9893 -0.1903 -1.8117
 7994SOL     OW35440   2.419   1.060  10.124  0.3109 -0.8233  0.2669
 7994SOL    HW135441   2.475   1.114  10.069 -0.2207 -0.4231  0.1190
 7994SOL    HW235442   2.483   1.031  10.189  0.0364 -1.5044  0.2363
 7995SOL     OW35443   2.914   1.232   4.285 -0.1464 -0.2615 -0.6308
 7995SOL    HW135444   2.910   1.199   4.375  1.2731 -1.6367 -1.0557
 7995SOL    HW235445   2.822   1.253   4.268 -0.3952 -0.0615  0.9924
 7996SOL     OW35446   3.573   0.306   0.991 -0.4267  0.0649 -0.1945
 7996SOL    HW135447   3.602   0.298   0.900 -3.0436  1.2451 -1.1083
 7996SOL    HW235448   3.499   0.366   0.989 -0.6534 -0.1506  2.1014
 7997SOL     OW35449   2.012   0.324  10.788  0.2340 -0.2527 -0.0039
 7997SOL    HW135450   1.931   0.307  10.835 -1.6263  0.1859 -3.0518
 7997SOL    HW235451   1.969   0.353  10.708  1.5127  0.8286 -0.3002
 7998SOL     OW35452   2.172   1.675  13.152 -0.2029 -0.2250  0.0815
 7998SOL    HW135453   2.161   1.760  13.195  1.6868 -0.7002  1.5182
 7998SOL    HW235454   2.235   1.698  13.084 -0.0811 -2.3535 -0.5257
 7999SOL     OW35455   0.413   2.459   7.898 -0.2239 -0.1666 -0.0073
 7999SOL    HW135456   0.475   2.421   7.835  1.3230  2.0537  0.1462
 7999SOL    HW235457   0.463   2.528   7.943  0.3966 -0.3810 -0.3573
 8000SOL     OW35458   0.540   1.596   6.100 -0.0832  0.7173 -0.4896
 8000SOL    HW135459   0.551   1.560   6.187 -0.3500  0.4050 -0.5849
 8000SOL    HW235460   0.632   1.602   6.076 -0.1850  1.5402 -0.6852
 8001SOL     OW35461   1.927   0.544   3.892  0.4765  0.3489  0.1716
 8001SOL    HW135462   1.908   0.637   3.891  0.1980  0.3010  1.1909
 8001SOL    HW235463   1.846   0.509   3.857 -0.3811  1.1682  1.3433
 8002SOL     OW35464   3.163   4.059   4.339 -0.2792 -0.2229 -0.2692
 8002SOL    HW135465   3.232   4.087   4.400 -0.5734  2.5464 -1.1831
 8002SOL    HW235466   3.211   3.989   4.295  0.6146  0.6267 -0.6540
 8003SOL     OW35467   1.016   3.389   0.356  0.0809  0.6193  0.0906
 8003SOL    HW135468   1.047   3.446   0.286  0.0006  1.1907  0.5185
 8003SOL    HW235469   0.983   3.443   0.428 -0.0458  0.9262 -0.1966
 8004SOL     OW35470   4.097   0.829   6.283  0.4258 -0.1747  0.6108
 8004SOL    HW135471   4.101   0.773   6.205 -0.1289 -0.0785  0.5087
 8004SOL    HW235472   4.134   0.774   6.351  0.8017 -1.3776 -0.5609
 8005SOL     OW35473   3.836   0.717   7.010 -0.7868  0.3618  0.0090
 8005SOL    HW135474   3.756   0.732   7.061 -0.9416 -2.8930  0.7240
 8005SOL    HW235475   3.893   0.679   7.077 -1.7989  0.9396  1.1965
 8006SOL     OW35476   1.834   4.090  12.777  0.0415 -0.3364 -0.0355
 8006SOL    HW135477   1.816   4.044  12.859 -0.1814  0.4081  0.3253
 8006SOL    HW235478   1.912   4.042  12.750 -0.1813  0.4751 -2.1451
 8007SOL     OW35479   0.164   0.654   6.756  0.2319 -0.1976  0.5672
 8007SOL    HW135480   0.089   0.653   6.815 -0.6236 -1.1014 -0.5286
 8007SOL    HW235481   0.151   0.576   6.701 -0.7662  1.6132 -1.7697
 8008SOL     OW35482   0.470   2.222   6.890  0.0469 -0.1332 -0.1922
 8008SOL    HW135483   0.547   2.269   6.924  0.4056  0.6026 -2.0236
 8008SOL    HW235484   0.502   2.137   6.861  0.6227  0.2244 -0.6125
 8009SOL     OW35485   4.162   0.112   5.097  0.1222  0.4560  0.0925
 8009SOL    HW135486   4.115   0.029   5.107  0.3200  0.1882 -1.1371
 8009SOL    HW235487   4.109   0.170   5.151 -1.2075 -1.5772  0.9760
 8010SOL     OW35488   4.453   2.167  15.981  0.3740  0.6220  0.4103
 8010SOL    HW135489   4.525   2.228  16.000 -0.2735  1.6509 -0.4454
 8010SOL    HW235490   4.408   2.215  15.912 -1.5150 -0.2625  1.0465
 8011SOL     OW35491   1.758   0.552   7.504 -0.0353 -0.1296 -0.4340
 8011SOL    HW135492   1.724   0.556   7.415  0.7963  3.0192 -0.6079
 8011SOL    HW235493   1.691   0.514   7.561  0.2821  1.5409  1.0528
 8012SOL     OW35494   1.472   1.473   7.517  0.6134  0.2128 -0.2396
 8012SOL    HW135495   1.567   1.465   7.511  0.3141 -3.0285 -0.5932
 8012SOL    HW235496   1.459   1.455   7.610 -0.2655 -0.6388 -0.5283
 8013SOL     OW35497   1.551   1.251   5.833 -0.6281 -0.2445 -0.2266
 8013SOL    HW135498   1.509   1.335   5.852  1.0406  0.4865  0.3218
 8013SOL    HW235499   1.577   1.232   5.923  1.7038  1.7448 -0.4654
 8014SOL     OW35500   3.628   3.717  13.614 -0.9938 -0.3542  0.0136
 8014SOL    HW135501   3.701   3.778  13.605 -0.4950 -0.6672  1.9906
 8014SOL    HW235502   3.627   3.703  13.709  2.3874  2.4036  0.4657
 8015SOL     OW35503   4.449   4.008   2.464  0.3112  0.2465  0.5412
 8015SOL    HW135504   4.469   3.930   2.517  0.4938  0.1991  0.4031
 8015SOL    HW235505   4.417   3.974   2.380  1.4889 -2.4856  1.1917
 8016SOL     OW35506   1.998   0.678   7.002  0.1168  0.3157 -0.2573
 8016SOL    HW135507   2.069   0.637   6.952 -0.2151  1.1147 -1.3907
 8016SOL    HW235508   1.931   0.611   7.010  0.2151  0.4293  1.3642
 8017SOL     OW35509   0.972   4.656  16.086  0.0224 -0.0599 -0.0306
 8017SOL    HW135510   0.949   4.603  16.163  0.3629 -1.4413 -0.8953
 8017SOL    HW235511   1.067   4.648  16.086  0.0520  0.2926 -1.4770
 8018SOL     OW35512   2.714   0.855   6.317  0.2569 -0.4428 -0.0487
 8018SOL    HW135513   2.697   0.944   6.288 -1.2294 -0.5800  0.4046
 8018SOL    HW235514   2.684   0.807   6.239 -0.4612  1.2358 -0.7959
 8019SOL     OW35515   0.496   2.986   4.080  0.3310 -0.1016  0.2246
 8019SOL    HW135516   0.505   3.003   3.987  1.3607  1.6408  0.6416
 8019SOL    HW235517   0.405   2.958   4.068 -0.0005  2.0982 -2.1388
 8020SOL     OW35518   0.743   4.511   6.464 -0.0987 -0.2561 -0.1258
 8020SOL    HW135519   0.700   4.580   6.413 -1.1620  0.5820  1.8964
 8020SOL    HW235520   0.827   4.520   6.421  0.1549 -0.3041  0.3539
 8021SOL     OW35521   2.844   2.590   7.435  0.5104 -0.1293 -0.1340
 8021SOL    HW135522   2.830   2.684   7.438  0.3041 -0.1875  0.7369
 8021SOL    HW235523   2.874   2.582   7.344  1.4935  1.0659  0.0921
 8022SOL     OW35524   0.484   3.368  14.660  0.7151 -0.7032  0.1548
 8022SOL    HW135525   0.555   3.323  14.705  2.7319  0.7036 -1.6132
 8022SOL    HW235526   0.415   3.311  14.693 -0.8780  1.4021  0.4785
 8023SOL     OW35527   3.698   2.557   8.370  0.1816  0.3102 -0.6622
 8023SOL    HW135528   3.629   2.510   8.417  0.1464  0.4919 -0.5360
 8023SOL    HW235529   3.666   2.646   8.361 -2.9250 -0.8303 -0.6698
 8024SOL     OW35530   4.416   0.960   5.484 -0.1715  0.2537  0.1186
 8024SOL    HW135531   4.454   0.897   5.422 -1.8096  0.2240 -0.8675
 8024SOL    HW235532   4.347   0.904   5.520  0.7877 -0.3939  0.9596
 8025SOL     OW35533   3.826   2.887   6.544 -0.4589  0.0213 -0.0613
 8025SOL    HW135534   3.833   2.793   6.557 -0.2583  0.1510  0.7313
 8025SOL    HW235535   3.858   2.921   6.627  0.0139 -0.8444  0.1075
 8026SOL     OW35536   0.833   0.864   6.372  0.0737 -0.7034 -0.0388
 8026SOL    HW135537   0.741   0.838   6.367  0.6626 -2.7500 -0.0769
 8026SOL    HW235538   0.878   0.780   6.369  0.2312 -0.5697 -1.4610
 8027SOL     OW35539   2.006   3.768   8.718  0.0965 -0.2578  0.9852
 8027SOL    HW135540   2.076   3.702   8.716 -0.8345 -1.1946 -1.4221
 8027SOL    HW235541   1.959   3.749   8.637 -1.0870  1.6646  1.2148
 8028SOL     OW35542   3.068   0.604  17.481  0.3237 -0.3449  0.6501
 8028SOL    HW135543   3.104   0.600  17.569 -5.2281  2.8623  3.0761
 8028SOL    HW235544   3.153   0.611  17.437 -0.1879 -0.9270 -0.4363
 8029SOL     OW35545   0.577   4.381   2.194 -0.0760 -0.1344  0.0613
 8029SOL    HW135546   0.659   4.428   2.206  0.3282 -0.8615  0.1265
 8029SOL    HW235547   0.539   4.368   2.280 -0.7298  4.0981  0.4040
 8030SOL     OW35548   1.148   0.991   0.351  0.0486  0.2693  0.1224
 8030SOL    HW135549   1.238   0.958   0.350 -0.0679  0.0156 -2.9678
 8030SOL    HW235550   1.141   1.020   0.442  1.8390 -0.7141  0.5906
 8031SOL     OW35551   2.899   0.840   8.496 -0.2957  0.4031 -0.3331
 8031SOL    HW135552   2.837   0.911   8.483  1.2258  1.6584 -0.7703
 8031SOL    HW235553   2.973   0.869   8.443  0.9082 -0.2343  0.9981
 8032SOL     OW35554   4.342   4.153   7.759  0.4883 -0.4989  0.3138
 8032SOL    HW135555   4.400   4.146   7.835 -0.6173  1.7758  1.3629
 8032SOL    HW235556   4.391   4.087   7.710 -0.4077 -1.6422  0.9754
 8033SOL     OW35557   2.926   0.122   4.967 -0.2354 -0.1766 -0.2669
 8033SOL    HW135558   2.866   0.145   5.038  2.8480  3.1152  1.2805
 8033SOL    HW235559   2.937   0.029   4.986 -0.7122 -0.2833 -0.5174
 8034SOL     OW35560   1.304   2.359   5.526  0.3645 -0.9629  0.1211
 8034SOL    HW135561   1.332   2.394   5.610  0.6302  2.6616 -1.4745
 8034SOL    HW235562   1.379   2.384   5.472  1.6102  0.9481  2.7605
 8035SOL     OW35563   1.054   4.261   4.932 -0.2919 -0.1290 -0.2276
 8035SOL    HW135564   1.123   4.313   4.973  0.1709 -0.5798 -0.4501
 8035SOL    HW235565   1.047   4.181   4.984  3.4244  0.0648  0.5529
 8036SOL     OW35566   4.345   0.905  16.605 -0.7019 -0.4118  0.9860
 8036SOL    HW135567   4.380   0.953  16.680  2.7842  0.7436 -1.3478
 8036SOL    HW235568   4.301   0.973  16.554  2.1087 -0.9472 -2.0907
 8037SOL     OW35569   4.218   0.232   5.474 -0.4858  0.3749  0.3787
 8037SOL    HW135570   4.305   0.273   5.477 -0.3759  0.1986 -0.2218
 8037SOL    HW235571   4.228   0.137   5.471  1.9614  0.6323 -0.2992
 8038SOL     OW35572   0.494   3.523   7.548  0.2762  0.2050  0.1203
 8038SOL    HW135573   0.486   3.549   7.639  1.2593 -0.5554  0.4227
 8038SOL    HW235574   0.547   3.446   7.570 -0.6018 -0.3855  0.1887
 8039SOL     OW35575   3.106   4.497   1.872 -0.1270 -0.9657 -0.2491
 8039SOL    HW135576   3.091   4.415   1.920  1.1078 -0.3216  1.2297
 8039SOL    HW235577   3.030   4.497   1.814 -0.2108  2.1294 -0.1016
 8040SOL     OW35578   3.485   4.345   4.429  0.2777  0.3426 -0.2185
 8040SOL    HW135579   3.434   4.424   4.412 -2.6801 -1.3158  1.0440
 8040SOL    HW235580   3.463   4.292   4.352  0.3665 -0.7777  0.5341
 8041SOL     OW35581   0.442   1.168   8.970  0.3901 -0.3298  0.0298
 8041SOL    HW135582   0.522   1.116   8.971 -0.0484 -0.9699  1.7824
 8041SOL    HW235583   0.468   1.243   9.024 -0.4919 -0.2260  0.3058
 8042SOL     OW35584   0.533   2.465   3.818  0.1740 -0.4248  0.0294
 8042SOL    HW135585   0.481   2.430   3.890  1.4880 -0.1463  1.1072
 8042SOL    HW235586   0.485   2.545   3.796 -0.3999 -0.8606 -0.3133
 8043SOL     OW35587   3.368   1.825  17.572  0.8667  0.3745  0.4557
 8043SOL    HW135588   3.320   1.904  17.547 -0.4936 -0.6734 -0.2571
 8043SOL    HW235589   3.322   1.763  17.515 -0.0712  2.9133 -1.5282
 8044SOL     OW35590   4.562   1.732   8.493  0.1489  0.7580  0.1683
 8044SOL    HW135591   4.475   1.770   8.476  0.3219  0.7276 -0.7650
 8044SOL    HW235592   4.601   1.796   8.553  2.2510 -1.8150  1.5072
 8045SOL     OW35593   4.451   1.439   3.362 -0.3045 -0.1229  0.1229
 8045SOL    HW135594   4.392   1.363   3.359  0.8764 -0.9439 -1.9052
 8045SOL    HW235595   4.502   1.420   3.284  0.0636  0.5763  0.1918
 8046SOL     OW35596   2.258   3.094   4.626 -0.0841  0.2332  0.0911
 8046SOL    HW135597   2.316   3.169   4.619 -0.1049  0.1768 -0.7002
 8046SOL    HW235598   2.253   3.063   4.535 -1.1668  0.3932  0.0880
 8047SOL     OW35599   4.651   4.544  11.810  0.4844 -0.3407 -0.1544
 8047SOL    HW135600   4.672   4.456  11.840  0.3500 -0.6327 -0.9020
 8047SOL    HW235601   4.639   4.535  11.715 -0.7418 -0.2246 -0.0149
 8048SOL     OW35602   4.400   0.876   6.156  0.1823 -0.9790 -0.0521
 8048SOL    HW135603   4.358   0.956   6.125  1.8044  0.5043  1.5471
 8048SOL    HW235604   4.328   0.824   6.191 -1.3049  0.2977 -1.2225
 8049SOL     OW35605   0.071   1.176  10.473  0.2855  0.1500  0.2336
 8049SOL    HW135606   0.134   1.135  10.532 -0.0555 -0.2750  0.2995
 8049SOL    HW235607   0.116   1.159  10.390 -1.2271 -1.4011 -0.2583
 8050SOL     OW35608   0.625   0.574   5.341  0.2038 -0.2484 -0.3582
 8050SOL    HW135609   0.599   0.535   5.258  0.7751  0.6144 -0.9384
 8050SOL    HW235610   0.637   0.492   5.388 -1.4188 -0.5565 -0.4862
 8051SOL     OW35611   3.452   3.598  17.435  0.3529 -0.4309  0.2980
 8051SOL    HW135612   3.529   3.651  17.454 -0.1455  0.6583 -0.7397
 8051SOL    HW235613   3.482   3.508  17.449  3.0080  0.0929 -2.0197
 8052SOL     OW35614   3.344   2.151   7.925  0.0955 -0.2077 -0.1144
 8052SOL    HW135615   3.261   2.194   7.905 -0.2184 -0.9887 -0.4620
 8052SOL    HW235616   3.381   2.126   7.840 -0.2361  3.6597 -1.3918
 8053SOL     OW35617   2.524   3.974   9.223  0.0008 -0.5975  0.2330
 8053SOL    HW135618   2.560   3.935   9.144  0.6899 -1.0294  0.7495
 8053SOL    HW235619   2.485   3.896   9.262 -0.1392 -0.7307 -0.1811
 8054SOL     OW35620   1.185   3.569   3.229 -0.1168 -0.0953 -0.0912
 8054SOL    HW135621   1.129   3.645   3.210 -2.0381 -1.2205  1.1256
 8054SOL    HW235622   1.233   3.547   3.149  1.2435  2.4702  0.0248
 8055SOL     OW35623   0.309   0.363  10.689 -0.0037 -0.1464 -0.1636
 8055SOL    HW135624   0.377   0.430  10.675 -0.1699  0.7373  3.1419
 8055SOL    HW235625   0.226   0.405  10.669 -0.0379  0.7043  1.7350
 8056SOL     OW35626   1.381   0.985   8.746 -0.1170 -0.8581 -0.5065
 8056SOL    HW135627   1.433   1.016   8.820  0.6310 -2.0561 -0.5318
 8056SOL    HW235628   1.291   0.988   8.779 -0.8765  1.9842 -2.7720
 8057SOL     OW35629   3.982   3.891   9.842  0.2432 -0.1196  0.3867
 8057SOL    HW135630   3.980   3.890   9.747 -1.4216 -3.6427  0.4410
 8057SOL    HW235631   4.058   3.837   9.864  0.5753  0.6183  1.0731
 8058SOL     OW35632   4.378   2.361   8.295  0.5477 -0.7645 -1.0784
 8058SOL    HW135633   4.357   2.318   8.212  1.1378 -2.1264 -0.5155
 8058SOL    HW235634   4.292   2.355   8.338  0.9730 -1.0134 -0.2579
 8059SOL     OW35635   1.970   3.433   5.588  0.0622 -0.1044 -0.3075
 8059SOL    HW135636   1.939   3.523   5.598 -1.3703 -0.7579  1.2028
 8059SOL    HW235637   2.033   3.424   5.660 -0.6006 -0.4205  0.2321
 8060SOL     OW35638   0.675   3.495   0.380 -0.4482 -0.1842  0.1657
 8060SOL    HW135639   0.707   3.420   0.331  3.8000 -0.3912  3.3085
 8060SOL    HW235640   0.742   3.562   0.370 -0.0025 -0.8202 -1.1773
 8061SOL     OW35641   0.975   3.276   7.776 -0.6826  0.3233  0.3329
 8061SOL    HW135642   0.994   3.238   7.862  0.0464 -1.7868 -0.7763
 8061SOL    HW235643   0.898   3.329   7.799 -1.9333 -1.1230 -0.5195
 8062SOL     OW35644   3.269   1.166  15.964 -0.1455  0.2041 -0.2526
 8062SOL    HW135645   3.192   1.110  15.956  0.4437 -0.7570  0.9420
 8062SOL    HW235646   3.286   1.188  15.872  0.3688  4.7929  0.9481
 8063SOL     OW35647   2.437   4.135   2.638  0.1340 -0.3790  0.2950
 8063SOL    HW135648   2.503   4.095   2.582 -0.2894 -2.0327  0.9752
 8063SOL    HW235649   2.473   4.224   2.639  1.4733 -0.9561  2.8310
 8064SOL     OW35650   2.738   1.908   8.700 -0.0457  0.3327 -0.2180
 8064SOL    HW135651   2.788   1.868   8.771 -1.1513 -3.0904 -1.4138
 8064SOL    HW235652   2.697   1.969   8.762 -3.1461 -1.1699 -0.8497
 8065SOL     OW35653   1.045   3.253   8.349 -0.5813  0.5151 -0.6400
 8065SOL    HW135654   0.953   3.262   8.325 -0.1458  0.8649 -2.2118
 8065SOL    HW235655   1.054   3.336   8.395 -1.5789 -0.3150  1.0300
 8066SOL     OW35656   4.435   0.200  15.382  0.2189 -0.2561 -0.0277
 8066SOL    HW135657   4.486   0.121  15.402 -0.4344 -0.4682  0.7488
 8066SOL    HW235658   4.437   0.232  15.472  0.3396 -0.7380  0.1447
 8067SOL     OW35659   4.661   2.355   1.951  0.0053 -0.2770 -0.1826
 8067SOL    HW135660   4.599   2.421   1.921  0.2825 -0.6078 -1.5205
 8067SOL    HW235661   4.604   2.280   1.967 -2.4473  1.6150 -0.1480
 8068SOL     OW35662   1.639   0.187   9.669 -1.1798  0.4346 -0.2423
 8068SOL    HW135663   1.713   0.238   9.636 -0.8743 -0.8632 -1.6093
 8068SOL    HW235664   1.566   0.225   9.620 -3.7956 -1.0719  2.4686
 8069SOL     OW35665   2.446   1.128   4.084 -0.0742  0.0902  0.3451
 8069SOL    HW135666   2.399   1.176   4.153 -1.7982 -2.9081  1.2520
 8069SOL    HW235667   2.524   1.099   4.131  0.2352 -2.0839 -1.5211
 8070SOL     OW35668   4.722   1.058  15.230 -0.0998 -0.6023  0.6120
 8070SOL    HW135669   4.636   1.021  15.249  0.5025 -2.1731  0.2938
 8070SOL    HW235670   4.725   1.060  15.134  0.0645  0.0013  0.6305
 8071SOL     OW35671   2.547   0.266   8.120 -0.1542 -0.1953  0.1149
 8071SOL    HW135672   2.619   0.322   8.149  1.0990 -1.1480 -1.1676
 8071SOL    HW235673   2.507   0.245   8.204  1.8312 -0.9745  0.8609
 8072SOL     OW35674   3.426   1.193  17.426 -0.2392 -0.0063  0.2231
 8072SOL    HW135675   3.508   1.242  17.431 -0.6247  0.7026 -0.3635
 8072SOL    HW235676   3.420   1.178  17.520 -0.1823  2.5596  0.6340
 8073SOL     OW35677   2.854   2.190   1.964 -0.3184 -0.3697 -0.0440
 8073SOL    HW135678   2.927   2.161   1.909  1.0104  0.1918  1.4186
 8073SOL    HW235679   2.837   2.281   1.940 -1.1812 -0.4860  0.0996
 8074SOL     OW35680   2.102   1.124  13.221 -0.0835  0.3530 -0.1885
 8074SOL    HW135681   2.146   1.210  13.220  0.0946  0.2697  0.6563
 8074SOL    HW235682   2.012   1.153  13.235 -0.2247  0.0246 -0.4311
 8075SOL     OW35683   1.164   3.908  11.652  0.0588 -0.9862  0.2848
 8075SOL    HW135684   1.201   3.860  11.578 -0.0103 -0.3971 -0.1358
 8075SOL    HW235685   1.096   3.848  11.680 -0.3497 -0.3665  0.6080
 8076SOL     OW35686   0.645   3.910   5.364  0.1452 -0.5815 -0.0947
 8076SOL    HW135687   0.656   3.902   5.459 -0.8047  1.2221  0.1687
 8076SOL    HW235688   0.551   3.930   5.363  0.4398  0.7738 -0.0472
 8077SOL     OW35689   3.097   1.608   1.878 -0.1455 -0.6341 -0.1315
 8077SOL    HW135690   3.060   1.522   1.898  1.3781 -0.6575  2.5997
 8077SOL    HW235691   3.027   1.671   1.897  0.7159 -0.0891  1.2785
 8078SOL     OW35692   1.387   3.062  11.659  0.5596 -0.1407  0.1659
 8078SOL    HW135693   1.439   3.100  11.588 -0.4212 -1.1139 -1.0896
 8078SOL    HW235694   1.373   3.138  11.716 -0.4656  2.0726 -2.9926
 8079SOL     OW35695   2.125   3.366   8.909 -0.6818 -0.2346 -0.0605
 8079SOL    HW135696   2.051   3.427   8.903  0.0218  0.4432 -2.0396
 8079SOL    HW235697   2.073   3.292   8.940 -1.1706 -1.0887 -2.9581
 8080SOL     OW35698   3.050   3.064   8.553 -0.4043  0.5809  0.3199
 8080SOL    HW135699   3.069   3.007   8.477 -0.7119  1.5927 -0.5143
 8080SOL    HW235700   2.969   3.027   8.587 -1.8533  1.5537 -2.0347
 8081SOL     OW35701   0.146   3.332   6.118 -0.1969  0.8375  0.5064
 8081SOL    HW135702   0.233   3.303   6.144 -0.4167 -1.3537 -1.2322
 8081SOL    HW235703   0.098   3.362   6.196  1.0317  1.0082  1.1937
 8082SOL     OW35704   3.512   0.418   7.224 -0.0694  0.1207 -0.0042
 8082SOL    HW135705   3.439   0.364   7.256 -0.4806 -0.2686 -1.5972
 8082SOL    HW235706   3.541   0.443   7.311 -2.3583  2.0056  0.2277
 8083SOL     OW35707   1.905   0.795   8.934  0.0171  0.6281  0.7441
 8083SOL    HW135708   1.858   0.726   8.982  0.5943 -0.0436  0.3370
 8083SOL    HW235709   1.896   0.863   9.002 -1.6194  1.1385  0.0069
 8084SOL     OW35710   4.555   0.145   9.248 -0.5298  0.3511  0.3963
 8084SOL    HW135711   4.493   0.153   9.320  0.8234 -1.2263  1.7558
 8084SOL    HW235712   4.551   0.051   9.227  2.8105 -0.0559  1.5602
 8085SOL     OW35713   4.500   2.442   7.605  0.2370 -0.4260 -0.3841
 8085SOL    HW135714   4.525   2.533   7.620  1.2825 -0.6806 -0.5666
 8085SOL    HW235715   4.479   2.414   7.694 -1.8114 -1.6253 -1.2304
 8086SOL     OW35716   2.631   1.825   6.327  0.0663 -0.3657  0.1889
 8086SOL    HW135717   2.649   1.740   6.286 -0.2390 -1.0071  1.3951
 8086SOL    HW235718   2.542   1.838   6.296 -0.7604 -1.3755  2.1306
 8087SOL     OW35719   3.412   0.019  17.200 -0.9967  0.3362 -0.5019
 8087SOL    HW135720   3.338   0.051  17.148 -1.3273 -0.5692 -0.6036
 8087SOL    HW235721   3.385   4.654  17.210  0.1015  0.0517 -0.2293
 8088SOL     OW35722   0.485   4.629   6.672 -0.3550 -0.0780 -0.3487
 8088SOL    HW135723   0.573   4.665   6.682 -0.6646  1.2758 -2.5394
 8088SOL    HW235724   0.487   4.578   6.753 -1.2359 -0.3996 -0.5241
 8089SOL     OW35725   4.036   3.544  16.817  0.2900 -0.1668  0.5259
 8089SOL    HW135726   3.949   3.581  16.802  0.7553  0.3924 -0.7754
 8089SOL    HW235727   4.047   3.475  16.753  2.4177 -1.3542  2.1754
 8090SOL     OW35728   0.208   2.481   7.473 -0.4187 -0.5355  0.6853
 8090SOL    HW135729   0.273   2.531   7.523  0.4409 -1.2927  0.3405
 8090SOL    HW235730   0.121   2.500   7.506 -0.7899 -0.4545 -0.3594
 8091SOL     OW35731   1.627   1.539   5.848 -0.7244  0.0012  0.1205
 8091SOL    HW135732   1.688   1.472   5.815 -0.9030 -0.2919  0.3881
 8091SOL    HW235733   1.676   1.560   5.928  1.1741  0.0217 -1.0354
 8092SOL     OW35734   3.340   0.646   7.875  0.0564 -0.3420 -0.3163
 8092SOL    HW135735   3.293   0.710   7.821  1.0814  2.4326  2.0918
 8092SOL    HW235736   3.379   0.703   7.941 -1.0366  0.6487 -0.5325
 8093SOL     OW35737   2.388   2.590   6.237  0.4775  0.9476 -0.6208
 8093SOL    HW135738   2.351   2.542   6.311  1.5717  0.4357 -0.3909
 8093SOL    HW235739   2.425   2.671   6.272 -0.4345  1.0498  0.0850
 8094SOL     OW35740   4.220   1.777   2.137 -0.0320 -0.1406  0.4290
 8094SOL    HW135741   4.150   1.743   2.081  0.7911 -1.7679  0.3876
 8094SOL    HW235742   4.176   1.792   2.221 -2.1610  0.2505 -0.7533
 8095SOL     OW35743   4.269   0.411   3.629 -0.5651  0.0115  0.0114
 8095SOL    HW135744   4.222   0.433   3.709  2.8291  1.4507  1.5910
 8095SOL    HW235745   4.311   0.489   3.593  0.6017 -1.3629 -1.6132
 8096SOL     OW35746   4.624   1.533  10.274 -0.0333 -0.0437 -0.2407
 8096SOL    HW135747   4.591   1.443  10.277 -2.0851  0.8914  4.1887
 8096SOL    HW235748   4.542   1.570  10.240  1.4520  2.2283 -1.3629
 8097SOL     OW35749   1.317   1.218  15.258 -0.1242  0.1673  0.2367
 8097SOL    HW135750   1.337   1.307  15.229  0.5175  0.1939  0.7630
 8097SOL    HW235751   1.228   1.245  15.283 -0.5673 -0.3556 -0.7885
 8098SOL     OW35752   1.433   0.485   9.002 -0.5743 -0.3109 -0.5461
 8098SOL    HW135753   1.404   0.410   8.951 -1.2398  0.2415 -0.9704
 8098SOL    HW235754   1.348   0.509   9.038 -1.2781 -1.0496 -1.7248
 8099SOL     OW35755   3.986   0.023   5.788  0.0465 -0.2583 -0.1879
 8099SOL    HW135756   3.980   4.659   5.760 -1.7745 -0.3158  0.4271
 8099SOL    HW235757   3.960   0.081   5.717 -2.2689  1.8985  2.4435
 8100SOL     OW35758   2.427   2.328   7.627 -0.3660  0.4765 -0.3402
 8100SOL    HW135759   2.405   2.421   7.625  0.4239  0.6591 -0.1678
 8100SOL    HW235760   2.447   2.309   7.535  1.1159 -2.9945  0.7127
 8101SOL     OW35761   3.061   0.606   5.610 -0.3400  0.3353  0.0476
 8101SOL    HW135762   2.998   0.581   5.543  0.9117 -2.5770 -0.0412
 8101SOL    HW235763   3.013   0.674   5.657 -2.3059  0.6893 -2.4862
 8102SOL     OW35764   2.233   2.613   1.889 -0.0597 -0.2404  0.5220
 8102SOL    HW135765   2.246   2.529   1.845 -2.6752 -1.4443  2.0496
 8102SOL    HW235766   2.201   2.580   1.973 -0.7408  2.1989  1.2203
 8103SOL     OW35767   4.059   1.374   1.094  0.6841  0.1412 -0.1653
 8103SOL    HW135768   4.135   1.333   1.135  0.0037  0.0467  0.9800
 8103SOL    HW235769   4.100   1.437   1.035 -0.6843  1.7825  0.6634
 8104SOL     OW35770   4.129   1.695   4.871  0.0859  0.0832 -0.7992
 8104SOL    HW135771   4.099   1.642   4.945  0.7162 -0.5996 -1.0288
 8104SOL    HW235772   4.144   1.626   4.806 -3.0661 -0.7881 -0.6220
 8105SOL     OW35773   2.647   0.167   2.063  0.1013  0.8302  0.5343
 8105SOL    HW135774   2.553   0.182   2.062 -0.2101 -1.1500 -1.9572
 8105SOL    HW235775   2.649   0.072   2.048  0.4292  0.7515  1.0604
 8106SOL     OW35776   2.082   4.033   8.866 -0.0606  0.2044  0.4418
 8106SOL    HW135777   2.146   3.966   8.889 -0.6022  0.3740  2.4481
 8106SOL    HW235778   2.137   4.095   8.817 -1.9825  0.9081 -0.8002
 8107SOL     OW35779   4.156   2.466  10.552 -0.3614 -0.0551  1.2056
 8107SOL    HW135780   4.087   2.532  10.564 -0.0991  0.2148  1.2231
 8107SOL    HW235781   4.228   2.482  10.613 -1.1298  0.8033  1.8890
 8108SOL     OW35782   3.884   1.202  10.099  0.1490  0.3549  0.5649
 8108SOL    HW135783   3.834   1.270  10.142  0.1307  0.7359 -0.0579
 8108SOL    HW235784   3.902   1.145  10.174 -0.6612  1.6371  1.7184
 8109SOL     OW35785   0.736   1.327   0.401  0.0518  0.4173  0.0614
 8109SOL    HW135786   0.804   1.357   0.461  0.2949  0.3867 -0.2004
 8109SOL    HW235787   0.762   1.373   0.322  0.9181  1.2347  0.8194
 8110SOL     OW35788   4.601   2.659   5.373 -0.3353 -0.8913 -0.1182
 8110SOL    HW135789   4.598   2.567   5.397 -3.9328 -0.8414 -0.2701
 8110SOL    HW235790   4.694   2.674   5.358 -0.7903 -1.5962 -3.7529
 8111SOL     OW35791   0.080   4.471   3.220 -0.5525 -0.4338  0.3114
 8111SOL    HW135792   0.053   4.544   3.277 -1.7680  0.9717 -2.0854
 8111SOL    HW235793   4.726   4.423   3.201 -0.0115 -0.6478 -1.4341
 8112SOL     OW35794   2.484   0.760  12.604 -0.0186 -0.0678  0.0742
 8112SOL    HW135795   2.446   0.809  12.677  0.2251  0.5061 -0.1877
 8112SOL    HW235796   2.422   0.760  12.530 -0.8995 -0.3080  0.8042
 8113SOL     OW35797   3.568   0.674   6.576 -0.7722 -0.5380 -0.0853
 8113SOL    HW135798   3.631   0.663   6.646 -2.4211  1.8732  1.7793
 8113SOL    HW235799   3.496   0.622   6.612 -0.4052 -0.8805  0.1528
 8114SOL     OW35800   2.684   4.158   8.259  0.8817  0.2370  0.5068
 8114SOL    HW135801   2.772   4.131   8.232  0.3422 -0.2461 -0.7524
 8114SOL    HW235802   2.655   4.081   8.309  1.2146  0.6976  1.4048
 8115SOL     OW35803   3.651   1.394   5.673 -0.2250 -0.1521 -0.2620
 8115SOL    HW135804   3.718   1.367   5.736 -1.8754 -0.4495  1.3790
 8115SOL    HW235805   3.578   1.341   5.704  0.0190 -0.4620 -0.2227
 8116SOL     OW35806   4.184   2.113   6.290 -0.4521  0.1239 -0.0630
 8116SOL    HW135807   4.110   2.077   6.242 -0.6039  0.9107 -0.4240
 8116SOL    HW235808   4.202   2.047   6.357 -1.6413 -0.1550 -0.0118
 8117SOL     OW35809   1.899   1.479   8.153 -0.5888 -0.2067 -0.2942
 8117SOL    HW135810   1.872   1.478   8.245  2.2591  0.1534  0.5479
 8117SOL    HW235811   1.814   1.485   8.110 -1.2682 -0.5861  0.9847
 8118SOL     OW35812   4.010   3.737   0.393  0.1569 -0.4412 -0.0165
 8118SOL    HW135813   3.994   3.649   0.427  0.9887  0.7449  3.4443
 8118SOL    HW235814   4.101   3.722   0.367  0.9791  0.0280  2.5430
 8119SOL     OW35815   3.370   3.387   1.954  0.8294  0.2281  0.1931
 8119SOL    HW135816   3.305   3.374   2.023  0.6216  0.3405  0.0179
 8119SOL    HW235817   3.315   3.426   1.886 -1.1089  0.5198  1.9114
 8120SOL     OW35818   4.356   4.630   3.814 -0.2908  0.1569 -0.0661
 8120SOL    HW135819   4.269   4.658   3.840 -0.7293 -1.6045  0.4065
 8120SOL    HW235820   4.388   4.579   3.889 -0.9074 -0.2875 -0.1096
 8121SOL     OW35821   3.231   2.936   8.087  0.2978  0.0792  0.4223
 8121SOL    HW135822   3.244   3.031   8.089 -0.9065  0.2616 -0.7729
 8121SOL    HW235823   3.262   2.921   8.176  0.3844 -1.4151  0.1465
 8122SOL     OW35824   1.208   4.470   5.055 -0.3119 -0.1516 -0.1793
 8122SOL    HW135825   1.248   4.533   5.116 -0.0009 -0.0650 -0.4710
 8122SOL    HW235826   1.149   4.427   5.116  0.6306  0.1134  0.9280
 8123SOL     OW35827   4.139   0.016   4.759  0.5710  0.1925  0.3278
 8123SOL    HW135828   4.195   0.093   4.774 -0.4856  1.1294 -0.5621
 8123SOL    HW235829   4.057   0.045   4.799  0.5182 -1.6495  1.5640
 8124SOL     OW35830   0.906   2.085  14.705  0.2009  0.0873  0.9289
 8124SOL    HW135831   0.822   2.039  14.709 -0.7369  1.7858  0.4686
 8124SOL    HW235832   0.959   2.015  14.666 -0.6109  1.4321 -2.5722
 8125SOL     OW35833   4.568   2.595   2.821  0.0578 -0.2307  0.1417
 8125SOL    HW135834   4.487   2.565   2.861  0.4364  0.5865  1.4957
 8125SOL    HW235835   4.553   2.627   2.732  2.0865  0.7930  0.1513
 8126SOL     OW35836   0.413   0.583   8.066 -0.0432 -0.4614  0.6513
 8126SOL    HW135837   0.319   0.594   8.050  0.0221  0.3148  0.8496
 8126SOL    HW235838   0.435   0.668   8.101 -3.6068  0.5800  0.4264
 8127SOL     OW35839   2.042   3.550  10.572  0.2314  0.2399 -0.2005
 8127SOL    HW135840   2.091   3.478  10.612  0.2427  1.3444  1.7182
 8127SOL    HW235841   1.977   3.506  10.517 -0.7857  0.5443  0.7522
 8128SOL     OW35842   1.515   0.252   3.927  0.2400  0.9487 -0.2669
 8128SOL    HW135843   1.447   0.203   3.972  1.0607 -0.4425 -0.5505
 8128SOL    HW235844   1.500   0.226   3.836 -0.5802 -0.7342  0.3673
 8129SOL     OW35845   2.103   0.548   8.241  0.3825  0.3471 -0.3983
 8129SOL    HW135846   2.085   0.598   8.161 -1.9042 -0.6916 -0.5266
 8129SOL    HW235847   2.017   0.562   8.281  1.2850  0.0041  1.6683
 8130SOL     OW35848   0.220   4.427  15.191  0.5272  0.2258 -0.1550
 8130SOL    HW135849   0.273   4.397  15.117 -0.8025  0.0102 -1.0159
 8130SOL    HW235850   0.285   4.468  15.248  0.5632  0.6329 -0.4840
 8131SOL     OW35851   1.214   1.900   2.594 -0.8174 -0.1944  0.2872
 8131SOL    HW135852   1.172   1.965   2.537 -4.0221 -1.8486  0.7287
 8131SOL    HW235853   1.303   1.929   2.612 -0.3219 -1.0562 -0.7335
 8132SOL     OW35854   1.019   3.408   7.024 -0.3581  0.1365  0.8662
 8132SOL    HW135855   1.069   3.473   7.075 -0.4975  0.2871  0.8100
 8132SOL    HW235856   1.022   3.449   6.938  1.4910 -0.3399  0.6933
 8133SOL     OW35857   2.675   0.312   8.806  0.2339  0.3703 -0.4808
 8133SOL    HW135858   2.676   0.383   8.742 -2.4870  1.3086  0.5144
 8133SOL    HW235859   2.754   0.261   8.785  0.9739  1.4172 -0.2673
 8134SOL     OW35860   3.565   2.073  10.347 -0.6486 -0.4165  0.4830
 8134SOL    HW135861   3.565   2.168  10.361  0.1509 -0.2699 -0.5721
 8134SOL    HW235862   3.519   2.071  10.264 -0.3563  1.7009  0.2777
 8135SOL     OW35863   3.912   2.833   1.584 -0.0412  0.0144 -0.7224
 8135SOL    HW135864   3.879   2.776   1.654  0.7070  1.0088  0.4468
 8135SOL    HW235865   3.829   2.878   1.568  0.5462  0.8180 -1.5132
 8136SOL     OW35866   3.547   3.988   4.275  0.3633 -0.4824  0.1036
 8136SOL    HW135867   3.451   3.993   4.278  0.3839 -0.1760  0.2348
 8136SOL    HW235868   3.575   4.079   4.278  0.0172 -0.4289  1.7001
 8137SOL     OW35869   3.980   1.281   3.429 -0.1615  0.5996 -0.3378
 8137SOL    HW135870   3.923   1.249   3.499  0.2713  1.8226  0.5671
 8137SOL    HW235871   3.917   1.331   3.378  0.0122  1.2826  0.1175
 8138SOL     OW35872   4.149   1.578   4.386 -0.5074 -0.2721 -0.3349
 8138SOL    HW135873   4.217   1.634   4.423 -1.1189 -0.5938  1.2802
 8138SOL    HW235874   4.149   1.613   4.297 -0.2641  1.2229  0.2474
 8139SOL     OW35875   3.302   2.449  16.390  0.5860 -0.0166 -0.1518
 8139SOL    HW135876   3.341   2.505  16.322 -0.6147 -0.0111 -0.8235
 8139SOL    HW235877   3.215   2.488  16.395  0.6419  0.2194 -1.0301
 8140SOL     OW35878   2.337   1.763  12.931  0.1244  0.0787  0.2283
 8140SOL    HW135879   2.352   1.849  12.893 -1.6223  1.2331  2.1647
 8140SOL    HW235880   2.292   1.724  12.857  1.4210 -1.5638  0.2889
 8141SOL     OW35881   1.286   3.413   3.447  0.6018 -0.4910 -0.2287
 8141SOL    HW135882   1.303   3.325   3.415  1.1626  0.1966 -1.8023
 8141SOL    HW235883   1.252   3.453   3.367 -0.0292  0.6033  0.5810
 8142SOL     OW35884   2.951   4.710   1.953 -0.2632  0.2242  0.6585
 8142SOL    HW135885   2.889   4.685   2.021  1.4173  0.7007  2.3782
 8142SOL    HW235886   2.971   4.625   1.913 -0.1388  1.4052 -1.7543
 8143SOL     OW35887   0.953   1.310   8.223 -0.0757 -0.1294  0.2627
 8143SOL    HW135888   0.947   1.323   8.128 -1.6446  0.6104  0.4711
 8143SOL    HW235889   1.022   1.376   8.233  1.5041 -1.1532 -3.7970
 8144SOL     OW35890   0.963   1.273   4.168  0.1269 -0.0533 -0.1124
 8144SOL    HW135891   0.943   1.265   4.075  2.2114 -2.3034 -0.3626
 8144SOL    HW235892   1.056   1.297   4.161  0.0550  0.3652  0.3506
 8145SOL     OW35893   3.602   3.914   8.559 -0.4825  0.4995 -0.0226
 8145SOL    HW135894   3.647   3.906   8.475  0.7725  0.8271  0.6229
 8145SOL    HW235895   3.673   3.904   8.622  1.5833  2.1079 -2.0808
 8146SOL     OW35896   0.236   1.004   0.823 -0.2351  0.0832 -0.0814
 8146SOL    HW135897   0.263   0.912   0.824  1.4626  0.5843  0.2839
 8146SOL    HW235898   0.223   1.010   0.917 -0.9598 -2.6680  0.0031
 8147SOL     OW35899   0.929   1.765  13.713  0.7068  0.5697  0.4725
 8147SOL    HW135900   1.022   1.742  13.707  0.6539  0.6064 -0.4776
 8147SOL    HW235901   0.932   1.840  13.653 -1.9149 -0.3850 -0.8444
 8148SOL     OW35902   1.404   3.919  16.755 -0.1474 -0.3316  0.0326
 8148SOL    HW135903   1.481   3.976  16.759  0.0261 -0.4425 -1.8924
 8148SOL    HW235904   1.346   3.952  16.824 -0.1963 -0.0916 -0.1248
 8149SOL     OW35905   0.490   1.196   9.923 -0.0919  0.2415  0.3212
 8149SOL    HW135906   0.426   1.142   9.875 -0.6794  0.7706  0.5097
 8149SOL    HW235907   0.569   1.171   9.876  1.2656 -0.6842  3.0787
 8150SOL     OW35908   2.184   3.606  12.640 -0.1587  0.2095  0.2949
 8150SOL    HW135909   2.233   3.553  12.578  0.6431  2.9715 -1.4040
 8150SOL    HW235910   2.141   3.674  12.588 -0.0209  1.0966  1.3313
 8151SOL     OW35911   1.714   1.378   2.484  0.3352  0.3222  0.2814
 8151SOL    HW135912   1.803   1.350   2.505  0.2821 -1.1307 -1.4522
 8151SOL    HW235913   1.710   1.459   2.535  0.5717 -0.1282  1.0220
 8152SOL     OW35914   2.799   4.389   5.938 -0.5266 -0.2701 -0.0000
 8152SOL    HW135915   2.803   4.295   5.956  0.3460 -0.1448  0.4740
 8152SOL    HW235916   2.797   4.414   6.031 -1.8390  1.2141 -0.4297
 8153SOL     OW35917   3.024   0.425  16.983 -0.3404  0.0327  0.7670
 8153SOL    HW135918   2.948   0.480  17.004 -0.9707  0.0558 -1.5175
 8153SOL    HW235919   3.097   0.461  17.033  2.4475 -2.4610 -1.5228
 8154SOL     OW35920   2.357   3.488   4.174 -0.2055  0.1281  0.0769
 8154SOL    HW135921   2.432   3.491   4.115 -0.4900  2.5657 -0.1518
 8154SOL    HW235922   2.401   3.471   4.258  0.2351  2.1006  0.2400
 8155SOL     OW35923   2.642   4.533   7.344 -0.3229 -0.0925  0.2255
 8155SOL    HW135924   2.652   4.455   7.399  2.3201  0.8323  1.0452
 8155SOL    HW235925   2.557   4.568   7.372  0.9094  0.7264  2.9439
 8156SOL     OW35926   1.454   0.196   8.563  0.0580  0.4416 -0.0643
 8156SOL    HW135927   1.486   0.127   8.621  1.3339  0.8559 -0.2828
 8156SOL    HW235928   1.505   0.269   8.596  2.1609 -1.6391  1.2866
 8157SOL     OW35929   1.791   0.807  11.532  0.1917  0.2750 -0.2505
 8157SOL    HW135930   1.738   0.760  11.467 -1.3691 -0.1554  1.3031
 8157SOL    HW235931   1.876   0.779  11.499  0.4597 -0.3845  0.9874
 8158SOL     OW35932   2.105   0.849   8.295 -0.2920  0.4697  0.6350
 8158SOL    HW135933   2.159   0.771   8.292 -1.8169 -0.5893  0.4789
 8158SOL    HW235934   2.079   0.859   8.387 -1.8010 -0.6407  0.3403
 8159SOL     OW35935   3.437   4.053   6.105 -0.1182 -0.0590 -0.1989
 8159SOL    HW135936   3.358   4.003   6.086  0.9231 -2.5367  1.8970
 8159SOL    HW235937   3.411   4.144   6.092  1.8500  0.6980  1.1352
 8160SOL     OW35938   3.974   0.942   6.883  0.1530  0.2871 -0.3516
 8160SOL    HW135939   4.038   0.977   6.945  0.0297  1.7017 -1.0170
 8160SOL    HW235940   3.896   0.937   6.938  0.8051  0.4908  0.5829
 8161SOL     OW35941   3.018   3.652   2.609 -0.7414  0.1798  0.3011
 8161SOL    HW135942   2.988   3.668   2.699  0.3346  0.2200  0.6442
 8161SOL    HW235943   3.081   3.581   2.615  1.5506  2.1301 -0.8129
 8162SOL     OW35944   3.848   2.478   6.498  0.4427 -0.1131  0.0813
 8162SOL    HW135945   3.807   2.391   6.498 -0.6787  0.4168  0.4872
 8162SOL    HW235946   3.940   2.457   6.512  0.1864  0.1508  2.2175
 8163SOL     OW35947   0.573   0.535   9.901 -0.0235 -0.3732 -0.2276
 8163SOL    HW135948   0.494   0.552   9.850 -0.3653 -1.0917  0.0588
 8163SOL    HW235949   0.569   0.441   9.884 -0.4629 -0.3246 -0.3867
 8164SOL     OW35950   2.102   0.622   5.165 -0.5886 -0.3159 -0.1774
 8164SOL    HW135951   2.099   0.712   5.197 -0.4748 -0.5076  0.3685
 8164SOL    HW235952   2.195   0.610   5.146 -0.3248 -0.5650  1.2724
 8165SOL     OW35953   3.088   3.481   8.298 -0.0554  0.2720 -0.3335
 8165SOL    HW135954   2.995   3.467   8.279 -0.1230  0.2290  0.0339
 8165SOL    HW235955   3.119   3.509   8.212  0.8010 -1.2855 -0.5340
 8166SOL     OW35956   1.318   3.639   4.125 -0.7582 -0.6688 -0.3755
 8166SOL    HW135957   1.297   3.549   4.151  0.5046 -0.9935 -0.5071
 8166SOL    HW235958   1.351   3.621   4.037 -0.8057  0.4840 -0.6271
 8167SOL     OW35959   3.816   0.593   5.263  0.6679  0.6985 -0.1005
 8167SOL    HW135960   3.826   0.568   5.355  1.3322  2.7335  0.3741
 8167SOL    HW235961   3.846   0.516   5.214 -0.1245 -0.3021  1.0044
 8168SOL     OW35962   3.360   0.986   5.579 -0.0256  0.2402  0.5985
 8168SOL    HW135963   3.352   0.894   5.603  1.6067  0.6143  2.5704
 8168SOL    HW235964   3.272   1.006   5.547 -0.3201  0.3286  1.4691
 8169SOL     OW35965   1.616   0.950   3.391  0.0096 -0.4549  0.2588
 8169SOL    HW135966   1.558   1.021   3.418 -0.2337 -0.5820  0.0718
 8169SOL    HW235967   1.629   0.960   3.296  0.7222  1.5201  0.5571
 8170SOL     OW35968   2.763   4.251   4.421  0.0733  1.0256  0.0640
 8170SOL    HW135969   2.784   4.159   4.433  1.0326  1.0271 -1.6310
 8170SOL    HW235970   2.844   4.285   4.383  2.0113 -2.6797  0.9209
 8171SOL     OW35971   4.632   1.669   6.513  0.1050  0.2965  0.0664
 8171SOL    HW135972   4.606   1.728   6.584  2.0995  0.6033  0.5429
 8171SOL    HW235973   4.587   1.717   6.443 -1.4378 -0.4534  0.5677
 8172SOL     OW35974   0.454   4.287   2.442  0.1885  0.1936  0.1287
 8172SOL    HW135975   0.462   4.314   2.534 -2.8244  1.9294 -0.1056
 8172SOL    HW235976   0.360   4.272   2.430  0.1316  1.7253 -1.3686
 8173SOL     OW35977   1.224   4.364  10.315  0.3764 -0.0841 -0.1640
 8173SOL    HW135978   1.145   4.415  10.294 -0.8700 -1.2014  1.8885
 8173SOL    HW235979   1.196   4.275  10.334  0.3432 -0.6201 -2.6905
 8174SOL     OW35980   0.230   3.960   8.706 -0.3541  0.4774 -0.2435
 8174SOL    HW135981   0.220   3.915   8.623  0.1184 -0.7440  0.3551
 8174SOL    HW235982   0.154   3.930   8.757  0.8043 -0.9249  0.7008
 8175SOL     OW35983   0.711   0.278  11.684  0.5063 -0.3522 -0.2357
 8175SOL    HW135984   0.665   0.293  11.766  2.9702 -0.5891  1.1887
 8175SOL    HW235985   0.754   0.195  11.702  0.3844 -0.2754  0.4267
 8176SOL     OW35986   0.857   0.406   0.605 -0.2536  0.3764 -0.4368
 8176SOL    HW135987   0.808   0.487   0.617  0.1589  0.5498  0.0643
 8176SOL    HW235988   0.877   0.409   0.511 -1.6962 -1.8185 -0.8059
 8177SOL     OW35989   3.196   4.694  13.777 -0.1349  0.3244  0.2369
 8177SOL    HW135990   3.161   4.642  13.705  2.8387 -0.4516 -0.6404
 8177SOL    HW235991   3.178   4.641  13.854  0.5324 -1.9577 -1.1892
 8178SOL     OW35992   1.715   4.285   9.381  0.0240 -0.0124 -0.1762
 8178SOL    HW135993   1.710   4.335   9.300 -3.1157  0.9087  0.5568
 8178SOL    HW235994   1.661   4.209   9.358  0.0166 -0.0741  0.0396
 8179SOL     OW35995   0.410   4.228  16.729  0.1827 -0.1144 -0.1251
 8179SOL    HW135996   0.455   4.185  16.802  2.6169  0.8747 -1.0641
 8179SOL    HW235997   0.412   4.159  16.663 -1.9455  0.7390 -1.0785
 8180SOL     OW35998   2.029   3.336  12.847  0.6060 -0.2264  0.3301
 8180SOL    HW135999   1.951   3.296  12.808  1.0645 -0.9147  0.1232
 8180SOL    HW236000   2.004   3.360  12.936  1.7084 -0.7777  0.7857
 8181SOL     OW36001   2.428   1.384   7.526  0.2137 -0.4201  0.3957
 8181SOL    HW136002   2.456   1.473   7.501 -2.1220 -0.1256 -1.1244
 8181SOL    HW236003   2.334   1.385   7.509  0.7038  1.0053 -2.4070
 8182SOL     OW36004   2.007   1.502   7.811  0.1113  0.3097  0.1934
 8182SOL    HW136005   1.994   1.475   7.902 -1.3504  2.7428  0.7036
 8182SOL    HW236006   2.086   1.449   7.795  0.1469  0.7963 -1.2391
 8183SOL     OW36007   3.102   0.194  13.894 -0.8745 -0.2361 -0.1864
 8183SOL    HW136008   3.092   0.224  13.804  0.4239  1.2303  0.1426
 8183SOL    HW236009   3.138   0.110  13.866 -1.7839 -0.9188  0.7393
 8184SOL     OW36010   3.956   1.290   6.472 -0.2970 -0.0631 -0.1201
 8184SOL    HW136011   3.893   1.362   6.478 -1.4375 -1.0656 -0.0473
 8184SOL    HW236012   3.909   1.217   6.514  0.3400  0.0475  0.7942
 8185SOL     OW36013   3.519   3.608   8.364 -0.5903 -0.4139 -0.2210
 8185SOL    HW136014   3.576   3.681   8.387 -0.6569 -0.2600 -0.5346
 8185SOL    HW236015   3.456   3.646   8.302 -1.0101 -2.1497 -0.8640
 8186SOL     OW36016   0.227   0.254   8.272  0.2727  0.5093  0.3144
 8186SOL    HW136017   0.139   0.222   8.293 -0.4101  0.2933 -2.9258
 8186SOL    HW236018   0.224   0.220   8.183  2.1399 -0.6841  0.7113
 8187SOL     OW36019   0.542   0.823   8.452  0.1838 -0.8125 -0.5586
 8187SOL    HW136020   0.513   0.735   8.476  0.0123 -0.6990 -0.3489
 8187SOL    HW236021   0.607   0.797   8.388 -0.7424  0.7688 -2.1412
 8188SOL     OW36022   2.996   3.541   6.215  0.5653 -0.2873  0.1158
 8188SOL    HW136023   3.044   3.470   6.257 -0.9890 -0.8705  0.9285
 8188SOL    HW236024   2.926   3.496   6.166 -0.0710 -0.1438  0.8883
 8189SOL     OW36025   0.686   0.096   4.061 -0.0332  0.2615  0.1770
 8189SOL    HW136026   0.718   0.030   4.001 -0.5118 -1.0936  1.4218
 8189SOL    HW236027   0.653   0.040   4.131 -1.2143 -0.0564 -0.6253
 8190SOL     OW36028   0.642   3.670   4.450  0.8994 -0.2090 -0.1005
 8190SOL    HW136029   0.707   3.642   4.514  0.1347 -0.6121  0.5019
 8190SOL    HW236030   0.669   3.762   4.452 -0.8507  0.3323 -0.8845
 8191SOL     OW36031   1.714   1.526   6.117  0.2495  0.3126 -0.4187
 8191SOL    HW136032   1.723   1.535   6.212 -2.8138 -4.0850  0.3007
 8191SOL    HW236033   1.714   1.432   6.099 -0.3998 -0.3055  2.7583
 8192SOL     OW36034   3.168   3.471   5.233  0.2202 -0.1910  0.0365
 8192SOL    HW136035   3.182   3.478   5.138 -0.2993  0.3911  0.0014
 8192SOL    HW236036   3.203   3.553   5.268 -0.9546  0.8323 -1.1776
 8193SOL     OW36037   4.624   0.680   4.700  0.2490  0.1584  0.1979
 8193SOL    HW136038   4.668   0.765   4.697  1.1944 -0.2949  1.1291
 8193SOL    HW236039   4.549   0.689   4.760 -0.5905 -0.1256 -0.8049
 8194SOL     OW36040   4.423   3.578   5.501  0.3428  0.0895  0.0697
 8194SOL    HW136041   4.349   3.542   5.549  0.0579 -1.9734 -1.9082
 8194SOL    HW236042   4.390   3.576   5.411  0.5288  0.9157 -0.0171
 8195SOL     OW36043   0.321   0.830  10.539 -0.1724 -0.0214  0.4770
 8195SOL    HW136044   0.322   0.912  10.490  1.5233 -1.7828 -2.4365
 8195SOL    HW236045   0.230   0.807  10.523  0.1113 -0.5211 -0.4274
 8196SOL     OW36046   1.441   1.362  12.037 -0.4243  0.5989 -0.0399
 8196SOL    HW136047   1.391   1.283  12.014 -0.7912  0.8581 -0.1305
 8196SOL    HW236048   1.374   1.408  12.087 -0.0875  0.2638  0.7153
 8197SOL     OW36049   1.401   0.346   7.651  0.0245 -0.4513  0.1801
 8197SOL    HW136050   1.308   0.343   7.673  0.0352  1.0463  0.4571
 8197SOL    HW236051   1.390   0.358   7.556 -1.6834  2.8992  0.8048
 8198SOL     OW36052   1.168   4.113   4.145  0.0631 -0.0811 -0.6416
 8198SOL    HW136053   1.202   4.027   4.123  3.1288  0.6776  1.0957
 8198SOL    HW236054   1.082   4.117   4.104 -1.3933 -0.8347  2.3171
 8199SOL     OW36055   0.227   2.995   2.237 -0.3312 -0.0032 -0.3426
 8199SOL    HW136056   0.219   2.905   2.204  2.3765 -0.2781 -0.2266
 8199SOL    HW236057   0.321   2.989   2.222 -0.3002  0.7509 -0.4615
 8200SOL     OW36058   4.621   2.856   5.581  0.1523 -0.1670  0.3025
 8200SOL    HW136059   4.636   2.792   5.511  0.5215  1.5574 -1.1912
 8200SOL    HW236060   4.623   2.801   5.659  0.1809  0.3008  0.6301
 8201SOL     OW36061   1.933   3.112   4.630  0.0663 -0.0132 -0.0997
 8201SOL    HW136062   1.862   3.167   4.663  1.9608  1.2839  1.8579
 8201SOL    HW236063   1.986   3.102   4.710  0.1914 -0.1495 -0.2000
 8202SOL     OW36064   2.263   2.798  12.233  0.1702  0.2672 -0.3871
 8202SOL    HW136065   2.256   2.726  12.170 -3.2786  2.2876 -2.2958
 8202SOL    HW236066   2.347   2.838  12.211  0.8197 -0.8088  0.1755
 8203SOL     OW36067   2.887   0.858   3.789 -0.1521 -0.0195 -0.7402
 8203SOL    HW136068   2.933   0.940   3.805 -2.4176  0.9797  0.6564
 8203SOL    HW236069   2.861   0.861   3.696 -0.7733  2.0039 -0.4926
 8204SOL     OW36070   3.141   0.586   0.069 -0.1131  0.1324  0.0780
 8204SOL    HW136071   3.088   0.541   0.136  1.1901  0.7630  1.5425
 8204SOL    HW236072   3.227   0.551   0.093 -0.7320 -2.8711 -1.9926
 8205SOL     OW36073   1.701   2.077   6.350  0.4937  0.2922  0.2733
 8205SOL    HW136074   1.606   2.066   6.358  0.7446 -1.4939  0.7663
 8205SOL    HW236075   1.732   2.014   6.285 -3.2816 -1.0929 -0.2022
 8206SOL     OW36076   2.850   1.285  17.317 -0.2761  0.0374  0.1407
 8206SOL    HW136077   2.915   1.215  17.321 -0.1768  0.1980  1.1819
 8206SOL    HW236078   2.778   1.227  17.291 -0.1048 -0.0266 -0.1963
 8207SOL     OW36079   4.197   3.499   9.455  0.1881 -0.4863  0.0666
 8207SOL    HW136080   4.121   3.472   9.506  0.0816 -1.9028 -0.8251
 8207SOL    HW236081   4.148   3.535   9.381 -1.7712 -0.6370  1.2824
 8208SOL     OW36082   0.594   0.728   8.774  0.1714  0.0277 -0.2888
 8208SOL    HW136083   0.509   0.696   8.745 -0.4982 -0.4497  2.1491
 8208SOL    HW236084   0.595   0.691   8.863 -0.7782  0.8919  0.0864
 8209SOL     OW36085   0.449   3.974   8.906  0.6578  0.3729  0.0630
 8209SOL    HW136086   0.409   3.988   8.820 -1.2032  0.5062  0.9451
 8209SOL    HW236087   0.442   3.879   8.916 -0.5041  0.5724  1.3179
 8210SOL     OW36088   2.230   2.631   6.760 -0.5128 -0.3258 -0.6128
 8210SOL    HW136089   2.139   2.628   6.789 -0.1703  0.9789  0.5705
 8210SOL    HW236090   2.232   2.699   6.692 -0.1441  2.5755  2.3029
 8211SOL     OW36091   3.566   2.237  16.451  0.1193  0.4542  0.3925
 8211SOL    HW136092   3.502   2.194  16.394  0.5089  0.0777  0.2364
 8211SOL    HW236093   3.639   2.225  16.391 -1.3471  0.4525 -1.4192
 8212SOL     OW36094   2.047   3.344   1.054 -0.4383 -0.2790  0.2265
 8212SOL    HW136095   2.132   3.332   1.097 -0.6769 -1.2774  0.4120
 8212SOL    HW236096   2.039   3.262   1.005  1.7235 -0.2034 -0.2562
 8213SOL     OW36097   1.696   4.004   6.819 -0.1808 -0.1150  0.2097
 8213SOL    HW136098   1.667   4.025   6.730  0.4798 -2.5107 -0.5823
 8213SOL    HW236099   1.741   3.921   6.804  1.2163  0.6049  0.4811
 8214SOL     OW36100   0.957   0.064   6.281  0.1975 -0.2034 -0.1776
 8214SOL    HW136101   0.995   0.129   6.340  1.2028  1.6837 -2.8345
 8214SOL    HW236102   1.025   0.072   6.214  1.3337  0.0699  1.0058
 8215SOL     OW36103   2.847   2.337   2.916  0.4330 -0.0330  0.1299
 8215SOL    HW136104   2.933   2.301   2.940 -0.1058 -1.6202 -0.3255
 8215SOL    HW236105   2.879   2.382   2.838  0.4285  0.3184  0.3282
 8216SOL     OW36106   0.305   0.555  13.615 -0.5088 -0.4937  0.3958
 8216SOL    HW136107   0.396   0.581  13.606 -0.8216  0.9173  1.2689
 8216SOL    HW236108   0.297   0.542  13.710  1.0960 -0.8250  0.4776
 8217SOL     OW36109   3.569   4.165   9.115 -0.2807  0.0853  0.6354
 8217SOL    HW136110   3.618   4.164   9.197 -3.4212  2.2769  2.5474
 8217SOL    HW236111   3.487   4.195   9.154 -1.2561  0.2898 -1.5288
 8218SOL     OW36112   2.568   1.519  14.697 -0.5253  0.5956 -0.1668
 8218SOL    HW136113   2.585   1.498  14.789 -0.2315 -1.4143 -0.6674
 8218SOL    HW236114   2.628   1.594  14.688  0.1269  0.2240  1.0422
 8219SOL     OW36115   0.515   4.511   8.056 -0.6365  0.0287 -0.1291
 8219SOL    HW136116   0.597   4.470   8.030 -0.4293 -1.6236  3.1746
 8219SOL    HW236117   0.540   4.592   8.100 -0.7160  0.0874 -0.1902
 8220SOL     OW36118   2.720   1.117   5.030 -0.4968 -0.8808 -0.1438
 8220SOL    HW136119   2.726   1.077   4.943 -3.7277  3.4026 -2.3179
 8220SOL    HW236120   2.711   1.207   4.999  1.0701 -0.2944  1.0873
 8221SOL     OW36121   2.301   1.023   3.255 -0.1674 -0.5850  0.3910
 8221SOL    HW136122   2.385   1.065   3.237  0.0708 -2.3361 -2.5644
 8221SOL    HW236123   2.256   1.103   3.280  1.3656 -0.1000  1.5953
 8222SOL     OW36124   2.835   3.940   7.829  0.0390  0.4878  0.2837
 8222SOL    HW136125   2.818   3.893   7.911  0.3387 -0.1742 -0.0345
 8222SOL    HW236126   2.837   3.872   7.761 -0.9603 -1.4050  2.1598
 8223SOL     OW36127   0.782   2.917   3.011 -0.1663 -0.2333 -0.1661
 8223SOL    HW136128   0.780   2.867   2.929  2.7502 -1.3653  0.4418
 8223SOL    HW236129   0.721   2.986   2.987  1.5712  0.9871 -1.0508
 8224SOL     OW36130   1.748   0.232  12.400 -0.1110 -0.3136  0.0822
 8224SOL    HW136131   1.753   0.164  12.332 -2.1931  1.8883 -2.2937
 8224SOL    HW236132   1.819   0.288  12.367 -0.6859  1.1137  1.2590
 8225SOL     OW36133   4.385   3.457   3.812 -0.1630  0.0999  0.1920
 8225SOL    HW136134   4.367   3.541   3.769  0.1410  1.1823  2.1945
 8225SOL    HW236135   4.375   3.473   3.906  1.5356  0.9840  0.2144
 8226SOL     OW36136   2.354   4.471  13.275 -0.2129  0.2274  0.2473
 8226SOL    HW136137   2.277   4.462  13.330  1.2106 -1.2590  1.9946
 8226SOL    HW236138   2.309   4.465  13.191 -0.6502 -0.8962  0.5646
 8227SOL     OW36139   3.411   3.081   4.016  0.6502  0.1632  0.1400
 8227SOL    HW136140   3.370   2.996   4.028  2.5644 -0.9869 -1.5312
 8227SOL    HW236141   3.354   3.108   3.944 -0.3130 -1.8859  0.1471
 8228SOL     OW36142   2.204   2.363   2.463 -0.5380  0.0748 -0.1603
 8228SOL    HW136143   2.267   2.419   2.509 -0.0445  0.0832 -0.8445
 8228SOL    HW236144   2.246   2.277   2.469 -0.9124  0.0176  1.7774
 8229SOL     OW36145   4.251   2.550   7.503 -0.3506  0.2971  0.6013
 8229SOL    HW136146   4.333   2.526   7.548  0.0035  1.0107  0.3468
 8229SOL    HW236147   4.259   2.502   7.421 -2.1286 -0.0764  0.6460
 8230SOL     OW36148   0.544   4.721   2.548 -0.0339  0.0202  0.4627
 8230SOL    HW136149   0.466   4.666   2.550 -0.8821  1.2028  0.4218
 8230SOL    HW236150   0.568   4.720   2.455 -1.1167 -2.1610  0.2023
 8231SOL     OW36151   4.712   1.615   2.274  0.1663 -0.3534  0.9062
 8231SOL    HW136152   4.618   1.635   2.279  0.1979 -0.3177  1.3874
 8231SOL    HW236153   4.715   1.600   2.179 -1.7059  4.9395  0.0086
 8232SOL     OW36154   4.298   2.309   1.957 -0.2805  0.4643  0.6026
 8232SOL    HW136155   4.284   2.218   1.929  1.6404  0.4383 -0.2345
 8232SOL    HW236156   4.344   2.304   2.041  0.3541 -3.6394  0.0132
 8233SOL     OW36157   1.150   1.055   8.214 -0.0670 -0.3338  0.8702
 8233SOL    HW136158   1.131   1.025   8.302  0.1102  0.1724  1.0851
 8233SOL    HW236159   1.169   1.149   8.223 -2.3336 -0.0124  2.3212
 8234SOL     OW36160   1.561   2.517  12.786  0.0486  0.4460  0.1764
 8234SOL    HW136161   1.628   2.451  12.808  0.9227  0.9621 -0.9162
 8234SOL    HW236162   1.519   2.476  12.710 -0.7223  3.9094 -1.2747
 8235SOL     OW36163   4.555   1.296   1.350 -0.5819  0.0274 -0.2961
 8235SOL    HW136164   4.548   1.296   1.446 -0.7249 -0.1833 -0.3065
 8235SOL    HW236165   4.629   1.355   1.333 -0.5388  0.0306 -0.1080
 8236SOL     OW36166   0.047   0.360   2.150  0.3393  0.2460 -0.5220
 8236SOL    HW136167   0.134   0.346   2.187  1.1899  0.5656 -2.3824
 8236SOL    HW236168   0.014   0.427   2.210  2.3633  0.7298  0.0388
 8237SOL     OW36169   0.542   4.410   0.811  0.5622 -0.1424 -0.2740
 8237SOL    HW136170   0.480   4.434   0.880 -1.7647 -0.3878 -2.3154
 8237SOL    HW236171   0.605   4.483   0.813  0.5697 -0.1723  0.8708
 8238SOL     OW36172   3.954   4.462   3.418  0.1938 -0.7214 -0.0740
 8238SOL    HW136173   3.913   4.388   3.372 -2.2032  0.2561  0.4903
 8238SOL    HW236174   3.928   4.445   3.509  1.8618 -2.1957  0.1448
 8239SOL     OW36175   4.563   1.754   8.151 -0.1525  0.4983 -0.1955
 8239SOL    HW136176   4.659   1.747   8.146 -0.2028  0.1498 -0.7103
 8239SOL    HW236177   4.553   1.840   8.191  0.5979 -0.3693  1.8436
 8240SOL     OW36178   4.572   4.594   7.114 -0.1089  0.4493  0.0655
 8240SOL    HW136179   4.541   4.668   7.167 -2.5823  0.5228 -1.4476
 8240SOL    HW236180   4.511   4.603   7.040  1.1478 -0.7900 -1.1126
 8241SOL     OW36181   2.454   4.327  12.778 -0.5379  0.3682  0.1422
 8241SOL    HW136182   2.363   4.324  12.808 -0.3841 -2.0090  0.3691
 8241SOL    HW236183   2.444   4.399  12.717  1.9201  0.5728 -0.0220
 8242SOL     OW36184   3.273   1.546   2.985 -0.1548  0.0066  0.3212
 8242SOL    HW136185   3.225   1.540   3.068 -0.3860  1.0424  0.2629
 8242SOL    HW236186   3.327   1.468   2.995 -1.6730 -1.1174 -0.2629
 8243SOL     OW36187   1.014   2.763   7.652 -0.1390 -0.3406 -0.5559
 8243SOL    HW136188   0.981   2.710   7.580  0.7930  0.0831 -1.2965
 8243SOL    HW236189   0.976   2.851   7.641 -0.0234 -0.1180  0.8285
 8244SOL     OW36190   4.185   4.169   4.358  0.1267  0.0558 -0.1327
 8244SOL    HW136191   4.189   4.261   4.334 -1.5236  0.4934  1.2557
 8244SOL    HW236192   4.091   4.151   4.365 -0.0093  1.1851  1.0194
 8245SOL     OW36193   0.260   0.435   8.563 -0.0998  0.1114  0.0634
 8245SOL    HW136194   0.220   0.469   8.484 -1.1881  1.2302  1.1132
 8245SOL    HW236195   0.317   0.369   8.523 -1.1123  0.0902 -1.3218
 8246SOL     OW36196   1.340   0.726  14.693  0.5337  0.5892 -0.8359
 8246SOL    HW136197   1.432   0.750  14.689  1.1012 -1.3246  0.7608
 8246SOL    HW236198   1.322   0.758  14.781  0.3607 -0.5467 -0.4525
 8247SOL     OW36199   4.388   2.814  12.582  0.3695 -0.7387 -0.1354
 8247SOL    HW136200   4.301   2.773  12.580 -0.1846  0.2573  3.3219
 8247SOL    HW236201   4.440   2.748  12.537 -0.4320 -1.9246  0.6788
 8248SOL     OW36202   1.219   1.064   2.402  0.5360 -0.0562 -0.4880
 8248SOL    HW136203   1.138   1.108   2.375  0.9868  1.4913  0.6434
 8248SOL    HW236204   1.275   1.137   2.430 -0.8695  1.4596 -1.6221
 8249SOL     OW36205   1.492   4.212  17.524  0.5296  0.3297  0.0366
 8249SOL    HW136206   1.460   4.164  17.601 -0.6671  0.2873 -0.4895
 8249SOL    HW236207   1.572   4.257  17.553 -0.4387  0.1917  2.9049
 8250SOL     OW36208   2.661   0.027  15.038  0.4096 -0.4325  0.3707
 8250SOL    HW136209   2.601   0.064  15.102  0.3186 -3.3818  2.0121
 8250SOL    HW236210   2.684   0.104  14.986 -0.2278 -2.5313 -3.0425
 8251SOL     OW36211   2.377   2.018  14.159  0.2983 -0.1381 -0.3159
 8251SOL    HW136212   2.399   2.072  14.235 -0.3527  0.6893 -0.7099
 8251SOL    HW236213   2.378   1.934  14.204  2.5941 -0.2762 -0.6073
 8252SOL     OW36214   1.109   3.134   6.955  0.1372 -0.0108  0.0594
 8252SOL    HW136215   1.186   3.147   6.899 -0.3300 -3.0230 -1.2892
 8252SOL    HW236216   1.100   3.222   6.989 -1.2389 -0.1291 -0.0065
 8253SOL     OW36217   1.178   0.883   7.736 -0.0803  0.3232 -0.0973
 8253SOL    HW136218   1.205   0.949   7.800  0.8631 -0.0227 -0.1351
 8253SOL    HW236219   1.236   0.811   7.762  1.4404  1.9681  1.1202
 8254SOL     OW36220   4.509   1.786  17.112  0.1917  0.1097 -0.3458
 8254SOL    HW136221   4.517   1.726  17.038  1.7233  0.3124 -0.3367
 8254SOL    HW236222   4.417   1.777  17.134  0.8196 -1.1252  1.7059
 8255SOL     OW36223   1.035   2.450   5.463 -0.0422 -0.8056 -0.1657
 8255SOL    HW136224   1.129   2.437   5.475 -0.1005 -1.6672 -0.6646
 8255SOL    HW236225   1.035   2.526   5.405  2.3816  0.2426  1.2146
 8256SOL     OW36226   0.001   0.830   9.802  0.1123  0.2747  0.0036
 8256SOL    HW136227   4.652   0.780   9.833 -1.0388  0.7627 -2.0382
 8256SOL    HW236228   4.697   0.854   9.715 -0.2957 -1.2240 -0.2598
 8257SOL     OW36229   1.490   2.044   3.749 -0.4029  0.0701  0.2621
 8257SOL    HW136230   1.430   1.969   3.744  0.4244 -0.5312 -0.5639
 8257SOL    HW236231   1.576   2.010   3.772 -0.0876  1.9647  1.9480
 8258SOL     OW36232   2.226   1.711  12.682 -0.5198 -0.0090 -0.0247
 8258SOL    HW136233   2.131   1.719  12.685 -0.4211  1.0885 -0.0646
 8258SOL    HW236234   2.239   1.787  12.626 -1.2866  0.6104  0.6336
 8259SOL     OW36235   3.505   3.907   6.914  0.4060 -0.0406  0.2005
 8259SOL    HW136236   3.421   3.872   6.944  0.8779 -1.5134 -0.2191
 8259SOL    HW236237   3.481   3.941   6.828 -3.1794 -1.9910  0.4154
 8260SOL     OW36238   1.768   4.663   9.002  0.4738 -0.3486 -0.0605
 8260SOL    HW136239   1.835   4.638   8.938 -0.8058  0.1565 -1.6016
 8260SOL    HW236240   1.706   4.592   8.986  1.9833 -1.8456  0.6853
 8261SOL     OW36241   1.857   3.000   2.657 -0.3896 -0.2010 -0.2005
 8261SOL    HW136242   1.850   2.914   2.698  2.3219 -0.4177 -0.1711
 8261SOL    HW236243   1.946   2.988   2.624 -0.1308  1.4476 -0.1434
 8262SOL     OW36244   1.086   3.820   4.337 -0.3358 -0.5366 -0.5976
 8262SOL    HW136245   1.063   3.736   4.376 -1.5445 -1.2580 -2.9126
 8262SOL    HW236246   1.181   3.815   4.347 -0.3024  0.9113 -0.2031
 8263SOL     OW36247   3.276   2.277   3.838  0.0107  0.4582  0.2933
 8263SOL    HW136248   3.283   2.233   3.922  0.5238  0.3022  0.1660
 8263SOL    HW236249   3.244   2.364   3.862 -0.5755  0.0950  0.8430
 8264SOL     OW36250   1.955   2.694   9.042 -0.4640  0.2076  0.4042
 8264SOL    HW136251   1.891   2.628   9.067  1.5546 -1.5080  1.0233
 8264SOL    HW236252   2.002   2.709   9.123  1.3344 -2.5502 -0.1194
 8265SOL     OW36253   2.081   0.187   2.638 -0.3038 -0.1861 -0.6488
 8265SOL    HW136254   2.129   0.192   2.720  0.2456 -2.5095 -0.8301
 8265SOL    HW236255   2.004   0.237   2.665 -1.5241 -1.9049 -0.9538
 8266SOL     OW36256   3.530   0.004   5.766 -0.1100 -0.8942 -0.1386
 8266SOL    HW136257   3.582   4.724   5.686  2.0813 -2.0509  1.3799
 8266SOL    HW236258   3.549   0.095   5.788 -0.0441 -0.3870 -2.2449
 8267SOL     OW36259   1.641   1.140  10.073 -0.5172 -0.2463 -0.0771
 8267SOL    HW136260   1.646   1.171   9.983  1.3328  1.2665  0.5423
 8267SOL    HW236261   1.723   1.092  10.071  0.7818  1.7900  2.8341
 8268SOL     OW36262   4.424   4.184   6.675  0.1090 -0.6208 -0.0827
 8268SOL    HW136263   4.355   4.160   6.736  0.4336  1.8330  1.2153
 8268SOL    HW236264   4.498   4.183   6.736 -0.1364 -0.0981  0.2190
 8269SOL     OW36265   1.618   3.766   6.020 -0.0455 -0.1063  0.7464
 8269SOL    HW136266   1.627   3.861   6.012  0.2886 -0.1738  0.3396
 8269SOL    HW236267   1.664   3.732   5.943  2.3212 -0.9034  2.5307
 8270SOL     OW36268   3.280   3.549   6.464  0.4001  0.7074  0.2637
 8270SOL    HW136269   3.309   3.624   6.515  0.2022  1.0464 -0.1197
 8270SOL    HW236270   3.186   3.561   6.479  0.3099 -1.3021  1.2325
 8271SOL     OW36271   3.463   3.862   6.397  0.1544  0.0134  0.3093
 8271SOL    HW136272   3.369   3.879   6.403  0.0872 -1.0973  2.3465
 8271SOL    HW236273   3.504   3.928   6.453  0.7736  0.6521 -0.8937
 8272SOL     OW36274   3.856   2.273   3.614  0.0580 -0.5397 -0.7566
 8272SOL    HW136275   3.837   2.321   3.534 -0.3657 -0.6366 -0.7102
 8272SOL    HW236276   3.911   2.205   3.575  0.5023 -0.8929  0.4785
 8273SOL     OW36277   0.642   3.286   7.165  0.4059  0.5663  0.3833
 8273SOL    HW136278   0.679   3.335   7.239  0.8909 -0.5476  0.8792
 8273SOL    HW236279   0.570   3.337   7.129  0.3912 -0.5651 -1.2010
 8274SOL     OW36280   4.038   2.596   4.671  0.2527 -0.2929 -0.1132
 8274SOL    HW136281   4.115   2.653   4.680  0.4607 -0.6750  0.5929
 8274SOL    HW236282   4.044   2.575   4.578  0.7444 -0.3318 -0.0727
 8275SOL     OW36283   4.051   1.575   6.756  0.4098 -0.1656  0.1519
 8275SOL    HW136284   4.084   1.490   6.782  1.3889  0.1112 -0.1907
 8275SOL    HW236285   3.965   1.571   6.799  1.1792  2.4873  1.9724
 8276SOL     OW36286   1.095   4.425   6.704  0.4815 -0.0851 -0.1672
 8276SOL    HW136287   1.181   4.423   6.663  1.2391 -1.6160  1.4958
 8276SOL    HW236288   1.117   4.410   6.796 -1.4350  1.5233  0.5448
 8277SOL     OW36289   1.347   3.367  14.699 -0.2781 -0.6638  0.1793
 8277SOL    HW136290   1.322   3.360  14.607 -3.4887  0.1165  0.9666
 8277SOL    HW236291   1.320   3.284  14.737 -1.2810 -1.0949 -1.4473
 8278SOL     OW36292   3.413   3.456   8.978  0.0365  0.0575 -0.3543
 8278SOL    HW136293   3.346   3.433   8.913  0.6936 -1.7691 -0.4078
 8278SOL    HW236294   3.493   3.457   8.926 -0.0910  0.2825 -0.5424
 8279SOL     OW36295   0.991   4.018  14.300 -0.1356 -0.1841 -0.0057
 8279SOL    HW136296   0.917   4.008  14.240  2.0301 -0.5970 -2.6250
 8279SOL    HW236297   0.943   4.026  14.383  1.2464  1.8971  0.6034
 8280SOL     OW36298   2.285   2.234   6.184 -0.0342 -0.8688  0.6176
 8280SOL    HW136299   2.239   2.315   6.205 -0.9943 -1.1654 -0.3622
 8280SOL    HW236300   2.254   2.222   6.094 -1.8612 -1.3857  1.3268
 8281SOL     OW36301   3.343   0.963   5.924  0.2736 -0.4018  0.0251
 8281SOL    HW136302   3.270   0.927   5.975 -1.0889 -0.3530 -1.9012
 8281SOL    HW236303   3.404   0.991   5.993  0.1571 -1.6995  0.6591
 8282SOL     OW36304   0.089   1.469   7.497 -0.1687 -0.0355 -0.2772
 8282SOL    HW136305   0.116   1.534   7.432 -1.3790  1.8738  1.1465
 8282SOL    HW236306   0.077   1.531   7.569 -0.4282 -0.0024 -0.3484
 8283SOL     OW36307   1.947   2.852  14.498  0.1919 -0.1992 -0.0420
 8283SOL    HW136308   1.864   2.809  14.479  1.0439 -0.8527 -2.2556
 8283SOL    HW236309   1.936   2.938  14.457  2.6292  0.3908  0.5429
 8284SOL     OW36310   1.178   3.495   4.858 -0.0358 -0.3005  0.6027
 8284SOL    HW136311   1.174   3.508   4.763  0.5587  0.0320  0.6195
 8284SOL    HW236312   1.223   3.578   4.876  1.0683 -0.7641 -0.0178
 8285SOL     OW36313   0.315   0.658   7.683 -0.0826 -0.1763 -0.0815
 8285SOL    HW136314   0.272   0.738   7.714  0.8144  0.4858 -0.5786
 8285SOL    HW236315   0.408   0.675   7.694 -0.1338  0.5389 -0.7866
 8286SOL     OW36316   3.404   1.217   3.454 -0.2737  0.4461  0.2706
 8286SOL    HW136317   3.409   1.312   3.458  1.1415  0.4197 -0.6358
 8286SOL    HW236318   3.355   1.205   3.372  0.4908 -0.7325 -0.0169
 8287SOL     OW36319   0.842   2.352   2.485  0.1224  0.1995 -0.5964
 8287SOL    HW136320   0.859   2.335   2.393 -1.2254 -1.0762 -0.6161
 8287SOL    HW236321   0.846   2.447   2.483 -0.6039  0.2284 -0.7951
 8288SOL     OW36322   4.409   4.399  16.134 -0.2064  0.3603 -0.2270
 8288SOL    HW136323   4.392   4.438  16.049  2.1488  0.8453 -0.4648
 8288SOL    HW236324   4.360   4.454  16.195 -0.0730  0.7467 -0.4713
 8289SOL     OW36325   2.971   0.557   1.131 -0.0770  0.4642  0.2105
 8289SOL    HW136326   3.021   0.638   1.119 -1.2667  1.5376  2.5193
 8289SOL    HW236327   3.041   0.501   1.165 -1.4192 -0.0263  2.1784
 8290SOL     OW36328   2.004   1.148  11.668 -0.4082 -0.5252 -0.4785
 8290SOL    HW136329   1.997   1.153  11.573  2.1548  1.1398 -0.5729
 8290SOL    HW236330   1.914   1.127  11.693  0.1083 -0.8606  1.0902
 8291SOL     OW36331   2.863   2.716   3.541 -0.5326  0.1170  0.9519
 8291SOL    HW136332   2.938   2.657   3.538 -0.1446  0.5745  1.9032
 8291SOL    HW236333   2.810   2.674   3.473  1.2899 -1.7202  0.6562
 8292SOL     OW36334   3.969   2.131   3.049 -0.0838  0.0472 -0.2463
 8292SOL    HW136335   3.902   2.096   2.989  0.4516 -0.4880 -0.5295
 8292SOL    HW236336   3.962   2.083   3.131  2.3878  1.3046  0.6984
 8293SOL     OW36337   0.827   4.249   7.714 -0.0710  0.6433  0.4082
 8293SOL    HW136338   0.919   4.259   7.690  0.5441  1.2454  3.0508
 8293SOL    HW236339   0.794   4.220   7.629 -0.2467  1.6257  0.1336
 8294SOL     OW36340   4.634   3.369   4.778  0.2486 -0.2283 -0.0418
 8294SOL    HW136341   4.579   3.296   4.749  0.4150 -1.7224  3.3648
 8294SOL    HW236342   4.588   3.367   4.862 -0.7632  1.1649 -0.5469
 8295SOL     OW36343   3.359   3.627  13.131  0.0848 -0.1032 -0.2488
 8295SOL    HW136344   3.376   3.539  13.164  0.0229 -0.6483 -1.6376
 8295SOL    HW236345   3.400   3.630  13.044  1.5771  1.1163  0.5034
 8296SOL     OW36346   4.084   2.821   2.488  0.6750 -0.1466  0.0275
 8296SOL    HW136347   4.123   2.907   2.474 -1.5388  0.7430 -0.7075
 8296SOL    HW236348   4.006   2.834   2.433  2.0167  1.3073 -1.5046
 8297SOL     OW36349   2.490   3.288   6.393 -0.4142  0.0569 -0.3129
 8297SOL    HW136350   2.431   3.216   6.371 -0.9397  0.4812 -0.3044
 8297SOL    HW236351   2.557   3.251   6.450 -1.5521  0.0913  1.0497
 8298SOL     OW36352   2.970   3.378   3.796 -0.2038 -0.3859  0.0128
 8298SOL    HW136353   2.985   3.451   3.735 -2.8298 -1.7139 -2.2268
 8298SOL    HW236354   3.011   3.308   3.746 -1.1315  1.1499 -2.8877
 8299SOL     OW36355   2.339   3.776   9.239  0.0257  0.1877 -0.0771
 8299SOL    HW136356   2.305   3.687   9.246 -2.3981  1.1431  0.0716
 8299SOL    HW236357   2.263   3.832   9.249  0.2473  0.2920  1.0071
 8300SOL     OW36358   4.141   2.118   4.856 -0.2103 -0.1581  0.7702
 8300SOL    HW136359   4.140   2.054   4.785  2.1273 -0.9811  1.4543
 8300SOL    HW236360   4.053   2.113   4.893 -0.7482  1.7360 -0.2446
 8301SOL     OW36361   4.152   0.475  15.256 -0.0989 -0.6500 -0.2834
 8301SOL    HW136362   4.245   0.453  15.259  0.2066  0.5492 -1.2158
 8301SOL    HW236363   4.120   0.395  15.298 -0.4491  0.1400  0.9434
 8302SOL     OW36364   4.126   2.373   3.952 -0.5524 -0.1419 -0.0308
 8302SOL    HW136365   4.221   2.365   3.944 -0.3730  0.4998  1.5444
 8302SOL    HW236366   4.104   2.321   3.875 -0.8239 -0.3554  0.1903
 8303SOL     OW36367   3.957   4.617   9.661 -0.0655  0.5608  0.4697
 8303SOL    HW136368   3.976   4.711   9.668 -0.4837  0.7608 -0.8769
 8303SOL    HW236369   3.984   4.598   9.571  1.7384  0.8740  0.9274
 8304SOL     OW36370   1.491   2.749   9.347  0.1573  0.2321 -0.4226
 8304SOL    HW136371   1.582   2.765   9.372 -0.2318 -0.2983  1.3300
 8304SOL    HW236372   1.468   2.682   9.411 -2.1709  1.5822  0.1493
 8305SOL     OW36373   0.230   2.924   8.386  0.3818  0.0289  0.2485
 8305SOL    HW136374   0.230   2.896   8.294  3.2517  0.9480 -0.0215
 8305SOL    HW236375   0.180   2.851   8.422  2.5424 -2.1564 -1.2166
 8306SOL     OW36376   1.775   1.180   7.281  0.5209 -0.3071  0.7298
 8306SOL    HW136377   1.681   1.189   7.298  0.4901 -1.1914  1.0418
 8306SOL    HW236378   1.803   1.157   7.370  0.2528  0.2078  0.9484
 8307SOL     OW36379   2.647   3.170   6.578  0.0971 -0.7239 -0.1010
 8307SOL    HW136380   2.679   3.235   6.640  0.6519 -0.1416 -1.0100
 8307SOL    HW236381   2.716   3.104   6.584  0.9965  0.4155  2.6122
 8308SOL     OW36382   0.732   3.539   8.116 -0.5677 -0.6466  0.4094
 8308SOL    HW136383   0.739   3.464   8.057 -0.7878  0.3094 -0.8392
 8308SOL    HW236384   0.761   3.608   8.056 -0.9520  0.1717  1.1569
 8309SOL     OW36385   3.828   3.781   3.276  0.1810  0.1034 -0.8973
 8309SOL    HW136386   3.846   3.733   3.195 -0.5612  0.6148 -1.3632
 8309SOL    HW236387   3.918   3.813   3.284  0.2926 -1.1975  3.2158
 8310SOL     OW36388   3.935   3.734   9.370 -0.0707  0.4206 -0.0081
 8310SOL    HW136389   3.880   3.782   9.307  0.9610  2.6421  0.7884
 8310SOL    HW236390   3.897   3.763   9.453  0.1941 -1.2471  0.6909
 8311SOL     OW36391   3.666   2.988   3.408 -0.3656 -0.1356  0.0952
 8311SOL    HW136392   3.691   3.070   3.450  1.1517 -0.1740 -0.7207
 8311SOL    HW236393   3.675   2.915   3.469  1.7576 -0.1166 -0.1928
 8312SOL     OW36394   4.138   0.335  13.302 -0.6653 -0.5556  0.4637
 8312SOL    HW136395   4.094   0.419  13.288 -0.0837 -0.2010  0.7545
 8312SOL    HW236396   4.110   0.321  13.392  0.8136 -0.8841  0.8748
 8313SOL     OW36397   4.092   2.129   3.483 -0.5002  0.0841  0.5237
 8313SOL    HW136398   4.032   2.111   3.411  0.4310  1.3503 -0.5626
 8313SOL    HW236399   4.156   2.177   3.432 -0.5045  0.5940  1.0001
 8314SOL     OW36400   3.545   3.298   1.762  0.0966  0.6662 -0.3841
 8314SOL    HW136401   3.559   3.385   1.726  1.6726  0.0517 -1.2735
 8314SOL    HW236402   3.469   3.307   1.819 -0.6343  0.8821 -1.4026
 8315SOL     OW36403   1.131   3.771   3.562 -0.1224 -0.4701 -0.1799
 8315SOL    HW136404   1.061   3.720   3.522 -0.5994 -0.6692  0.8916
 8315SOL    HW236405   1.208   3.725   3.530 -0.4252 -0.6478 -0.6583
 8316SOL     OW36406   1.324   1.268   3.133 -0.5162  0.2467 -0.1882
 8316SOL    HW136407   1.403   1.267   3.186  0.3477 -1.1863 -1.5131
 8316SOL    HW236408   1.353   1.274   3.042  0.7844 -0.2572  0.2033
 8317SOL     OW36409   3.296   4.642   2.892 -0.0460  0.8745 -0.3091
 8317SOL    HW136410   3.231   4.573   2.905  1.7876 -0.9517 -0.8717
 8317SOL    HW236411   3.364   4.602   2.946 -0.8612 -1.0213 -0.7113
 8318SOL     OW36412   4.560   1.633   0.418  0.0528  0.3522 -0.7901
 8318SOL    HW136413   4.519   1.581   0.350  0.3928  0.4228 -1.0502
 8318SOL    HW236414   4.482   1.684   0.439  1.4874  1.8309  0.9823
 8319SOL     OW36415   2.799   2.628   5.780  0.0475  0.2439 -0.0198
 8319SOL    HW136416   2.798   2.700   5.842  3.0555  2.2301 -2.2957
 8319SOL    HW236417   2.776   2.666   5.695 -0.0895 -1.7454 -0.8917
 8320SOL     OW36418   3.196   0.466   6.455 -0.0401  0.6865 -0.0212
 8320SOL    HW136419   3.103   0.481   6.439  0.3032  3.2874  0.2960
 8320SOL    HW236420   3.218   0.407   6.383  0.1741 -0.0675  0.6717
 8321SOL     OW36421   0.156   1.256   6.508 -0.0726  0.3291 -0.0240
 8321SOL    HW136422   0.249   1.277   6.499 -0.5714  1.4447 -2.6439
 8321SOL    HW236423   0.113   1.326   6.458 -0.0406 -0.4884 -1.1853
 8322SOL     OW36424   1.933   1.483   4.481 -0.4690 -0.1284 -0.3911
 8322SOL    HW136425   1.911   1.391   4.499  1.9168 -0.4591  0.7922
 8322SOL    HW236426   1.845   1.509   4.451 -0.0264  2.0474  0.1929
 8323SOL     OW36427   3.665   4.417   5.772 -0.0046  0.2149  0.3919
 8323SOL    HW136428   3.601   4.460   5.715 -0.2044 -0.5001  0.0712
 8323SOL    HW236429   3.745   4.468   5.758 -0.1989  0.6027  0.6996
 8324SOL     OW36430   0.004   2.263   5.717 -0.0486  0.1845 -0.1611
 8324SOL    HW136431   4.689   2.178   5.709 -0.7989  0.4719  0.6750
 8324SOL    HW236432   4.652   2.317   5.727  0.4896  0.5822  1.9937
 8325SOL     OW36433   2.875   0.678   2.847 -0.0609 -0.8063  0.2141
 8325SOL    HW136434   2.819   0.629   2.787  0.6514 -1.3437 -0.0124
 8325SOL    HW236435   2.962   0.659   2.811  0.7063  0.3484  1.4194
 8326SOL     OW36436   0.968   2.776   5.194 -0.2873 -0.4754  0.0999
 8326SOL    HW136437   1.051   2.768   5.242 -0.2423 -0.7689 -0.0258
 8326SOL    HW236438   0.909   2.771   5.270 -1.2262  1.6758 -0.5031
 8327SOL     OW36439   2.251   0.937   2.658 -0.6141 -0.6527 -0.2272
 8327SOL    HW136440   2.175   0.972   2.704  2.1199  2.7218  1.7070
 8327SOL    HW236441   2.311   0.967   2.725  0.8741 -0.6777 -1.5510
 8328SOL     OW36442   3.526   0.429   1.784  0.2262 -0.2177  0.0081
 8328SOL    HW136443   3.444   0.380   1.782 -0.7260  1.3091  1.4429
 8328SOL    HW236444   3.548   0.431   1.691  2.3203  2.6358  0.5827
 8329SOL     OW36445   3.349   2.911   3.305 -0.4186 -0.2257 -0.5718
 8329SOL    HW136446   3.255   2.916   3.322 -0.9861 -0.6163 -3.6307
 8329SOL    HW236447   3.351   2.850   3.231 -0.7814 -0.4762 -0.3747
 8330SOL     OW36448   1.920   1.977  14.156  0.1943 -0.0887 -0.0557
 8330SOL    HW136449   1.835   2.020  14.145 -0.2139 -0.3193  2.1771
 8330SOL    HW236450   1.974   2.025  14.218 -2.4798  0.8243  1.5447
 8331SOL     OW36451   3.192   1.323   5.826  0.3894 -0.1264 -0.2031
 8331SOL    HW136452   3.193   1.346   5.733  2.0507  2.5471  0.4704
 8331SOL    HW236453   3.157   1.403   5.867  0.6835 -0.0448 -0.1120
 8332SOL     OW36454   4.225   2.288   3.702  0.1039 -0.0441 -0.3368
 8332SOL    HW136455   4.165   2.262   3.631 -2.6002  2.1867  1.1198
 8332SOL    HW236456   4.270   2.364   3.665 -0.3021  1.8152  3.0269
 8333SOL     OW36457   3.123   1.440   3.448 -0.4420 -0.3235  0.5657
 8333SOL    HW136458   3.054   1.488   3.495 -0.1635 -0.9192  1.5694
 8333SOL    HW236459   3.116   1.356   3.492 -2.0677 -0.5558 -0.1310
 8334SOL     OW36460   3.840   3.401   5.020  0.0258 -0.2418  0.1679
 8334SOL    HW136461   3.779   3.327   5.020 -0.8019  0.4420 -0.3111
 8334SOL    HW236462   3.882   3.392   4.935  2.7726  0.0285  1.4813
 8335SOL     OW36463   3.416   1.512   5.988  0.0480 -0.0562 -0.0535
 8335SOL    HW136464   3.353   1.553   5.930 -0.4345 -0.2284  0.3492
 8335SOL    HW236465   3.375   1.429   6.011  1.5930 -0.4590  1.2942
 8336SOL     OW36466   4.163   0.627   3.433  0.6295  0.2082 -0.5061
 8336SOL    HW136467   4.158   0.712   3.389 -1.6681  0.3338  0.0167
 8336SOL    HW236468   4.254   0.645   3.456  1.2002  0.1461 -2.6837
 8337SOL     OW36469   1.054   4.676   7.048 -0.3134 -0.5577 -0.4225
 8337SOL    HW136470   1.110   4.719   6.984 -1.0724  0.2285 -0.5630
 8337SOL    HW236471   0.994   0.021   7.071  1.5820  0.0005  2.7432
 8338SOL     OW36472   0.286   0.893   7.216 -0.2291  0.2078  0.2852
 8338SOL    HW136473   0.208   0.915   7.266 -0.1304 -1.9682  1.4032
 8338SOL    HW236474   0.276   0.946   7.137  1.2654  2.2461  1.4640
 8339SOL     OW36475   1.473   3.048   1.101 -0.0647 -0.2474 -0.0456
 8339SOL    HW136476   1.435   3.004   1.025  2.4559  0.4376 -1.7336
 8339SOL    HW236477   1.487   2.978   1.165 -0.0493  0.4491  0.7097
 8340SOL     OW36478   2.827   0.435   7.584 -0.2174  0.2934 -0.2778
 8340SOL    HW136479   2.861   0.351   7.552  1.1556  1.1575 -1.0748
 8340SOL    HW236480   2.906   0.465   7.629  0.4007 -1.1620 -0.3866
 8341SOL     OW36481   2.387   0.020   6.879  0.4096  0.7766 -0.0092
 8341SOL    HW136482   2.335   0.087   6.925 -2.8726 -0.5745 -1.7153
 8341SOL    HW236483   2.413   4.695   6.955  2.9307  2.5962  0.3761
 8342SOL     OW36484   4.472   1.921   7.199 -0.3099 -0.0559  0.3705
 8342SOL    HW136485   4.431   1.966   7.125 -0.2150 -0.5676  0.0062
 8342SOL    HW236486   4.407   1.853   7.220 -0.0540 -0.6433 -0.7041
 8343SOL     OW36487   0.814   3.721   8.941 -0.0891 -0.6505  0.4033
 8343SOL    HW136488   0.864   3.651   8.900  1.4583  1.1557 -0.7417
 8343SOL    HW236489   0.765   3.750   8.864 -1.3302 -0.9329  1.0696
 8344SOL     OW36490   0.009   4.478   6.385  0.1369  0.0836 -1.5152
 8344SOL    HW136491   0.014   4.389   6.352  0.3989 -0.6145  0.4196
 8344SOL    HW236492   4.660   4.507   6.333 -0.6599 -0.2170 -0.5157
 8345SOL     OW36493   4.458   2.599   8.437 -0.0798 -0.2261  0.0350
 8345SOL    HW136494   4.388   2.626   8.497  1.9781  2.1992  1.3608
 8345SOL    HW236495   4.414   2.520   8.408 -0.4291  0.9142 -2.5476
 8346SOL     OW36496   1.333   3.775   4.622  0.0461  0.6406 -0.3069
 8346SOL    HW136497   1.339   3.777   4.527 -0.4867  0.1636 -0.3523
 8346SOL    HW236498   1.280   3.695   4.625  1.4380 -0.2570  0.5118
 8347SOL     OW36499   1.848   0.487   1.827 -0.0083  0.3844 -0.0185
 8347SOL    HW136500   1.927   0.528   1.864 -0.5154  1.8633 -0.5460
 8347SOL    HW236501   1.833   0.556   1.763  1.8651 -0.3312 -1.2368
 8348SOL     OW36502   1.739   2.703   2.782 -0.3930 -0.2890 -0.2490
 8348SOL    HW136503   1.653   2.743   2.795 -1.3000 -2.1293 -0.5079
 8348SOL    HW236504   1.748   2.690   2.688 -0.0319  2.5310 -0.5838
 8349SOL     OW36505   3.215   2.331   9.449  0.6177  0.7644 -0.1708
 8349SOL    HW136506   3.251   2.285   9.373  3.8726  2.1566  0.5535
 8349SOL    HW236507   3.296   2.334   9.500  1.5596  3.1325 -1.8208
 8350SOL     OW36508   3.709   3.154   6.562  0.5228 -0.3201 -0.4422
 8350SOL    HW136509   3.731   3.071   6.521  2.2529 -1.2694  2.4348
 8350SOL    HW236510   3.622   3.134   6.595  1.1583 -1.3779  0.5708
 8351SOL     OW36511   0.615   2.308   9.070  0.5145  0.9184  0.4126
 8351SOL    HW136512   0.576   2.378   9.123 -1.1253  0.2784  0.0661
 8351SOL    HW236513   0.679   2.354   9.017  1.3836  0.5583  1.1560
 8352SOL     OW36514   4.649   0.887   4.975 -0.1131 -0.1912  0.1238
 8352SOL    HW136515   4.652   0.950   5.046 -1.4584  0.3726 -0.3207
 8352SOL    HW236516   4.555   0.898   4.964 -0.1574 -0.4742  0.2129
 8353SOL     OW36517   4.027   1.791  10.168 -0.2231  0.1963  0.1315
 8353SOL    HW136518   4.071   1.808  10.252 -1.3682  2.1726  0.3169
 8353SOL    HW236519   4.033   1.695  10.164 -1.8297  0.1176 -0.5522
 8354SOL     OW36520   2.276   1.675  10.296 -0.1583 -0.1010  0.1613
 8354SOL    HW136521   2.285   1.761  10.335 -0.8082 -0.2979  0.7596
 8354SOL    HW236522   2.310   1.614  10.361  0.1547 -0.4083 -0.2912
 8355SOL     OW36523   4.308   0.220   4.773  0.2637 -0.3016  0.0691
 8355SOL    HW136524   4.284   0.313   4.768 -2.1633 -1.0379 -2.2029
 8355SOL    HW236525   4.403   0.226   4.764  0.4481 -2.3156  0.7328
 8356SOL     OW36526   1.721   0.367  11.539 -0.3792 -0.4604  0.4311
 8356SOL    HW136527   1.662   0.321  11.480  0.9023 -0.1935 -1.0556
 8356SOL    HW236528   1.665   0.378  11.616 -1.0756  1.0000 -0.2892
 8357SOL     OW36529   4.365   1.084  10.279 -0.2144 -0.6623  0.3266
 8357SOL    HW136530   4.421   1.161  10.290 -0.7639 -0.3868  1.1332
 8357SOL    HW236531   4.347   1.085  10.185  0.9356 -0.4797  0.1109
 8358SOL     OW36532   3.421   2.114   2.983  0.2314 -0.4670 -0.0964
 8358SOL    HW136533   3.398   2.055   3.054 -0.2824 -0.0407  0.0853
 8358SOL    HW236534   3.347   2.173   2.972  0.5642 -0.3334 -1.5832
 8359SOL     OW36535   0.952   2.863   7.251 -0.1157  0.2922 -0.1390
 8359SOL    HW136536   0.945   2.861   7.155 -0.0502  3.4970 -0.2351
 8359SOL    HW236537   1.028   2.920   7.264  0.0690 -0.0255  0.1658
 8360SOL     OW36538   0.880   0.262   3.678 -0.1321  0.0447  0.2801
 8360SOL    HW136539   0.935   0.240   3.753  0.4251  0.3681 -0.0325
 8360SOL    HW236540   0.844   0.347   3.704 -0.4572 -0.8879  2.9200
 8361SOL     OW36541   3.313   4.307   2.105  0.5150 -0.4164 -0.6115
 8361SOL    HW136542   3.348   4.368   2.039  0.3276 -0.5394 -0.8233
 8361SOL    HW236543   3.219   4.307   2.085  0.4865 -0.4946 -0.4730
 8362SOL     OW36544   4.025   0.660   7.653 -0.4539  0.1536  0.2350
 8362SOL    HW136545   3.961   0.600   7.692 -0.7866 -1.6810 -3.0969
 8362SOL    HW236546   3.995   0.656   7.562  0.2010 -0.2092  0.0325
 8363SOL     OW36547   2.503   3.598  12.719 -0.2553  0.0445 -0.1418
 8363SOL    HW136548   2.434   3.533  12.703  1.7056 -1.4591 -2.4546
 8363SOL    HW236549   2.465   3.685  12.708  1.1338  0.5914 -0.5595
 8364SOL     OW36550   4.490   1.507  16.986  0.2733  0.4675 -0.0240
 8364SOL    HW136551   4.529   1.498  16.900  1.3240  2.4876  0.2343
 8364SOL    HW236552   4.510   1.421  17.022 -1.1057 -0.7351 -2.1316
 8365SOL     OW36553   0.806   3.246   3.976  0.3762  0.0495  0.7646
 8365SOL    HW136554   0.842   3.250   3.888  0.2970  0.5483  0.7563
 8365SOL    HW236555   0.884   3.230   4.029 -0.8200 -0.4417  2.3540
 8366SOL     OW36556   3.651   1.147   8.557  0.4387 -0.2533 -0.1601
 8366SOL    HW136557   3.566   1.168   8.598 -0.4356  0.3437 -2.2837
 8366SOL    HW236558   3.670   1.229   8.513 -0.7884  0.8590  1.3796
 8367SOL     OW36559   1.087   2.498   6.858 -0.0913  0.0749  0.4838
 8367SOL    HW136560   1.175   2.471   6.831 -0.2190  0.7065 -0.5794
 8367SOL    HW236561   1.106   2.527   6.947  1.1274 -2.5304  1.1013
 8368SOL     OW36562   0.287   1.642  15.870 -0.5224  0.4254 -0.1505
 8368SOL    HW136563   0.372   1.598  15.866 -1.7686 -1.9649 -0.0802
 8368SOL    HW236564   0.313   1.734  15.875  1.8627 -0.2512 -0.2336
 8369SOL     OW36565   2.102   4.506  12.539 -0.1268 -0.7143 -0.4598
 8369SOL    HW136566   2.039   4.567  12.501  0.0488 -0.3908 -0.2323
 8369SOL    HW236567   2.043   4.462  12.600  0.9610 -1.0529  0.3511
 8370SOL     OW36568   4.725   3.142  15.470 -0.2060  0.1303 -0.4687
 8370SOL    HW136569   0.085   3.166  15.437  1.2944 -0.4860  3.0064
 8370SOL    HW236570   0.023   3.050  15.472  1.3547  0.5093 -2.3092
 8371SOL     OW36571   0.836   3.177   6.982  0.1903 -0.0481 -0.5998
 8371SOL    HW136572   0.891   3.248   7.014 -1.4663  1.7391 -1.7760
 8371SOL    HW236573   0.755   3.210   7.022  1.2476  0.5755  1.0117
 8372SOL     OW36574   1.810   4.170   3.697 -0.8825 -0.1702 -0.3344
 8372SOL    HW136575   1.844   4.225   3.626  2.5824  0.5605  1.9057
 8372SOL    HW236576   1.856   4.205   3.773 -2.5901  1.7354 -0.1696
 8373SOL     OW36577   0.012   2.026   1.682 -0.1597  0.0691  0.0445
 8373SOL    HW136578   4.683   1.965   1.729  1.2804 -2.1257 -1.0861
 8373SOL    HW236579   0.088   2.048   1.736  1.9318 -0.4445 -2.7271
 8374SOL     OW36580   4.578   1.704   8.838 -0.3417 -0.1212  0.1786
 8374SOL    HW136581   4.627   1.763   8.781 -0.2838  0.3349  0.7027
 8374SOL    HW236582   4.494   1.715   8.796  0.5502  2.0155 -1.0018
 8375SOL     OW36583   1.267   0.566   4.056  0.3819 -0.0182 -0.1282
 8375SOL    HW136584   1.333   0.503   4.083 -0.6208 -1.8690 -1.9245
 8375SOL    HW236585   1.189   0.523   4.093  0.0556 -0.0907 -0.8878
 8376SOL     OW36586   3.836   0.203   7.922 -0.5140 -0.2804  0.8379
 8376SOL    HW136587   3.872   0.122   7.886 -0.6588 -0.6866  1.6008
 8376SOL    HW236588   3.913   0.223   7.976 -0.1581 -1.7824  0.8942
 8377SOL     OW36589   4.487   3.952  10.812  0.0179  1.3031 -0.5841
 8377SOL    HW136590   4.536   3.948  10.894 -1.7628  1.1157  0.4667
 8377SOL    HW236591   4.407   3.996  10.841 -0.6221 -1.1159  1.2884
 8378SOL     OW36592   2.485   3.675   7.864  0.0731  0.1586  0.0729
 8378SOL    HW136593   2.467   3.744   7.800  0.4464 -1.7506 -2.1099
 8378SOL    HW236594   2.489   3.731   7.942 -1.8821 -0.1061  0.3594
 8379SOL     OW36595   4.279   4.497   1.254 -0.3938  0.1070 -0.0810
 8379SOL    HW136596   4.316   4.410   1.269  0.3573  0.8140  2.1303
 8379SOL    HW236597   4.326   4.534   1.179 -0.0514 -0.3802 -0.1076
 8380SOL     OW36598   1.681   2.800   9.003 -0.1184  0.2021 -0.2135
 8380SOL    HW136599   1.653   2.812   9.093 -0.3442  1.1495 -0.4089
 8380SOL    HW236600   1.769   2.763   9.014 -0.8934 -1.5452  0.1528
 8381SOL     OW36601   2.058   2.992   3.015 -0.2635  1.2211 -0.4731
 8381SOL    HW136602   2.020   2.967   3.099  1.7136 -0.0210  0.0521
 8381SOL    HW236603   2.032   2.915   2.964  1.0515  1.7684 -1.9886
 8382SOL     OW36604   2.582   0.508   0.733  0.6176  0.3633  0.4853
 8382SOL    HW136605   2.599   0.572   0.664  1.4758  0.0753  0.4280
 8382SOL    HW236606   2.525   0.443   0.691  0.0398  1.0371  0.2212
 8383SOL     OW36607   1.472   1.456  13.925  0.4870  0.3835 -0.3533
 8383SOL    HW136608   1.509   1.523  13.983 -3.3866  2.8120 -0.7003
 8383SOL    HW236609   1.544   1.395  13.908  0.5597  0.1931  0.6289
 8384SOL     OW36610   3.814   2.220   8.697 -0.4237 -1.1443  0.3728
 8384SOL    HW136611   3.897   2.176   8.676 -0.7342 -1.8130  0.5557
 8384SOL    HW236612   3.853   2.287   8.753 -0.4318 -1.9730  1.3854
 8385SOL     OW36613   3.898   1.279   2.277  0.6081  0.6262  0.2442
 8385SOL    HW136614   3.977   1.240   2.240  0.1549  1.7724 -1.9501
 8385SOL    HW236615   3.856   1.292   2.191  0.1070  2.4151  0.7607
 8386SOL     OW36616   1.779   0.900   6.630 -0.1503 -0.7516 -0.6094
 8386SOL    HW136617   1.703   0.930   6.680  0.5218  1.1113 -0.6839
 8386SOL    HW236618   1.842   0.890   6.701 -1.7770 -2.5016  0.5936
 8387SOL     OW36619   1.260   3.384   4.094 -0.3712  0.1395 -0.3069
 8387SOL    HW136620   1.331   3.339   4.139  0.8526  1.2021 -1.1710
 8387SOL    HW236621   1.176   3.350   4.126 -0.2342 -1.9781 -2.2136
 8388SOL     OW36622   3.574   1.260  13.414 -0.2097  0.5446 -0.0067
 8388SOL    HW136623   3.516   1.233  13.485 -2.1686  0.0983 -1.7741
 8388SOL    HW236624   3.659   1.257  13.457  0.0061  2.1832 -0.3414
 8389SOL     OW36625   3.802   2.845   3.199  0.5196 -0.4967  0.1695
 8389SOL    HW136626   3.742   2.911   3.236  0.6282 -0.3574  0.0966
 8389SOL    HW236627   3.767   2.849   3.110  2.5511  2.7736 -0.4881
 8390SOL     OW36628   2.071   0.960   6.595 -0.4005 -0.0432 -0.5520
 8390SOL    HW136629   2.017   1.037   6.608 -0.2104 -0.0988  0.6084
 8390SOL    HW236630   2.015   0.906   6.539 -0.2586  0.6400 -1.3577
 8391SOL     OW36631   0.142   0.960  15.430 -0.1524 -0.7090  0.0816
 8391SOL    HW136632   0.225   0.963  15.382  0.0160 -0.1983  0.4113
 8391SOL    HW236633   0.088   1.002  15.363  1.1711  1.4902  0.4199
 8392SOL     OW36634   4.288   1.545   6.371  0.2724  0.5786 -0.2722
 8392SOL    HW136635   4.377   1.530   6.341  0.3518 -0.2169  0.3669
 8392SOL    HW236636   4.271   1.487   6.445  1.6057  0.6568  0.0935
 8393SOL     OW36637   2.041   0.953   7.868  0.5441  0.9087 -0.3082
 8393SOL    HW136638   2.097   0.976   7.794  1.7762 -0.0501  0.3231
 8393SOL    HW236639   2.046   1.036   7.914  1.7625  2.2222 -2.7689
 8394SOL     OW36640   0.094   3.577   3.359  0.0520  0.2147  0.7327
 8394SOL    HW136641   0.084   3.593   3.265 -1.3935 -0.3308  0.7960
 8394SOL    HW236642   0.037   3.502   3.372  0.5649 -0.4251 -0.7280
 8395SOL     OW36643   1.674   0.148  12.967  0.1514  0.5846  0.3470
 8395SOL    HW136644   1.757   0.119  12.930 -0.3110  0.9282 -0.9794
 8395SOL    HW236645   1.695   0.166  13.058 -1.7084 -0.0445  0.8912
 8396SOL     OW36646   2.720   2.981   0.378 -0.3495  0.3940  0.2528
 8396SOL    HW136647   2.697   3.054   0.321 -1.3948  1.7025  2.3339
 8396SOL    HW236648   2.667   2.913   0.336 -0.0643  0.4717 -0.2392
 8397SOL     OW36649   2.223   0.191  10.900  0.0851  0.3985 -0.0541
 8397SOL    HW136650   2.152   0.249  10.871  1.6736  2.9785  1.2412
 8397SOL    HW236651   2.231   0.143  10.817 -1.9664 -2.9641  1.7077
 8398SOL     OW36652   4.215   3.508   4.271 -0.3251  0.0744 -0.4509
 8398SOL    HW136653   4.203   3.496   4.365  0.4799  1.0941 -0.2137
 8398SOL    HW236654   4.231   3.602   4.281  0.2517 -0.2615  1.8729
 8399SOL     OW36655   1.249   3.039  12.240  0.3352  0.3670 -0.6369
 8399SOL    HW136656   1.241   2.957  12.290 -1.5505  2.0491  1.7954
 8399SOL    HW236657   1.156   3.062  12.241 -0.1201 -1.4069 -1.1336
 8400SOL     OW36658   0.065   3.728  11.113 -0.1456  0.0784  0.1823
 8400SOL    HW136659   0.139   3.784  11.136  0.3222 -0.3629 -0.2473
 8400SOL    HW236660   0.082   3.654  11.171 -1.8679 -0.2480  0.2643
 8401SOL     OW36661   2.831   3.560   2.406  0.5674 -0.2449 -0.6272
 8401SOL    HW136662   2.910   3.584   2.454  0.5843 -1.9495  0.2232
 8401SOL    HW236663   2.842   3.569   2.312  0.5332 -0.5777 -0.6639
 8402SOL     OW36664   1.960   4.234   0.419  0.1105  0.0490 -0.7825
 8402SOL    HW136665   1.923   4.201   0.501 -1.3191 -0.8505 -1.7830
 8402SOL    HW236666   1.878   4.270   0.384 -0.2302  0.7791  0.7482
 8403SOL     OW36667   1.113   3.355  12.804 -0.6358  0.7200 -0.2009
 8403SOL    HW136668   1.066   3.407  12.739  1.9184  0.1268 -2.5161
 8403SOL    HW236669   1.161   3.292  12.750  0.5088  1.3841  0.0581
 8404SOL     OW36670   3.754   3.041   1.999 -0.4962  0.3285 -0.2583
 8404SOL    HW136671   3.828   3.100   2.011 -0.3130 -0.3921  2.1764
 8404SOL    HW236672   3.784   2.955   1.968 -3.2440 -0.5610 -0.4475
 8405SOL     OW36673   2.407   3.776   4.470 -0.7441  0.2252 -0.1721
 8405SOL    HW136674   2.462   3.731   4.407  0.0479 -0.0735  0.7431
 8405SOL    HW236675   2.400   3.862   4.429  0.2932 -0.8727 -2.6316
 8406SOL     OW36676   0.671   4.061  10.927 -0.1965 -0.2089  0.1223
 8406SOL    HW136677   0.600   4.065  10.991  0.4015 -3.9871  1.0463
 8406SOL    HW236678   0.737   4.102  10.983 -0.4223  0.1917  0.0941
 8407SOL     OW36679   4.557   2.932   4.439 -0.1393 -0.5962 -0.8615
 8407SOL    HW136680   4.559   3.005   4.378 -1.0956 -0.0164 -0.2022
 8407SOL    HW236681   4.633   2.960   4.490 -1.1575 -0.3122  0.5195
 8408SOL     OW36682   2.599   2.319   7.077 -0.0068 -0.1360 -0.1343
 8408SOL    HW136683   2.584   2.327   6.983  0.8264 -0.3748 -0.2901
 8408SOL    HW236684   2.608   2.408   7.112 -1.1604 -0.4326  0.9444
 8409SOL     OW36685   3.914   0.479   8.471  0.2340 -0.0798  0.5222
 8409SOL    HW136686   3.953   0.442   8.550 -2.5815  0.0753  1.9675
 8409SOL    HW236687   3.836   0.512   8.515 -0.9366 -1.1152 -0.7838
 8410SOL     OW36688   1.420   1.206   0.023  0.3993 -0.2339  0.0085
 8410SOL    HW136689   1.348   1.145   0.008  0.3878  0.2692 -1.9610
 8410SOL    HW236690   1.486   1.145   0.054 -1.7771 -3.0117 -0.8928
 8411SOL     OW36691   0.007   4.620  12.568 -0.0290  0.0310  0.3893
 8411SOL    HW136692   0.049   4.672  12.499 -2.2562 -0.1990 -1.1320
 8411SOL    HW236693   4.671   4.565  12.522 -0.9928  0.6345  0.9869
 8412SOL     OW36694   2.497   0.581   7.950 -0.5932 -0.1965  0.3954
 8412SOL    HW136695   2.455   0.531   7.880 -0.0612  0.0086 -0.0758
 8412SOL    HW236696   2.541   0.515   8.005  1.3702 -0.1892 -1.1471
 8413SOL     OW36697   3.220   2.839   4.449  0.3384 -0.3732 -0.0168
 8413SOL    HW136698   3.220   2.748   4.476  0.4278 -0.5346 -0.5636
 8413SOL    HW236699   3.173   2.819   4.368 -0.8726  0.3515  0.5054
 8414SOL     OW36700   4.304   3.556  14.663  0.0507 -0.2042  0.0998
 8414SOL    HW136701   4.276   3.505  14.588 -0.7903  1.2917 -0.6043
 8414SOL    HW236702   4.376   3.606  14.625 -1.7712 -0.4252 -3.6744
 8415SOL     OW36703   3.048   3.512   7.763  0.1026 -0.1892 -0.0480
 8415SOL    HW136704   2.994   3.436   7.785 -0.9441  0.0422 -1.8433
 8415SOL    HW236705   3.122   3.498   7.821  0.6998 -0.3086 -0.8442
 8416SOL     OW36706   0.595   4.070   2.224  0.2298  0.0969 -0.3533
 8416SOL    HW136707   0.511   4.029   2.243 -0.6616  1.7632 -0.6690
 8416SOL    HW236708   0.589   4.165   2.232 -0.9030  0.0171 -0.3244
 8417SOL     OW36709   2.565   0.754   2.876  0.3727  0.2083 -0.1681
 8417SOL    HW136710   2.510   0.772   2.953  1.0032  1.5264 -0.0288
 8417SOL    HW236711   2.586   0.843   2.850 -3.8194  1.3911  0.4502
 8418SOL     OW36712   1.477   4.126   7.599 -0.1586  0.1627 -0.3257
 8418SOL    HW136713   1.508   4.039   7.625 -0.8424 -0.1536 -0.5973
 8418SOL    HW236714   1.461   4.121   7.505  2.3874 -4.3752 -0.5542
 8419SOL     OW36715   4.658   3.268  12.729 -0.3166 -0.3380  0.6940
 8419SOL    HW136716   4.667   3.281  12.823 -0.2690  0.4843  0.5703
 8419SOL    HW236717   4.648   3.174  12.710 -0.7105  0.2600 -2.1143
 8420SOL     OW36718   2.428   0.144   8.351 -0.5421 -0.0181  0.3476
 8420SOL    HW136719   2.442   0.146   8.446  0.5430 -1.0601  0.2034
 8420SOL    HW236720   2.345   0.192   8.348 -0.5555  0.0304  1.4423
 8421SOL     OW36721   1.447   1.239  10.515 -0.2572 -0.4393  0.5541
 8421SOL    HW136722   1.539   1.264  10.511 -0.6723  1.1812  1.2575
 8421SOL    HW236723   1.394   1.319  10.521  1.2772  0.7038 -1.1235
 8422SOL     OW36724   1.406   3.856  16.101 -0.0989  0.2158  0.0023
 8422SOL    HW136725   1.491   3.823  16.130 -1.7021 -4.0044 -0.1217
 8422SOL    HW236726   1.338   3.801  16.139  0.3619 -0.1862  0.2394
 8423SOL     OW36727   3.279   2.512  11.655  0.0480 -0.1543 -0.5940
 8423SOL    HW136728   3.344   2.509  11.725 -1.9587  0.5440  1.2536
 8423SOL    HW236729   3.302   2.595  11.613  1.4845 -0.0992  0.2788
 8424SOL     OW36730   2.094   4.467   2.274  0.5538 -0.6075 -0.1090
 8424SOL    HW136731   2.106   4.440   2.365  2.0636 -0.6676 -0.3302
 8424SOL    HW236732   2.156   4.540   2.276  0.7636 -0.8555  2.3583
 8425SOL     OW36733   1.956   0.521   6.654  0.1635  0.3521 -0.3899
 8425SOL    HW136734   2.011   0.562   6.721 -0.4765  2.3775 -1.1155
 8425SOL    HW236735   2.024   0.486   6.596  1.8431  0.3259  1.5971
 8426SOL     OW36736   2.465   2.940   9.723 -0.3906 -0.0368 -0.7192
 8426SOL    HW136737   2.544   2.944   9.669  0.0380  1.3417  0.0259
 8426SOL    HW236738   2.506   2.946   9.809 -3.0412  0.8280  0.4834
 8427SOL     OW36739   0.541   3.952   3.933 -0.0666 -0.5070  1.2261
 8427SOL    HW136740   0.464   3.899   3.912 -1.4261  1.0961  2.0790
 8427SOL    HW236741   0.503   4.040   3.943  1.0901  0.0143  1.0122
 8428SOL     OW36742   2.956   3.308   9.465 -0.2444 -0.1741  0.3607
 8428SOL    HW136743   3.023   3.358   9.510  0.6149 -0.6375 -0.4008
 8428SOL    HW236744   2.870   3.327   9.502 -0.0345 -0.2399  0.8699
 8429SOL     OW36745   0.942   0.113   4.769  0.2927 -0.9214 -0.0019
 8429SOL    HW136746   1.003   0.175   4.809  2.1487 -1.9879 -1.1749
 8429SOL    HW236747   0.897   0.067   4.841 -1.2124  0.4776 -0.0404
 8430SOL     OW36748   3.604   3.372  12.556  0.0572  0.4804  0.5407
 8430SOL    HW136749   3.583   3.460  12.525 -0.3506 -0.8290 -3.0050
 8430SOL    HW236750   3.599   3.325  12.472 -1.3743 -0.8225  1.3577
 8431SOL     OW36751   0.130   2.395  14.779  0.4840 -0.1088 -0.4990
 8431SOL    HW136752   0.145   2.309  14.818 -2.4378 -0.7329 -0.7521
 8431SOL    HW236753   0.122   2.453  14.854  2.3418 -1.3878  0.6883
 8432SOL     OW36754   3.061   3.010  15.919 -0.2358 -0.2693  0.0951
 8432SOL    HW136755   3.024   2.932  15.961 -0.0402 -0.5794 -0.3117
 8432SOL    HW236756   2.985   3.066  15.903  0.4744  0.1221 -1.9170
 8433SOL     OW36757   2.287   3.112   9.587  0.1790 -0.0700 -0.2463
 8433SOL    HW136758   2.331   3.067   9.658  0.8459 -0.7155 -1.0637
 8433SOL    HW236759   2.319   3.201   9.603 -0.8128  0.1246  0.6396
 8434SOL     OW36760   1.865   2.459   7.698 -0.0194  0.1921  0.6031
 8434SOL    HW136761   1.801   2.493   7.635  1.6632  2.3373  0.0297
 8434SOL    HW236762   1.900   2.392   7.639 -0.4983  0.5580 -0.0997
 8435SOL     OW36763   0.178   3.280  17.372  0.0894  0.2198  0.1797
 8435SOL    HW136764   0.179   3.190  17.405 -1.1576  0.5705  1.1834
 8435SOL    HW236765   0.163   3.326  17.454  0.6580 -1.3164  1.1420
 8436SOL     OW36766   4.682   2.973   2.441 -0.1399  0.1134 -0.0871
 8436SOL    HW136767   0.006   2.992   2.362 -1.2901 -1.1837 -1.1273
 8436SOL    HW236768   4.708   3.056   2.482  1.4324 -1.3244  1.8229
 8437SOL     OW36769   0.113   2.547  10.496  0.0212 -0.3318 -0.7072
 8437SOL    HW136770   0.131   2.581  10.408 -3.1906 -0.7566 -1.5270
 8437SOL    HW236771   0.178   2.477  10.505 -2.2629 -2.5547 -1.4521
 8438SOL     OW36772   3.183   0.174   6.625  0.1611  0.5298 -0.2607
 8438SOL    HW136773   3.155   0.166   6.534 -2.7024  0.0820  0.6645
 8438SOL    HW236774   3.144   0.259   6.646 -1.5436 -0.9179  2.2277
 8439SOL     OW36775   4.265   1.605  11.838  0.3959  0.1629  0.3458
 8439SOL    HW136776   4.307   1.689  11.823 -1.8746  1.0994 -0.8098
 8439SOL    HW236777   4.172   1.619  11.818 -0.1525 -2.5815  0.9590
 8440SOL     OW36778   3.118   4.715  11.419  0.4261 -0.5863  0.7091
 8440SOL    HW136779   3.084   4.705  11.330 -0.9463  0.4552  1.1177
 8440SOL    HW236780   3.051   4.654  11.452 -0.8071 -1.3453 -3.1994
 8441SOL     OW36781   4.536   0.825   2.309 -0.4699  0.9787  0.0133
 8441SOL    HW136782   4.611   0.882   2.329  0.1020  0.2573 -0.0607
 8441SOL    HW236783   4.528   0.820   2.214 -1.0928  1.0230  0.0680
 8442SOL     OW36784   0.039   0.080   5.623  0.2497  0.0503  0.6600
 8442SOL    HW136785   0.119   0.086   5.571 -1.3132 -1.6139 -1.9983
 8442SOL    HW236786   4.698   0.070   5.556  0.7593  0.7045  0.0476
 8443SOL     OW36787   3.616   0.662   8.302 -0.5402 -0.2958  0.1168
 8443SOL    HW136788   3.603   0.736   8.361 -0.5278 -0.3731  0.2164
 8443SOL    HW236789   3.704   0.688   8.275 -1.4188  1.4754 -1.0126
 8444SOL     OW36790   0.809   0.110  10.112 -0.0591  0.1988  0.2771
 8444SOL    HW136791   0.812   0.074  10.200  1.4654  0.5129  0.3599
 8444SOL    HW236792   0.898   0.088  10.083 -0.8744 -0.9996 -1.3135
 8445SOL     OW36793   1.792   3.048   9.742  0.2590  0.3436 -0.7718
 8445SOL    HW136794   1.785   3.022   9.834 -0.2434  1.0696 -0.6034
 8445SOL    HW236795   1.700   3.065   9.721 -0.8437 -1.4886  2.6199
 8446SOL     OW36796   2.415   1.143   0.489  0.2219 -0.3463  0.0733
 8446SOL    HW136797   2.437   1.226   0.447 -0.5341 -0.8419 -1.3000
 8446SOL    HW236798   2.472   1.081   0.444  1.0326 -0.2113  0.9121
 8447SOL     OW36799   1.393   3.316   7.302  0.0116  0.1378  0.1667
 8447SOL    HW136800   1.430   3.233   7.273  1.4553  0.5536  0.8333
 8447SOL    HW236801   1.466   3.378   7.294  0.5549 -0.6513 -1.0060
 8448SOL     OW36802   3.342   0.062  10.603 -0.8660  0.5538  0.3448
 8448SOL    HW136803   3.329   0.142  10.553 -1.2108 -0.6214 -1.4350
 8448SOL    HW236804   3.435   0.044  10.586 -1.2401 -0.6086 -0.4497
 8449SOL     OW36805   1.462   2.810   5.825  0.8419 -0.6093 -0.0211
 8449SOL    HW136806   1.525   2.851   5.884  0.0516  1.4072 -0.5425
 8449SOL    HW236807   1.506   2.806   5.740  1.0957  2.8227 -0.0595
 8450SOL     OW36808   0.238   1.224  13.916 -0.1561 -0.2374  0.3777
 8450SOL    HW136809   0.310   1.165  13.938  1.8347  1.7176 -0.8473
 8450SOL    HW236810   0.188   1.169  13.855  0.8334  1.7242 -2.2015
 8451SOL     OW36811   0.804   3.718   2.870 -0.4535  0.0682  0.0255
 8451SOL    HW136812   0.842   3.792   2.918  1.7577  0.4113 -2.2959
 8451SOL    HW236813   0.878   3.675   2.829 -0.8702 -1.3273  0.7422
 8452SOL     OW36814   3.878   1.519   2.416  0.0042  0.1080  0.1584
 8452SOL    HW136815   3.864   1.428   2.389 -1.7304  0.7158 -1.0347
 8452SOL    HW236816   3.892   1.561   2.331  1.3120 -0.4156  0.1181
 8453SOL     OW36817   0.719   1.594   0.711 -0.1289 -0.6455 -0.5273
 8453SOL    HW136818   0.723   1.565   0.802  1.4430  2.3226  0.3124
 8453SOL    HW236819   0.734   1.507   0.673  1.7278  0.2186 -1.7183
 8454SOL     OW36820   3.233   1.336   6.311  0.5552 -0.3315  0.5042
 8454SOL    HW136821   3.215   1.429   6.318  1.3406 -0.2636  1.5506
 8454SOL    HW236822   3.228   1.311   6.403  0.7162 -1.3579  0.2408
 8455SOL     OW36823   2.944   1.871  12.081 -0.0739  0.7240 -0.3785
 8455SOL    HW136824   2.969   1.790  12.037 -0.7000  0.5292 -0.3803
 8455SOL    HW236825   2.992   1.869  12.164  0.4892  1.6949 -0.6797
 8456SOL     OW36826   0.657   4.336   8.451  0.6093  0.0119  0.0092
 8456SOL    HW136827   0.743   4.331   8.410 -0.3820  0.9783 -2.1928
 8456SOL    HW236828   0.633   4.427   8.437 -1.0920 -0.2589  1.0602
 8457SOL     OW36829   1.567   2.207  16.142  0.4210  0.1649 -0.1086
 8457SOL    HW136830   1.590   2.114  16.132 -3.6205 -0.8680  0.0727
 8457SOL    HW236831   1.508   2.218  16.067 -0.4005  1.7021  0.7623
 8458SOL     OW36832   0.651   1.347   0.942  0.2722 -0.9221 -0.2049
 8458SOL    HW136833   0.616   1.326   1.029  0.5877 -0.2152  0.0988
 8458SOL    HW236834   0.566   1.351   0.897 -0.4841  2.4966  1.4922
 8459SOL     OW36835   4.463   0.128  16.513  0.3387 -0.0551 -0.4913
 8459SOL    HW136836   4.440   0.217  16.539  0.7719 -0.0772 -0.0451
 8459SOL    HW236837   4.380   0.081  16.499  0.7847 -1.0971  0.3095
 8460SOL     OW36838   2.029   1.097   7.147  0.6881 -0.1188  0.4033
 8460SOL    HW136839   1.966   1.027   7.166 -0.4718  0.6554 -0.5913
 8460SOL    HW236840   1.994   1.179   7.181 -0.2966 -1.3887  2.5031
 8461SOL     OW36841   0.813   2.000  10.636  0.6935  0.1651  0.1530
 8461SOL    HW136842   0.831   1.919  10.684 -1.4387  0.7499  1.9561
 8461SOL    HW236843   0.880   2.058  10.672  1.2217  0.6527 -1.6277
 8462SOL     OW36844   3.382   4.458   1.889  0.1894  0.2291  0.6555
 8462SOL    HW136845   3.354   4.432   1.802  2.4935  0.2210 -0.0875
 8462SOL    HW236846   3.299   4.499   1.913 -0.7188 -1.5385  0.5323
 8463SOL     OW36847   4.406   2.011   4.811  0.5036  0.6808 -0.1202
 8463SOL    HW136848   4.452   2.076   4.864 -0.7123 -0.9730  3.0169
 8463SOL    HW236849   4.321   2.056   4.811  0.7565  1.1418 -1.5845
 8464SOL     OW36850   3.425   1.986   0.346  0.0584  0.3017  0.0755
 8464SOL    HW136851   3.517   2.000   0.367  0.4750 -0.0838 -1.4839
 8464SOL    HW236852   3.434   1.999   0.252  5.2358 -3.1398  0.0856
 8465SOL     OW36853   1.644   2.124  14.119  0.3341  0.0959 -0.0653
 8465SOL    HW136854   1.573   2.166  14.168  0.7171 -1.2893  1.6754
 8465SOL    HW236855   1.615   2.104  14.030  0.6129 -0.6137  0.0061
 8466SOL     OW36856   0.701   3.051   2.726  0.3427  0.5300 -0.3069
 8466SOL    HW136857   0.653   2.988   2.673  2.2349  0.0797 -1.4704
 8466SOL    HW236858   0.628   3.106   2.755 -0.0261 -0.5953  0.8910
 8467SOL     OW36859   2.781   0.199   5.167 -0.4075 -0.2816  0.6550
 8467SOL    HW136860   2.727   0.274   5.145  2.1150  0.9022 -1.5511
 8467SOL    HW236861   2.731   0.161   5.238 -0.9729 -0.6144  0.0753
 8468SOL     OW36862   3.335   2.880   7.737 -0.0439 -1.1043  0.0559
 8468SOL    HW136863   3.360   2.858   7.647  2.8583  1.0818  0.3119
 8468SOL    HW236864   3.419   2.868   7.781  0.1174  2.7981  0.7927
 8469SOL     OW36865   3.991   2.207   0.164 -0.5984 -0.0471  0.2123
 8469SOL    HW136866   4.038   2.125   0.180 -0.6528  0.0199  0.7138
 8469SOL    HW236867   4.010   2.258   0.243  2.6025  0.8192 -1.1072
 8470SOL     OW36868   1.723   1.331  13.654  0.2417  0.3713 -0.7095
 8470SOL    HW136869   1.674   1.315  13.574 -0.1430  1.3292 -0.6587
 8470SOL    HW236870   1.815   1.324  13.627  0.6611  1.3053  0.4802
 8471SOL     OW36871   1.611   1.539   8.800 -0.5735  0.0266 -0.5437
 8471SOL    HW136872   1.559   1.520   8.722  0.3812 -1.0275 -0.9188
 8471SOL    HW236873   1.541   1.539   8.864 -0.8925  2.6676 -0.8713
 8472SOL     OW36874   1.097   0.043   0.231 -0.6624 -0.5587 -0.1335
 8472SOL    HW136875   1.047   0.045   0.312  0.8771  2.7220  0.7277
 8472SOL    HW236876   1.063   0.123   0.192  1.2220  0.2301 -0.1842
 8473SOL     OW36877   0.755   1.664   5.958 -0.2151  0.2138 -0.1404
 8473SOL    HW136878   0.692   1.647   5.888 -1.0017  1.3127  0.2975
 8473SOL    HW236879   0.822   1.722   5.922  0.4733 -0.2575  0.3973
 8474SOL     OW36880   1.836   3.944  16.263  0.4121  0.4846  0.4446
 8474SOL    HW136881   1.764   3.899  16.219 -0.9630  1.8741  1.2591
 8474SOL    HW236882   1.804   3.936  16.353 -2.0626  0.0909 -0.4685
 8475SOL     OW36883   0.017   0.597   0.794  0.3988 -0.0441 -0.1732
 8475SOL    HW136884   4.669   0.641   0.755  1.5870  0.8360 -1.4863
 8475SOL    HW236885   0.024   0.515   0.745 -0.3978  0.1315 -0.5762
 8476SOL     OW36886   2.320   4.389   7.837  0.2185 -0.3963 -0.1370
 8476SOL    HW136887   2.352   4.478   7.847  1.7036 -1.2768  3.0316
 8476SOL    HW236888   2.300   4.365   7.928  0.9449  0.6143  0.2906
 8477SOL     OW36889   3.678   3.309   2.582 -0.6211  0.5560 -0.2830
 8477SOL    HW136890   3.673   3.236   2.520 -0.4270 -1.4947  2.0809
 8477SOL    HW236891   3.593   3.352   2.574 -0.2370  0.9099 -2.4289
 8478SOL     OW36892   1.119   2.522   3.431  0.1302 -0.1372  0.7630
 8478SOL    HW136893   1.211   2.535   3.455 -0.1111  0.3927  1.3918
 8478SOL    HW236894   1.095   2.612   3.409  2.2546  0.8375  2.4031
 8479SOL     OW36895   0.892   3.701  12.896  0.3254  0.3130 -0.2478
 8479SOL    HW136896   0.864   3.617  12.931 -0.1365  1.2760  1.7043
 8479SOL    HW236897   0.831   3.759  12.941  0.1665  1.4908 -1.9587
 8480SOL     OW36898   2.069   2.740   9.301 -0.0383  0.1143 -0.8454
 8480SOL    HW136899   2.079   2.835   9.311  0.0029  0.1298 -1.0504
 8480SOL    HW236900   2.156   2.715   9.332  1.3180  2.0238 -3.1098
 8481SOL     OW36901   4.061   4.468   9.160 -0.1593 -0.3711 -0.3521
 8481SOL    HW136902   4.139   4.513   9.126 -0.4837  1.5461  1.4586
 8481SOL    HW236903   4.047   4.518   9.240  0.1464 -1.5249  0.4140
 8482SOL     OW36904   3.778   1.388   1.222 -0.4408 -0.2675  0.3721
 8482SOL    HW136905   3.873   1.380   1.213 -0.2786 -0.5591  2.1564
 8482SOL    HW236906   3.755   1.423   1.137 -1.3773  0.6710  1.0115
 8483SOL     OW36907   2.994   3.400   1.524  0.1981 -0.1379 -0.2065
 8483SOL    HW136908   2.976   3.388   1.431 -0.8079  1.4736 -0.2220
 8483SOL    HW236909   2.993   3.496   1.515 -0.0636 -0.1695 -0.5455
 8484SOL     OW36910   4.549   0.148   7.205  0.0552  0.0838  0.0337
 8484SOL    HW136911   4.454   0.162   7.196 -0.0517 -0.6091  0.0438
 8484SOL    HW236912   4.578   0.213   7.268 -1.7258 -0.3834  1.3268
 8485SOL     OW36913   4.400   3.924   5.762 -0.9374  0.3104 -0.0718
 8485SOL    HW136914   4.441   3.934   5.848 -0.2757  0.3390 -0.3882
 8485SOL    HW236915   4.336   3.856   5.785  1.6385 -1.9140  0.5761
 8486SOL     OW36916   2.432   2.920   0.493 -0.1780 -0.0427 -0.1716
 8486SOL    HW136917   2.503   2.855   0.494 -1.3791 -1.3282  1.4283
 8486SOL    HW236918   2.386   2.910   0.409  1.6933 -1.2980 -1.0642
 8487SOL     OW36919   3.626   4.177   6.917  0.7916 -0.6714  0.0898
 8487SOL    HW136920   3.569   4.100   6.914 -0.3265  0.2049 -1.5552
 8487SOL    HW236921   3.664   4.182   6.829  1.9243  0.6840  0.6571
 8488SOL     OW36922   2.718   1.063  15.941 -0.4447  0.4458  0.4937
 8488SOL    HW136923   2.685   1.131  16.000 -0.9111 -0.1993  0.9748
 8488SOL    HW236924   2.668   0.990  15.977  0.8871 -0.6058  0.1779
 8489SOL     OW36925   1.145   4.703   5.757  0.0455  0.6236 -0.9723
 8489SOL    HW136926   1.233   0.002   5.728  0.2499  1.0763  0.0424
 8489SOL    HW236927   1.095   4.715   5.676 -4.7835 -2.4969  1.5560
 8490SOL     OW36928   2.741   4.313   8.712  0.3884  0.0333  0.5719
 8490SOL    HW136929   2.672   4.290   8.650  0.6676  0.0348  0.2594
 8490SOL    HW236930   2.758   4.405   8.688 -1.6343  0.1124 -0.5823
 8491SOL     OW36931   0.880   2.913   8.011  0.1564  0.1546  0.0845
 8491SOL    HW136932   0.804   2.863   8.041  0.1446  0.4378  0.5425
 8491SOL    HW236933   0.840   2.943   7.929  0.3369  1.6656  0.5396
 8492SOL     OW36934   0.376   1.350  16.383  0.2947  0.6170 -0.4994
 8492SOL    HW136935   0.469   1.367  16.367  0.6696 -0.4069  0.6729
 8492SOL    HW236936   0.364   1.269  16.334 -0.3307  0.4963 -0.1500
 8493SOL     OW36937   2.221   0.606   6.751 -0.8025 -0.3843  0.1957
 8493SOL    HW136938   2.316   0.597   6.748 -1.0344 -2.3199 -2.0282
 8493SOL    HW236939   2.211   0.700   6.762 -1.5455 -0.3800 -0.4877
 8494SOL     OW36940   1.706   4.715   2.304  0.3678 -0.0285  0.0795
 8494SOL    HW136941   1.761   4.673   2.238 -1.4233 -0.5788 -1.0794
 8494SOL    HW236942   1.712   0.081   2.281 -3.4470  0.9573  2.9846
 8495SOL     OW36943   4.131   2.383   5.442 -0.7299 -0.2224  0.0663
 8495SOL    HW136944   4.086   2.394   5.526 -1.2953 -0.6607 -0.1821
 8495SOL    HW236945   4.115   2.470   5.406 -1.6024  0.8660  3.0872
 8496SOL     OW36946   3.596   1.814   4.201  0.3550  0.2036 -0.1314
 8496SOL    HW136947   3.525   1.843   4.143 -1.6729  0.3241  2.4350
 8496SOL    HW236948   3.570   1.729   4.236 -0.9948  2.2272  3.7919
 8497SOL     OW36949   0.536   2.551   2.481  0.4844 -0.7127 -0.6953
 8497SOL    HW136950   0.598   2.618   2.453 -0.4362  0.5875  0.3688
 8497SOL    HW236951   0.577   2.471   2.448  0.7414  0.0494 -2.2323
 8498SOL     OW36952   3.745   0.689   2.718  0.6233  0.3897  0.1191
 8498SOL    HW136953   3.829   0.665   2.759  0.4229 -0.1090  0.2363
 8498SOL    HW236954   3.777   0.772   2.683  2.6955 -0.7529 -0.7605
 8499SOL     OW36955   2.834   3.419  10.461 -0.2892 -1.0023  0.9134
 8499SOL    HW136956   2.859   3.407  10.553  2.7350  0.6563  0.3317
 8499SOL    HW236957   2.896   3.355  10.428  0.8404 -0.0592  1.1850
 8500SOL     OW36958   2.110   3.679   3.801  0.1737  0.2812 -0.6228
 8500SOL    HW136959   2.036   3.647   3.852 -1.1313  0.5545 -2.3488
 8500SOL    HW236960   2.109   3.775   3.807 -1.8180  0.0937  1.8471
 8501SOL     OW36961   1.441   2.392   4.258  0.0574 -0.4197  0.1376
 8501SOL    HW136962   1.503   2.465   4.261 -0.1423 -0.2304 -0.4828
 8501SOL    HW236963   1.460   2.365   4.168 -2.0372  0.4515 -0.5577
 8502SOL     OW36964   4.708   0.162  16.353  0.1893  0.0775 -0.1115
 8502SOL    HW136965   4.683   0.252  16.329 -2.3971 -0.6210 -0.0841
 8502SOL    HW236966   4.637   0.133  16.411 -0.3382 -1.4566 -1.5234
 8503SOL     OW36967   1.862   3.622   0.773 -0.0358 -0.3399  0.7389
 8503SOL    HW136968   1.928   3.571   0.727 -0.4750  0.1663 -0.4465
 8503SOL    HW236969   1.905   3.642   0.857 -1.8119  0.8137  1.3808
 8504SOL     OW36970   3.695   4.207   3.798  0.1128 -0.2837 -0.4535
 8504SOL    HW136971   3.766   4.236   3.741  0.1363 -0.6443 -0.6007
 8504SOL    HW236972   3.672   4.124   3.759  2.0216  0.3394 -2.8848
 8505SOL     OW36973   3.120   1.809   3.485 -0.4291  0.1807  0.2111
 8505SOL    HW136974   3.125   1.773   3.396 -0.4040 -0.5402  0.5018
 8505SOL    HW236975   3.091   1.731   3.533 -0.5974  1.8162  2.7173
 8506SOL     OW36976   0.285   3.306   3.487  0.2828  0.2066  0.8169
 8506SOL    HW136977   0.322   3.218   3.494  1.9722  0.8413 -0.1775
 8506SOL    HW236978   0.311   3.342   3.572  1.4675 -0.3157  0.6725
 8507SOL     OW36979   0.667   0.289   8.265 -0.3805  1.0487  0.0329
 8507SOL    HW136980   0.738   0.299   8.328  1.5125 -4.0188 -1.2658
 8507SOL    HW236981   0.711   0.320   8.186  2.0407 -2.5412 -0.0108
 8508SOL     OW36982   1.195   0.294   4.452  0.3609  0.1140  0.1371
 8508SOL    HW136983   1.249   0.371   4.438 -0.4668  0.9391  1.4767
 8508SOL    HW236984   1.267   0.232   4.437 -1.1096 -1.9291  1.5771
 8509SOL     OW36985   1.476   3.991   4.716 -0.2155 -0.3299 -0.0667
 8509SOL    HW136986   1.432   3.917   4.675 -1.0626 -0.2641  0.7256
 8509SOL    HW236987   1.404   4.040   4.755 -2.1281 -2.1284 -1.4088
 8510SOL     OW36988   1.327   0.273   8.068 -0.3632 -0.0243  0.0466
 8510SOL    HW136989   1.259   0.338   8.089 -1.4890 -0.7692 -1.3268
 8510SOL    HW236990   1.337   0.243   8.158 -2.1268  0.2467  0.3336
 8511SOL     OW36991   4.470   1.324   9.778 -0.5184 -0.0811 -0.4023
 8511SOL    HW136992   4.444   1.296   9.690 -3.3500 -1.9659  1.0125
 8511SOL    HW236993   4.562   1.349   9.769 -0.4717  0.1215  0.6051
 8512SOL     OW36994   4.613   2.286   3.095 -0.0735  0.2390 -0.2026
 8512SOL    HW136995   4.687   2.245   3.051  0.4146 -1.3721  2.1079
 8512SOL    HW236996   4.661   2.346   3.151 -0.2940  2.3973 -2.3497
 8513SOL     OW36997   3.157   0.891  17.673 -0.1418  0.9090 -0.4470
 8513SOL    HW136998   3.068   0.925  17.661  0.6338  2.2852 -2.2899
 8513SOL    HW236999   3.141   0.807   0.007  0.5589  1.9506  1.8837
 8514SOL     OW37000   1.148   1.193   6.123  0.3729 -0.3747 -0.0190
 8514SOL    HW137001   1.089   1.155   6.188  0.4944 -0.6145 -0.0498
 8514SOL    HW237002   1.148   1.131   6.050  3.0126 -1.5356  0.9568
 8515SOL     OW37003   0.129   1.829   1.333  0.4073 -0.0677  0.2012
 8515SOL    HW137004   0.204   1.873   1.294  1.1094 -0.9469  0.5721
 8515SOL    HW237005   0.116   1.771   1.258 -0.4817 -1.5651  1.5270
 8516SOL     OW37006   3.368   4.017   3.058 -0.5068  0.1560  0.8806
 8516SOL    HW137007   3.439   4.002   3.120 -0.8316  0.0707  1.2365
 8516SOL    HW237008   3.290   4.026   3.113 -1.5606  0.2163 -0.6284
 8517SOL     OW37009   3.634   3.258   4.770  0.3259 -0.7251 -0.3141
 8517SOL    HW137010   3.614   3.310   4.693 -1.5723  0.3324  0.9136
 8517SOL    HW237011   3.587   3.293   4.846  0.3431 -0.3775 -0.4669
 8518SOL     OW37012   0.561   0.457   5.076  1.0037 -0.1259  0.4744
 8518SOL    HW137013   0.558   0.403   4.998  0.3037  1.4368 -0.5941
 8518SOL    HW237014   0.542   0.536   5.025  0.8209 -1.0831 -0.9231
 8519SOL     OW37015   1.959   2.341  17.178 -0.7513 -0.0492  0.1681
 8519SOL    HW137016   2.013   2.280  17.128 -2.5067 -1.9734  0.5898
 8519SOL    HW237017   2.016   2.417  17.187 -0.4465 -0.4836  2.0264
 8520SOL     OW37018   2.999   2.346   9.672 -0.3024 -0.0829 -0.7116
 8520SOL    HW137019   3.029   2.299   9.594  1.1380 -1.6596  0.7812
 8520SOL    HW237020   2.981   2.437   9.651 -0.9308  0.2818  1.4265
 8521SOL     OW37021   1.227   3.537   4.571  0.1290 -0.6400  0.9712
 8521SOL    HW137022   1.136   3.525   4.546  0.1158  1.1651  0.1885
 8521SOL    HW237023   1.258   3.470   4.511  0.0267 -0.4049  0.6526
 8522SOL     OW37024   1.977   1.342   1.087 -0.3207  0.4921 -0.1413
 8522SOL    HW137025   2.019   1.381   1.010 -0.5795  1.3217  0.1435
 8522SOL    HW237026   1.922   1.415   1.116 -0.9830 -0.5589  1.2361
 8523SOL     OW37027   4.037   1.106  11.880  0.9541  0.3405 -0.5098
 8523SOL    HW137028   4.127   1.129  11.854  2.3996  1.0105  5.0116
 8523SOL    HW237029   4.032   1.020  11.838 -3.1117  0.1197  0.4647
 8524SOL     OW37030   0.476   4.581   9.533  0.0295 -0.4642 -0.0461
 8524SOL    HW137031   0.553   4.623   9.572 -0.3246  0.2043 -0.0809
 8524SOL    HW237032   0.485   4.612   9.444  0.8489 -1.0808 -0.1838
 8525SOL     OW37033   2.061   4.340  16.481  0.4301 -0.0183 -0.1272
 8525SOL    HW137034   2.014   4.281  16.540 -1.0728  0.2649 -1.0304
 8525SOL    HW237035   2.149   4.354  16.516 -0.4443  0.5654  1.8581
 8526SOL     OW37036   1.517   1.993   2.064  0.0215  0.2321 -0.1108
 8526SOL    HW137037   1.510   2.074   2.015  1.1700  1.0346  1.0575
 8526SOL    HW237038   1.439   1.944   2.035 -1.1367  1.1664  1.4595
 8527SOL     OW37039   3.189   1.497  11.156 -0.1971  0.1830 -0.2423
 8527SOL    HW137040   3.178   1.438  11.231  1.0908 -0.6235 -0.6787
 8527SOL    HW237041   3.233   1.448  11.087 -1.6967 -3.7286  1.5303
 8528SOL     OW37042   1.213   1.302   7.983 -0.1337  0.5310  0.2061
 8528SOL    HW137043   1.119   1.308   7.964  0.0200  2.1632 -0.0420
 8528SOL    HW237044   1.232   1.216   7.947 -0.0757  0.8985 -0.6478
 8529SOL     OW37045   3.991   0.806   5.266 -0.6136 -0.1721  0.1563
 8529SOL    HW137046   3.927   0.750   5.222 -0.8902  0.5644 -0.3761
 8529SOL    HW237047   4.049   0.742   5.306 -1.8321  0.7210  3.3243
 8530SOL     OW37048   0.351   0.679  17.429 -0.6002  0.1914  0.7949
 8530SOL    HW137049   0.256   0.665  17.424 -0.2951 -1.5273 -0.2236
 8530SOL    HW237050   0.353   0.766  17.471 -1.1931  1.5801 -2.0270
 8531SOL     OW37051   0.469   1.662   0.572 -0.3500 -0.1993  0.1057
 8531SOL    HW137052   0.548   1.643   0.623 -0.7694  0.8977  1.1682
 8531SOL    HW237053   0.503   1.648   0.484 -0.0213 -0.7505  0.3190
 8532SOL     OW37054   3.903   0.270   4.454  0.3565  0.6442  0.3031
 8532SOL    HW137055   3.856   0.244   4.533 -1.2200  2.0582 -0.1550
 8532SOL    HW237056   3.889   0.194   4.397  2.3093  1.8173 -1.7453
 8533SOL     OW37057   2.903   3.992   9.913 -0.5932 -1.0886 -0.1910
 8533SOL    HW137058   2.960   3.923   9.949  0.3807  0.1074  0.5630
 8533SOL    HW237059   2.951   3.997   9.831 -1.8614 -1.0572 -0.9227
 8534SOL     OW37060   4.527   1.617  13.385 -0.5276 -0.1769  0.9072
 8534SOL    HW137061   4.521   1.531  13.426  0.3223  0.3215  2.0942
 8534SOL    HW237062   4.527   1.668  13.466 -0.5351 -0.1587  0.8957
 8535SOL     OW37063   4.207   2.597   6.991 -0.1015 -0.0584  0.7812
 8535SOL    HW137064   4.284   2.622   7.042 -0.0281 -1.1044  1.1779
 8535SOL    HW237065   4.237   2.594   6.900 -1.0292 -2.6849  0.5664
 8536SOL     OW37066   2.414   4.087   4.642  0.4525 -0.5099 -0.7142
 8536SOL    HW137067   2.355   4.015   4.667  2.3649 -1.5414  0.8208
 8536SOL    HW237068   2.479   4.060   4.706 -0.0167 -0.2056 -0.1086
 8537SOL     OW37069   1.874   0.162   8.624  0.0649  0.3180  0.0787
 8537SOL    HW137070   1.890   0.204   8.539  0.4096 -0.0634 -0.0450
 8537SOL    HW237071   1.846   0.075   8.596  1.0693 -0.8648  2.7804
 8538SOL     OW37072   3.630   0.643   3.467  0.2137 -0.0400 -0.4431
 8538SOL    HW137073   3.685   0.670   3.541 -0.2484 -1.0481  0.2789
 8538SOL    HW237074   3.543   0.624   3.501 -0.6565  3.3086 -0.8567
 8539SOL     OW37075   4.326   2.214   0.139  0.0337 -0.2332  0.7713
 8539SOL    HW137076   4.257   2.148   0.136 -0.2931  0.0649  1.7543
 8539SOL    HW237077   4.338   2.229   0.045  1.2201 -0.9561  0.8121
 8540SOL     OW37078   3.483   0.057   8.650  0.1443 -0.0609 -0.0592
 8540SOL    HW137079   3.543   4.724   8.694 -0.4902 -1.1702 -0.7275
 8540SOL    HW237080   3.445   4.723   8.588  1.2154 -0.5739 -0.2172
 8541SOL     OW37081   3.361   4.666   7.298  0.0336  0.0666  0.0101
 8541SOL    HW137082   3.329   0.020   7.339  1.6330  1.6208 -1.8084
 8541SOL    HW237083   3.453   4.688   7.286 -0.2176  1.3155  0.3804
 8542SOL     OW37084   4.305   3.501   7.517  0.0200  0.5040  0.7849
 8542SOL    HW137085   4.341   3.441   7.452 -0.2244 -0.4145  1.4874
 8542SOL    HW237086   4.384   3.535   7.559  2.0551 -1.8763 -1.0933
 8543SOL     OW37087   2.798   2.975   4.158 -0.3923 -0.3719 -0.1338
 8543SOL    HW137088   2.872   3.033   4.138  0.1712 -2.1886 -3.1803
 8543SOL    HW237089   2.719   3.027   4.144 -0.8986 -0.4992  2.2146
 8544SOL     OW37090   4.464   1.172  15.078  0.0286  0.1209  0.2905
 8544SOL    HW137091   4.431   1.170  14.988  2.6289  0.9992 -0.6952
 8544SOL    HW237092   4.466   1.080  15.101  0.1649 -0.0091 -0.2317
 8545SOL     OW37093   1.808   2.754   6.058 -0.8584  0.0555  0.2486
 8545SOL    HW137094   1.823   2.660   6.043  0.5517  0.7298 -2.5502
 8545SOL    HW237095   1.866   2.769   6.133 -1.2552 -2.4125  1.0792
 8546SOL     OW37096   0.047   0.553   7.810  0.0117 -0.0378  0.4897
 8546SOL    HW137097   4.711   0.594   7.869 -0.3491  2.2489 -1.5002
 8546SOL    HW237098   0.030   0.597   7.727  1.7131 -0.3707 -0.0424
 8547SOL     OW37099   0.381   0.364  11.390  0.2264 -0.1903 -0.6346
 8547SOL    HW137100   0.459   0.354  11.336  0.3028 -1.2885 -0.3342
 8547SOL    HW237101   0.401   0.432  11.454 -1.7545 -1.1163  0.9713
 8548SOL     OW37102   0.456   1.293   2.728 -0.5746 -0.1149 -0.5313
 8548SOL    HW137103   0.372   1.289   2.683  0.2468  0.7671 -2.1215
 8548SOL    HW237104   0.434   1.261   2.815 -0.2241 -1.5197 -0.9574
 8549SOL     OW37105   1.144   0.030   1.206 -0.1430  0.1803 -0.0972
 8549SOL    HW137106   1.068   0.064   1.252  0.7758 -1.1627  2.3881
 8549SOL    HW237107   1.217   0.021   1.267 -0.8734  1.8848  1.0380
 8550SOL     OW37108   0.906   4.156   3.996 -0.2072 -0.2235 -0.1693
 8550SOL    HW137109   0.836   4.217   4.018 -0.0825  0.1175 -0.6902
 8550SOL    HW237110   0.876   4.075   4.036 -1.7343 -0.3469 -1.5371
 8551SOL     OW37111   1.026   2.901   8.549  0.0921  0.2726  0.9560
 8551SOL    HW137112   1.005   2.904   8.456 -1.6092  0.5298  1.3649
 8551SOL    HW237113   1.116   2.934   8.556 -0.0026  0.8640 -0.7376
 8552SOL     OW37114   1.545   4.676   5.947 -0.1059  0.2589 -0.7257
 8552SOL    HW137115   1.562   0.036   5.910 -4.8486  0.1540 -3.2075
 8552SOL    HW237116   1.479   4.694   6.015 -1.3033  0.0313 -1.8273
 8553SOL     OW37117   1.344   3.920   3.187 -0.1772  0.3202 -0.5447
 8553SOL    HW137118   1.422   3.911   3.132  0.5828  1.3868  0.3539
 8553SOL    HW237119   1.308   4.005   3.161 -1.5276  0.2864  1.2536
 8554SOL     OW37120   2.022   1.490  16.777  0.5489  0.0642  0.2507
 8554SOL    HW137121   2.028   1.440  16.696  1.6167  0.0610  0.3352
 8554SOL    HW237122   2.008   1.575  16.735 -0.9824  0.1701  0.9771
 8555SOL     OW37123   2.271   3.031   3.599  0.1690 -0.0163 -0.5866
 8555SOL    HW137124   2.322   2.951   3.590 -0.7082 -0.5739 -0.5706
 8555SOL    HW237125   2.341   3.090   3.627 -0.9819  1.0749  0.0239
 8556SOL     OW37126   2.575   1.281   2.935  1.2817  0.0791  0.2398
 8556SOL    HW137127   2.631   1.208   2.909  1.7813  0.6442 -0.2950
 8556SOL    HW237128   2.526   1.300   2.855  1.2083 -1.0961  0.0064
 8557SOL     OW37129   0.769   2.772   6.958 -0.2621 -0.0518  0.5458
 8557SOL    HW137130   0.780   2.782   6.863 -0.7988 -0.4093  0.4446
 8557SOL    HW237131   0.855   2.807   6.977 -0.0973 -0.5943  0.8133
 8558SOL     OW37132   2.184   0.291   8.374  0.4112  0.4353  0.0243
 8558SOL    HW137133   2.091   0.277   8.392  0.6414 -0.8238  0.2497
 8558SOL    HW237134   2.178   0.373   8.327  0.8713  0.2783 -0.3157
 8559SOL     OW37135   1.424   3.169  14.247  0.6233 -0.0887  0.2769
 8559SOL    HW137136   1.351   3.147  14.189  2.6872 -2.4830 -1.4343
 8559SOL    HW237137   1.471   3.085  14.250  2.0605  0.7003 -0.0076
 8560SOL     OW37138   1.426   4.212   8.801  0.6197 -0.0824  0.0116
 8560SOL    HW137139   1.427   4.124   8.839  1.0637 -0.0747  0.0240
 8560SOL    HW237140   1.347   4.246   8.842 -0.1466 -1.7552 -0.0772
 8561SOL     OW37141   2.153   1.579   1.248  0.1998 -0.0382  0.1249
 8561SOL    HW137142   2.093   1.570   1.174 -0.8833 -0.0071  1.0011
 8561SOL    HW237143   2.120   1.654   1.297 -0.2406  0.4566 -0.9191
 8562SOL     OW37144   3.035   0.537   6.991 -0.2829  0.0559  0.7712
 8562SOL    HW137145   3.033   0.485   7.072 -1.5253 -0.6471  0.2906
 8562SOL    HW237146   2.963   0.598   7.008 -0.8423  0.0059 -1.4933
 8563SOL     OW37147   2.510   0.953  12.131  0.0439  0.4912  0.1674
 8563SOL    HW137148   2.479   0.867  12.160 -0.0462 -0.3019 -2.2885
 8563SOL    HW237149   2.531   0.989  12.218 -1.9950  0.1648  0.7944
 8564SOL     OW37150   3.490   2.151   2.469  0.0728 -0.1436 -0.1165
 8564SOL    HW137151   3.509   2.227   2.414  0.8586 -0.8387 -0.8061
 8564SOL    HW237152   3.468   2.184   2.556 -0.5129 -0.8532  0.0072
 8565SOL     OW37153   2.839   1.399   6.349 -0.8756  0.4869  0.1748
 8565SOL    HW137154   2.770   1.352   6.396 -3.4036  1.4542 -2.5531
 8565SOL    HW237155   2.870   1.336   6.285  0.5715 -2.0675  3.4234
 8566SOL     OW37156   4.358   3.882   8.421  0.1423 -0.3378  0.1408
 8566SOL    HW137157   4.289   3.846   8.476 -0.8432  1.6237  0.1943
 8566SOL    HW237158   4.321   3.861   8.336 -1.7009  0.2038  0.8123
 8567SOL     OW37159   0.794   4.672   4.951 -0.3381 -0.0097  0.1151
 8567SOL    HW137160   0.771   4.580   4.963 -0.4407 -0.0626 -0.4614
 8567SOL    HW237161   0.746   4.712   5.024 -0.9853  0.7392 -0.7141
 8568SOL     OW37162   0.455   1.040   2.617  0.5262 -0.9202 -0.5839
 8568SOL    HW137163   0.375   0.994   2.644  0.4839 -0.2692  0.4113
 8568SOL    HW237164   0.466   1.109   2.683 -2.1280 -1.1688  0.1297
 8569SOL     OW37165   1.877   4.381   3.490  0.1293  0.0666  0.0164
 8569SOL    HW137166   1.951   4.424   3.533  0.0538  0.4079 -0.1975
 8569SOL    HW237167   1.872   4.439   3.414  1.9577 -1.1259 -1.0259
 8570SOL     OW37168   2.676   0.260  10.745  0.0279 -0.2065  0.0908
 8570SOL    HW137169   2.667   0.291  10.655  1.5508 -1.9526 -0.6784
 8570SOL    HW237170   2.771   0.253  10.757 -0.2524 -2.8637  0.6917
 8571SOL     OW37171   4.227   0.011   4.050 -0.6525  0.0956 -0.8812
 8571SOL    HW137172   4.198   0.071   4.119 -1.2076 -2.2188  0.9260
 8571SOL    HW237173   4.220   4.655   4.097 -0.7502  0.4417 -0.2831
 8572SOL     OW37174   0.778   3.912  13.559 -0.1979  0.1901 -0.0533
 8572SOL    HW137175   0.804   3.822  13.579 -0.8669 -0.3632 -1.6500
 8572SOL    HW237176   0.850   3.965  13.594  0.0192 -1.2324  1.6448
 8573SOL     OW37177   4.151   2.095  11.265  0.3331 -0.0011 -0.3657
 8573SOL    HW137178   4.193   2.178  11.287  1.2002 -0.8729  1.2848
 8573SOL    HW237179   4.080   2.079  11.327 -0.1562 -2.4522 -1.5573
 8574SOL     OW37180   0.390   2.861  10.587 -0.0141 -0.1123  0.3156
 8574SOL    HW137181   0.481   2.835  10.571  0.4699  0.3665  2.3116
 8574SOL    HW237182   0.352   2.805  10.519  0.1775  1.3931 -1.0150
 8575SOL     OW37183   3.430   2.472   4.242 -0.8961  0.1371 -0.2219
 8575SOL    HW137184   3.449   2.380   4.256  1.4734  0.7945  0.9300
 8575SOL    HW237185   3.453   2.476   4.149  0.4033  0.7108  0.1169
 8576SOL     OW37186   1.632   1.422  11.201  0.3000  0.1072  0.1233
 8576SOL    HW137187   1.701   1.483  11.176  1.2383  0.1382  2.8510
 8576SOL    HW237188   1.668   1.384  11.281 -0.6375 -1.4668 -0.1825
 8577SOL     OW37189   3.045   3.169   4.134 -0.0622  0.0296  0.0771
 8577SOL    HW137190   3.049   3.198   4.225 -0.8427 -0.6025  0.3148
 8577SOL    HW237191   3.112   3.101   4.136 -1.3218 -1.1297  3.2724
 8578SOL     OW37192   0.135   2.173  12.634  0.1021  0.1263 -0.3604
 8578SOL    HW137193   0.058   2.135  12.677 -0.5955  2.2974  0.2827
 8578SOL    HW237194   0.212   2.160  12.689  0.6220  0.8242 -0.9292
 8579SOL     OW37195   4.291   1.335   1.288 -0.2525  0.0077 -0.5157
 8579SOL    HW137196   4.385   1.337   1.305 -0.6864 -0.0113  1.9374
 8579SOL    HW237197   4.286   1.420   1.243 -0.3141  0.4088  0.2344
 8580SOL     OW37198   3.789   1.006   5.223  0.2905 -0.1049  0.4273
 8580SOL    HW137199   3.832   0.956   5.293 -2.1761 -1.3438  1.0532
 8580SOL    HW237200   3.719   0.948   5.191 -1.7086  2.1225  0.8431
 8581SOL     OW37201   3.519   3.783   8.149 -0.2493 -0.6276 -0.3006
 8581SOL    HW137202   3.562   3.867   8.168 -0.7588 -0.7891  1.5909
 8581SOL    HW237203   3.458   3.803   8.078 -2.3164 -1.0221  1.3728
 8582SOL     OW37204   4.157   2.990   1.068 -0.0367 -0.4659 -0.6389
 8582SOL    HW137205   4.107   2.925   1.020 -1.5371 -0.4551  0.9042
 8582SOL    HW237206   4.101   3.068   1.070  0.4085 -0.1968  1.4487
 8583SOL     OW37207   2.276   1.168   9.344 -0.1976 -0.5908  1.1825
 8583SOL    HW137208   2.268   1.241   9.282  0.6746 -1.3093  0.2226
 8583SOL    HW237209   2.371   1.157   9.338 -0.3289 -0.5642 -0.9773
 8584SOL     OW37210   4.195   3.301   7.709  0.8819  0.3267  0.2698
 8584SOL    HW137211   4.255   3.230   7.684  0.2787  0.5080 -1.6849
 8584SOL    HW237212   4.243   3.383   7.698  0.0337  1.0346  1.8473
 8585SOL     OW37213   1.251   4.603   4.794 -0.0550  0.0690 -0.3330
 8585SOL    HW137214   1.304   4.659   4.850  1.0351  0.5363 -1.8340
 8585SOL    HW237215   1.199   4.558   4.861 -1.0003  1.0407 -0.4127
 8586SOL     OW37216   1.128   4.523   5.470  0.5867  0.2396 -0.5424
 8586SOL    HW137217   1.061   4.555   5.531  0.5660  1.8471 -1.3956
 8586SOL    HW237218   1.181   4.465   5.524 -1.1752 -0.2488  0.6874
 8587SOL     OW37219   2.731   1.199   2.238 -0.3572 -0.2519 -0.3808
 8587SOL    HW137220   2.665   1.150   2.188 -0.0697  1.4476 -2.4194
 8587SOL    HW237221   2.692   1.286   2.244  1.5765  0.4752  1.7253
 8588SOL     OW37222   3.577   1.051   3.584  0.3800  0.3183  0.0494
 8588SOL    HW137223   3.518   1.095   3.522  0.7922  0.1201 -0.4878
 8588SOL    HW237224   3.540   0.963   3.576 -1.2067  0.7746  2.1754
 8589SOL     OW37225   1.708   0.605   3.314  0.3760 -0.1775  0.1379
 8589SOL    HW137226   1.775   0.651   3.265 -1.2872  1.7790 -0.3230
 8589SOL    HW237227   1.735   0.513   3.305 -0.5761 -0.7147  2.6635
 8590SOL     OW37228   1.671   1.600  13.743  0.1272 -0.1343  0.0759
 8590SOL    HW137229   1.666   1.506  13.729  2.3674 -0.1315 -0.7889
 8590SOL    HW237230   1.652   1.605  13.837  3.5640  1.5634  0.6871
 8591SOL     OW37231   2.918   1.410   2.237 -0.2002 -0.0499 -0.2044
 8591SOL    HW137232   2.992   1.416   2.298 -0.2010  0.3021 -0.2367
 8591SOL    HW237233   2.883   1.326   2.267  2.7115 -0.8158  1.1207
 8592SOL     OW37234   3.532   4.706   2.666  0.0398 -0.2629 -0.2530
 8592SOL    HW137235   3.466   4.655   2.712  0.2558  1.9437  2.4908
 8592SOL    HW237236   3.478   0.014   2.595  0.2444 -0.5793 -0.5624
 8593SOL     OW37237   1.075   0.212   6.479  0.1698  0.3440 -0.4724
 8593SOL    HW137238   1.041   0.149   6.543 -0.4192  1.5301  0.3864
 8593SOL    HW237239   1.006   0.278   6.471  0.1971  0.0317 -3.2391
 8594SOL     OW37240   4.414   2.765   9.647 -0.3235  0.3014 -0.4803
 8594SOL    HW137241   4.385   2.733   9.561  0.4698  0.7661 -0.9223
 8594SOL    HW237242   4.481   2.700   9.668 -2.0059 -1.9469 -2.1264
 8595SOL     OW37243   0.256   3.229   7.896  0.6398  0.0936 -0.1498
 8595SOL    HW137244   0.296   3.222   7.982 -1.6736 -3.2396  0.6372
 8595SOL    HW237245   0.191   3.299   7.900  0.6031 -0.0191  1.2157
 8596SOL     OW37246   2.112   1.878   2.201 -0.6330 -0.1421 -0.2219
 8596SOL    HW137247   2.131   1.882   2.295  0.4206  1.1843 -0.4848
 8596SOL    HW237248   2.152   1.955   2.160 -2.2563 -0.4561 -2.4128
 8597SOL     OW37249   0.822   2.798   6.660  0.3768  0.7051 -0.8475
 8597SOL    HW137250   0.849   2.888   6.675  1.3894  0.0141  1.5429
 8597SOL    HW237251   0.864   2.778   6.577 -1.3836 -1.2713 -1.2707
 8598SOL     OW37252   3.145   0.481  16.671 -0.5094  0.0547  0.6561
 8598SOL    HW137253   3.098   0.402  16.698 -1.0887  0.3455  0.4989
 8598SOL    HW237254   3.081   0.546  16.699 -0.2991  0.5142  0.0656
 8599SOL     OW37255   2.195   3.745   5.154 -0.4286  0.2559 -0.2930
 8599SOL    HW137256   2.136   3.817   5.135 -0.1794  0.3870 -0.5749
 8599SOL    HW237257   2.180   3.746   5.248 -2.1397  3.5443 -0.6039
 8600SOL     OW37258   2.339   3.479   5.293 -0.2131  0.3107 -0.0386
 8600SOL    HW137259   2.310   3.480   5.385 -0.6271 -2.8725 -0.1537
 8600SOL    HW237260   2.427   3.511   5.310  1.1127 -1.7311 -3.1834
 8601SOL     OW37261   4.539   0.751   2.892  0.3118 -0.0077  0.2148
 8601SOL    HW137262   4.475   0.794   2.836 -1.7825 -3.2846  0.1311
 8601SOL    HW237263   4.494   0.710   2.966 -3.0181 -2.0398 -2.9640
 8602SOL     OW37264   1.820   0.574   8.316 -0.3934  0.1179 -0.0708
 8602SOL    HW137265   1.773   0.599   8.396 -0.4323 -0.9175  0.2272
 8602SOL    HW237266   1.764   0.615   8.250 -1.9935 -0.1502  1.1057
 8603SOL     OW37267   2.812   3.867   5.827 -0.6074 -0.2273  0.1488
 8603SOL    HW137268   2.819   3.808   5.902  0.5311  0.9577  0.9599
 8603SOL    HW237269   2.816   3.803   5.756  1.3825 -0.9194  0.9003
 8604SOL     OW37270   0.271   2.286   2.646 -0.1698 -0.1751  0.0850
 8604SOL    HW137271   0.208   2.329   2.703  0.5037  0.2719  0.4915
 8604SOL    HW237272   0.222   2.277   2.564  1.0515 -0.6494 -0.5891
 8605SOL     OW37273   0.750   3.979  16.203 -0.0504 -0.0619  0.0750
 8605SOL    HW137274   0.706   4.015  16.125  0.3601  0.0949 -0.0851
 8605SOL    HW237275   0.776   3.889  16.183 -1.1122 -0.2343 -0.6031
 8606SOL     OW37276   2.954   2.832   9.443  0.5928 -0.0729  0.1098
 8606SOL    HW137277   2.948   2.762   9.507 -2.1804 -1.2583 -1.4521
 8606SOL    HW237278   2.981   2.903   9.501  1.6912  0.9484 -1.6156
 8607SOL     OW37279   3.157   0.836   4.182  0.4295  0.1580  0.4158
 8607SOL    HW137280   3.228   0.810   4.122  0.6589 -1.7703  1.5060
 8607SOL    HW237281   3.202   0.911   4.222 -0.2918  1.4504 -1.1926
 8608SOL     OW37282   2.747   2.451   8.172  0.7121  0.0578 -0.7875
 8608SOL    HW137283   2.785   2.396   8.239 -0.3810 -0.2487 -0.4200
 8608SOL    HW237284   2.807   2.460   8.098  0.4503  1.0753 -0.8813
 8609SOL     OW37285   2.820   2.777   5.537 -0.0126  0.0619  0.2027
 8609SOL    HW137286   2.901   2.826   5.535  0.1710 -0.2500 -0.0704
 8609SOL    HW237287   2.756   2.840   5.505  0.6936  1.0147  0.6973
 8610SOL     OW37288   2.015   2.644   0.776 -0.3195  0.3845 -0.1841
 8610SOL    HW137289   2.106   2.673   0.784 -0.6134  1.3741 -0.4720
 8610SOL    HW237290   1.994   2.647   0.869 -0.6034 -1.6754 -0.1766
 8611SOL     OW37291   1.670   1.031   5.023  0.5784  0.4360  0.3503
 8611SOL    HW137292   1.610   1.103   5.044 -0.0330 -0.0093  0.1253
 8611SOL    HW237293   1.728   1.034   5.099  0.3878  0.4821  0.4939
 8612SOL     OW37294   2.616   0.747   6.097 -0.0178 -0.0513  0.1885
 8612SOL    HW137295   2.571   0.828   6.071 -2.7784 -2.1570 -1.6869
 8612SOL    HW237296   2.543   0.703   6.141 -0.0734 -0.5619 -0.4108
 8613SOL     OW37297   4.480   2.895   8.062  0.0077 -0.6266  0.5595
 8613SOL    HW137298   4.397   2.860   8.027  0.1385 -0.6166  0.2371
 8613SOL    HW237299   4.457   2.891   8.155  0.4647  1.2941  0.7402
 8614SOL     OW37300   2.486   3.479  11.934 -0.2635 -0.1763 -0.7570
 8614SOL    HW137301   2.498   3.480  11.839 -0.5855  1.1309 -0.7788
 8614SOL    HW237302   2.495   3.386  11.956  0.8035  0.7094  2.5681
 8615SOL     OW37303   3.734   4.092  13.211  0.0306 -0.0581  0.5943
 8615SOL    HW137304   3.776   4.161  13.158 -0.3201  1.6442  2.5238
 8615SOL    HW237305   3.649   4.078  13.170  0.6586 -1.4060 -0.2440
 8616SOL     OW37306   3.365   2.866   7.039 -0.1877 -0.0602 -0.5620
 8616SOL    HW137307   3.270   2.878   7.042 -0.0486  0.7078  1.0098
 8616SOL    HW237308   3.377   2.791   6.981 -0.4100 -1.0433  0.6530
 8617SOL     OW37309   3.472   0.653   2.553  0.5118  0.0587  0.0374
 8617SOL    HW137310   3.469   0.632   2.460  2.4487 -1.6948  0.3654
 8617SOL    HW237311   3.567   0.666   2.555  0.2299  2.2106 -0.4559
 8618SOL     OW37312   2.578   1.408   2.142 -0.0797 -0.3553  0.4105
 8618SOL    HW137313   2.582   1.481   2.081 -2.1847 -1.3846 -0.9481
 8618SOL    HW237314   2.483   1.405   2.152 -0.0946 -2.4609 -0.3398
 8619SOL     OW37315   4.297   2.694   3.014 -0.0027  0.0795 -0.1838
 8619SOL    HW137316   4.291   2.669   2.922  0.7394 -2.7908  0.5431
 8619SOL    HW237317   4.297   2.609   3.057 -0.1057  0.5254  0.7086
 8620SOL     OW37318   2.922   2.649  14.966  0.1678 -0.0309  0.1069
 8620SOL    HW137319   2.973   2.592  14.908 -0.3206  3.1181 -3.3696
 8620SOL    HW237320   2.863   2.690  14.903 -1.1078 -0.0775  1.2685
 8621SOL     OW37321   0.737   1.733   1.256 -0.3908 -0.3786 -0.5879
 8621SOL    HW137322   0.664   1.789   1.281 -1.3297 -0.3835 -3.2796
 8621SOL    HW237323   0.691   1.649   1.247 -0.1711 -0.5663  0.0390
 8622SOL     OW37324   1.242   2.015  16.695 -0.3096 -0.0367  0.5180
 8622SOL    HW137325   1.283   1.995  16.779  1.6653 -2.1852 -0.9577
 8622SOL    HW237326   1.285   1.942  16.649  0.2449  0.1927  0.6719
 8623SOL     OW37327   1.588   3.923   5.161  0.4635  0.7096  0.2769
 8623SOL    HW137328   1.492   3.923   5.159  0.4911 -0.9207 -0.7951
 8623SOL    HW237329   1.610   3.959   5.075  1.1481 -0.1577  0.0969
 8624SOL     OW37330   2.480   1.597   4.782  0.3133 -0.1601 -0.1647
 8624SOL    HW137331   2.538   1.573   4.709 -0.7027 -2.5194 -0.2042
 8624SOL    HW237332   2.416   1.650   4.735  2.0125  0.7023 -1.5388
 8625SOL     OW37333   3.143   2.362   7.410  0.4077 -0.2519 -0.2081
 8625SOL    HW137334   3.151   2.432   7.475 -0.2978 -1.4796  1.2032
 8625SOL    HW237335   3.134   2.285   7.467  0.5407 -0.2461 -0.1787
 8626SOL     OW37336   3.028   4.281   7.743  0.1655  0.3033  0.2771
 8626SOL    HW137337   2.948   4.321   7.710  1.0008 -0.6387 -2.8857
 8626SOL    HW237338   3.060   4.342   7.810 -2.8379  1.1691  0.9116
 8627SOL     OW37339   3.603   0.687   7.155  0.4076 -0.2610 -0.1402
 8627SOL    HW137340   3.550   0.608   7.151 -0.6117  0.3923  0.2615
 8627SOL    HW237341   3.532   0.752   7.150  0.9108  0.2616 -0.4455
 8628SOL     OW37342   1.506   4.183  11.650  0.1880 -0.3630  0.3916
 8628SOL    HW137343   1.414   4.194  11.677  1.0100  2.2238  2.0533
 8628SOL    HW237344   1.493   4.105  11.595  0.2614 -0.0094 -0.1294
 8629SOL     OW37345   1.863   4.631   2.983 -0.0662 -0.2202  0.5691
 8629SOL    HW137346   1.909   4.570   2.925  2.7434  0.1769  2.3560
 8629SOL    HW237347   1.870   4.714   2.938  2.3586 -0.4706  0.4713
 8630SOL     OW37348   2.484   2.586  15.645  0.1683 -0.1030 -0.1421
 8630SOL    HW137349   2.436   2.526  15.588 -2.9521  3.3979 -1.2104
 8630SOL    HW237350   2.575   2.557  15.633  1.0290  2.6491 -0.2605
 8631SOL     OW37351   4.541   2.135   7.360 -0.0415  0.3964 -0.1896
 8631SOL    HW137352   4.625   2.158   7.320  1.2324  0.6724  2.6604
 8631SOL    HW237353   4.515   2.060   7.306  0.4835  0.7528 -0.9542
 8632SOL     OW37354   2.964   2.384   2.602 -0.0590 -0.3307 -0.1265
 8632SOL    HW137355   2.883   2.374   2.552 -0.5005  1.8840  0.1504
 8632SOL    HW237356   2.955   2.472   2.640  1.0430 -0.1116 -0.3642
 8633SOL     OW37357   0.189   0.789   5.186  0.6135  0.0060 -0.1730
 8633SOL    HW137358   0.197   0.762   5.278 -0.1731 -0.8473 -0.3499
 8633SOL    HW237359   0.103   0.833   5.190 -0.2212 -1.6173 -0.1541
 8634SOL     OW37360   0.106   3.487   9.079  0.4126  0.4611 -0.2903
 8634SOL    HW137361   0.161   3.549   9.127  1.1049 -2.6109  2.9132
 8634SOL    HW237362   0.020   3.524   9.097  0.3357  0.5965 -0.9261
 8635SOL     OW37363   2.276   1.820   4.333  0.5559  0.3981  0.1384
 8635SOL    HW137364   2.268   1.883   4.261 -1.3473 -0.1938 -0.1776
 8635SOL    HW237365   2.191   1.776   4.328  0.7370  0.0312  0.3584
 8636SOL     OW37366   1.706   0.071   1.399  0.1352 -0.6852 -0.2537
 8636SOL    HW137367   1.707   0.011   1.473  3.2286  0.4018  0.5882
 8636SOL    HW237368   1.747   0.152   1.429 -1.0080  0.1473 -0.9376
 8637SOL     OW37369   2.961   4.199   6.975  0.1403 -0.6266 -0.4319
 8637SOL    HW137370   2.929   4.288   6.962  0.1471 -0.4724  0.5683
 8637SOL    HW237371   3.051   4.201   6.942  0.1612 -1.5394 -0.4244
 8638SOL     OW37372   4.068   4.172   6.000 -0.1127  0.4988 -0.1308
 8638SOL    HW137373   4.162   4.182   5.983 -0.1856  2.5755  0.6590
 8638SOL    HW237374   4.059   4.202   6.090  1.3369 -0.7689  0.4301
 8639SOL     OW37375   1.053   2.094   4.853  0.2282  0.0164 -0.4339
 8639SOL    HW137376   0.978   2.035   4.859  1.6586 -1.7870 -0.2095
 8639SOL    HW237377   1.070   2.074   4.761  2.5105 -0.4385  0.0926
 8640SOL     OW37378   0.883   2.704   5.435 -0.1004  0.0883  0.8037
 8640SOL    HW137379   0.853   2.779   5.486  0.5358  2.2101 -1.9598
 8640SOL    HW237380   0.808   2.645   5.449 -0.3461  0.1710 -0.1825
 8641SOL     OW37381   2.254   3.972  17.485 -0.0022  0.2043 -0.0314
 8641SOL    HW137382   2.169   3.961  17.527  0.1097  0.8345  0.3515
 8641SOL    HW237383   2.300   4.043  17.529 -3.4339  1.7039  1.1259
 8642SOL     OW37384   2.189   1.776  10.078  0.0881 -0.4906 -0.3936
 8642SOL    HW137385   2.234   1.731  10.149 -2.0454  0.1834  1.3839
 8642SOL    HW237386   2.225   1.865  10.074  0.0087 -0.4338  0.2172
 8643SOL     OW37387   1.500   2.388   2.542 -0.7138 -0.5207  0.3656
 8643SOL    HW137388   1.413   2.388   2.582 -0.7038  0.0118  0.3917
 8643SOL    HW237389   1.488   2.412   2.450 -0.8674  0.2310  0.5855
 8644SOL     OW37390   0.449   0.014   3.683 -0.3988  0.0208  0.3893
 8644SOL    HW137391   0.525   0.065   3.655 -1.9227  1.6156 -0.8212
 8644SOL    HW237392   0.428   0.047   3.770 -0.7984 -2.3803  1.2106
 8645SOL     OW37393   0.414   3.059   4.824 -0.0384  0.6355 -0.2400
 8645SOL    HW137394   0.377   3.134   4.870 -1.0953 -0.1988  0.3005
 8645SOL    HW237395   0.501   3.061   4.864 -0.8089  0.2434  1.4320
 8646SOL     OW37396   3.099   1.610   0.851 -0.0472  0.4412  0.6511
 8646SOL    HW137397   3.147   1.616   0.768  0.2487 -1.4436  0.6909
 8646SOL    HW237398   3.171   1.556   0.885  1.8413  1.5581 -1.4811
 8647SOL     OW37399   1.058   0.757   4.138  0.1915 -0.0823 -0.5649
 8647SOL    HW137400   1.137   0.702   4.133  0.9103  0.9579 -0.5594
 8647SOL    HW237401   1.055   0.773   4.232  3.2515  1.5572 -0.7353
 8648SOL     OW37402   3.656   0.992  10.436 -0.0937 -0.7812 -0.7763
 8648SOL    HW137403   3.746   1.021  10.420  0.7667 -2.6207  0.6584
 8648SOL    HW237404   3.613   1.068  10.398 -2.2200 -1.1356  0.9197
 8649SOL     OW37405   0.648   3.325   7.837  0.3575 -0.3740  0.4194
 8649SOL    HW137406   0.566   3.374   7.845 -0.9666 -2.4398 -0.4723
 8649SOL    HW237407   0.645   3.312   7.742  1.1107 -1.6264  0.5645
 8650SOL     OW37408   0.955   4.221   6.561  0.3307 -0.5282  0.4405
 8650SOL    HW137409   1.005   4.292   6.601  0.2675 -0.0856 -0.2719
 8650SOL    HW237410   0.869   4.248   6.595  0.8187 -2.3005  3.1262
 8651SOL     OW37411   3.875   1.805   7.473  0.2352  0.4058 -0.0660
 8651SOL    HW137412   3.968   1.827   7.480  0.4880 -0.3804 -1.0533
 8651SOL    HW237413   3.836   1.830   7.557 -1.9401 -3.0570 -0.0777
 8652SOL     OW37414   3.057   4.002   0.009 -0.0120  0.8619 -0.3511
 8652SOL    HW137415   3.038   3.914  17.686  0.7644  1.5431 -2.6750
 8652SOL    HW237416   3.020   4.054  17.647 -0.1958 -0.6310 -1.3584
 8653SOL     OW37417   0.875   3.608   5.189 -0.5449 -0.9801 -0.2887
 8653SOL    HW137418   0.786   3.640   5.176  0.1748  1.0694 -0.1267
 8653SOL    HW237419   0.870   3.515   5.215  0.1996 -1.0427 -0.3704
 8654SOL     OW37420   4.229   1.769   6.867 -0.4521  0.1171 -0.6306
 8654SOL    HW137421   4.297   1.705   6.888 -1.3189 -0.3411  0.8312
 8654SOL    HW237422   4.158   1.713   6.835  0.4303 -1.2530 -0.1799
 8655SOL     OW37423   2.435   0.461  16.901 -0.4477  0.2587  0.3085
 8655SOL    HW137424   2.404   0.488  16.988  0.5140  1.1279  0.3844
 8655SOL    HW237425   2.379   0.505  16.837 -1.0990  0.1438  0.7938
 8656SOL     OW37426   2.644   4.034   2.457  0.0989 -0.0680 -0.7273
 8656SOL    HW137427   2.627   3.955   2.406 -0.1436 -1.4480  1.5185
 8656SOL    HW237428   2.613   4.103   2.398 -2.4764 -0.2635  0.3835
 8657SOL     OW37429   2.732   1.573   3.739 -0.1729  0.4920  0.5996
 8657SOL    HW137430   2.643   1.607   3.726 -1.3082 -3.3324 -1.4187
 8657SOL    HW237431   2.726   1.503   3.804  0.1769  0.1702  0.2762
 8658SOL     OW37432   0.090   1.799  11.275  0.2414  0.2464  0.5295
 8658SOL    HW137433   0.013   1.745  11.292 -0.4053  1.1881  0.6150
 8658SOL    HW237434   0.150   1.772  11.344 -0.2573  0.4311  1.0377
 8659SOL     OW37435   3.904   2.155   5.160  0.6902  0.0263 -0.5357
 8659SOL    HW137436   3.980   2.105   5.190 -1.5572 -3.1056 -0.0006
 8659SOL    HW237437   3.865   2.097   5.095 -0.6028 -0.1724  0.4008
 8660SOL     OW37438   3.732   1.748   5.381 -0.8442 -0.1614 -0.2312
 8660SOL    HW137439   3.744   1.681   5.449  0.0529 -0.9771 -1.1936
 8660SOL    HW237440   3.699   1.822   5.432  3.0060  0.9753  0.6032
 8661SOL     OW37441   0.402   1.012  15.288 -0.3352 -0.7742 -0.0803
 8661SOL    HW137442   0.405   0.962  15.207  1.1841  1.0249 -1.1240
 8661SOL    HW237443   0.489   1.001  15.326 -0.0897 -0.6794 -0.6260
 8662SOL     OW37444   1.326   3.150   2.454  0.0034  0.2668  0.3542
 8662SOL    HW137445   1.346   3.216   2.388  0.7819  0.3751  0.7007
 8662SOL    HW237446   1.407   3.102   2.466 -0.4042  0.2400  2.9053
 8663SOL     OW37447   1.012   1.469  10.458  0.2742 -0.0871 -0.2026
 8663SOL    HW137448   0.921   1.448  10.477  1.3995 -4.1741  0.6411
 8663SOL    HW237449   1.019   1.457  10.363  0.4971 -1.8371  0.0309
 8664SOL     OW37450   1.067   1.404   3.702  0.1934  0.8226  0.3756
 8664SOL    HW137451   1.067   1.466   3.629 -0.1058  0.1547 -0.1920
 8664SOL    HW237452   1.108   1.328   3.661  1.0477  0.3913  2.0164
 8665SOL     OW37453   0.419   0.636   2.234  0.8733 -0.5201  0.0474
 8665SOL    HW137454   0.420   0.716   2.286 -1.0080 -0.3221 -0.2196
 8665SOL    HW237455   0.328   0.649   2.210  1.0152  2.4828  1.1745
 8666SOL     OW37456   3.392   2.052   6.472 -0.1987  0.3044 -0.2815
 8666SOL    HW137457   3.442   2.006   6.539  0.5203  1.3242 -0.1064
 8666SOL    HW237458   3.379   2.143   6.498 -1.0409  0.4403 -1.1832
 8667SOL     OW37459   1.368   3.851   8.737 -0.1373 -0.0300  0.3307
 8667SOL    HW137460   1.438   3.805   8.689  2.1724  2.1171  1.6489
 8667SOL    HW237461   1.410   3.877   8.819  1.6478  0.5384 -0.7484
 8668SOL     OW37462   1.941   1.094  15.662 -0.2190 -0.1655 -0.1143
 8668SOL    HW137463   1.982   1.168  15.618 -3.2528  2.2995  1.2394
 8668SOL    HW237464   1.866   1.135  15.705 -1.1547  0.0765 -1.9705
 8669SOL     OW37465   3.372   3.709   4.661 -0.6621 -0.2499  0.0234
 8669SOL    HW137466   3.306   3.775   4.640  1.3783  1.2983 -1.4006
 8669SOL    HW237467   3.453   3.754   4.638 -0.5750 -0.3986  0.0361
 8670SOL     OW37468   2.937   0.909  13.354  0.0766 -0.2284 -0.1527
 8670SOL    HW137469   2.880   0.951  13.290  2.8592  1.8009 -1.2839
 8670SOL    HW237470   3.014   0.880  13.305  0.3139 -0.5732  0.4193
 8671SOL     OW37471   4.628   0.161  13.590  0.0039  0.6107 -0.3306
 8671SOL    HW137472   4.568   0.219  13.544  0.0285  0.1218 -0.9800
 8671SOL    HW237473   4.662   0.229  13.648 -2.5671  1.4655  0.1770
 8672SOL     OW37474   0.020   4.108   3.123  0.6210  0.0971  0.1688
 8672SOL    HW137475   0.057   4.074   3.041 -0.1082  1.6230 -0.7962
 8672SOL    HW237476   0.093   4.097   3.184  0.4848  2.4804  0.7628
 8673SOL     OW37477   2.326   0.507   1.995  0.2680 -0.1640 -0.3249
 8673SOL    HW137478   2.383   0.582   1.982 -0.1224  0.2120  0.1517
 8673SOL    HW237479   2.242   0.541   1.965  0.8285  2.2847  0.8962
 8674SOL     OW37480   1.266   4.531   8.396 -0.3085 -0.1309 -0.0952
 8674SOL    HW137481   1.181   4.536   8.441  1.0506  0.4524  2.3821
 8674SOL    HW237482   1.253   4.484   8.313 -3.7310  0.8535 -0.1277
 8675SOL     OW37483   3.523   0.452   1.469  0.2076  0.2190 -0.0314
 8675SOL    HW137484   3.586   0.400   1.419  2.3353  2.8108 -0.0221
 8675SOL    HW237485   3.435   0.435   1.434  0.9182 -2.1183 -0.6712
 8676SOL     OW37486   0.996   2.841   3.656  0.5743 -0.4797 -0.3721
 8676SOL    HW137487   0.931   2.858   3.724  0.3607 -0.4924 -0.5697
 8676SOL    HW237488   1.014   2.929   3.622  0.2922  0.0397  0.8440
 8677SOL     OW37489   4.258   3.392   5.664  0.1087 -0.0473 -0.2061
 8677SOL    HW137490   4.315   3.356   5.732 -1.0243 -0.0356  0.7410
 8677SOL    HW237491   4.249   3.319   5.603 -1.7656  2.2925 -2.7685
 8678SOL     OW37492   4.017   2.182   6.678  0.0415  0.2383  0.3541
 8678SOL    HW137493   4.052   2.256   6.629  2.1512 -0.6094  0.5766
 8678SOL    HW237494   4.053   2.204   6.764  0.8398 -1.4595  0.4628
 8679SOL     OW37495   0.835   4.574   3.601 -0.3022 -0.6981  0.1626
 8679SOL    HW137496   0.751   4.535   3.578  0.3573 -2.3872  0.6614
 8679SOL    HW237497   0.845   4.637   3.529  0.7544 -0.2824  0.6598
 8680SOL     OW37498   4.202   1.502   5.439  0.0132  0.0915 -0.0231
 8680SOL    HW137499   4.202   1.438   5.510  2.1065  1.9209  1.6391
 8680SOL    HW237500   4.113   1.495   5.405  0.5256 -1.6042 -1.0035
 8681SOL     OW37501   1.442   4.196  16.981  0.9728 -0.4187 -0.1941
 8681SOL    HW137502   1.364   4.216  16.929  2.6218  3.2464 -1.2475
 8681SOL    HW237503   1.420   4.244  17.061 -0.4365  1.1309 -1.5210
 8682SOL     OW37504   1.518   3.846  17.538 -0.3913 -0.3138  0.1674
 8682SOL    HW137505   1.423   3.856  17.534  0.0790  3.0578 -2.0551
 8682SOL    HW237506   1.537   3.884  17.452  0.6997  0.0744  0.5833
 8683SOL     OW37507   3.113   1.027   3.876  0.0386 -0.7070 -0.3053
 8683SOL    HW137508   3.201   1.012   3.912 -0.1109 -1.0673 -0.0800
 8683SOL    HW237509   3.130   0.994   3.788  0.2354 -0.4531 -0.3616
 8684SOL     OW37510   1.472   2.793   2.803  0.0070  0.4116 -0.0869
 8684SOL    HW137511   1.441   2.703   2.790 -1.7603  1.5673 -4.0015
 8684SOL    HW237512   1.397   2.831   2.848  0.5882  4.3217 -2.4287
 8685SOL     OW37513   4.267   0.488  12.840  0.4204 -0.0258  0.1488
 8685SOL    HW137514   4.223   0.427  12.782 -1.2046  0.3942  0.9391
 8685SOL    HW237515   4.217   0.568  12.822 -0.3878 -0.1753  1.7052
 8686SOL     OW37516   4.108   2.363   6.498 -0.7492  0.6970 -0.3734
 8686SOL    HW137517   4.118   2.294   6.432  0.7751 -0.2639  0.8638
 8686SOL    HW237518   4.193   2.405   6.494  0.1155 -0.9060  1.0243
 8687SOL     OW37519   2.435   1.039  11.899 -0.0903 -0.3226  0.7632
 8687SOL    HW137520   2.483   1.008  11.975  3.2813  1.9184 -0.4686
 8687SOL    HW237521   2.501   1.053  11.830 -1.9656 -3.0567 -1.6205
 8688SOL     OW37522   1.166   1.702   3.064 -0.1533 -0.6353 -0.3695
 8688SOL    HW137523   1.077   1.732   3.049  0.0874 -0.0281 -0.5690
 8688SOL    HW237524   1.201   1.712   2.976  1.9054  2.0642  0.7303
 8689SOL     OW37525   3.651   3.223   0.785  0.6827 -0.5296  0.3107
 8689SOL    HW137526   3.582   3.281   0.819  2.9312  1.4885  1.3896
 8689SOL    HW237527   3.701   3.217   0.866  0.3006 -0.9977  0.5110
 8690SOL     OW37528   0.637   4.349   4.594  0.6903 -0.0869  0.0603
 8690SOL    HW137529   0.678   4.275   4.550  0.7514 -0.5219  0.8495
 8690SOL    HW237530   0.545   4.329   4.580  0.6081  0.2906  0.0543
 8691SOL     OW37531   1.016   1.596   3.526 -0.4353 -0.1061 -0.0417
 8691SOL    HW137532   0.999   1.639   3.443 -1.3156 -0.9368 -0.2778
 8691SOL    HW237533   0.994   1.669   3.585  0.9152  1.9699 -2.1004
 8692SOL     OW37534   2.623   1.424  14.935  0.5088  0.2736 -0.3658
 8692SOL    HW137535   2.693   1.361  14.951 -1.3252 -1.4920  0.8186
 8692SOL    HW237536   2.603   1.460  15.022  0.7219 -0.0290 -0.1905
 8693SOL     OW37537   0.160   0.717   2.132  0.6177  0.2030  0.2971
 8693SOL    HW137538   0.109   0.654   2.184  1.2497 -0.4319  0.1558
 8693SOL    HW237539   0.150   0.795   2.185 -0.4730  0.4069 -0.2193
 8694SOL     OW37540   1.643   4.548  17.391  0.0177  0.0047  0.3335
 8694SOL    HW137541   1.660   4.599  17.312 -1.1956 -1.0063 -0.5544
 8694SOL    HW237542   1.562   4.590  17.418  1.6010  2.2686  1.6237
 8695SOL     OW37543   1.094   4.285   8.841  0.2218 -0.0401 -0.0389
 8695SOL    HW137544   1.002   4.300   8.859  0.8798  0.4309  2.9310
 8695SOL    HW237545   1.107   4.326   8.755 -0.9271 -0.2824 -0.3270
 8696SOL     OW37546   0.911   3.644  17.140  0.0821  0.0224  0.4934
 8696SOL    HW137547   0.936   3.555  17.113 -0.8384 -0.0158 -0.2362
 8696SOL    HW237548   0.949   3.693  17.068 -0.4073  1.1500  1.0040
 8697SOL     OW37549   2.027   1.894  10.782 -0.4151 -0.0525 -0.7893
 8697SOL    HW137550   2.025   1.811  10.829 -0.5426  1.0441  1.1574
 8697SOL    HW237551   1.962   1.867  10.718 -0.1900  1.3143 -1.5804
 8698SOL     OW37552   0.891   0.995   8.054  0.0379  0.2833 -0.0488
 8698SOL    HW137553   0.868   1.000   8.147 -1.4944 -0.6144 -0.3780
 8698SOL    HW237554   0.983   1.022   8.062  0.2483 -1.1075  2.3009
 8699SOL     OW37555   1.929   2.204   6.183 -0.0782 -0.5323  0.3517
 8699SOL    HW137556   1.950   2.279   6.128 -1.5063 -1.4120 -1.4155
 8699SOL    HW237557   1.845   2.236   6.217  1.1889  2.7434  0.3656
 8700SOL     OW37558   1.156   1.242   5.804 -0.6667 -0.0570  0.1597
 8700SOL    HW137559   1.115   1.272   5.722 -1.0793 -2.8312 -0.6523
 8700SOL    HW237560   1.161   1.321   5.858  0.4430 -0.8909  1.2706
 8701SOL     OW37561   1.605   3.891   7.662  0.2916 -0.3247  0.5015
 8701SOL    HW137562   1.589   3.829   7.733  0.7064 -2.3723 -1.2034
 8701SOL    HW237563   1.668   3.842   7.608  1.3624  2.0246 -0.3786
 8702SOL     OW37564   3.193   4.044   2.411 -0.7460  0.4602  0.7816
 8702SOL    HW137565   3.270   4.101   2.419 -0.5641  0.3316 -0.1522
 8702SOL    HW237566   3.123   4.093   2.455  0.7603  1.4656  2.0481
 8703SOL     OW37567   2.434   0.433   6.589  0.3169  0.0740  0.1202
 8703SOL    HW137568   2.483   0.459   6.668  0.6434 -0.4763  0.0979
 8703SOL    HW237569   2.502   0.443   6.522  2.1470  1.0212  2.1087
 8704SOL     OW37570   1.974   1.221   4.545  0.4105  0.3249 -0.5285
 8704SOL    HW137571   2.014   1.259   4.624 -0.7375  2.2294 -0.8487
 8704SOL    HW237572   2.027   1.142   4.552 -0.0396  0.3136  2.8805
 8705SOL     OW37573   4.083   1.809   7.683  0.2562  0.0890  0.0646
 8705SOL    HW137574   4.162   1.822   7.631  0.7327 -0.7904  0.5948
 8705SOL    HW237575   4.107   1.750   7.754 -0.5113 -0.8249 -0.4436
 8706SOL     OW37576   2.580   2.914   8.158 -0.0833 -0.1153 -0.0715
 8706SOL    HW137577   2.520   2.978   8.120  1.7890  2.2199  0.9158
 8706SOL    HW237578   2.612   2.951   8.240  1.6019 -0.6312 -0.4998
 8707SOL     OW37579   4.225   2.867  14.227 -0.1204  0.1302  0.3172
 8707SOL    HW137580   4.321   2.870  14.223 -0.0539 -1.0991  1.2408
 8707SOL    HW237581   4.213   2.794  14.287 -2.2789  1.1226  1.0758
 8708SOL     OW37582   1.535   4.690   7.309  0.0054 -0.7807 -0.2332
 8708SOL    HW137583   1.449   4.675   7.270  0.3984  1.5698 -1.9955
 8708SOL    HW237584   1.586   0.006   7.241  0.2935 -0.5392  0.1379
 8709SOL     OW37585   4.624   1.073   5.967 -0.0059 -0.1688 -0.2173
 8709SOL    HW137586   4.705   1.082   5.916  0.9207  0.2986  1.3252
 8709SOL    HW237587   4.564   1.105   5.900 -0.2951 -1.3357 -0.5314
 8710SOL     OW37588   4.068   4.083  14.935 -0.6845 -0.5176  0.0573
 8710SOL    HW137589   4.073   4.162  14.882 -1.6448  0.9842  2.2159
 8710SOL    HW237590   4.103   4.011  14.882 -0.4423 -1.8349  2.0042
 8711SOL     OW37591   0.936   2.154  13.350 -0.1056 -0.8497  0.5369
 8711SOL    HW137592   0.870   2.100  13.307 -0.2596 -0.2742  0.0463
 8711SOL    HW237593   0.959   2.201  13.270  0.6599 -0.3255  1.0647
 8712SOL     OW37594   2.271   3.782  14.371 -0.2585 -0.0862  0.1467
 8712SOL    HW137595   2.245   3.872  14.353 -1.4196 -0.2851  0.7990
 8712SOL    HW237596   2.332   3.794  14.443 -2.1974 -3.2269  2.3684
 8713SOL     OW37597   2.529   0.261   0.084 -0.0660 -0.1830 -0.4597
 8713SOL    HW137598   2.525   0.338   0.028  2.5474  0.3699  0.1355
 8713SOL    HW237599   2.449   0.215   0.059 -1.3582  1.6691  0.2493
 8714SOL     OW37600   2.407   1.869   6.190 -0.4324 -0.3050 -0.0162
 8714SOL    HW137601   2.360   1.787   6.205  0.3989 -0.9377 -0.8876
 8714SOL    HW237602   2.408   1.874   6.094  1.3852  0.2412  0.0344
 8715SOL     OW37603   1.308   1.802   0.299  0.5298  0.6500  0.7292
 8715SOL    HW137604   1.286   1.860   0.226 -2.6331  0.7005  1.7286
 8715SOL    HW237605   1.364   1.739   0.253  1.3756  2.3166 -0.5377
 8716SOL     OW37606   1.344   3.036   9.942  0.1273 -0.7367  0.6102
 8716SOL    HW137607   1.266   3.079   9.977 -0.7946 -0.8101 -1.3346
 8716SOL    HW237608   1.334   2.953   9.989 -0.9584  0.0900  1.8243
 8717SOL     OW37609   3.190   0.361   5.675  0.0084 -0.4394 -0.9116
 8717SOL    HW137610   3.159   0.447   5.647 -0.4591 -0.5565 -0.7616
 8717SOL    HW237611   3.123   0.339   5.741 -0.4798 -0.4445 -1.4052
 8718SOL     OW37612   1.098   3.837   8.807 -0.1320  0.6981  0.1924
 8718SOL    HW137613   1.045   3.917   8.806  0.9666  1.3955 -3.9927
 8718SOL    HW237614   1.187   3.868   8.787 -0.0362  0.4108  0.1743
 8719SOL     OW37615   1.838   3.582  11.511  0.3793  0.1615  0.0991
 8719SOL    HW137616   1.820   3.512  11.575 -1.3167  0.7393  0.2559
 8719SOL    HW237617   1.933   3.578  11.512  0.4603  2.4235  0.9531
 8720SOL     OW37618   2.645   4.096   3.429  0.0911  0.6856 -0.1345
 8720SOL    HW137619   2.564   4.130   3.468  1.1126  0.6466  1.9609
 8720SOL    HW237620   2.653   4.005   3.455 -0.1790  1.7049  3.4510
 8721SOL     OW37621   1.141   4.406   2.838 -0.6961  0.3709 -0.0258
 8721SOL    HW137622   1.172   4.440   2.922  0.1747  0.9178 -0.5678
 8721SOL    HW237623   1.056   4.443   2.861 -0.2323  1.1139  0.4998
 8722SOL     OW37624   0.857   2.348   4.741 -0.2540 -0.3241 -0.3421
 8722SOL    HW137625   0.789   2.411   4.766  0.9977  1.6888 -1.9812
 8722SOL    HW237626   0.802   2.289   4.688 -1.5314  2.5777 -2.2868
 8723SOL     OW37627   4.100   3.572  17.261 -0.4701  0.2265 -0.2522
 8723SOL    HW137628   4.058   3.585  17.346 -1.8251  1.4277 -1.1121
 8723SOL    HW237629   4.171   3.511  17.282 -0.9239 -0.3792 -0.4584
 8724SOL     OW37630   0.251   3.203  17.640 -0.1235  0.1206 -0.3663
 8724SOL    HW137631   0.159   3.227  17.656  0.3061  1.3267  0.2471
 8724SOL    HW237632   0.293   3.289  17.644 -2.5779  1.3469 -0.8012
 8725SOL     OW37633   1.878   2.114   2.775 -0.3947 -0.1693 -0.3080
 8725SOL    HW137634   1.843   2.200   2.751 -0.8310 -0.3554 -0.3465
 8725SOL    HW237635   1.926   2.098   2.693  2.0812  1.6908  0.7832
 8726SOL     OW37636   0.200   1.669   2.618 -0.3785 -0.0384  0.2672
 8726SOL    HW137637   0.208   1.577   2.593  0.6523 -0.0963  0.7948
 8726SOL    HW237638   0.293   1.693   2.621 -0.2732 -0.3180 -0.9639
 8727SOL     OW37639   2.318   1.796  10.586 -0.5751  0.0046  0.9732
 8727SOL    HW137640   2.252   1.825  10.649 -1.0829 -2.6608  1.6754
 8727SOL    HW237641   2.324   1.873  10.530  0.0551  0.5524  1.7829
 8728SOL     OW37642   2.155   0.437   6.466  0.7680 -0.1472 -0.1210
 8728SOL    HW137643   2.168   0.393   6.381 -1.1241  3.0441 -2.0350
 8728SOL    HW237644   2.237   0.486   6.476  1.4567 -1.4647  0.6994
 8729SOL     OW37645   4.418   3.081  17.639 -0.8243  0.2172 -0.2377
 8729SOL    HW137646   4.346   3.144  17.649 -0.5906  0.1855  1.6896
 8729SOL    HW237647   4.456   3.094   0.017  2.1506  0.4191 -1.5495
 8730SOL     OW37648   0.041   1.432   1.321  0.4052 -0.1638 -0.1453
 8730SOL    HW137649   0.059   1.463   1.232 -1.1120 -2.0421 -1.0991
 8730SOL    HW237650   0.030   1.515   1.368 -0.6772 -1.0777  1.1978
 8731SOL     OW37651   2.263   1.811   5.142 -0.2859 -0.3095  0.1979
 8731SOL    HW137652   2.190   1.820   5.080  0.1123 -1.9658 -0.5246
 8731SOL    HW237653   2.338   1.783   5.090 -0.3802  1.4521 -0.8662
 8732SOL     OW37654   3.052   2.495   2.317 -0.2109  0.3873  0.2464
 8732SOL    HW137655   3.137   2.520   2.351 -0.6332  0.0938  1.5014
 8732SOL    HW237656   3.051   2.400   2.305  0.2161  0.4917 -0.6170
 8733SOL     OW37657   3.552   0.887   5.759 -0.1352 -0.0106  0.1517
 8733SOL    HW137658   3.531   0.815   5.700 -1.3162 -0.4574  1.1218
 8733SOL    HW237659   3.467   0.929   5.765 -1.4362 -2.6362 -0.0329
 8734SOL     OW37660   4.471   4.176  16.260  0.1977 -0.0590  0.0456
 8734SOL    HW137661   4.563   4.195  16.244  0.0528  0.6004 -0.0127
 8734SOL    HW237662   4.439   4.228  16.186 -0.5933 -0.2014  0.2851
 8735SOL     OW37663   2.265   1.571   4.017  0.7073  0.0378  0.0685
 8735SOL    HW137664   2.240   1.663   4.026 -2.6888 -0.7200 -1.5952
 8735SOL    HW237665   2.194   1.539   4.072 -0.7948  0.8519 -1.4039
 8736SOL     OW37666   0.522   3.592   6.621 -0.4706  0.2915 -0.3626
 8736SOL    HW137667   0.517   3.684   6.649 -3.6885 -0.6002  1.9416
 8736SOL    HW237668   0.430   3.581   6.597 -1.2480  2.5723  1.5744
 8737SOL     OW37669   0.170   1.059  16.122 -0.3797 -0.1167 -0.0604
 8737SOL    HW137670   0.211   1.119  16.059 -0.8050 -0.7243 -0.9154
 8737SOL    HW237671   0.238   1.046  16.189  1.3420 -1.8321 -2.1154
 8738SOL     OW37672   2.734   4.276   3.841  0.0349  0.3687 -0.4802
 8738SOL    HW137673   2.647   4.296   3.806  0.0785  1.5824  0.1169
 8738SOL    HW237674   2.775   4.360   3.857  0.9646 -0.2854  0.5726
 8739SOL     OW37675   4.679   4.712   6.045  0.3815  0.1662 -0.0715
 8739SOL    HW137676   0.034   4.666   6.028 -0.6858 -2.2626  1.3673
 8739SOL    HW237677   4.708   0.031   6.123 -1.3819 -1.1090  1.3423
 8740SOL     OW37678   2.567   2.995  10.259 -0.0905  0.1410  0.2406
 8740SOL    HW137679   2.492   3.003  10.318  1.2386 -2.8538  2.3570
 8740SOL    HW237680   2.638   2.954  10.309  1.2342 -0.8715 -2.4458
 8741SOL     OW37681   3.040   1.838  10.125 -0.0039  0.0855 -0.1241
 8741SOL    HW137682   3.015   1.929  10.137  0.8996  0.4922 -1.3313
 8741SOL    HW237683   3.114   1.825  10.185  0.0059 -0.5186 -0.2689
 8742SOL     OW37684   1.835   1.662   6.740 -0.5800  0.1006  0.5015
 8742SOL    HW137685   1.804   1.628   6.824 -0.3474 -2.3536 -0.4046
 8742SOL    HW237686   1.751   1.683   6.697  0.5021  0.1493 -1.5793
 8743SOL     OW37687   2.339   1.634   8.453  0.2195 -0.0524 -0.0308
 8743SOL    HW137688   2.321   1.556   8.400  0.4942  0.5378 -0.9975
 8743SOL    HW237689   2.263   1.689   8.431 -0.3654 -0.6521  0.4723
 8744SOL     OW37690   3.461   1.695  12.827 -0.2044  0.1106 -0.2392
 8744SOL    HW137691   3.431   1.731  12.910 -0.1025 -1.2304  0.3798
 8744SOL    HW237692   3.425   1.607  12.836  0.6983 -0.2396 -0.0362
 8745SOL     OW37693   0.152   1.808  15.244 -0.5945 -0.3096 -0.2630
 8745SOL    HW137694   0.097   1.731  15.249 -0.7160 -0.0385  2.6091
 8745SOL    HW237695   0.141   1.835  15.153  0.2660  3.4296  0.7090
 8746SOL     OW37696   1.451   3.262   2.204  0.4569 -0.4187 -0.1513
 8746SOL    HW137697   1.498   3.345   2.217 -0.8120  0.3246 -0.3551
 8746SOL    HW237698   1.395   3.284   2.130 -0.5124 -2.1496  0.0753
 8747SOL     OW37699   4.263   3.133  17.274  0.4303 -0.0716  0.0912
 8747SOL    HW137700   4.289   3.143  17.183  0.8935 -1.9318  0.0280
 8747SOL    HW237701   4.234   3.221  17.298 -0.8960 -0.5583  0.2854
 8748SOL     OW37702   3.111   2.715   0.846  0.1985  0.0424  0.0128
 8748SOL    HW137703   3.198   2.703   0.808  1.1148  1.4172  1.6455
 8748SOL    HW237704   3.107   2.808   0.870  0.1283 -0.2461  1.1058
 8749SOL     OW37705   1.547   4.563   5.284 -0.0288  0.5917 -0.1514
 8749SOL    HW137706   1.460   4.597   5.264 -0.6038 -1.7688 -1.7139
 8749SOL    HW237707   1.572   4.627   5.351  0.4611 -0.6145  0.8229
 8750SOL     OW37708   1.974   2.991   6.503  0.3607 -0.3585  0.0930
 8750SOL    HW137709   1.926   3.068   6.471 -1.2295 -1.1364  0.5711
 8750SOL    HW237710   1.964   3.017   6.595  1.9015  3.9151 -0.9376
 8751SOL     OW37711   4.089   0.747  11.157 -0.0374  0.4314  0.7128
 8751SOL    HW137712   4.170   0.698  11.146 -0.4523 -0.2137  0.5097
 8751SOL    HW237713   4.102   0.814  11.090 -0.8171 -1.5705 -1.4210
 8752SOL     OW37714   1.873   1.696   8.889  0.3231 -0.1631 -0.0984
 8752SOL    HW137715   1.798   1.636   8.877 -0.8854  1.6890 -1.8489
 8752SOL    HW237716   1.834   1.783   8.893  2.6730  0.8347  0.9336
 8753SOL     OW37717   1.346   1.971  15.398  0.1128  0.0089 -0.2918
 8753SOL    HW137718   1.270   1.998  15.450  0.4035 -3.3715  1.9334
 8753SOL    HW237719   1.315   1.881  15.385 -1.8906  0.8563 -1.3385
 8754SOL     OW37720   1.391   3.716   4.373 -0.1755  0.1731 -0.1115
 8754SOL    HW137721   1.356   3.714   4.283 -0.4721 -1.0557  0.0397
 8754SOL    HW237722   1.464   3.655   4.367 -0.6338 -0.4585  0.7890
 8755SOL     OW37723   4.108   0.206  14.622  0.0348 -0.2505  0.3587
 8755SOL    HW137724   4.094   0.114  14.603  1.1571 -0.0799 -1.3231
 8755SOL    HW237725   4.137   0.202  14.713  0.9995 -1.3643 -0.0061
 8756SOL     OW37726   1.492   1.870   7.711 -0.0822 -0.2012 -0.3057
 8756SOL    HW137727   1.461   1.958   7.734  0.8675 -0.1848  0.9209
 8756SOL    HW237728   1.575   1.881   7.757  0.2731 -1.0347 -0.7609
 8757SOL     OW37729   0.198   3.802   5.431 -0.4182 -0.1009 -0.1660
 8757SOL    HW137730   0.105   3.784   5.416 -0.0026 -1.2715 -1.3049
 8757SOL    HW237731   0.213   3.792   5.525 -2.3269 -1.4730 -0.0164
 8758SOL     OW37732   2.123   3.476   9.754  0.3898  0.0128 -0.1333
 8758SOL    HW137733   2.073   3.536   9.809  1.2317  0.8143 -0.2444
 8758SOL    HW237734   2.055   3.414   9.726 -1.9943  2.0432  1.2575
 8759SOL     OW37735   1.936   3.240   9.625 -0.7153 -0.1980  0.1053
 8759SOL    HW137736   1.863   3.297   9.602 -0.5046 -0.3995 -1.0711
 8759SOL    HW237737   1.901   3.157   9.656 -2.7772  0.4234 -0.5712
 8760SOL     OW37738   2.694   2.800   5.201 -0.5112  0.4159 -0.2429
 8760SOL    HW137739   2.690   2.863   5.129  0.1478  0.6572 -0.0706
 8760SOL    HW237740   2.767   2.835   5.252 -1.8932  0.3664  1.7742
 8761SOL     OW37741   1.224   0.100   7.382 -0.2595 -0.0408 -0.3873
 8761SOL    HW137742   1.264   0.155   7.314  1.8724 -0.0460  0.8709
 8761SOL    HW237743   1.238   0.016   7.337 -0.2376  0.5653 -1.5132
 8762SOL     OW37744   2.454   2.453   9.388 -0.1579  0.6194  0.1261
 8762SOL    HW137745   2.486   2.540   9.362  0.7155  1.2036  3.0752
 8762SOL    HW237746   2.531   2.430   9.441 -0.3575  0.5772  0.3971
 8763SOL     OW37747   0.938   2.535   6.245 -0.1801  0.4278  0.2551
 8763SOL    HW137748   0.922   2.448   6.209  0.0950  0.2142  0.6526
 8763SOL    HW237749   0.862   2.587   6.218  0.2774  1.4458  0.9150
 8764SOL     OW37750   1.830   3.942   4.474  0.4114 -0.0130  0.5101
 8764SOL    HW137751   1.832   3.858   4.519 -0.7385 -0.9096 -1.0840
 8764SOL    HW237752   1.741   3.936   4.438  1.1314 -1.5710 -1.0267
 8765SOL     OW37753   3.186   3.229  16.184 -0.1115  0.2938 -0.2103
 8765SOL    HW137754   3.235   3.189  16.255 -1.3824 -2.6594 -0.9942
 8765SOL    HW237755   3.135   3.158  16.145 -1.9835  1.8927 -0.6946
 8766SOL     OW37756   1.622   1.083   5.378  0.5468 -0.1984  0.3346
 8766SOL    HW137757   1.645   1.092   5.471  1.0444  1.7196  0.0351
 8766SOL    HW237758   1.542   1.031   5.383  1.0431 -1.3616 -4.0210
 8767SOL     OW37759   2.190   0.524  10.729  0.0645 -0.1217  0.6062
 8767SOL    HW137760   2.158   0.586  10.795  1.4888 -0.1817  1.3551
 8767SOL    HW237761   2.138   0.448  10.753 -0.2500  0.3036  1.2856
 8768SOL     OW37762   2.565   4.296   1.350 -0.2688  0.5236 -0.0447
 8768SOL    HW137763   2.648   4.276   1.394 -0.6907 -1.9367 -0.3731
 8768SOL    HW237764   2.591   4.318   1.261 -2.7112 -1.7518 -1.2774
 8769SOL     OW37765   2.106   2.433   9.052 -0.6083  0.4941  0.3071
 8769SOL    HW137766   2.028   2.460   9.003 -0.0947 -2.6862 -2.2727
 8769SOL    HW237767   2.161   2.387   8.988 -1.4379  0.3312 -0.2902
 8770SOL     OW37768   0.513   3.097   3.827 -0.4131 -0.3871  0.0163
 8770SOL    HW137769   0.542   3.028   3.767 -0.6778  0.5133 -1.1494
 8770SOL    HW237770   0.561   3.173   3.795 -0.9637 -0.6556 -1.4570
 8771SOL     OW37771   1.137   0.953   8.836 -0.1399  0.4942 -0.6305
 8771SOL    HW137772   1.116   1.039   8.802  0.7110  1.9479  2.4722
 8771SOL    HW237773   1.048   0.919   8.842 -0.5833  1.7564  0.0083
 8772SOL     OW37774   2.209   2.368   3.721  0.0896 -0.0205 -0.4978
 8772SOL    HW137775   2.254   2.449   3.697  1.0948 -0.0719  1.2901
 8772SOL    HW237776   2.120   2.384   3.689 -1.3209 -3.2215  1.7460
 8773SOL     OW37777   3.323   0.778   8.433 -0.4644 -0.2071 -0.6377
 8773SOL    HW137778   3.270   0.846   8.391  3.0743  1.5615 -2.2599
 8773SOL    HW237779   3.327   0.711   8.365  1.2277  0.1827 -0.9218
 8774SOL     OW37780   4.604   4.424   8.439  0.4864  0.4435 -0.0346
 8774SOL    HW137781   4.662   4.483   8.487 -0.2102  1.6902 -0.7050
 8774SOL    HW237782   4.642   4.342   8.468  0.8613 -0.4126 -2.9560
 8775SOL     OW37783   2.905   2.218  15.769 -0.4841 -0.4727  0.3760
 8775SOL    HW137784   2.997   2.235  15.748  0.0474 -2.6805  0.9294
 8775SOL    HW237785   2.883   2.158  15.697 -0.0227  1.6408 -1.5215
 8776SOL     OW37786   0.536   1.198   6.928  0.8616 -0.1083  0.0374
 8776SOL    HW137787   0.579   1.113   6.926  1.6210  0.3320 -1.6136
 8776SOL    HW237788   0.533   1.213   7.023  1.4957  0.5091 -0.0447
 8777SOL     OW37789   3.116   3.525   4.003  0.1834  0.3393  0.5785
 8777SOL    HW137790   3.068   3.485   3.930 -4.0071  3.0985  1.8343
 8777SOL    HW237791   3.187   3.567   3.955 -0.3066 -0.7781 -1.1414
 8778SOL     OW37792   0.387   1.076   5.916 -0.1130 -0.8874 -0.4547
 8778SOL    HW137793   0.397   0.987   5.950 -2.8958 -0.4648  1.4681
 8778SOL    HW237794   0.356   1.094   6.005 -2.2359 -0.5693 -1.2748
 8779SOL     OW37795   4.475   1.869   2.521 -0.7735  0.1602 -0.2912
 8779SOL    HW137796   4.446   1.960   2.527  0.5520  0.4810  1.3176
 8779SOL    HW237797   4.567   1.882   2.546 -0.5556  2.7661 -2.3844
 8780SOL     OW37798   3.773   4.195   5.860 -0.6975  0.2498  0.1268
 8780SOL    HW137799   3.713   4.269   5.874 -0.9833  0.2053 -0.8339
 8780SOL    HW237800   3.829   4.195   5.937 -0.5436  2.3492  0.0348
 8781SOL     OW37801   0.682   2.049   0.689  0.0906  0.5017  0.2638
 8781SOL    HW137802   0.639   2.079   0.609 -0.6654 -1.2304  0.0386
 8781SOL    HW237803   0.748   1.981   0.675 -0.7746 -0.0569 -1.0342
 8782SOL     OW37804   4.301   1.781   8.750  0.2893  0.1866 -0.0039
 8782SOL    HW137805   4.308   1.863   8.701  2.0665 -0.6873 -1.2319
 8782SOL    HW237806   4.283   1.814   8.838 -2.3880 -1.0186 -0.0927
 8783SOL     OW37807   3.214   2.119   8.891 -0.0860 -0.8446  0.0901
 8783SOL    HW137808   3.260   2.075   8.962 -0.6639  0.3571  1.2083
 8783SOL    HW237809   3.129   2.135   8.931  0.1265 -0.9698  0.5916
 8784SOL     OW37810   2.137   0.988   4.533  0.0907  0.3078  0.1282
 8784SOL    HW137811   2.170   0.934   4.461 -0.0413  1.6002 -0.9012
 8784SOL    HW237812   2.218   1.003   4.581  0.1429 -1.7393  0.6767
 8785SOL     OW37813   0.173   0.371   2.975 -0.4216 -0.0719 -0.2450
 8785SOL    HW137814   0.110   0.444   2.976  0.8386  1.0317 -0.5084
 8785SOL    HW237815   0.256   0.414   2.997  1.2130 -3.0764 -0.6446
 8786SOL     OW37816   3.293   4.199   2.631 -0.5606 -0.0451  0.2187
 8786SOL    HW137817   3.363   4.201   2.564 -1.3264  0.2690 -0.5744
 8786SOL    HW237818   3.344   4.210   2.711 -0.5690  1.1113  0.0714
 8787SOL     OW37819   1.040   4.305  16.495  0.2474 -0.0853 -0.2700
 8787SOL    HW137820   0.962   4.331  16.544 -0.8787 -1.8595 -1.1493
 8787SOL    HW237821   0.998   4.252  16.428  1.5845 -1.2990 -0.1510
 8788SOL     OW37822   0.199   4.517   2.682  0.3667  0.2685  0.0315
 8788SOL    HW137823   0.288   4.489   2.701 -0.4148 -3.0206 -1.0807
 8788SOL    HW237824   0.164   4.539   2.769 -0.4443 -0.0101 -0.2241
 8789SOL     OW37825   0.299   3.611   3.898  0.1175 -0.1920  0.1961
 8789SOL    HW137826   0.273   3.694   3.938  3.2015  0.8541  0.0246
 8789SOL    HW237827   0.337   3.565   3.972  0.6212 -0.0162  0.0467
 8790SOL     OW37828   4.293   0.842   0.608 -0.8685  0.6883  0.4040
 8790SOL    HW137829   4.306   0.855   0.514 -0.8944  0.9316  0.4326
 8790SOL    HW237830   4.198   0.827   0.610 -1.2132  2.7695  0.0248
 8791SOL     OW37831   3.928   0.604   4.704 -0.4899  0.0880  0.4372
 8791SOL    HW137832   3.883   0.684   4.676 -2.5796 -1.1666  0.1834
 8791SOL    HW237833   3.954   0.628   4.792  1.1487  1.4866 -0.4369
 8792SOL     OW37834   4.128   3.245  14.895  0.0928  0.2406  0.4206
 8792SOL    HW137835   4.043   3.275  14.927  0.5514  1.2037  0.7219
 8792SOL    HW237836   4.186   3.277  14.964 -0.1432 -0.3278  0.8879
 8793SOL     OW37837   4.490   0.351   2.294  0.1074  0.1102  0.0567
 8793SOL    HW137838   4.466   0.280   2.234 -1.1706  0.4968  0.1094
 8793SOL    HW237839   4.403   0.355   2.334  0.8076  0.2384  1.5604
 8794SOL     OW37840   3.611   2.262   0.312 -0.0507  0.2327  0.1765
 8794SOL    HW137841   3.565   2.292   0.390 -0.8651  1.0055 -0.5990
 8794SOL    HW237842   3.607   2.168   0.331 -0.8101  0.5643  1.6696
 8795SOL     OW37843   4.001   3.695   5.423 -0.8948 -0.1807 -0.0205
 8795SOL    HW137844   3.974   3.638   5.495 -0.3558  1.9648  1.8605
 8795SOL    HW237845   3.916   3.735   5.404  0.1223  2.5874  1.2078
 8796SOL     OW37846   4.290   0.524   0.695  0.1684  0.0957  0.0026
 8796SOL    HW137847   4.374   0.487   0.723 -0.3295 -0.7625  0.3756
 8796SOL    HW237848   4.324   0.569   0.617  0.4960  0.3492  0.2962
 8797SOL     OW37849   4.681   1.423   5.911 -0.1596 -0.0124 -0.0691
 8797SOL    HW137850   4.706   1.377   5.831  1.6314 -0.9186  0.9900
 8797SOL    HW237851   4.600   1.378   5.936 -0.4699  0.5873  0.0026
 8798SOL     OW37852   3.373   2.440   4.928  0.0983 -0.2993  0.0574
 8798SOL    HW137853   3.351   2.427   5.021  0.5326 -0.4161  0.1437
 8798SOL    HW237854   3.467   2.422   4.920  0.4395  0.2518  2.5649
 8799SOL     OW37855   1.487   1.832   6.933 -0.0782 -0.5792  0.2313
 8799SOL    HW137856   1.577   1.801   6.949  0.3097 -0.3521 -1.5027
 8799SOL    HW237857   1.456   1.850   7.022 -2.4226  1.5906 -1.0364
 8800SOL     OW37858   3.874   1.469   8.771 -0.2483 -0.0352 -0.1300
 8800SOL    HW137859   3.917   1.502   8.692 -0.9805  1.1052 -0.0665
 8800SOL    HW237860   3.790   1.515   8.764 -0.1302  0.2302  0.1424
 8801SOL     OW37861   1.032   4.355   3.142  0.0692  0.3755 -0.5970
 8801SOL    HW137862   1.002   4.409   3.215 -3.2306 -0.8493 -1.0610
 8801SOL    HW237863   0.951   4.343   3.093 -1.3148 -0.5365  1.9049
 8802SOL     OW37864   4.645   2.117   2.768 -0.1366  0.1835 -0.3572
 8802SOL    HW137865   4.695   2.072   2.700 -2.9549 -0.2436 -2.1432
 8802SOL    HW237866   4.690   2.202   2.775  0.8973 -0.4186  0.2624
 8803SOL     OW37867   4.113   1.183   1.926 -0.2214 -0.1670 -0.4244
 8803SOL    HW137868   4.124   1.099   1.881  1.4437  0.9974 -2.2045
 8803SOL    HW237869   4.038   1.216   1.876 -0.1420  0.8950  0.1597
 8804SOL     OW37870   4.318   4.630   9.405 -0.6934 -0.5013 -0.1052
 8804SOL    HW137871   4.296   4.589   9.489 -1.2553 -1.7823 -0.8839
 8804SOL    HW237872   4.407   4.607   9.380 -0.9969 -1.7399 -0.0199
 8805SOL     OW37873   0.241   0.008  16.569 -0.2006  0.4486 -0.0347
 8805SOL    HW137874   0.268   4.693  16.651 -0.1784  0.7912  0.1303
 8805SOL    HW237875   0.277   4.675  16.503 -1.6232  0.4012 -0.7705
 8806SOL     OW37876   0.076   4.018   7.843 -0.6243  0.1426  0.3808
 8806SOL    HW137877   0.099   3.958   7.914  2.8933  1.9623  0.7690
 8806SOL    HW237878   0.165   4.050   7.829 -0.4137  0.1898  1.7713
 8807SOL     OW37879   0.853   1.794   4.124 -0.3581 -0.3066  0.7933
 8807SOL    HW137880   0.946   1.775   4.125 -0.2900  0.0370  0.5638
 8807SOL    HW237881   0.817   1.736   4.057  0.6822  1.3696 -1.1956
 8808SOL     OW37882   1.255   0.663   6.972  0.9718 -0.0014  0.4661
 8808SOL    HW137883   1.184   0.680   6.910 -0.2217  1.3626  2.2234
 8808SOL    HW237884   1.210   0.694   7.050 -0.9819 -0.3158 -0.5270
 8809SOL     OW37885   0.955   1.246   1.675  0.6331  0.0673 -0.3714
 8809SOL    HW137886   0.985   1.301   1.603  1.8687  1.2530  1.0817
 8809SOL    HW237887   0.922   1.167   1.631 -0.6153  0.6139 -0.4156
 8810SOL     OW37888   3.898   3.805   9.073 -0.5548  0.0350 -0.0567
 8810SOL    HW137889   3.846   3.735   9.112 -1.0606 -0.1488 -1.0706
 8810SOL    HW237890   3.839   3.834   9.003 -0.6681  1.5563  0.6504
 8811SOL     OW37891   0.392   2.011  17.001 -0.2940 -0.2479  0.1248
 8811SOL    HW137892   0.375   1.982  16.912  1.7622 -0.6254 -0.1380
 8811SOL    HW237893   0.485   2.034  16.994 -0.4431  0.1196 -0.6826
 8812SOL     OW37894   1.262   3.933  17.473  0.4636 -0.4149  0.4056
 8812SOL    HW137895   1.318   3.974  17.406  1.5428  0.3669  1.8001
 8812SOL    HW237896   1.185   3.899  17.426  0.5602  2.9951 -2.2997
 8813SOL     OW37897   0.010   0.968  10.857  0.3559 -0.5163  0.2379
 8813SOL    HW137898   4.693   0.986  10.774  1.4745 -1.0716 -0.4740
 8813SOL    HW237899   0.031   0.876  10.847  1.5310 -0.3195  0.9303
 8814SOL     OW37900   3.594   2.535   2.819 -0.2364 -0.1238 -0.0579
 8814SOL    HW137901   3.667   2.503   2.765  0.0638 -0.6143  0.6378
 8814SOL    HW237902   3.613   2.491   2.902 -1.0181  1.3696  0.8965
 8815SOL     OW37903   3.020   3.284   8.695  0.6598  0.4819  0.2873
 8815SOL    HW137904   3.022   3.360   8.637  0.3431  0.8237  0.7256
 8815SOL    HW237905   3.034   3.212   8.634 -2.8966 -0.0740  0.1131
 8816SOL     OW37906   1.492   2.807   4.171 -0.1668 -0.1955 -0.2023
 8816SOL    HW137907   1.558   2.832   4.106 -1.0713 -1.3251 -1.5722
 8816SOL    HW237908   1.436   2.882   4.191  1.5456  0.4566  2.0355
 8817SOL     OW37909   3.873   1.080   4.664  0.3145  0.4963  0.1353
 8817SOL    HW137910   3.788   1.116   4.638  0.5455  0.7102 -0.3309
 8817SOL    HW237911   3.854   0.986   4.660  2.6453  0.0638 -0.8724
 8818SOL     OW37912   1.089   1.275   7.603 -0.4182  0.3297  0.0282
 8818SOL    HW137913   1.047   1.235   7.679 -1.5911 -0.2208 -0.9213
 8818SOL    HW237914   1.095   1.366   7.632  0.7095  0.5299 -0.8328
 8819SOL     OW37915   3.091   4.415   3.274  0.2857  0.0444  0.0635
 8819SOL    HW137916   3.096   4.326   3.311 -1.4927 -0.4284 -0.8521
 8819SOL    HW237917   3.076   4.472   3.349  1.7694 -0.2818  0.6224
 8820SOL     OW37918   0.181   0.974  12.788  0.4809 -0.1331  0.7504
 8820SOL    HW137919   0.265   0.989  12.832  1.0406  1.7904 -0.9720
 8820SOL    HW237920   0.205   1.002  12.700 -0.5074  0.2051  0.5825
 8821SOL     OW37921   2.733   1.862   7.028  0.4040  0.0405 -0.1164
 8821SOL    HW137922   2.776   1.823   7.105 -1.6069 -0.4597  0.7451
 8821SOL    HW237923   2.727   1.789   6.967  0.4259  0.7755 -0.9902
 8822SOL     OW37924   0.698   3.798   2.462 -0.4057  0.2110  0.0775
 8822SOL    HW137925   0.695   3.780   2.368 -2.7164 -0.7643  0.3367
 8822SOL    HW237926   0.723   3.890   2.457 -2.9331  0.6778 -3.5260
 8823SOL     OW37927   1.578   1.198   2.701  0.0762 -0.0288 -0.1528
 8823SOL    HW137928   1.485   1.220   2.705  0.4002  0.9060  2.0650
 8823SOL    HW237929   1.617   1.267   2.647 -2.4456  0.8005 -0.8960
 8824SOL     OW37930   4.155   1.793   2.651 -0.2073 -0.1836 -0.1101
 8824SOL    HW137931   4.220   1.734   2.689  1.6757 -0.0379 -3.0931
 8824SOL    HW237932   4.108   1.837   2.722  0.7725  2.3790 -1.0603
 8825SOL     OW37933   2.019   2.225   2.283 -0.5204  0.2857  0.7684
 8825SOL    HW137934   2.099   2.192   2.243 -1.9308  0.7346 -2.3971
 8825SOL    HW237935   2.061   2.292   2.338 -1.3717  0.5417  1.1100
 8826SOL     OW37936   0.749   0.422   0.905 -0.2701 -0.2050  0.3379
 8826SOL    HW137937   0.782   0.511   0.891  0.3542 -0.4926 -0.0444
 8826SOL    HW237938   0.822   0.377   0.947  1.8429  0.7882 -2.2199
 8827SOL     OW37939   0.007   2.951  14.999 -0.0882  0.6435 -0.5227
 8827SOL    HW137940   4.645   2.985  14.992 -0.1338  0.8105  0.7639
 8827SOL    HW237941   4.726   2.893  15.075  0.3954  1.4883  0.1773
 8828SOL     OW37942   0.412   0.978   0.335  0.2597 -0.1353 -0.0686
 8828SOL    HW137943   0.356   0.913   0.293  0.7597 -0.9156  0.4743
 8828SOL    HW237944   0.419   0.944   0.424 -0.2915  2.3389  0.9228
 8829SOL     OW37945   0.709   0.386  17.572  0.0048 -0.3162  0.2403
 8829SOL    HW137946   0.717   0.461  17.632  0.8550 -0.2293  0.0205
 8829SOL    HW237947   0.616   0.366  17.558  0.1228 -0.8246  0.1905
 8830SOL     OW37948   3.269   2.424   0.496 -0.1164 -0.0115 -0.0749
 8830SOL    HW137949   3.364   2.424   0.499 -0.1330  1.1990  0.4151
 8830SOL    HW237950   3.251   2.516   0.515 -2.5305 -0.2325 -1.2339
 8831SOL     OW37951   4.215   2.681   3.881  0.4257 -0.9692 -0.5595
 8831SOL    HW137952   4.185   2.738   3.810  0.3338 -0.2238  0.0697
 8831SOL    HW237953   4.206   2.594   3.843  0.7217 -2.5174  2.9437
 8832SOL     OW37954   3.872   1.439  15.208  0.3063 -0.3816  0.2489
 8832SOL    HW137955   3.778   1.450  15.224  0.7674  1.5314  1.6817
 8832SOL    HW237956   3.902   1.432  15.298 -0.3776  0.2164  0.5227
 8833SOL     OW37957   4.505   2.551   1.846  0.3348  0.0486 -0.1196
 8833SOL    HW137958   4.480   2.622   1.906  2.9053  0.3005  0.6381
 8833SOL    HW237959   4.421   2.524   1.809  1.7469 -2.3557 -1.5158
 8834SOL     OW37960   4.537   2.732   2.602 -0.4691  0.4533  0.2105
 8834SOL    HW137961   4.502   2.820   2.589 -0.3744  0.2662 -1.4039
 8834SOL    HW237962   4.599   2.723   2.529  1.2761 -0.0487  1.7440
 8835SOL     OW37963   4.706   4.383  15.916  0.1320  0.3389  0.0931
 8835SOL    HW137964   0.038   4.446  15.957 -0.9769  0.6897  1.1729
 8835SOL    HW237965   4.620   4.404  15.953  0.0432  0.3961 -0.1455
 8836SOL     OW37966   1.747   4.554  10.730 -0.2143  0.5493 -0.5239
 8836SOL    HW137967   1.651   4.561  10.726 -0.3528 -1.8508 -1.3128
 8836SOL    HW237968   1.764   4.532  10.639 -0.5390 -2.8312  0.2226
 8837SOL     OW37969   2.594   4.520  13.865  0.3045  0.2045 -0.2404
 8837SOL    HW137970   2.575   4.614  13.868 -0.2604  0.0650  0.6092
 8837SOL    HW237971   2.545   4.504  13.785  2.1928  0.1103 -1.3748
 8838SOL     OW37972   3.687   2.098   9.549  0.0247 -0.4933  0.4648
 8838SOL    HW137973   3.613   2.151   9.518 -1.1202 -1.4702  1.5357
 8838SOL    HW237974   3.699   2.138   9.635 -2.2632 -1.4249  1.2121
 8839SOL     OW37975   0.438   2.211  12.533  0.4595  0.1598  0.3441
 8839SOL    HW137976   0.399   2.281  12.584 -0.2650 -0.6515  0.9026
 8839SOL    HW237977   0.529   2.230  12.556 -0.6050  1.0455  3.8559
 8840SOL     OW37978   0.426   1.612   6.557  0.4026  0.1737 -0.0730
 8840SOL    HW137979   0.452   1.703   6.542  1.6120 -0.1105  0.3198
 8840SOL    HW237980   0.330   1.614   6.555  0.4103  0.7733  0.2693
 8841SOL     OW37981   4.564   0.907   0.207 -0.1932 -0.0458  0.2660
 8841SOL    HW137982   4.567   0.812   0.207 -2.2951 -0.1104 -1.3817
 8841SOL    HW237983   4.656   0.933   0.210 -0.2891  0.0809  2.2958
 8842SOL     OW37984   3.195   3.297  11.267  0.0482  0.0866 -0.3552
 8842SOL    HW137985   3.204   3.359  11.340  2.5895  0.1229 -0.6919
 8842SOL    HW237986   3.290   3.287  11.261  0.1693  0.7850  0.3885
 8843SOL     OW37987   4.175   0.473   3.198 -0.0433 -0.0353 -0.0442
 8843SOL    HW137988   4.191   0.378   3.201  0.4565  0.0858  1.0639
 8843SOL    HW237989   4.156   0.504   3.286  0.8717 -1.7037  0.7368
 8844SOL     OW37990   4.633   4.357   8.139  0.5686  0.6147  0.1198
 8844SOL    HW137991   4.664   4.397   8.220 -0.8819  2.2684 -0.1408
 8844SOL    HW237992   4.695   4.284   8.143  2.3020  2.0671 -0.2110
 8845SOL     OW37993   0.291   3.735  10.085  0.6836  0.1430  0.4034
 8845SOL    HW137994   0.382   3.752  10.111  1.2604 -1.5115 -0.5420
 8845SOL    HW237995   0.304   3.644  10.058 -3.1200 -0.6380  1.2931
 8846SOL     OW37996   3.506   0.871   6.417  0.3298 -0.7780  0.7137
 8846SOL    HW137997   3.436   0.809   6.400  0.2315 -0.7978  1.1956
 8846SOL    HW237998   3.528   0.832   6.502 -0.7805 -0.5280  1.1057
 8847SOL     OW37999   0.182   0.483   7.049 -0.3288  0.2027 -0.9244
 8847SOL    HW138000   0.127   0.548   7.007  0.8894  2.7689  1.4633
 8847SOL    HW238001   0.128   0.407   7.073 -1.6647  1.4129 -0.0920
 8848SOL     OW38002   4.094   4.356   9.455  0.9241 -0.5384 -0.0366
 8848SOL    HW138003   4.162   4.419   9.481  0.0080  1.3058 -2.1184
 8848SOL    HW238004   4.039   4.428   9.423  0.3215 -0.4626  1.1336
 8849SOL     OW38005   0.612   0.795   5.696 -0.5028  0.0820 -0.8503
 8849SOL    HW138006   0.701   0.829   5.685  0.7388 -2.9379 -0.1959
 8849SOL    HW238007   0.592   0.836   5.781  0.8424  0.8484 -0.8985
 8850SOL     OW38008   1.880   4.621   7.857 -0.4264 -0.8376  0.4446
 8850SOL    HW138009   1.970   4.652   7.869 -0.7619  0.1500  0.4183
 8850SOL    HW238010   1.827   4.678   7.913 -1.4430 -2.5054  1.1751
 8851SOL     OW38011   0.622   4.278   6.351  0.0125  0.1117 -0.1600
 8851SOL    HW138012   0.551   4.337   6.376 -1.4655 -1.2063 -1.2319
 8851SOL    HW238013   0.694   4.323   6.395  0.8989 -2.6160  1.1712
 8852SOL     OW38014   0.391   3.800   6.823  0.4426 -0.2508  0.1344
 8852SOL    HW138015   0.320   3.737   6.833 -0.5679  1.0818  1.2756
 8852SOL    HW238016   0.332   3.872   6.798  2.5438  1.7220  0.8698
 8853SOL     OW38017   3.858   0.416   6.863 -0.2214  0.4693  0.2512
 8853SOL    HW138018   3.805   0.409   6.943  1.0737 -0.9133  0.9946
 8853SOL    HW238019   3.849   0.329   6.824 -0.0772  0.6424 -0.1622
 8854SOL     OW38020   4.543   3.154   6.939  0.2755 -0.4900  0.1912
 8854SOL    HW138021   4.452   3.125   6.928 -0.4928  2.1868 -0.3861
 8854SOL    HW238022   4.574   3.141   6.849  2.3221 -4.2679  1.4434
 8855SOL     OW38023   3.899   2.497   7.224 -0.3764  0.5959  0.1211
 8855SOL    HW138024   3.906   2.454   7.309 -1.4015  0.7547  0.2815
 8855SOL    HW238025   3.864   2.429   7.167  1.3838  0.1062 -0.3739
 8856SOL     OW38026   2.465   0.913   9.178  0.3000  0.1420 -0.1584
 8856SOL    HW138027   2.533   0.882   9.237  0.2359  0.9836  0.3558
 8856SOL    HW238028   2.510   0.875   9.102 -4.2214 -1.1038 -2.2652
 8857SOL     OW38029   2.805   0.784   4.914 -0.3178  0.4045  0.2013
 8857SOL    HW138030   2.894   0.766   4.884 -0.3161 -0.6335  0.8256
 8857SOL    HW238031   2.794   0.875   4.888  0.7970  0.7022  0.7747
 8858SOL     OW38032   1.949   1.209   2.588  0.2679  0.2291  0.3573
 8858SOL    HW138033   1.952   1.173   2.499  1.8123 -0.0649  0.5423
 8858SOL    HW238034   1.909   1.128   2.622 -0.0215  0.4481  0.5430
 8859SOL     OW38035   1.344   1.894  15.062  0.8278 -0.4767 -0.1507
 8859SOL    HW138036   1.249   1.882  15.058  0.6076  1.1290  0.4952
 8859SOL    HW238037   1.360   1.869  15.153  0.2086  0.7198  0.2789
 8860SOL     OW38038   0.318   4.482   2.117  0.6402 -0.0086 -0.1351
 8860SOL    HW138039   0.379   4.550   2.087 -0.0587 -0.3855 -2.4279
 8860SOL    HW238040   0.379   4.410   2.132  0.5033  0.2316  1.5292
 8861SOL     OW38041   2.880   1.514  16.466  0.0495  0.2461  0.0688
 8861SOL    HW138042   2.804   1.539  16.413 -0.0574  0.7554  0.4562
 8861SOL    HW238043   2.920   1.602  16.465 -1.2964  0.8829  2.2680
 8862SOL     OW38044   1.416   2.830   1.996  0.2953 -0.6962  0.2995
 8862SOL    HW138045   1.500   2.870   2.019  0.8469  0.3852 -3.5552
 8862SOL    HW238046   1.359   2.906   1.990  1.9670  0.6568  1.4006
 8863SOL     OW38047   2.083   4.081   3.146  0.3146  0.4851  0.2375
 8863SOL    HW138048   2.101   3.988   3.165  3.0435  0.8159 -0.6984
 8863SOL    HW238049   2.012   4.092   3.210  0.5293  1.4174  0.3060
 8864SOL     OW38050   4.419   2.443  13.641  0.7730  0.1725 -0.4440
 8864SOL    HW138051   4.501   2.481  13.674 -0.1330  2.4242 -0.7811
 8864SOL    HW238052   4.419   2.354  13.676 -2.5348  0.0733 -0.6986
 8865SOL     OW38053   1.426   0.283  14.341 -0.4028 -0.7299  0.1506
 8865SOL    HW138054   1.414   0.375  14.316  0.8770 -0.2262  1.3857
 8865SOL    HW238055   1.394   0.233  14.266  2.7566  0.2423 -1.8525
 8866SOL     OW38056   2.741   2.939   9.155 -0.3656 -0.3701  0.9757
 8866SOL    HW138057   2.818   2.970   9.107  0.4075 -1.2465  1.6441
 8866SOL    HW238058   2.764   2.846   9.166 -0.4471 -0.7382 -2.0961
 8867SOL     OW38059   3.493   4.607   9.709 -0.3795  0.7279  0.2505
 8867SOL    HW138060   3.416   4.632   9.657  1.5494  1.2686 -2.3238
 8867SOL    HW238061   3.553   4.672   9.671 -0.6694 -0.1791 -1.7520
 8868SOL     OW38062   0.143   1.562   5.180  0.2797 -0.1784 -0.0608
 8868SOL    HW138063   0.215   1.623   5.195 -0.8044  1.0138  0.2319
 8868SOL    HW238064   0.146   1.518   5.265 -0.5034  0.6624  0.4027
 8869SOL     OW38065   0.111   2.690  14.181 -0.1336  0.3161  0.1627
 8869SOL    HW138066   0.190   2.696  14.127  0.5330 -0.7635  1.0191
 8869SOL    HW238067   0.154   2.676  14.265 -1.0524  1.0027  0.7423
 8870SOL     OW38068   3.661   1.939   4.429 -0.1659  0.4962  0.4519
 8870SOL    HW138069   3.593   1.885   4.469  1.0199 -1.9275 -0.8051
 8870SOL    HW238070   3.665   1.893   4.345 -2.7338  2.2668 -0.6520
 8871SOL     OW38071   0.052   3.700  14.742  0.7805 -0.0387 -0.1031
 8871SOL    HW138072   4.703   3.725  14.690  0.9571  2.4181  0.7857
 8871SOL    HW238073   0.015   3.647  14.812  1.1976 -0.9459 -0.5684
 8872SOL     OW38074   2.897   0.429   7.203 -0.7700 -0.0443  0.1279
 8872SOL    HW138075   2.918   0.494   7.270  0.5435  0.9866 -1.2767
 8872SOL    HW238076   2.874   0.348   7.248  3.3289 -1.7751 -0.8742
 8873SOL     OW38077   2.561   2.070   8.038 -0.1098  0.6252  0.7717
 8873SOL    HW138078   2.478   2.040   8.001  1.8568 -1.9099 -1.5988
 8873SOL    HW238079   2.531   2.117   8.115 -0.9179  1.4800 -0.0688
 8874SOL     OW38080   4.143   2.258   8.404 -0.1635  0.4568  0.5134
 8874SOL    HW138081   4.110   2.197   8.470 -0.4525  0.9220  0.8000
 8874SOL    HW238082   4.094   2.231   8.327 -0.4124 -0.4600  0.9978
 8875SOL     OW38083   3.442   1.215  10.692  0.2151 -0.0236  0.1679
 8875SOL    HW138084   3.497   1.203  10.769  0.4191 -1.0538 -0.1331
 8875SOL    HW238085   3.494   1.269  10.632 -0.0989  1.5920  1.3451
 8876SOL     OW38086   3.680   0.267   1.350  0.0196 -0.4789  0.2477
 8876SOL    HW138087   3.717   0.308   1.271  0.4836  0.5341  0.9876
 8876SOL    HW238088   3.757   0.221   1.383  0.8337 -0.3583 -1.4772
 8877SOL     OW38089   3.033   1.897   4.856  0.0915  0.3321 -0.4155
 8877SOL    HW138090   3.003   1.983   4.885 -1.4329  0.2689 -1.7901
 8877SOL    HW238091   2.995   1.890   4.768  0.3981  0.3155 -0.5469
 8878SOL     OW38092   0.596   3.358  10.069  0.3586 -0.3161 -0.1290
 8878SOL    HW138093   0.577   3.266  10.091 -0.4709  0.5822  2.9013
 8878SOL    HW238094   0.660   3.339  10.001 -0.5123 -0.8947 -0.7851
 8879SOL     OW38095   1.137   1.191  12.379  0.5019 -0.3437  0.1730
 8879SOL    HW138096   1.164   1.103  12.404 -1.9921 -1.8626 -2.4335
 8879SOL    HW238097   1.065   1.181  12.317  0.2328 -0.2253  0.4669
 8880SOL     OW38098   1.986   2.928   0.718 -0.5003 -0.4151  0.6852
 8880SOL    HW138099   2.081   2.937   0.721 -0.7952  3.1367 -0.3771
 8880SOL    HW238100   1.970   2.838   0.746  1.1995 -0.9446 -0.0527
 8881SOL     OW38101   3.252   1.038   9.417 -0.2644  0.3992  0.0960
 8881SOL    HW138102   3.280   0.947   9.427  0.8437  1.0135  2.6913
 8881SOL    HW238103   3.227   1.069   9.504  0.7118  0.1546  0.4626
 8882SOL     OW38104   4.642   0.970  10.616  0.1415 -0.4293  0.1466
 8882SOL    HW138105   4.565   0.945  10.565  1.1713 -1.6852 -0.8147
 8882SOL    HW238106   4.717   0.937  10.566 -1.0236 -3.6874  0.5881
 8883SOL     OW38107   0.484   4.087   7.729 -0.1026 -0.4452  0.0830
 8883SOL    HW138108   0.504   4.095   7.636 -0.4739 -1.1750 -0.0528
 8883SOL    HW238109   0.396   4.124   7.737 -0.8528 -1.9328 -1.4691
 8884SOL     OW38110   1.404   0.601   5.874 -0.5164  0.4950 -0.0195
 8884SOL    HW138111   1.466   0.581   5.944  1.6564  2.7871 -1.2708
 8884SOL    HW238112   1.321   0.572   5.912  1.3499 -1.7038  2.3462
 8885SOL     OW38113   2.027   1.721   4.329  0.2194  0.4355 -0.2619
 8885SOL    HW138114   1.993   1.635   4.355  2.7778 -0.5764 -0.2962
 8885SOL    HW238115   1.978   1.778   4.388 -2.5996 -0.2525 -1.8897
 8886SOL     OW38116   3.124   3.997   8.656  0.5641 -0.1564  1.2005
 8886SOL    HW138117   3.207   3.960   8.683  1.4278  2.2733  1.9290
 8886SOL    HW238118   3.146   4.086   8.627 -0.8346 -0.3736 -0.5076
 8887SOL     OW38119   2.086   4.413   0.626  0.7408  0.1010 -0.3139
 8887SOL    HW138120   2.068   4.421   0.532 -0.2409 -1.4131 -0.2368
 8887SOL    HW238121   2.002   4.383   0.659  0.0789  1.5321 -0.6936
 8888SOL     OW38122   2.495   3.546  10.118 -0.6990 -0.1942  0.4340
 8888SOL    HW138123   2.559   3.526  10.186  0.3282  0.2439 -0.3965
 8888SOL    HW238124   2.418   3.530  10.171 -1.4698  3.0352  0.3064
 8889SOL     OW38125   3.491   2.920  15.836  0.8276 -0.0200 -0.0804
 8889SOL    HW138126   3.523   3.010  15.844  0.5127  0.0482  0.4190
 8889SOL    HW238127   3.416   2.924  15.895  0.5337 -1.8396 -0.3286
 8890SOL     OW38128   2.853   2.941  17.358  0.1177 -0.0778 -0.3750
 8890SOL    HW138129   2.850   2.905  17.446  0.6000 -0.7669 -0.6353
 8890SOL    HW238130   2.938   2.907  17.330  0.3172 -1.3386  1.7880
 8891SOL     OW38131   1.323   0.891   4.022  0.7914  0.7158  0.3083
 8891SOL    HW138132   1.382   0.820   3.996 -0.4777  0.5485 -2.1160
 8891SOL    HW238133   1.304   0.923   3.934 -1.7099  0.8933  0.9035
 8892SOL     OW38134   0.972   1.224   2.357  0.0280  0.2609  0.5377
 8892SOL    HW138135   0.936   1.172   2.286 -0.7677  0.4248  0.8249
 8892SOL    HW238136   0.894   1.267   2.393 -0.6727 -1.2876  0.8631
 8893SOL     OW38137   1.416   0.076   0.032 -0.3957 -0.3789 -0.2402
 8893SOL    HW138138   1.381   0.044   0.115  2.7205  1.9433  1.9699
 8893SOL    HW238139   1.342   0.108  17.690 -0.3531 -0.1607 -0.1668
 8894SOL     OW38140   4.442   2.063   2.972  0.6346 -0.7038 -0.3292
 8894SOL    HW138141   4.430   2.158   2.968 -1.2221 -0.9359 -0.1832
 8894SOL    HW238142   4.511   2.062   2.906 -0.4114 -0.5392 -1.4301
 8895SOL     OW38143   0.521   0.150   6.078  0.1550 -0.2347 -0.5613
 8895SOL    HW138144   0.477   0.064   6.081 -1.6368  0.6353 -1.8479
 8895SOL    HW238145   0.604   0.136   6.032 -0.5996 -0.1044 -1.9518
 8896SOL     OW38146   0.233   0.837   6.150 -0.0335 -0.0273 -0.3063
 8896SOL    HW138147   0.224   0.932   6.155  2.4123  0.2769 -1.7088
 8896SOL    HW238148   0.244   0.808   6.241  2.4065  1.7511 -0.0352
 8897SOL     OW38149   1.693   4.340   6.273  0.2944  0.4290  0.4056
 8897SOL    HW138150   1.649   4.333   6.188 -1.3207  0.8443  1.2034
 8897SOL    HW238151   1.698   4.245   6.286 -0.6760  0.0782 -1.7590
 8898SOL     OW38152   2.847   3.798   6.096  0.0245  0.3635 -0.3636
 8898SOL    HW138153   2.929   3.760   6.067 -0.3872  1.5365 -3.0339
 8898SOL    HW238154   2.845   3.753   6.181 -1.4768  1.3415  0.1256
 8899SOL     OW38155   3.535   0.832   1.029 -0.2401 -0.0719  0.3611
 8899SOL    HW138156   3.480   0.891   1.079  0.2194  0.9779 -0.3730
 8899SOL    HW238157   3.551   0.895   0.959 -0.2848  0.7758  1.1278
 8900SOL     OW38158   3.691   1.380   6.721 -0.0126 -0.0062 -0.9327
 8900SOL    HW138159   3.604   1.355   6.691 -0.6397  0.2868  0.6138
 8900SOL    HW238160   3.726   1.410   6.637 -1.0764  1.7796 -0.7478
 8901SOL     OW38161   3.081   4.375   0.839  0.9208  0.4049 -0.0342
 8901SOL    HW138162   3.140   4.396   0.911  0.5184  0.1327  0.3765
 8901SOL    HW238163   3.077   4.285   0.871 -0.4193  0.6881  0.5927
 8902SOL     OW38164   2.059   4.083   4.496 -0.4148 -0.0574  0.2307
 8902SOL    HW138165   2.117   4.010   4.517  1.0227  0.6120 -1.4194
 8902SOL    HW238166   1.969   4.049   4.491  0.1238 -1.6349  1.3834
 8903SOL     OW38167   0.458   3.149  12.569 -0.4199  0.5023 -0.8668
 8903SOL    HW138168   0.418   3.079  12.621  0.2356 -0.8366 -2.1630
 8903SOL    HW238169   0.407   3.138  12.489 -0.5532  0.3341 -0.7602
 8904SOL     OW38170   3.884   3.626   8.341  0.0334  0.3496  0.0897
 8904SOL    HW138171   3.966   3.617   8.293 -0.2013  1.1202 -0.4386
 8904SOL    HW238172   3.856   3.534   8.333 -0.0242  0.2685  1.1566
 8905SOL     OW38173   3.522   0.467   0.520  0.6381 -0.2448  0.3343
 8905SOL    HW138174   3.579   0.465   0.443  1.7653  0.3060  1.1484
 8905SOL    HW238175   3.435   0.498   0.496  0.5084  0.7745  2.0975
 8906SOL     OW38176   2.150   1.996  13.973 -0.1107 -0.1923 -0.0589
 8906SOL    HW138177   2.077   2.007  14.035 -0.0064  0.2150 -0.0130
 8906SOL    HW238178   2.221   1.996  14.037  0.9392  2.4543 -1.2253
 8907SOL     OW38179   2.567   0.279   6.819 -0.3250  0.4277  0.2631
 8907SOL    HW138180   2.521   0.250   6.740 -0.4202  1.3591 -0.0187
 8907SOL    HW238181   2.654   0.299   6.784 -0.7851  0.2532 -0.9903
 8908SOL     OW38182   2.698   1.748   9.083 -0.1604  0.8687 -0.6299
 8908SOL    HW138183   2.773   1.794   9.045  2.8523 -1.8048  2.0546
 8908SOL    HW238184   2.731   1.712   9.166 -1.8142  0.0733 -0.3162
 8909SOL     OW38185   0.307   1.635   5.403  0.8727  0.2649  0.1963
 8909SOL    HW138186   0.327   1.638   5.497 -3.3234 -1.1468  1.1474
 8909SOL    HW238187   0.272   1.719   5.375 -0.5753 -0.9355 -1.6035
 8910SOL     OW38188   3.418   1.705   0.091  0.2531 -0.1654 -0.2443
 8910SOL    HW138189   3.441   1.615   0.072  0.4671  0.0039 -0.7954
 8910SOL    HW238190   3.408   1.744   0.004 -0.0852  0.3464  0.0243
 8911SOL     OW38191   3.387   0.521   0.155  0.6235  0.3478  0.0009
 8911SOL    HW138192   3.441   0.445   0.174 -2.1239 -1.1002  1.9448
 8911SOL    HW238193   3.451   0.591   0.141  2.4216 -1.5853 -1.4405
 8912SOL     OW38194   3.573   2.177   8.029 -0.2014  0.2426  0.0301
 8912SOL    HW138195   3.552   2.239   8.099  0.7738 -0.5717  1.0589
 8912SOL    HW238196   3.485   2.157   7.995  0.7078 -0.0768 -2.1175
 8913SOL     OW38197   4.652   3.925   5.193 -0.1744 -0.0793 -0.1804
 8913SOL    HW138198   4.558   3.944   5.190 -0.6330 -2.0813  1.9133
 8913SOL    HW238199   4.669   3.870   5.269 -0.9322 -0.2640 -0.1438
 8914SOL     OW38200   1.161   1.472  11.158 -0.2869  0.2187  0.3513
 8914SOL    HW138201   1.252   1.479  11.127  0.4952  0.4014  2.7207
 8914SOL    HW238202   1.158   1.522  11.240 -0.2846  0.7292  0.0431
 8915SOL     OW38203   3.426   4.699   0.215  0.5600 -0.7174  0.2105
 8915SOL    HW138204   3.454   4.620   0.169 -1.1040 -1.7370  0.9479
 8915SOL    HW238205   3.426   0.040   0.148 -0.3010 -0.3993  0.5301
 8916SOL     OW38206   1.896   0.873   6.022 -0.4388  0.0539 -0.2164
 8916SOL    HW138207   1.949   0.876   5.942  0.0648 -0.0880  0.1083
 8916SOL    HW238208   1.954   0.904   6.091 -1.4036  0.2613  0.4966
 8917SOL     OW38209   2.157   2.636   4.112 -0.5847  0.3678  0.2267
 8917SOL    HW138210   2.172   2.634   4.018 -0.9211  2.2086  0.1236
 8917SOL    HW238211   2.108   2.717   4.130 -0.2697  1.2378 -2.9218
 8918SOL     OW38212   4.661   3.329   5.959 -0.0950 -0.4553 -0.1655
 8918SOL    HW138213   4.614   3.250   5.930  0.9552 -0.4192 -1.9228
 8918SOL    HW238214   4.726   3.298   6.022 -0.5277  0.0162  0.5108
 8919SOL     OW38215   2.535   2.783   4.104  0.1894  0.7477  0.0661
 8919SOL    HW138216   2.444   2.804   4.123  0.2375  0.1068  0.9732
 8919SOL    HW238217   2.582   2.847   4.156  1.0215 -1.1133  1.5738
 8920SOL     OW38218   2.989   0.654  14.169  0.7570 -0.0188 -0.3944
 8920SOL    HW138219   3.031   0.717  14.227 -1.5303  0.6173  0.5673
 8920SOL    HW238220   2.978   0.704  14.088  0.4119  0.0263 -0.3187
 8921SOL     OW38221   3.682   4.362   5.428 -0.1934  0.2795 -0.4772
 8921SOL    HW138222   3.704   4.311   5.506 -0.1024 -2.0813 -2.0647
 8921SOL    HW238223   3.674   4.290   5.366  2.7941 -2.2866  2.1032
 8922SOL     OW38224   2.741   4.608  11.329  0.2974  0.7903 -0.2017
 8922SOL    HW138225   2.699   4.522  11.336  0.2549  0.9898  1.8967
 8922SOL    HW238226   2.671   4.658  11.288  0.3991  1.4662  0.4606
 8923SOL     OW38227   1.384   4.173   8.398  0.0673  0.0189  0.2857
 8923SOL    HW138228   1.475   4.171   8.368 -0.7823  1.3090 -2.2929
 8923SOL    HW238229   1.346   4.141   8.316 -1.1315 -1.8637  1.5580
 8924SOL     OW38230   2.225   4.687   3.083  0.0568  0.1906 -0.1311
 8924SOL    HW138231   2.159   4.617   3.087  0.3876 -0.1019  0.1679
 8924SOL    HW238232   2.204   0.007   3.163 -3.0507 -0.2421 -0.7021
 8925SOL     OW38233   0.322   0.099   8.613 -0.1909  0.9304 -0.6601
 8925SOL    HW138234   0.358   0.152   8.541  2.5391  0.6593  0.4818
 8925SOL    HW238235   0.248   0.063   8.565  0.2538  0.0500 -0.6870
 8926SOL     OW38236   3.801   1.853   4.693 -0.5033  0.0369  0.1138
 8926SOL    HW138237   3.708   1.847   4.672 -0.5639  0.3360  0.2966
 8926SOL    HW238238   3.835   1.870   4.605 -1.2958 -1.4861 -0.4906
 8927SOL     OW38239   1.985   3.381   0.777  0.6171  0.0316  0.3487
 8927SOL    HW138240   1.950   3.294   0.790  0.0979  0.0076 -1.1875
 8927SOL    HW238241   1.966   3.429   0.857 -1.6753  0.0822 -0.2506
 8928SOL     OW38242   4.001   2.472   1.927  0.1651  0.1583 -0.3636
 8928SOL    HW138243   4.029   2.449   2.016  2.1579  1.7834 -0.5632
 8928SOL    HW238244   4.084   2.454   1.883 -0.8953  0.5054 -2.4623
 8929SOL     OW38245   2.643   1.042  11.435 -0.1887 -0.1129 -0.2675
 8929SOL    HW138246   2.584   0.985  11.386  0.5649 -2.1228  1.1609
 8929SOL    HW238247   2.672   0.982  11.504  0.2077 -0.0085 -0.3386
 8930SOL     OW38248   2.127   2.066   8.484 -0.0317  0.3611 -0.3663
 8930SOL    HW138249   2.139   2.141   8.542 -1.5051 -0.6892  1.3206
 8930SOL    HW238250   2.179   2.095   8.409  0.2239  0.3041 -0.2131
 8931SOL     OW38251   3.525   1.435   1.022 -0.2870 -0.2505  0.0735
 8931SOL    HW138252   3.599   1.476   0.978  0.4289 -1.7767 -0.1509
 8931SOL    HW238253   3.548   1.342   1.018 -0.9599 -0.4299  0.2618
 8932SOL     OW38254   1.242   4.349  17.529 -0.0970  0.2649  0.4091
 8932SOL    HW138255   1.248   4.341  17.624 -0.4641  1.2265  0.5167
 8932SOL    HW238256   1.337   4.339  17.522 -0.3764 -1.9268  0.0076
 8933SOL     OW38257   2.085   0.917   3.389  0.4873 -0.2711  0.1387
 8933SOL    HW138258   2.170   0.940   3.350 -1.0995  2.7917 -1.4641
 8933SOL    HW238259   2.047   0.997   3.423  0.4514 -1.1061  2.0765
 8934SOL     OW38260   2.436   2.402  13.815 -0.2113  0.0756  0.1123
 8934SOL    HW138261   2.460   2.493  13.797 -2.5814  0.2178 -2.2686
 8934SOL    HW238262   2.528   2.375  13.815 -0.7541 -1.7050 -0.1434
 8935SOL     OW38263   1.229   0.649   8.421  0.2848 -0.1458  0.1711
 8935SOL    HW138264   1.167   0.717   8.447 -1.2271 -1.1507 -0.8239
 8935SOL    HW238265   1.214   0.581   8.487  1.2536 -0.2921  0.2488
 8936SOL     OW38266   4.549   3.272  15.698  0.2215 -0.0160 -0.6312
 8936SOL    HW138267   4.537   3.366  15.689 -1.0323 -0.0714  0.4748
 8936SOL    HW238268   4.587   3.251  15.613 -0.4001 -1.6921 -0.4992
 8937SOL     OW38269   2.950   0.490  15.929  0.4839  0.1486  0.7003
 8937SOL    HW138270   2.938   0.482  16.024 -0.7660 -2.1150  0.3592
 8937SOL    HW238271   2.860   0.491  15.896  0.8155 -0.3385 -0.2424
 8938SOL     OW38272   4.167   2.361  16.824  0.4176 -0.0010  0.0899
 8938SOL    HW138273   4.099   2.415  16.781 -1.1736 -0.0304  2.5424
 8938SOL    HW238274   4.209   2.434  16.870 -1.6689  2.2726 -1.5837
 8939SOL     OW38275   4.284   0.936   2.346 -0.1181  0.2385  0.2598
 8939SOL    HW138276   4.376   0.909   2.347 -0.3235 -0.4877  0.1412
 8939SOL    HW238277   4.229   0.857   2.341 -0.1529  0.2719  0.0799
 8940SOL     OW38278   1.313   1.938   1.245  0.0757 -0.1008 -0.5223
 8940SOL    HW138279   1.341   1.903   1.161  0.7809 -0.5405 -0.1070
 8940SOL    HW238280   1.349   1.869   1.302 -1.5344  0.9732  1.7999
 8941SOL     OW38281   3.789   4.120  11.570  0.5395 -1.1431  0.0597
 8941SOL    HW138282   3.852   4.048  11.563 -0.4318 -1.7778 -2.1112
 8941SOL    HW238283   3.725   4.092  11.505  0.0093  2.6321 -1.0579
 8942SOL     OW38284   2.541   0.681   7.648  0.2685  0.6015  0.0641
 8942SOL    HW138285   2.500   0.711   7.729  0.4220  0.8181  0.0638
 8942SOL    HW238286   2.468   0.664   7.589 -2.2103  0.5409  3.1509
 8943SOL     OW38287   2.193   2.384   9.451  0.2443 -0.5984 -0.0028
 8943SOL    HW138288   2.197   2.436   9.531 -0.2617  0.6236 -0.7839
 8943SOL    HW238289   2.278   2.397   9.410  0.7998 -1.1736  0.9424
 8944SOL     OW38290   1.219   4.054   8.591  0.0147 -0.0367 -0.2195
 8944SOL    HW138291   1.284   4.003   8.639 -0.2917  0.7707  1.0554
 8944SOL    HW238292   1.267   4.103   8.524  1.7968 -1.5486 -0.0473
 8945SOL     OW38293   3.196   2.301   4.428 -0.2105 -0.2284  0.3505
 8945SOL    HW138294   3.210   2.212   4.397  1.9615 -0.4292  1.8951
 8945SOL    HW238295   3.208   2.286   4.522  0.7418  0.6155  0.3685
 8946SOL     OW38296   1.833   0.471   6.967 -0.0353  0.3217  0.3404
 8946SOL    HW138297   1.911   0.417   6.953  1.2763  1.5752  2.8456
 8946SOL    HW238298   1.785   0.402   7.012  1.5307  0.7225  2.6514
 8947SOL     OW38299   0.895   2.652   7.427 -0.0626  0.0428 -0.3240
 8947SOL    HW138300   0.872   2.590   7.357 -0.0955  0.3743 -0.6104
 8947SOL    HW238301   0.897   2.734   7.377 -2.0984 -0.0340 -0.5483
 8948SOL     OW38302   0.001   0.066  16.690 -0.7746 -0.2787 -0.0555
 8948SOL    HW138303   0.082   0.037  16.648 -0.3857  2.3549 -1.0808
 8948SOL    HW238304   4.724   0.153  16.651  0.0573 -0.4939 -0.6323
 8949SOL     OW38305   3.957   4.400  15.365  0.0165  0.0386  0.6305
 8949SOL    HW138306   3.902   4.395  15.287  0.8103 -1.0597  0.1349
 8949SOL    HW238307   3.907   4.475  15.399 -0.1174 -0.0079  0.5350
 8950SOL     OW38308   3.089   3.800  15.360  0.0598 -0.1817 -0.1589
 8950SOL    HW138309   3.067   3.724  15.306 -1.1422  1.0885 -1.4658
 8950SOL    HW238310   3.010   3.822  15.410  0.5178  0.5612  0.2398
 8951SOL     OW38311   3.836   2.426   3.376 -0.1943 -0.1357  0.4104
 8951SOL    HW138312   3.778   2.501   3.360 -0.1694 -0.3482 -0.6593
 8951SOL    HW238313   3.918   2.466   3.347  0.1915 -0.6764  0.7639
 8952SOL     OW38314   3.202   3.265  12.540  0.2196 -0.1549  0.0115
 8952SOL    HW138315   3.263   3.303  12.477 -0.2427 -1.4289 -1.1998
 8952SOL    HW238316   3.258   3.248  12.616  1.1943 -0.7108 -0.8351
 8953SOL     OW38317   1.103   1.891   3.520 -0.3948 -0.1626 -0.8889
 8953SOL    HW138318   1.012   1.921   3.523 -0.2862 -0.1150  2.1110
 8953SOL    HW238319   1.146   1.974   3.498  0.8067 -0.1802  1.3992
 8954SOL     OW38320   2.411   2.166   5.832 -0.1039 -0.0586  0.3462
 8954SOL    HW138321   2.412   2.170   5.736  3.9607 -0.8453  0.3848
 8954SOL    HW238322   2.470   2.239   5.848 -0.6389  0.3655  0.3713
 8955SOL     OW38323   2.042   3.926  11.139  0.3402 -0.7671 -0.4576
 8955SOL    HW138324   2.131   3.922  11.104 -0.1997  2.7880 -2.2375
 8955SOL    HW238325   2.022   4.006  11.091  1.6176 -0.5521 -0.6171
 8956SOL     OW38326   0.269   1.524   2.129  0.7773  0.0717 -0.5046
 8956SOL    HW138327   0.221   1.599   2.094 -1.2801 -0.8938  0.3190
 8956SOL    HW238328   0.231   1.462   2.067  1.1897 -0.1289 -0.5620
 8957SOL     OW38329   0.684   2.680  15.381 -0.4244  0.0790  0.0935
 8957SOL    HW138330   0.623   2.754  15.385  0.9744  1.3016 -0.8330
 8957SOL    HW238331   0.650   2.638  15.302 -1.1126 -2.2460  1.6169
 8958SOL     OW38332   4.056   2.964  11.936 -0.0719 -0.4046 -0.2312
 8958SOL    HW138333   4.053   3.044  11.988  0.1412 -0.3042 -0.3735
 8958SOL    HW238334   4.021   2.902  12.001 -2.6789  0.0702 -1.1714
 8959SOL     OW38335   2.913   3.268   4.937 -0.2209  0.3498  0.4168
 8959SOL    HW138336   2.886   3.177   4.932 -2.2863  1.0844 -1.4366
 8959SOL    HW238337   3.004   3.258   4.966  0.3945 -1.0840 -2.0401
 8960SOL     OW38338   3.526   3.133   9.020 -0.1719 -0.1390  0.1009
 8960SOL    HW138339   3.449   3.078   9.035  0.4692 -0.9172  0.5058
 8960SOL    HW238340   3.512   3.214   9.070  2.1582  1.9958 -2.7529
 8961SOL     OW38341   2.572   3.837   3.520 -0.2075  0.6113 -0.2500
 8961SOL    HW138342   2.574   3.760   3.578 -0.4025  0.1456 -0.8625
 8961SOL    HW238343   2.562   3.793   3.436  2.7693 -1.2772  0.3501
 8962SOL     OW38344   0.583   3.954   9.868  0.4502 -0.1890 -0.0074
 8962SOL    HW138345   0.609   3.892   9.801  1.7002 -0.6197  0.8877
 8962SOL    HW238346   0.491   3.965   9.843  0.5101 -0.7015 -0.4377
 8963SOL     OW38347   1.951   3.117  12.477 -0.0736  0.3972  0.8254
 8963SOL    HW138348   2.016   3.188  12.479  0.2902  0.0563  1.0934
 8963SOL    HW238349   1.907   3.135  12.560  0.3876  1.8292  0.7479
 8964SOL     OW38350   0.220   1.187  15.893 -0.0071 -0.3505  0.6510
 8964SOL    HW138351   0.257   1.151  15.813 -0.3963  1.0699 -0.1654
 8964SOL    HW238352   0.191   1.272  15.860  0.5547  0.4309  2.1976
 8965SOL     OW38353   3.988   2.714   2.725 -0.4721  0.6488 -0.1560
 8965SOL    HW138354   4.045   2.639   2.711 -1.0711 -0.2420  2.2864
 8965SOL    HW238355   4.002   2.764   2.645 -1.4279 -0.5474 -1.0801
 8966SOL     OW38356   1.593   0.365  12.844  0.0524 -0.5188 -0.0268
 8966SOL    HW138357   1.617   0.294  12.904 -2.3098 -0.9989  0.3667
 8966SOL    HW238358   1.578   0.313  12.765  1.4211 -1.4815  0.3456
 8967SOL     OW38359   0.582   0.411   2.378 -0.3492 -0.2282 -0.2220
 8967SOL    HW138360   0.511   0.472   2.357 -0.5576 -1.2264 -2.4394
 8967SOL    HW238361   0.593   0.374   2.290 -0.1971  0.1749 -0.3735
 8968SOL     OW38362   1.017   0.699  13.824 -0.0825 -1.0311  0.6241
 8968SOL    HW138363   0.976   0.629  13.772 -3.2370  1.0442  0.3333
 8968SOL    HW238364   0.943   0.746  13.862  0.7852 -0.0406  1.0961
 8969SOL     OW38365   4.567   1.092  17.532 -0.2781  0.7497  0.2193
 8969SOL    HW138366   4.629   1.149  17.487 -2.4327  3.1968  0.3221
 8969SOL    HW238367   4.482   1.137  17.535  0.7370  2.6841  0.3663
 8970SOL     OW38368   1.359   2.240  15.224  0.0731 -0.7722  0.1669
 8970SOL    HW138369   1.445   2.255  15.262  0.2364  0.6283 -0.7547
 8970SOL    HW238370   1.332   2.153  15.256 -1.2972 -0.1118  0.8163
 8971SOL     OW38371   4.568   1.025   4.095  0.2081 -0.1375 -0.4477
 8971SOL    HW138372   4.638   0.960   4.107  1.8321  1.6035 -0.4494
 8971SOL    HW238373   4.625   1.101   4.086  0.6309 -0.1339  2.2864
 8972SOL     OW38374   0.105   1.710   4.325 -0.5751 -0.2394 -0.7930
 8972SOL    HW138375   0.016   1.681   4.309 -0.6993  1.0583 -2.5162
 8972SOL    HW238376   0.134   1.645   4.389  0.0599 -1.8974 -2.7484
 8973SOL     OW38377   4.305   0.483   7.743  0.3302  0.1987 -0.2997
 8973SOL    HW138378   4.241   0.481   7.673 -1.6626 -0.0269  1.5129
 8973SOL    HW238379   4.258   0.532   7.811  1.4992  0.5464  0.2772
 8974SOL     OW38380   2.753   2.437   5.243 -0.9559  0.9801  0.5716
 8974SOL    HW138381   2.701   2.428   5.323  0.5263 -1.5261  1.2473
 8974SOL    HW238382   2.677   2.438   5.184  0.8412 -2.3203 -1.8037
 8975SOL     OW38383   2.259   3.315   0.777 -0.3575 -0.3642  0.5395
 8975SOL    HW138384   2.263   3.270   0.693  2.3111  1.3792 -0.2421
 8975SOL    HW238385   2.167   3.339   0.767 -0.4145 -0.9884 -0.4691
 8976SOL     OW38386   1.445   3.574   6.126 -0.2958 -0.0717 -0.1251
 8976SOL    HW138387   1.497   3.649   6.097 -2.5764  1.0699 -1.2518
 8976SOL    HW238388   1.359   3.613   6.142  1.9235  3.8378  2.0170
 8977SOL     OW38389   4.471   3.335   6.380  0.5613  0.2966  0.2924
 8977SOL    HW138390   4.416   3.397   6.427  2.2243  1.2330  0.9965
 8977SOL    HW238391   4.452   3.349   6.288  0.4570  0.9041  0.4069
 8978SOL     OW38392   0.065   4.034   1.543 -0.3159 -0.2860  0.1256
 8978SOL    HW138393   4.710   3.992   1.569 -1.1807  0.6578 -1.0597
 8978SOL    HW238394   0.031   4.081   1.467 -0.0295 -0.3422 -0.0371
 8979SOL     OW38395   4.544   1.117  12.649 -0.0215  0.2374 -0.0835
 8979SOL    HW138396   4.527   1.157  12.563 -0.2756 -0.7665 -0.4997
 8979SOL    HW238397   4.472   1.152  12.703  0.6154  0.4296  0.6315
 8980SOL     OW38398   2.603   0.060   9.251 -0.0322 -0.1421  0.0969
 8980SOL    HW138399   2.621   0.100   9.166 -1.2930 -0.5353 -0.3604
 8980SOL    HW238400   2.665   0.109   9.306  2.6033 -0.1940 -2.8462
 8981SOL     OW38401   1.106   4.548   3.508 -0.2931 -0.2938 -0.3404
 8981SOL    HW138402   1.052   4.602   3.566 -0.4762  1.4598 -2.1529
 8981SOL    HW238403   1.056   4.553   3.426  0.1570 -1.8128 -0.7013
 8982SOL     OW38404   1.693   3.149   6.882 -0.0952 -1.1660 -0.0744
 8982SOL    HW138405   1.698   3.234   6.839 -1.3146 -0.1811  1.7662
 8982SOL    HW238406   1.633   3.161   6.955  0.7232 -0.4528  0.4754
 8983SOL     OW38407   2.662   1.029   5.286 -0.2896  0.1221  0.4189
 8983SOL    HW138408   2.567   1.036   5.278  0.0132  3.0141 -0.4794
 8983SOL    HW238409   2.682   1.068   5.201 -3.5728 -0.1586 -0.4765
 8984SOL     OW38410   0.026   3.577  16.699  0.8588 -0.4487 -0.1295
 8984SOL    HW138411   4.684   3.542  16.755 -0.3977  0.6846 -0.9597
 8984SOL    HW238412   0.024   3.514  16.626 -2.6727  1.0961 -1.3738
 8985SOL     OW38413   4.526   0.666   9.816  0.5774 -0.4031  0.2263
 8985SOL    HW138414   4.533   0.595   9.880 -3.2063  0.0613  1.1306
 8985SOL    HW238415   4.442   0.699   9.847  1.1315  0.0836  1.2015
 8986SOL     OW38416   1.623   0.781  10.049 -0.0364 -0.5648  0.3494
 8986SOL    HW138417   1.530   0.790  10.071  0.4857  1.4833  1.6661
 8986SOL    HW238418   1.640   0.703  10.102  1.7670  0.8468  1.8109
 8987SOL     OW38419   0.697   1.158   7.911 -0.0231  0.0115 -0.3091
 8987SOL    HW138420   0.620   1.133   7.961  0.5325 -1.1551 -0.0285
 8987SOL    HW238421   0.767   1.129   7.970 -0.9590  0.2011  0.8614
 8988SOL     OW38422   3.620   1.417   8.433  0.0769 -0.0620 -0.1882
 8988SOL    HW138423   3.676   1.476   8.383 -0.6475  0.0895 -0.8186
 8988SOL    HW238424   3.571   1.481   8.485 -1.3224 -0.2690 -1.2470
 8989SOL     OW38425   2.662   3.056   3.855 -0.9024 -0.6136 -0.2129
 8989SOL    HW138426   2.709   2.977   3.828  0.5468  0.7872 -1.7049
 8989SOL    HW238427   2.717   3.112   3.910  0.3478  0.6679 -2.7593
 8990SOL     OW38428   4.072   4.381   6.762 -0.1611 -0.4682  0.1556
 8990SOL    HW138429   4.027   4.300   6.788 -0.0104 -0.6160 -0.0458
 8990SOL    HW238430   4.108   4.420   6.842 -2.3275 -1.1067  1.4461
 8991SOL     OW38431   0.927   2.016  13.594 -0.7235 -0.2492 -0.6692
 8991SOL    HW138432   0.892   2.054  13.675 -2.3744  0.0959 -1.5571
 8991SOL    HW238433   0.926   2.083  13.527  1.2265  1.1382  0.6975
 8992SOL     OW38434   1.222   3.973   6.411  0.4506 -0.2779  0.0132
 8992SOL    HW138435   1.166   3.988   6.488 -1.1083 -0.4291 -1.0963
 8992SOL    HW238436   1.168   4.010   6.341  1.7847  3.1446  0.8140
 8993SOL     OW38437   3.278   3.976   6.759 -0.5896  0.1349 -0.1609
 8993SOL    HW138438   3.305   4.046   6.699 -2.8510  1.0699 -0.0844
 8993SOL    HW238439   3.226   4.030   6.818  1.3279  1.8837 -0.0721
 8994SOL     OW38440   1.622   2.872   8.750  0.9769  0.3094  0.1380
 8994SOL    HW138441   1.686   2.916   8.695 -1.1046  1.6566 -1.2135
 8994SOL    HW238442   1.657   2.863   8.839  0.7978  0.4354  0.2211
 8995SOL     OW38443   4.048   0.635  13.153 -0.1157 -0.1188  0.8430
 8995SOL    HW138444   4.133   0.596  13.135  1.1078  1.5431  3.0505
 8995SOL    HW238445   4.078   0.719  13.189 -0.4449 -0.0426  0.9364
 8996SOL     OW38446   3.342   0.132  11.544 -0.1909  0.2800  0.3117
 8996SOL    HW138447   3.411   0.085  11.591  0.1515  1.0274  0.5561
 8996SOL    HW238448   3.277   0.160  11.607 -0.5437  1.9482 -0.7867
 8997SOL     OW38449   1.810   2.968   5.103 -0.6118 -0.2383  0.0861
 8997SOL    HW138450   1.726   2.930   5.076 -0.5883 -1.1352  1.2725
 8997SOL    HW238451   1.867   2.929   5.037 -1.3153 -1.5023  0.2349
 8998SOL     OW38452   2.647   0.910   2.368  0.3552  0.1326  0.7614
 8998SOL    HW138453   2.728   0.871   2.334 -0.1847 -1.9050  1.7691
 8998SOL    HW238454   2.637   0.850   2.442  0.3215 -1.3285 -0.4167
 8999SOL     OW38455   3.252   0.058   9.234  0.6697 -0.2173 -0.5994
 8999SOL    HW138456   3.235   4.715   9.170  0.4336  0.2433 -1.0472
 8999SOL    HW238457   3.171   0.109   9.232 -0.1183 -1.4296  0.3385
 9000SOL     OW38458   1.320   3.058   3.337 -0.0398  0.1006 -0.3280
 9000SOL    HW138459   1.412   3.079   3.318 -0.3008  1.1713 -0.4191
 9000SOL    HW238460   1.319   2.964   3.350  3.5076  0.1511  0.5271
 9001SOL     OW38461   1.918   2.480   5.200 -0.2627 -0.1336  0.2749
 9001SOL    HW138462   1.842   2.435   5.165  0.6935 -1.2926 -0.2867
 9001SOL    HW238463   1.978   2.499   5.127 -1.1437 -0.1126 -0.4375
 9002SOL     OW38464   4.464   0.515   2.675 -0.0886 -0.6006 -0.3604
 9002SOL    HW138465   4.458   0.441   2.614  1.3366 -1.2125  0.2462
 9002SOL    HW238466   4.539   0.503   2.733  0.9379  1.4532 -1.2601
 9003SOL     OW38467   2.325   2.842  13.916 -0.0372  0.0357 -0.2114
 9003SOL    HW138468   2.311   2.872  14.006 -1.8167 -1.4779  0.0235
 9003SOL    HW238469   2.251   2.886  13.874 -0.2548  0.9583  1.1519
 9004SOL     OW38470   3.911   4.264   9.058  0.6887 -0.1476  0.4816
 9004SOL    HW138471   3.974   4.320   9.103  0.9563 -0.4550  0.4985
 9004SOL    HW238472   3.830   4.307   9.084  0.3676 -0.3311 -0.1990
 9005SOL     OW38473   0.813   4.275  15.001 -0.3485 -0.2538 -0.3271
 9005SOL    HW138474   0.791   4.182  14.993 -0.5063 -0.2111 -0.3817
 9005SOL    HW238475   0.748   4.300  15.066  0.1912 -1.1263  0.5439
 9006SOL     OW38476   3.623   0.509   4.800  0.3585 -0.1852  0.1087
 9006SOL    HW138477   3.574   0.468   4.729  0.9124 -0.5793 -0.0434
 9006SOL    HW238478   3.609   0.446   4.870 -0.7176  0.2827  0.3238
 9007SOL     OW38479   3.195   2.331  13.172  0.6405 -0.1767  0.0162
 9007SOL    HW138480   3.101   2.324  13.184  0.9744 -1.2147  2.0117
 9007SOL    HW238481   3.195   2.354  13.079 -0.9130  0.4733  0.1812
 9008SOL     OW38482   0.026   3.296   1.919  0.1589 -0.2470  0.6938
 9008SOL    HW138483   0.063   3.215   1.884  0.6484  0.0236  0.5735
 9008SOL    HW238484   0.081   3.315   1.996  0.0958  0.3401  0.5941
 9009SOL     OW38485   3.026   0.778   6.367 -0.1215  0.4014 -0.1611
 9009SOL    HW138486   2.971   0.705   6.394 -0.3798 -0.2329 -2.3473
 9009SOL    HW238487   2.960   0.847   6.374  0.6471  1.0874  0.4207
 9010SOL     OW38488   0.062   2.964  13.617  0.4648  0.0083 -0.9280
 9010SOL    HW138489   0.125   2.991  13.684  0.5558 -0.7115 -0.7271
 9010SOL    HW238490   0.055   2.876  13.654 -2.7698  0.2596 -0.9733
 9011SOL     OW38491   1.121   0.527   7.646  0.8867 -0.1028  0.0334
 9011SOL    HW138492   1.110   0.447   7.594  0.8722 -1.2066  1.7322
 9011SOL    HW238493   1.052   0.589   7.626 -1.0720 -2.0501  0.7731
 9012SOL     OW38494   2.422   3.042   0.752  0.1577  0.0529  0.2052
 9012SOL    HW138495   2.410   2.998   0.668 -0.1101  1.0361 -0.2686
 9012SOL    HW238496   2.491   3.105   0.731 -0.3020  0.6710  0.5763
 9013SOL     OW38497   3.444   2.126   5.790  0.5406  0.5130  0.6707
 9013SOL    HW138498   3.361   2.117   5.836 -0.7334  0.0970 -1.6782
 9013SOL    HW238499   3.450   2.035   5.759  2.5851  0.4521  1.2488
 9014SOL     OW38500   0.488   2.115   5.576 -0.0440 -0.3394 -0.3612
 9014SOL    HW138501   0.518   2.041   5.628 -0.6106  0.0443  0.5070
 9014SOL    HW238502   0.403   2.085   5.543  1.4684 -0.7399 -3.9559
 9015SOL     OW38503   0.662   0.663   7.417  0.3722 -0.4893 -0.2609
 9015SOL    HW138504   0.624   0.692   7.334 -1.6800  1.3402  1.3398
 9015SOL    HW238505   0.642   0.569   7.422  2.4095 -0.8440  1.6048
 9016SOL     OW38506   4.062   2.622   5.322  0.2601  0.4920 -0.0637
 9016SOL    HW138507   4.048   2.715   5.340  0.1528  0.4974 -0.1685
 9016SOL    HW238508   3.973   2.585   5.317  0.8033 -0.6684 -1.2024
 9017SOL     OW38509   2.423   3.557  13.704  0.1563 -0.4558 -0.1801
 9017SOL    HW138510   2.409   3.539  13.797  1.2261 -0.6568 -0.0632
 9017SOL    HW238511   2.328   3.561  13.690  0.2888 -0.0260 -0.9299
 9018SOL     OW38512   2.933   2.495   7.982 -1.1375 -0.1397  0.1381
 9018SOL    HW138513   2.962   2.567   8.038  0.5638  0.2013 -1.2014
 9018SOL    HW238514   2.900   2.545   7.907  2.5417  0.0024 -1.3653
 9019SOL     OW38515   3.464   3.585   4.081  0.4752  0.6752  0.1883
 9019SOL    HW138516   3.441   3.564   4.172 -1.7226 -0.0546 -0.5307
 9019SOL    HW238517   3.504   3.672   4.085 -0.3678  1.0291  0.8316
 9020SOL     OW38518   1.930   2.764   7.352  0.0110 -0.1093  0.0637
 9020SOL    HW138519   2.003   2.752   7.414 -0.7471  0.3251  1.0451
 9020SOL    HW238520   1.895   2.849   7.379 -0.5709 -0.6996  1.1963
 9021SOL     OW38521   3.996   0.330  16.932 -0.0921  0.1322  0.1884
 9021SOL    HW138522   3.958   0.401  16.881  0.4062 -1.6736 -2.7038
 9021SOL    HW238523   4.079   0.301  16.896 -0.2902 -0.4704  0.2011
 9022SOL     OW38524   2.468   1.346  11.899  0.0181  0.5396 -0.3599
 9022SOL    HW138525   2.392   1.295  11.871  0.9242 -0.4860 -0.9501
 9022SOL    HW238526   2.501   1.358  11.810  0.1000 -1.5516 -0.6257
 9023SOL     OW38527   3.949   2.104   6.115 -0.0394  0.5397  0.3995
 9023SOL    HW138528   3.998   2.125   6.036  0.1527  0.6930  0.5613
 9023SOL    HW238529   3.862   2.131   6.085 -0.0308 -1.0617 -1.0403
 9024SOL     OW38530   0.603   4.141   4.787  0.1746 -0.3218 -0.4106
 9024SOL    HW138531   0.605   4.231   4.756  1.5905 -0.2012  0.0338
 9024SOL    HW238532   0.636   4.150   4.877 -1.9401  3.5649 -0.0227
 9025SOL     OW38533   3.179   1.494   9.473 -0.0257  0.3517 -0.9268
 9025SOL    HW138534   3.167   1.498   9.568  0.4576  0.5294 -0.8761
 9025SOL    HW238535   3.263   1.538   9.463  0.1714  1.0968  3.7221
 9026SOL     OW38536   1.132   4.170   5.847 -0.0753 -0.3616 -0.0833
 9026SOL    HW138537   1.171   4.211   5.770  0.6055  0.4819  0.7227
 9026SOL    HW238538   1.078   4.248   5.864 -0.1618 -0.2018 -1.0621
 9027SOL     OW38539   4.433   2.092   6.822 -0.7382  0.1819 -0.8223
 9027SOL    HW138540   4.400   2.115   6.735  1.7675  0.4569 -1.6803
 9027SOL    HW238541   4.424   2.167   6.881 -2.7690 -0.9641  0.3458
 9028SOL     OW38542   0.853   0.749   2.359 -0.4008 -0.5043  0.0383
 9028SOL    HW138543   0.812   0.698   2.289 -2.4737 -2.3080  2.5998
 9028SOL    HW238544   0.947   0.739   2.340  0.3061 -0.4168  3.4730
 9029SOL     OW38545   1.285   2.161   5.202 -0.3837 -0.0706 -0.0615
 9029SOL    HW138546   1.273   2.104   5.126  0.2198  0.1941 -0.3473
 9029SOL    HW238547   1.254   2.097   5.267  3.5373 -0.7877  1.0732
 9030SOL     OW38548   2.693   1.244  12.003  0.4771  0.1302  0.3670
 9030SOL    HW138549   2.675   1.310  12.069  0.0442 -0.0744  0.4541
 9030SOL    HW238550   2.602   1.231  11.976  0.0357  2.4592  0.7638
 9031SOL     OW38551   4.594   1.872   0.254 -0.0990  0.0633  0.1290
 9031SOL    HW138552   4.580   1.961   0.288  1.3584  0.0886  0.6563
 9031SOL    HW238553   4.527   1.830   0.308 -1.3338 -0.3849 -1.7501
 9032SOL     OW38554   3.822   2.562   3.979  0.1491 -0.0812  0.5786
 9032SOL    HW138555   3.779   2.632   3.929  1.3664 -0.8727 -1.5981
 9032SOL    HW238556   3.896   2.546   3.920  0.1232  1.3103  0.1664
 9033SOL     OW38557   1.849   1.245   4.313  0.2505  0.7615 -0.1845
 9033SOL    HW138558   1.893   1.241   4.398 -1.7232  2.5843  0.9148
 9033SOL    HW238559   1.765   1.202   4.328  1.6307 -1.1637  1.9272
 9034SOL     OW38560   2.571   1.927  14.470 -0.0747 -0.3827 -0.4824
 9034SOL    HW138561   2.600   1.865  14.537  1.6664  1.0800  0.1115
 9034SOL    HW238562   2.515   1.875  14.413  0.4497 -0.5465 -0.8436
 9035SOL     OW38563   4.446   4.572  10.612  0.2005  0.8826  0.3893
 9035SOL    HW138564   4.390   4.508  10.568  0.6015  1.2464 -0.6576
 9035SOL    HW238565   4.403   4.567  10.698  2.1513 -2.6123  1.1768
 9036SOL     OW38566   3.510   3.345   5.265 -0.6700 -0.2385  0.5517
 9036SOL    HW138567   3.463   3.295   5.332 -0.5416  0.7310  1.3554
 9036SOL    HW238568   3.485   3.431   5.298  0.1015 -0.3509  1.4354
 9037SOL     OW38569   0.326   4.677  15.694 -0.1877 -0.5147 -0.5083
 9037SOL    HW138570   0.230   4.686  15.691  0.0005  0.9121 -2.2498
 9037SOL    HW238571   0.327   4.669  15.599  2.3787 -0.2806 -0.4812
 9038SOL     OW38572   3.032   1.426  14.868  0.6757 -0.0735  0.0763
 9038SOL    HW138573   3.089   1.502  14.871 -0.3427  0.7176 -0.9138
 9038SOL    HW238574   3.048   1.391  14.956  1.9580  0.9549  0.2382
 9039SOL     OW38575   2.307   0.386   0.703 -0.0559  0.0357  0.5955
 9039SOL    HW138576   2.274   0.472   0.730 -0.1199  0.3744 -0.5563
 9039SOL    HW238577   2.274   0.329   0.772  0.2449 -0.0294  0.6851
 9040SOL     OW38578   1.876   1.607   9.440 -0.0488 -0.3100  0.0454
 9040SOL    HW138579   1.935   1.614   9.365  0.7474 -0.1264  0.6843
 9040SOL    HW238580   1.828   1.688   9.422 -0.0562 -0.0101  1.3906
 9041SOL     OW38581   3.657   4.098   2.660 -0.2839 -0.2676 -0.1241
 9041SOL    HW138582   3.611   4.142   2.732  0.3217 -1.5934  1.0545
 9041SOL    HW238583   3.690   4.016   2.697  0.3582 -0.2579 -0.6842
 9042SOL     OW38584   0.985   1.081   7.759 -0.3105 -0.1927  0.2714
 9042SOL    HW138585   1.056   1.017   7.755  0.6014  1.0105 -2.6640
 9042SOL    HW238586   0.909   1.034   7.793  1.3887 -1.7843  1.8548
 9043SOL     OW38587   0.654   1.128  14.979 -0.1603 -0.0205 -0.4908
 9043SOL    HW138588   0.608   1.201  14.937 -0.7036  1.0329  1.9510
 9043SOL    HW238589   0.586   1.064  15.000 -0.0982 -0.2922 -1.1015
 9044SOL     OW38590   1.864   0.267   5.924  0.1480 -0.1564  0.4120
 9044SOL    HW138591   1.775   0.251   5.893 -1.2546  1.3292  3.6653
 9044SOL    HW238592   1.887   0.338   5.864 -0.9939  0.3129  0.5307
 9045SOL     OW38593   4.470   2.151   6.452  0.0788 -0.3253 -0.1122
 9045SOL    HW138594   4.393   2.145   6.395 -1.6289  0.7783  2.0576
 9045SOL    HW238595   4.457   2.234   6.497  1.4513 -0.6096  0.7903
 9046SOL     OW38596   4.128   4.220   7.204  0.2823  0.0118 -0.1944
 9046SOL    HW138597   4.037   4.207   7.233 -0.4891  0.9210 -2.1642
 9046SOL    HW238598   4.134   4.159   7.130  1.1485 -0.0052 -0.1113
 9047SOL     OW38599   4.448   1.038  15.505  0.1324  0.8668 -0.0091
 9047SOL    HW138600   4.505   1.070  15.575  0.3282  0.6335 -0.0633
 9047SOL    HW238601   4.384   1.109  15.511 -0.5432  0.2079  0.5994
 9048SOL     OW38602   1.956   1.864  11.738  0.0921  0.0366  0.3173
 9048SOL    HW138603   2.038   1.827  11.772 -1.3385 -1.7164  1.8732
 9048SOL    HW238604   1.912   1.785  11.709 -0.0447  0.3977 -0.4569
 9049SOL     OW38605   4.379   0.630   8.561 -0.6304 -0.2569  0.5969
 9049SOL    HW138606   4.295   0.600   8.596 -0.0237 -0.4391  1.9215
 9049SOL    HW238607   4.435   0.552   8.562 -0.2132  0.0354 -0.6638
 9050SOL     OW38608   0.057   1.275   3.397 -0.4101  0.3838 -0.5433
 9050SOL    HW138609   0.018   1.304   3.480 -1.6692 -0.3048 -0.8941
 9050SOL    HW238610   4.718   1.215   3.362  0.2556 -1.0796  0.6879
 9051SOL     OW38611   4.250   1.654   9.483  0.3572  0.1555 -0.8946
 9051SOL    HW138612   4.340   1.633   9.460  0.0700 -0.7947 -1.1566
 9051SOL    HW238613   4.209   1.642   9.397  2.0220 -0.1573 -1.6522
 9052SOL     OW38614   0.275   1.027   2.164  0.0985 -0.5974  0.1315
 9052SOL    HW138615   0.349   1.088   2.158  0.1117 -0.9221 -2.5650
 9052SOL    HW238616   0.223   1.062   2.092 -1.4307 -0.5634  1.2432
 9053SOL     OW38617   0.227   0.343   0.918  0.0155 -0.4437 -0.5377
 9053SOL    HW138618   0.215   0.409   0.850 -0.4162 -1.7845 -1.7608
 9053SOL    HW238619   0.305   0.373   0.966 -1.7855  0.1857  1.9623
 9054SOL     OW38620   2.024   2.104   7.031  0.0956  0.3898 -0.0813
 9054SOL    HW138621   2.046   2.109   6.938 -2.1680 -0.7487 -0.6833
 9054SOL    HW238622   2.103   2.072   7.074  0.0136 -0.2430 -0.4045
 9055SOL     OW38623   2.176   2.345   5.003 -0.3386 -0.2535 -0.0215
 9055SOL    HW138624   2.212   2.266   5.044 -2.7794 -1.3189  0.0502
 9055SOL    HW238625   2.261   2.382   4.980  0.3016 -1.0635  1.0522
 9056SOL     OW38626   2.257   3.464   5.547  0.6791 -0.2040  0.2432
 9056SOL    HW138627   2.232   3.487   5.636  0.8122 -2.0744  0.7661
 9056SOL    HW238628   2.191   3.399   5.523  0.3383 -0.0590  0.7732
 9057SOL     OW38629   3.587   1.277   2.878 -0.2787  0.0643  0.3615
 9057SOL    HW138630   3.592   1.185   2.853 -0.3165  0.1150  0.1704
 9057SOL    HW238631   3.492   1.282   2.895 -0.0779 -2.2631  2.2633
 9058SOL     OW38632   3.345   4.231   9.246 -0.2971  0.1844  0.1420
 9058SOL    HW138633   3.314   4.165   9.307  0.7413  2.1707  2.7979
 9058SOL    HW238634   3.271   4.235   9.186 -0.0775  1.2616 -0.0623
 9059SOL     OW38635   0.158   2.731   5.432  0.3103  0.0794  0.1283
 9059SOL    HW138636   0.166   2.679   5.512  1.8232 -0.0134 -0.0819
 9059SOL    HW238637   0.245   2.718   5.393 -0.3112 -1.1257 -0.8755
 9060SOL     OW38638   1.104   4.633  14.160 -0.4381  0.1339 -0.0792
 9060SOL    HW138639   1.062   4.581  14.091 -1.1024 -1.0462  1.2093
 9060SOL    HW238640   1.032   4.669  14.212  0.8223  0.7974  1.1838
 9061SOL     OW38641   1.279   3.192   4.685  0.0693 -0.3301 -0.0607
 9061SOL    HW138642   1.275   3.238   4.601 -2.0888  0.5392  0.5117
 9061SOL    HW238643   1.189   3.164   4.702 -0.3734  1.8139  1.1187
 9062SOL     OW38644   0.848   0.352   6.450  0.6595 -0.3286 -0.5670
 9062SOL    HW138645   0.769   0.368   6.503  0.6978 -1.0048 -0.2965
 9062SOL    HW238646   0.810   0.359   6.362 -0.1189  1.9272 -0.0375
 9063SOL     OW38647   1.352   3.872   2.142  0.1023 -0.6416  0.4063
 9063SOL    HW138648   1.390   3.959   2.139 -0.1608 -0.5211  0.5476
 9063SOL    HW238649   1.261   3.887   2.120 -0.3186 -1.4370  1.5816
 9064SOL     OW38650   2.828   2.598   2.708 -0.0639 -0.1497 -0.0257
 9064SOL    HW138651   2.738   2.591   2.742 -0.3496  0.4528 -0.6542
 9064SOL    HW238652   2.838   2.686   2.672  3.6816 -0.9137 -0.8169
 9065SOL     OW38653   4.621   1.340  12.846 -0.5858 -0.0981  0.0205
 9065SOL    HW138654   4.626   1.273  12.914 -1.5359 -0.4330 -0.2447
 9065SOL    HW238655   4.673   1.411  12.884 -1.0800  0.0529  0.4189
 9066SOL     OW38656   3.227   3.466   9.888 -0.8646 -0.3848  0.0478
 9066SOL    HW138657   3.269   3.399   9.943 -1.0202 -0.8982 -0.4559
 9066SOL    HW238658   3.295   3.534   9.890  0.3167 -1.6047  1.4326
 9067SOL     OW38659   3.049   4.330   8.220  0.0629  0.5209 -0.2159
 9067SOL    HW138660   2.960   4.343   8.188 -0.0243  1.1446  0.2733
 9067SOL    HW238661   3.091   4.414   8.200  2.3790 -0.4457  0.5495
 9068SOL     OW38662   0.754   2.162   8.101  0.7179  0.3499  0.5551
 9068SOL    HW138663   0.831   2.113   8.071 -0.7487 -1.4284 -0.3325
 9068SOL    HW238664   0.702   2.173   8.021 -0.3304  2.6337  1.5574
 9069SOL     OW38665   1.979   1.376   4.124 -0.0567 -0.2996  0.3004
 9069SOL    HW138666   1.919   1.447   4.103  0.0213 -0.3521 -0.1108
 9069SOL    HW238667   1.930   1.319   4.183  0.0550  1.2073  1.8361
 9070SOL     OW38668   4.709   2.219   4.231 -0.2394 -0.1248 -0.5400
 9070SOL    HW138669   0.026   2.141   4.264  0.7491  1.5802  2.2172
 9070SOL    HW238670   4.632   2.226   4.287 -0.7625 -0.8385 -1.1722
 9071SOL     OW38671   3.859   3.718   4.157 -0.3944  0.8878  0.2177
 9071SOL    HW138672   3.839   3.636   4.202 -0.2969  1.3813  1.1605
 9071SOL    HW238673   3.870   3.777   4.232  1.4422  2.5323 -1.3018
 9072SOL     OW38674   2.526   4.344  13.636  0.1545  0.2678  0.2088
 9072SOL    HW138675   2.459   4.296  13.587  1.4538 -0.6248 -0.6871
 9072SOL    HW238676   2.559   4.396  13.563 -0.4773  2.7099  1.6330
 9073SOL     OW38677   2.854   2.466   6.258  0.5538 -0.5824 -0.2234
 9073SOL    HW138678   2.937   2.461   6.211  0.8190  2.1640 -0.0784
 9073SOL    HW238679   2.832   2.373   6.258 -1.0662 -0.2109 -0.0417
 9074SOL     OW38680   2.690   1.769   8.123  0.3187  0.2549  0.3052
 9074SOL    HW138681   2.616   1.768   8.184  2.1398  0.8882  2.5400
 9074SOL    HW238682   2.709   1.863   8.127 -1.5939  0.7061 -1.1174
 9075SOL     OW38683   0.372   3.474   2.532 -0.1428  0.4321 -0.0375
 9075SOL    HW138684   0.411   3.476   2.445 -2.1761  0.2820 -0.9494
 9075SOL    HW238685   0.445   3.430   2.576 -0.3059  0.2955  0.0936
 9076SOL     OW38686   3.295   0.103   4.351 -0.0769  0.2209 -0.0790
 9076SOL    HW138687   3.389   0.119   4.353 -0.0992  0.5263 -1.4395
 9076SOL    HW238688   3.273   0.117   4.443  1.2782  0.3281  0.2304
 9077SOL     OW38689   3.053   4.456   9.853 -0.0711  0.1106 -0.5552
 9077SOL    HW138690   3.147   4.472   9.852  0.0402 -0.5123  1.0238
 9077SOL    HW238691   3.034   4.493   9.766 -0.1514 -0.3490 -0.7359
 9078SOL     OW38692   1.651   4.437   7.379 -0.4156  0.6379 -0.4781
 9078SOL    HW138693   1.700   4.429   7.297  0.4662 -0.3827  0.1497
 9078SOL    HW238694   1.624   4.528   7.363  0.3957  0.5412 -2.3665
 9079SOL     OW38695   0.515   0.659   0.534 -0.3174 -0.0689  0.1696
 9079SOL    HW138696   0.600   0.655   0.579 -0.3261  1.0589  0.2826
 9079SOL    HW238697   0.544   0.705   0.456  0.8759  0.8559  1.1584
 9080SOL     OW38698   4.195   0.251  14.869  0.1206  0.6735 -0.8147
 9080SOL    HW138699   4.153   0.335  14.885 -0.7525 -0.1453  1.1794
 9080SOL    HW238700   4.275   0.257  14.921  0.4043  3.3100 -1.5582
 9081SOL     OW38701   1.112   0.403  15.873  0.2423  0.4035 -0.2350
 9081SOL    HW138702   1.051   0.419  15.802  0.7305  0.3500 -0.6674
 9081SOL    HW238703   1.185   0.430  15.817 -0.2892  1.1619 -0.5565
 9082SOL     OW38704   0.115   0.714   5.942  0.2097  0.0319 -0.8805
 9082SOL    HW138705   0.150   0.774   6.008 -1.3125  2.2683 -2.0970
 9082SOL    HW238706   0.106   0.628   5.985  0.1456  0.9645  0.9901
 9083SOL     OW38707   4.397   3.163   7.548  0.0975  0.0404 -0.0098
 9083SOL    HW138708   4.391   3.111   7.468  0.7373  0.9903 -0.6812
 9083SOL    HW238709   4.491   3.183   7.550  0.0395  0.1642  1.5472
 9084SOL     OW38710   1.238   4.161  11.769 -0.1126  0.0475  0.7865
 9084SOL    HW138711   1.227   4.172  11.863  1.2419  2.6373  0.6421
 9084SOL    HW238712   1.216   4.069  11.753 -1.2403  0.3106  0.8376
 9085SOL     OW38713   2.059   4.125  12.998 -0.1130 -0.2753  0.2371
 9085SOL    HW138714   1.973   4.116  13.039 -0.5172  1.4848 -0.2342
 9085SOL    HW238715   2.051   4.220  13.000 -0.9689 -0.2989 -1.6208
 9086SOL     OW38716   2.152   2.208   5.916 -0.4118 -0.3577  0.3570
 9086SOL    HW138717   2.170   2.300   5.900 -0.5296 -0.3053  0.5254
 9086SOL    HW238718   2.229   2.176   5.869  0.1918  0.1443  1.0103
 9087SOL     OW38719   1.076   2.374   4.896 -0.1999 -0.2677  0.1619
 9087SOL    HW138720   1.009   2.350   4.832  0.5392  2.6935 -1.7071
 9087SOL    HW238721   1.090   2.288   4.936 -3.5999 -2.0490 -2.5589
 9088SOL     OW38722   1.561   3.762   6.494  0.1003 -0.6636 -0.1775
 9088SOL    HW138723   1.533   3.789   6.582 -0.9359 -0.3320 -0.6235
 9088SOL    HW238724   1.587   3.852   6.473 -1.0035 -0.4828 -0.7141
 9089SOL     OW38725   1.936   4.551   4.819  0.4349  0.5948 -0.1598
 9089SOL    HW138726   1.917   4.463   4.786 -1.0572 -0.0522  2.3986
 9089SOL    HW238727   1.850   4.582   4.791 -0.1759 -2.3410 -1.5623
 9090SOL     OW38728   0.884   2.303   6.092  0.1579  0.2972 -0.0029
 9090SOL    HW138729   0.832   2.230   6.058  1.6049 -0.0260 -1.5492
 9090SOL    HW238730   0.888   2.359   6.015 -0.2037  2.1101  1.3090
 9091SOL     OW38731   4.128   2.624   3.417 -0.3840 -0.2686 -0.4312
 9091SOL    HW138732   4.203   2.622   3.358  1.7742  0.7508  2.2940
 9091SOL    HW238733   4.055   2.630   3.354 -0.5630 -1.2681 -0.3185
 9092SOL     OW38734   3.017   0.313   6.117 -0.1768  0.3554 -0.4473
 9092SOL    HW138735   3.041   0.236   6.066  0.2204 -0.7615  1.4428
 9092SOL    HW238736   3.094   0.369   6.128 -0.2893  0.4408 -0.0806
 9093SOL     OW38737   3.566   0.749  14.005 -0.1963  0.2348 -0.3428
 9093SOL    HW138738   3.623   0.801  13.949 -0.0608 -0.4996 -0.8952
 9093SOL    HW238739   3.631   0.710  14.064 -1.4513  1.6973  2.0272
 9094SOL     OW38740   0.857   1.539   7.584  0.8694  0.0739  0.3545
 9094SOL    HW138741   0.782   1.540   7.644 -0.4651 -2.1153 -1.2825
 9094SOL    HW238742   0.930   1.536   7.646 -0.6261  2.0240  2.2360
 9095SOL     OW38743   1.566   1.229  16.657 -0.4233 -0.0535  0.4243
 9095SOL    HW138744   1.473   1.221  16.635 -0.1316  2.2060 -1.6311
 9095SOL    HW238745   1.599   1.246  16.569 -2.1527 -1.3313 -0.4758
 9096SOL     OW38746   1.410   1.319  11.751 -0.0178 -0.0636  0.1650
 9096SOL    HW138747   1.447   1.232  11.762  1.2406  0.1393 -2.2333
 9096SOL    HW238748   1.437   1.357  11.835 -2.1681 -2.0542  1.7297
 9097SOL     OW38749   0.705   4.148   4.405  0.4204  0.5411 -0.2652
 9097SOL    HW138750   0.759   4.072   4.384  1.6071  1.1912  0.4123
 9097SOL    HW238751   0.614   4.118   4.402  0.7825 -0.5834  0.2193
 9098SOL     OW38752   2.249   1.172  11.272 -0.2390 -0.1498 -0.2229
 9098SOL    HW138753   2.197   1.095  11.248 -0.4945 -0.0886  0.1454
 9098SOL    HW238754   2.309   1.169  11.197  1.6414  1.6076  1.2334
 9099SOL     OW38755   1.999   3.031   6.963  0.3293 -0.0785 -0.3321
 9099SOL    HW138756   1.946   2.954   6.948  0.7419 -0.4130 -0.0781
 9099SOL    HW238757   2.044   3.001   7.043 -1.2794 -0.8261  0.2825
 9100SOL     OW38758   1.993   1.571   2.388 -0.1306 -0.8323  0.4379
 9100SOL    HW138759   1.918   1.522   2.356 -0.1150 -1.1248  0.8436
 9100SOL    HW238760   2.033   1.608   2.310 -2.8564  2.5872  0.6662
 9101SOL     OW38761   0.276   4.643  13.169 -0.1000  0.3002 -0.1355
 9101SOL    HW138762   0.305   4.604  13.086  1.0566  0.3651  0.2464
 9101SOL    HW238763   0.184   4.663  13.151  0.6252  2.3081 -1.5788
 9102SOL     OW38764   2.481   3.799  15.437  0.3040 -0.8540  0.0696
 9102SOL    HW138765   2.475   3.707  15.409 -3.0493 -0.6993  0.2351
 9102SOL    HW238766   2.507   3.847  15.359 -1.9319 -0.3525 -0.3734
 9103SOL     OW38767   3.894   3.417   4.581 -0.1653  0.2091 -0.0821
 9103SOL    HW138768   3.828   3.364   4.536 -1.0826  1.1397  0.1767
 9103SOL    HW238769   3.856   3.500   4.611  1.1492  0.9686 -0.5165
 9104SOL     OW38770   1.500   4.118   9.377 -0.2787 -0.4877 -0.0341
 9104SOL    HW138771   1.452   4.198   9.399  0.1505  0.1503 -1.4668
 9104SOL    HW238772   1.425   4.058   9.381 -0.4404 -0.2094  1.1271
 9105SOL     OW38773   0.840   3.677  11.311  0.1011  0.1322 -0.3390
 9105SOL    HW138774   0.804   3.615  11.375  1.6927 -2.1677 -1.6943
 9105SOL    HW238775   0.772   3.744  11.300 -0.1498 -0.1616 -0.5674
 9106SOL     OW38776   3.324   4.303  13.629 -0.2097 -0.5057  0.2953
 9106SOL    HW138777   3.340   4.210  13.614 -0.1589 -0.8070  2.2077
 9106SOL    HW238778   3.240   4.308  13.585 -0.1270 -1.3761  0.0456
 9107SOL     OW38779   4.221   3.568   5.310 -0.1317  0.0294 -0.0008
 9107SOL    HW138780   4.151   3.619   5.351  0.4401 -0.6595  1.8110
 9107SOL    HW238781   4.199   3.572   5.217  0.2988 -0.0917 -0.1103
 9108SOL     OW38782   3.354   3.786   5.115  0.1137  0.0401  0.1699
 9108SOL    HW138783   3.385   3.759   5.202 -0.7895  1.6284  0.9728
 9108SOL    HW238784   3.414   3.859   5.102 -1.1283  0.9544 -0.3843
 9109SOL     OW38785   3.581   2.173  13.798 -0.8641  0.3395  0.5327
 9109SOL    HW138786   3.675   2.164  13.780 -1.0915 -2.3820  0.6705
 9109SOL    HW238787   3.553   2.220  13.719 -1.8751  0.6948  1.1087
 9110SOL     OW38788   3.540   0.982   3.243  0.1204 -0.0162 -0.4968
 9110SOL    HW138789   3.620   1.036   3.243 -0.0306  0.1968 -1.3940
 9110SOL    HW238790   3.550   0.949   3.154  2.5859 -0.7978  0.0441
 9111SOL     OW38791   1.690   2.870   6.282  0.4595  0.1502  0.5250
 9111SOL    HW138792   1.689   2.801   6.217 -0.7005  0.0433  0.6601
 9111SOL    HW238793   1.656   2.822   6.358 -2.2920 -0.7673 -1.3177
 9112SOL     OW38794   1.867   4.511   3.249  0.1060  0.5542 -0.5062
 9112SOL    HW138795   1.775   4.487   3.236  0.2079 -0.1731  0.1615
 9112SOL    HW238796   1.877   4.581   3.184 -1.3237 -0.0372 -1.3558
 9113SOL     OW38797   1.703   2.569   7.064  0.5160 -0.4816 -0.2219
 9113SOL    HW138798   1.646   2.551   7.139 -0.2322  2.3973 -0.0682
 9113SOL    HW238799   1.792   2.551   7.093  0.5504  0.4354  0.2478
 9114SOL     OW38800   3.913   4.625  10.210  0.8795 -0.4363 -0.1522
 9114SOL    HW138801   3.909   4.720  10.222  0.9839 -0.3652 -0.7042
 9114SOL    HW238802   3.953   4.616  10.123 -0.3902  2.0467 -0.9681
 9115SOL     OW38803   4.476   3.665   2.748  0.0668 -0.5125 -0.5097
 9115SOL    HW138804   4.427   3.711   2.816  1.5552 -1.0849  0.9332
 9115SOL    HW238805   4.560   3.696   2.781  0.5226 -1.7632 -0.4998
 9116SOL     OW38806   2.653   0.552   8.658  0.5037  0.2889  0.2467
 9116SOL    HW138807   2.674   0.645   8.666  2.4581 -0.0737 -0.5315
 9116SOL    HW238808   2.558   0.554   8.654  0.4316 -3.1441  0.6516
 9117SOL     OW38809   4.707   3.983  17.691  0.0195  0.7526 -0.1494
 9117SOL    HW138810   0.031   3.998   0.062  1.4641 -1.1596 -0.7004
 9117SOL    HW238811   4.622   3.975   0.027  1.3549  1.1056  2.4433
 9118SOL     OW38812   0.521   3.331   5.794  0.2730 -0.5189 -0.4119
 9118SOL    HW138813   0.446   3.330   5.734  1.0414 -1.1553 -1.3594
 9118SOL    HW238814   0.525   3.427   5.797 -0.0456 -0.4432 -2.0395
 9119SOL     OW38815   1.657   3.834   7.942  0.5857  0.0660 -0.3285
 9119SOL    HW138816   1.667   3.875   8.027 -1.8614 -1.0938  0.5292
 9119SOL    HW238817   1.712   3.756   7.950  0.1549 -0.2265 -0.1939
 9120SOL     OW38818   1.540   4.312   7.014 -0.4299  0.2119 -0.3746
 9120SOL    HW138819   1.625   4.308   7.057 -2.3273 -0.8675  3.3042
 9120SOL    HW238820   1.508   4.223   7.032  0.8913 -0.0007  0.8927
 9121SOL     OW38821   2.990   4.653  11.177  0.0090  0.3190 -0.0985
 9121SOL    HW138822   2.993   4.658  11.082 -1.8850  0.4998 -0.1608
 9121SOL    HW238823   2.901   4.620  11.192  0.0408  0.1757 -0.2221
 9122SOL     OW38824   1.837   1.550   5.533 -0.8285  0.1146 -0.4716
 9122SOL    HW138825   1.888   1.541   5.453 -0.9861  3.3795 -0.9536
 9122SOL    HW238826   1.746   1.539   5.506 -0.9807  1.0236 -0.3633
 9123SOL     OW38827   4.067   4.690   6.058 -1.1097 -0.2923 -0.2896
 9123SOL    HW138828   4.140   0.024   6.052 -0.0755 -1.3973  1.0131
 9123SOL    HW238829   4.039   4.702   5.967 -1.5061  1.1705  0.0382
 9124SOL     OW38830   3.841   0.233   2.288 -0.1689  0.0055 -0.1597
 9124SOL    HW138831   3.935   0.233   2.304  0.0560  1.5292 -1.4144
 9124SOL    HW238832   3.834   0.327   2.269 -0.7332 -0.2254 -1.0623
 9125SOL     OW38833   0.184   1.873   2.899 -0.3090  0.3493  0.2255
 9125SOL    HW138834   0.185   1.910   2.811  0.0339 -1.8193 -0.7044
 9125SOL    HW238835   0.269   1.829   2.889 -0.8222 -0.5588 -0.1362
 9126SOL     OW38836   0.468   3.057   1.904  0.0594 -0.3503 -0.4438
 9126SOL    HW138837   0.484   2.998   1.831 -0.0574  1.0461 -1.6026
 9126SOL    HW238838   0.484   3.000   1.979 -0.5200  1.8612  1.3802
 9127SOL     OW38839   4.527   4.431  14.051  0.1722 -0.0781  0.3374
 9127SOL    HW138840   4.526   4.487  13.973 -0.4238  0.5468  0.8031
 9127SOL    HW238841   4.623   4.426  14.057  0.0476 -0.7023  1.8910
 9128SOL     OW38842   3.963   3.855   6.539  0.8062 -0.4503 -0.0273
 9128SOL    HW138843   3.927   3.908   6.467  2.1765  1.2013  0.5203
 9128SOL    HW238844   3.956   3.766   6.504 -3.5173  0.7674 -2.4016
 9129SOL     OW38845   4.375   2.967   2.707  0.0047  0.0932 -0.4385
 9129SOL    HW138846   4.300   2.970   2.766 -1.3554 -1.6208 -2.0894
 9129SOL    HW238847   4.324   3.004   2.635  0.0236 -0.0649 -0.5311
 9130SOL     OW38848   1.512   4.086   4.137  0.4089  0.3498  0.0756
 9130SOL    HW138849   1.434   4.073   4.083 -0.5906  0.1908  1.5625
 9130SOL    HW238850   1.497   4.170   4.179  2.5285  0.5387  0.4659
 9131SOL     OW38851   3.027   3.299   3.286  0.2405  0.5751 -0.1155
 9131SOL    HW138852   2.962   3.265   3.225  0.9999  0.0325 -0.6276
 9131SOL    HW238853   2.983   3.375   3.323 -0.6911 -0.2533  0.5048
 9132SOL     OW38854   3.343   0.786   7.114  0.1798  0.0404 -0.7314
 9132SOL    HW138855   3.287   0.709   7.109 -2.4271  1.8946 -0.6124
 9132SOL    HW238856   3.298   0.847   7.173  1.5735  1.2628 -0.9243
 9133SOL     OW38857   0.441   0.232   3.297 -0.2384  0.2968 -0.3546
 9133SOL    HW138858   0.433   0.204   3.388 -3.1152 -0.1726 -0.7434
 9133SOL    HW238859   0.355   0.201   3.269 -1.4455  0.5162  3.0969
 9134SOL     OW38860   3.965   1.231   2.832  0.1152  0.6069  0.1399
 9134SOL    HW138861   3.961   1.179   2.912  2.1573 -0.8755 -0.7458
 9134SOL    HW238862   3.920   1.174   2.770  0.7739 -0.6510  0.8446
 9135SOL     OW38863   3.407   1.263   8.637 -0.4042 -0.2686 -0.0543
 9135SOL    HW138864   3.425   1.307   8.720 -2.6085  0.2459  0.1516
 9135SOL    HW238865   3.341   1.316   8.593 -0.1792 -0.6126 -0.8093
 9136SOL     OW38866   2.365   0.744  12.288 -0.0671  0.0677 -0.4811
 9136SOL    HW138867   2.458   0.726  12.283 -0.0223  0.1764 -0.0253
 9136SOL    HW238868   2.327   0.663  12.252 -0.7584  0.0622  0.2591
 9137SOL     OW38869   1.508   3.175   7.749  0.2561  0.0509 -0.0508
 9137SOL    HW138870   1.543   3.101   7.799  0.7255  0.1433 -0.2376
 9137SOL    HW238871   1.416   3.172   7.772  0.7354 -0.3495  1.8496
 9138SOL     OW38872   2.901   2.486   5.484 -0.1497 -0.0677 -0.5758
 9138SOL    HW138873   2.852   2.460   5.405 -1.2455  2.2503 -0.6460
 9138SOL    HW238874   2.870   2.575   5.502 -1.3123 -0.2943 -1.4229
 9139SOL     OW38875   3.416   0.384   4.289 -0.4769 -0.2106 -0.1564
 9139SOL    HW138876   3.459   0.308   4.328 -0.6183  0.3099  1.0242
 9139SOL    HW238877   3.401   0.357   4.198  0.6750 -2.1515  0.2290
 9140SOL     OW38878   4.105   0.104  11.467  0.1771  0.8440  0.0402
 9140SOL    HW138879   4.076   0.155  11.391  0.8740  1.1816  0.0043
 9140SOL    HW238880   4.038   0.123  11.533  0.9177 -1.9627  1.6044
 9141SOL     OW38881   3.476   0.541   8.863 -0.3280 -0.2330 -0.7835
 9141SOL    HW138882   3.437   0.615   8.816  0.7069  1.0726  0.4071
 9141SOL    HW238883   3.398   0.486   8.871 -0.7756  0.4367 -0.4345
 9142SOL     OW38884   4.354   1.585   7.039  0.0318  0.6149  1.1114
 9142SOL    HW138885   4.396   1.510   6.996 -2.1217  0.8940 -1.5120
 9142SOL    HW238886   4.424   1.648   7.024  0.4101 -0.1786 -0.5566
 9143SOL     OW38887   3.650   4.211  13.682  0.1797 -0.2976 -0.0886
 9143SOL    HW138888   3.618   4.131  13.723  0.7142 -0.5736 -0.2075
 9143SOL    HW238889   3.721   4.234  13.742 -1.0119  1.5745  0.6101
 9144SOL     OW38890   0.285   4.703   6.945 -0.6360  0.0033 -0.1638
 9144SOL    HW138891   0.249   0.059   6.916  0.3306 -0.2343 -2.0216
 9144SOL    HW238892   0.209   4.645   6.938 -0.3663 -0.2799 -0.7849
 9145SOL     OW38893   4.338   4.518  11.441  0.2008  0.3681  0.3444
 9145SOL    HW138894   4.433   4.523  11.439  0.2592 -0.3509  1.3066
 9145SOL    HW238895   4.328   4.539  11.534 -1.1309  2.7248 -0.3130
 9146SOL     OW38896   2.872   4.573  13.908 -0.0029 -0.0100  0.0043
 9146SOL    HW138897   2.778   4.557  13.897 -0.3984  2.4929 -0.3562
 9146SOL    HW238898   2.882   4.644  13.843 -0.5877  0.7604  0.7583
 9147SOL     OW38899   1.845   3.640   7.909 -0.0708  0.7781  0.2470
 9147SOL    HW138900   1.938   3.622   7.898  0.3607  1.8381  2.3325
 9147SOL    HW238901   1.809   3.579   7.844  0.0968  0.6704  0.2545
 9148SOL     OW38902   2.691   1.303  13.060 -0.6742 -0.1945  0.2266
 9148SOL    HW138903   2.697   1.359  13.137 -3.6162 -1.2848  1.2495
 9148SOL    HW238904   2.603   1.320  13.026 -0.8748 -0.9630  0.3557
 9149SOL     OW38905   1.178   0.075   5.998 -0.3948  0.0141  0.0350
 9149SOL    HW138906   1.248   0.140   6.003 -1.4472  1.0550  1.2488
 9149SOL    HW238907   1.167   0.060   5.904 -0.3756 -0.9253  0.1818
 9150SOL     OW38908   4.106   4.074   0.381 -0.2829  0.0320  0.0937
 9150SOL    HW138909   4.163   4.141   0.420  0.6750 -0.4571 -0.4514
 9150SOL    HW238910   4.046   4.070   0.456 -0.7873  2.8498 -0.1663
 9151SOL     OW38911   1.428   4.660   2.363  0.2252 -0.4574 -0.9079
 9151SOL    HW138912   1.522   4.668   2.350  0.4843 -1.0345  0.5871
 9151SOL    HW238913   1.425   4.665   2.459  2.4949 -1.2170 -0.8000
 9152SOL     OW38914   3.601   4.404   9.594  0.2623  0.1903 -0.0165
 9152SOL    HW138915   3.571   4.484   9.638 -0.9829  1.3984 -3.0316
 9152SOL    HW238916   3.689   4.429   9.566 -0.0522  2.2142  0.7483
 9153SOL     OW38917   2.001   3.481   6.255 -0.4670  0.5022  0.4980
 9153SOL    HW138918   1.929   3.440   6.206  1.6169 -1.3584 -0.9995
 9153SOL    HW238919   2.067   3.412   6.261  0.4390  1.1830 -1.6877
 9154SOL     OW38920   0.435   3.578   6.180  0.2967  0.2071  0.0186
 9154SOL    HW138921   0.431   3.482   6.179  0.5964  0.1858  0.7721
 9154SOL    HW238922   0.502   3.598   6.247 -0.5857  0.6133  0.7778
 9155SOL     OW38923   3.373   3.699  13.464  0.2605  0.1896 -0.4626
 9155SOL    HW138924   3.445   3.722  13.522  0.5460 -1.9296  0.0409
 9155SOL    HW238925   3.420   3.692  13.381 -0.0208 -0.0897 -0.6013
 9156SOL     OW38926   3.013   2.278   5.885  0.1361 -0.0855 -0.4863
 9156SOL    HW138927   2.994   2.328   5.805 -0.9383  0.0394 -0.1583
 9156SOL    HW238928   2.950   2.207   5.872 -0.8459  0.5841  0.6208
 9157SOL     OW38929   2.576   0.013   8.705  0.2624  0.1246  0.9028
 9157SOL    HW138930   2.551   4.667   8.762 -2.1363  1.8703  2.1007
 9157SOL    HW238931   2.515   0.080   8.736 -0.4027  0.1529 -0.4585
 9158SOL     OW38932   2.083   3.818   8.268  0.1568 -0.0263 -0.2912
 9158SOL    HW138933   2.048   3.870   8.340  0.8517  1.0299 -0.6993
 9158SOL    HW238934   2.052   3.875   8.197 -1.9934  0.3611  0.9396
 9159SOL     OW38935   4.163   0.540  17.588  0.2162 -0.1629 -0.1729
 9159SOL    HW138936   4.250   0.551  17.549 -0.3934  2.4336 -0.8016
 9159SOL    HW238937   4.172   0.577  17.675 -1.6901  0.9346 -0.4454
 9160SOL     OW38938   1.703   4.488   1.152  0.1437  0.0141  0.3483
 9160SOL    HW138939   1.721   4.498   1.058  2.6664 -0.0263  0.8278
 9160SOL    HW238940   1.714   4.577   1.187 -0.5231 -0.2559  1.2200
 9161SOL     OW38941   3.138   3.607  10.391 -0.7817  0.2296 -0.0354
 9161SOL    HW138942   3.110   3.571  10.307  2.0978 -0.5541 -0.6607
 9161SOL    HW238943   3.166   3.531  10.442 -1.4639 -0.1180 -0.1837
 9162SOL     OW38944   3.411   4.529   7.057 -0.0327  0.0564 -0.5980
 9162SOL    HW138945   3.332   4.526   7.003 -0.1489 -0.5594 -0.3936
 9162SOL    HW238946   3.377   4.566   7.139 -0.9395 -1.2042 -0.3991
 9163SOL     OW38947   0.238   1.501  11.340  0.4826  0.2121 -0.4833
 9163SOL    HW138948   0.254   1.583  11.387 -0.8870 -0.5450  1.3011
 9163SOL    HW238949   0.143   1.513  11.336 -0.0364 -3.6806  0.5079
 9164SOL     OW38950   0.071   3.240  12.243  0.4333 -0.3774  0.1746
 9164SOL    HW138951   4.720   3.196  12.277  0.9276  0.3978  2.3373
 9164SOL    HW238952   0.075   3.313  12.305  1.9611  0.1210 -0.5247
 9165SOL     OW38953   1.471   1.233   1.447 -0.0184 -0.1524  0.1636
 9165SOL    HW138954   1.386   1.191   1.440 -0.5220  0.9979 -0.6270
 9165SOL    HW238955   1.533   1.160   1.437  1.1408  1.0037 -1.0550
 9166SOL     OW38956   1.922   0.309   1.264  0.1892  0.6654  0.1138
 9166SOL    HW138957   1.832   0.317   1.294  0.8352  0.0980  2.2180
 9166SOL    HW238958   1.959   0.369   1.329 -0.1132  1.0843 -0.1051
 9167SOL     OW38959   2.846   2.323   7.228  0.3864 -0.3836 -0.7275
 9167SOL    HW138960   2.782   2.302   7.159 -1.8598 -0.4754  1.3824
 9167SOL    HW238961   2.873   2.233   7.243 -1.2600 -1.0667 -1.8565
 9168SOL     OW38962   3.292   0.690  14.019  0.0355  0.2824 -0.2737
 9168SOL    HW138963   3.386   0.690  13.998 -0.6253 -1.0596 -3.2103
 9168SOL    HW238964   3.285   0.606  14.063  1.6545 -0.8641 -2.2236
 9169SOL     OW38965   3.062   3.140   1.431 -0.5107 -0.3721 -0.2242
 9169SOL    HW138966   3.001   3.069   1.413 -0.0680 -0.8392  0.1147
 9169SOL    HW238967   3.024   3.187   1.505 -1.3186 -0.1672 -0.7743
 9170SOL     OW38968   2.532   3.838  13.571  0.1438  0.0681 -0.1603
 9170SOL    HW138969   2.540   3.785  13.491  0.5009  1.0333 -0.7567
 9170SOL    HW238970   2.440   3.835  13.598  0.1104 -2.8782 -0.5866
 9171SOL     OW38971   1.972   1.188   6.276 -0.3866  0.0283  0.0738
 9171SOL    HW138972   2.019   1.248   6.333 -0.3022 -1.9730  2.1231
 9171SOL    HW238973   1.939   1.117   6.332  2.4264 -0.8363  0.5960
 9172SOL     OW38974   2.111   1.819   3.049 -0.2976  0.2370 -0.0518
 9172SOL    HW138975   2.038   1.802   3.108 -0.5432  1.2762 -0.0624
 9172SOL    HW238976   2.112   1.734   3.005  1.0337 -0.6116  1.5994
 9173SOL     OW38977   2.860   3.282  10.148  0.0331 -0.1979  0.1979
 9173SOL    HW138978   2.905   3.237  10.219  0.2844 -0.1181  0.0870
 9173SOL    HW238979   2.836   3.206  10.094  0.7379 -1.3048  1.4556
 9174SOL     OW38980   2.262   0.145   4.402 -0.0322  0.4532 -0.7483
 9174SOL    HW138981   2.315   0.132   4.323  1.4136  1.1688  0.0990
 9174SOL    HW238982   2.252   0.241   4.400  0.4636  0.4401 -3.1727
 9175SOL     OW38983   4.503   1.382   0.626 -0.0085 -0.0868 -0.7993
 9175SOL    HW138984   4.497   1.473   0.598  2.0995  0.1185 -0.6004
 9175SOL    HW238985   4.430   1.343   0.579  0.3768 -1.8539  0.0581
 9176SOL     OW38986   2.530   4.323   8.424  0.0150  0.6023  0.1333
 9176SOL    HW138987   2.509   4.295   8.514  1.3749  0.4023  0.3946
 9176SOL    HW238988   2.564   4.242   8.386  0.3146  1.4770 -1.4373
 9177SOL     OW38989   0.019   0.368  15.044  0.0805 -0.3306  0.3390
 9177SOL    HW138990   4.667   0.416  15.021 -0.1357 -0.6146  0.4991
 9177SOL    HW238991   4.714   0.298  15.100  1.1618 -0.8136  0.3623
 9178SOL     OW38992   4.092   2.871   2.943  0.6586 -0.4796 -0.1873
 9178SOL    HW138993   4.042   2.849   2.865  0.7811 -2.1981  0.2253
 9178SOL    HW238994   4.141   2.790   2.960 -0.8290 -0.8915  2.1621
 9179SOL     OW38995   2.775   1.163   0.189  1.0105  0.1491 -0.2631
 9179SOL    HW138996   2.691   1.135   0.154  1.3378 -0.7670 -0.3343
 9179SOL    HW238997   2.761   1.257   0.193  0.4648  0.0650 -0.2733
 9180SOL     OW38998   4.205   0.995   8.048 -0.7171  0.4313 -0.1432
 9180SOL    HW138999   4.215   1.081   8.007  2.5900  0.4445  0.7094
 9180SOL    HW239000   4.261   0.937   7.997 -2.6478 -0.2260 -1.4929
 9181SOL     OW39001   1.459   1.340  12.545  0.6556  0.2081  0.2427
 9181SOL    HW139002   1.533   1.285  12.521  0.2564 -0.4195  0.4623
 9181SOL    HW239003   1.460   1.412  12.482 -2.6958 -1.8647 -2.1643
 9182SOL     OW39004   1.393   3.243   9.342 -0.3294 -0.3208 -0.2943
 9182SOL    HW139005   1.341   3.323   9.342  0.3739  0.1317  1.1663
 9182SOL    HW239006   1.356   3.208   9.423 -1.8865  1.5109 -0.2065
 9183SOL     OW39007   2.766   3.303   5.418 -0.0055  0.1801  0.2742
 9183SOL    HW139008   2.725   3.367   5.359 -0.2717 -0.9834 -0.7956
 9183SOL    HW239009   2.858   3.330   5.410 -0.2995 -0.0960 -4.0927
 9184SOL     OW39010   2.654   0.276   4.601  0.6114  0.0321  0.4875
 9184SOL    HW139011   2.622   0.189   4.577 -1.8960  0.9084  0.5955
 9184SOL    HW239012   2.610   0.288   4.686  1.0013 -2.0892  0.9835
 9185SOL     OW39013   3.192   2.130  14.965  0.0153  0.4668 -0.4376
 9185SOL    HW139014   3.136   2.090  14.899 -1.6263  0.3412  1.0121
 9185SOL    HW239015   3.134   2.186  15.017 -0.8485 -0.7711 -0.0733
 9186SOL     OW39016   0.906   2.623   2.127  0.3785 -0.0723  0.3036
 9186SOL    HW139017   0.966   2.567   2.176 -0.8302  0.1806  2.0788
 9186SOL    HW239018   0.945   2.708   2.147 -1.3071  1.2495 -2.1374
 9187SOL     OW39019   1.380   1.181   2.086  0.4115  0.6186 -0.3922
 9187SOL    HW139020   1.330   1.262   2.074 -2.6125 -1.0754  0.7836
 9187SOL    HW239021   1.313   1.113   2.072  1.5073 -1.0742  2.4714
 9188SOL     OW39022   1.257   3.766   6.235  0.2198 -0.0522 -0.0466
 9188SOL    HW139023   1.170   3.763   6.195 -0.8038 -1.5721  2.2730
 9188SOL    HW239024   1.249   3.831   6.304  2.7387 -1.6213  1.7237
 9189SOL     OW39025   2.888   2.770  13.818  0.4906 -0.0581 -0.3533
 9189SOL    HW139026   2.833   2.786  13.741  0.6992  2.0097 -0.0884
 9189SOL    HW239027   2.974   2.800  13.791  0.7086  1.7732  2.3160
 9190SOL     OW39028   0.165   0.126   5.361  0.0221  0.2241  0.0265
 9190SOL    HW139029   0.108   0.133   5.284  0.5318 -1.3403 -0.4864
 9190SOL    HW239030   0.248   0.132   5.314  0.3281 -3.0843  0.1411
 9191SOL     OW39031   0.551   1.872  14.032 -0.5310  0.5997  0.3570
 9191SOL    HW139032   0.605   1.800  14.065 -1.0724  1.1694  2.4406
 9191SOL    HW239033   0.476   1.819  14.008 -1.4987  2.1737 -0.0876
 9192SOL     OW39034   3.210   1.149  11.312  0.3942  0.1281  0.2799
 9192SOL    HW139035   3.301   1.166  11.288  0.3017  1.1395  0.6514
 9192SOL    HW239036   3.180   1.238  11.333  2.5276  0.6990  0.9245
 9193SOL     OW39037   1.746   3.635   5.806  0.0482  0.0034  0.6175
 9193SOL    HW139038   1.800   3.594   5.873  1.1582  1.4887  0.6271
 9193SOL    HW239039   1.815   3.643   5.740  0.3644 -1.3270  0.7920
 9194SOL     OW39040   1.526   2.825   3.498  0.1067  0.4021 -0.1002
 9194SOL    HW139041   1.458   2.796   3.436 -0.9662  1.8020  0.4130
 9194SOL    HW239042   1.474   2.828   3.578  0.5355  0.4757  0.1728
 9195SOL     OW39043   4.517   4.662  13.567 -0.4748  0.3551  0.2289
 9195SOL    HW139044   4.470   4.712  13.500  0.1803  0.1813 -0.3555
 9195SOL    HW239045   4.584   4.726  13.592  1.2898 -1.3034 -0.2606
 9196SOL     OW39046   1.401   2.477   8.575 -0.6877 -0.3261  0.1390
 9196SOL    HW139047   1.473   2.501   8.633  0.2378 -1.7660 -0.4105
 9196SOL    HW239048   1.427   2.388   8.549 -1.1729 -0.3090 -0.4003
 9197SOL     OW39049   2.547   3.546   3.611  0.2406 -0.4034 -0.6028
 9197SOL    HW139050   2.599   3.509   3.540  3.1612 -1.6229  2.1701
 9197SOL    HW239051   2.463   3.500   3.608  0.9237 -1.8019  1.6600
 9198SOL     OW39052   1.314   1.670  17.586  0.1297  0.1622  0.2499
 9198SOL    HW139053   1.377   1.720  17.636 -0.5691  0.8683  0.4258
 9198SOL    HW239054   1.328   1.584  17.625 -0.7793  0.3559  1.0051
 9199SOL     OW39055   2.412   4.307   4.503 -0.2771 -0.4562 -0.0891
 9199SOL    HW139056   2.449   4.287   4.417  1.3614  0.5252  0.3932
 9199SOL    HW239057   2.407   4.222   4.546  1.8404 -0.2200  0.6051
 9200SOL     OW39058   1.079   1.511   7.735 -0.3048  0.1232  0.5134
 9200SOL    HW139059   1.082   1.564   7.814 -1.6128  0.3370  0.4245
 9200SOL    HW239060   1.123   1.572   7.676  0.0528  1.2545  1.9742
 9201SOL     OW39061   0.884   3.127   5.436  0.0812 -0.0476  0.3284
 9201SOL    HW139062   0.863   3.146   5.528 -2.4971 -3.4574  0.4724
 9201SOL    HW239063   0.951   3.059   5.447  0.7359  0.7030  0.9648
 9202SOL     OW39064   3.294   2.256   4.666  0.2112 -0.5738 -0.1060
 9202SOL    HW139065   3.274   2.187   4.730  1.5644 -1.2503 -0.4272
 9202SOL    HW239066   3.389   2.249   4.661  0.1888 -1.5951  0.7308
 9203SOL     OW39067   4.005   3.540  12.053 -0.1017 -0.1066 -0.4659
 9203SOL    HW139068   4.055   3.619  12.074  0.2007 -0.2589 -0.6142
 9203SOL    HW239069   4.072   3.473  12.067 -0.1045 -0.3896 -1.8097
 9204SOL     OW39070   3.339   1.996  14.725  0.6331  0.4611  0.3838
 9204SOL    HW139071   3.318   1.916  14.679  1.6630  1.7694 -2.3336
 9204SOL    HW239072   3.248   2.020  14.745 -0.1735 -0.1188 -2.7053
 9205SOL     OW39073   0.816   2.073  16.646  0.2620 -0.4982 -0.0129
 9205SOL    HW139074   0.807   2.013  16.571 -1.1263 -1.2529  0.7571
 9205SOL    HW239075   0.907   2.101  16.649  0.9400 -2.7491  0.5602
 9206SOL     OW39076   2.585   1.583  10.726 -0.4263  0.8238  0.0346
 9206SOL    HW139077   2.642   1.506  10.717 -1.7278 -0.6457  3.9509
 9206SOL    HW239078   2.656   1.646  10.737 -0.0490  0.3655  0.2476
 9207SOL     OW39079   2.767   1.801   2.884  0.0368  0.4727 -0.1187
 9207SOL    HW139080   2.723   1.731   2.932  0.7167 -1.7283 -2.7122
 9207SOL    HW239081   2.857   1.768   2.876 -0.5114 -1.6856  2.8394
 9208SOL     OW39082   2.803   3.629  10.046  0.0209  0.2300 -0.2365
 9208SOL    HW139083   2.838   3.541  10.060  0.0489  0.5068  1.3914
 9208SOL    HW239084   2.820   3.663  10.134  0.8665 -2.0753  0.4712
 9209SOL     OW39085   1.964   2.887  17.567 -0.3739 -0.1598  0.4654
 9209SOL    HW139086   1.940   2.979  17.575  0.6759  0.2955 -1.5298
 9209SOL    HW239087   1.988   2.890  17.474 -0.3343  0.1467  0.4842
 9210SOL     OW39088   4.633   3.111   8.331  0.0438 -0.6866 -0.0251
 9210SOL    HW139089   4.625   3.016   8.329  0.3545 -0.7628  3.5848
 9210SOL    HW239090   4.694   3.120   8.258  2.3758 -0.4292  1.9664
 9211SOL     OW39091   4.212   2.931   9.715  0.1279  0.1409 -0.0603
 9211SOL    HW139092   4.284   2.874   9.685 -1.0883 -0.4529 -1.8749
 9211SOL    HW239093   4.188   2.881   9.793  2.1230  0.8378  1.0019
 9212SOL     OW39094   4.624   3.561   4.529  0.2822 -0.3375 -0.3784
 9212SOL    HW139095   4.661   3.515   4.604 -1.6170  3.4385  2.8785
 9212SOL    HW239096   4.531   3.542   4.538 -0.6779  3.3324 -2.4399
 9213SOL     OW39097   2.505   3.791  11.130 -0.0651 -0.3391 -0.2952
 9213SOL    HW139098   2.454   3.861  11.089 -1.5865 -1.1893  0.1232
 9213SOL    HW239099   2.594   3.823  11.142  0.1978 -0.6940 -1.3507
 9214SOL     OW39100   3.966   2.445  15.368 -0.0737  0.3456  0.6025
 9214SOL    HW139101   3.907   2.488  15.430 -0.7794  0.9639 -0.5170
 9214SOL    HW239102   4.036   2.425  15.431  0.9340  2.5658  0.1953
 9215SOL     OW39103   1.054   2.155   4.398 -0.0482  0.1173  0.3081
 9215SOL    HW139104   1.136   2.192   4.427  1.0961 -1.8582 -0.3941
 9215SOL    HW239105   1.007   2.150   4.481 -2.8350  2.3000 -1.0997
 9216SOL     OW39106   1.628   1.647   4.389  0.2647 -0.2333  0.0249
 9216SOL    HW139107   1.594   1.586   4.323  0.7654 -0.7665  0.2651
 9216SOL    HW239108   1.577   1.629   4.468  0.1793  1.3625  0.3382
 9217SOL     OW39109   2.634   1.607   0.556  0.3795  0.0458 -0.2898
 9217SOL    HW139110   2.621   1.512   0.565 -0.1491  0.1035 -0.4238
 9217SOL    HW239111   2.542   1.635   0.558  0.6946  1.0985 -0.5352
 9218SOL     OW39112   1.884   3.130   3.677 -0.5967  0.0660  0.0463
 9218SOL    HW139113   1.800   3.101   3.643 -0.6984  0.0870  0.2821
 9218SOL    HW239114   1.903   3.059   3.739  3.4616 -0.5435 -1.8644
 9219SOL     OW39115   0.648   2.801  10.496  0.1845 -0.7771 -0.0039
 9219SOL    HW139116   0.680   2.727  10.445  2.0224 -0.6750  0.9947
 9219SOL    HW239117   0.719   2.866  10.495  1.1929 -1.9062 -1.8006
 9220SOL     OW39118   4.004   2.048   0.875 -0.4784  0.0864  1.1370
 9220SOL    HW139119   4.008   2.081   0.965 -2.7949  0.3697  1.1368
 9220SOL    HW239120   4.027   2.127   0.826 -0.7751 -0.2637  0.4339
 9221SOL     OW39121   4.133   2.732  14.998  0.9922 -0.0700  0.0260
 9221SOL    HW139122   4.097   2.752  14.912 -1.1795 -1.1673  0.6920
 9221SOL    HW239123   4.228   2.743  14.986  1.1522  0.5406  1.8136
 9222SOL     OW39124   4.333   1.563   1.164 -0.3007  0.1613  0.2580
 9222SOL    HW139125   4.378   1.636   1.207 -1.6232  0.3664  1.3140
 9222SOL    HW239126   4.253   1.615   1.152 -1.6076 -1.7559  0.7369
 9223SOL     OW39127   2.778   0.850   3.542  0.0360 -0.3485 -0.3991
 9223SOL    HW139128   2.737   0.816   3.463 -1.2200  1.6995 -0.6238
 9223SOL    HW239129   2.774   0.945   3.531  1.7111 -0.0062  1.8549
 9224SOL     OW39130   0.005   3.730  10.041 -0.1926  0.4004 -0.2067
 9224SOL    HW139131   0.014   3.636  10.056 -0.7311  0.5467  1.0163
 9224SOL    HW239132   0.092   3.753  10.071 -0.2606  0.6250 -0.1825
 9225SOL     OW39133   2.732   1.412   6.966  0.3524 -0.3463  0.2087
 9225SOL    HW139134   2.731   1.501   6.931  0.4701  0.6884  2.8485
 9225SOL    HW239135   2.808   1.428   7.022  0.3029  1.5489 -0.2889
 9226SOL     OW39136   4.198   0.094   6.695 -0.3102  0.2958  0.4796
 9226SOL    HW139137   4.131   0.040   6.737 -1.1225  1.3242  0.4812
 9226SOL    HW239138   4.232   0.140   6.771  0.8070 -0.6858  0.5859
 9227SOL     OW39139   3.683   1.575   2.038  0.5666  0.1270 -0.0579
 9227SOL    HW139140   3.606   1.619   2.073 -0.2837 -0.6645 -0.9122
 9227SOL    HW239141   3.711   1.634   1.967  1.0173  0.0176  0.0319
 9228SOL     OW39142   1.372   2.636   1.385  0.7344 -0.4961 -0.0703
 9228SOL    HW139143   1.425   2.560   1.362 -2.4628 -2.1332 -1.9369
 9228SOL    HW239144   1.306   2.607   1.448  1.0429 -1.1593 -0.0529
 9229SOL     OW39145   0.816   2.448   8.938 -0.2197 -0.7027  0.0008
 9229SOL    HW139146   0.772   2.489   8.863 -3.4776 -0.9036  1.7795
 9229SOL    HW239147   0.888   2.509   8.953  0.5355 -1.2052 -1.5115
 9230SOL     OW39148   3.490   2.200   4.210  0.0394 -0.1141 -0.1103
 9230SOL    HW139149   3.531   2.157   4.135  2.3903 -0.5828  1.4561
 9230SOL    HW239150   3.401   2.165   4.203 -1.2087  2.8659  0.3725
 9231SOL     OW39151   4.010   2.489  12.248  0.4040  0.0119 -0.1826
 9231SOL    HW139152   3.978   2.400  12.266  0.8645  0.2800  1.9782
 9231SOL    HW239153   3.967   2.508  12.165 -1.2059 -0.3327  0.5674
 9232SOL     OW39154   4.098   3.113   4.367 -0.0146  0.1414  0.3662
 9232SOL    HW139155   4.021   3.057   4.367 -1.0380  1.5895 -1.9362
 9232SOL    HW239156   4.169   3.055   4.339 -0.2539 -0.2282  0.5149
 9233SOL     OW39157   2.254   1.193  11.781 -0.4562 -0.2666 -0.5692
 9233SOL    HW139158   2.175   1.165  11.736 -1.5196  2.3678 -0.3697
 9233SOL    HW239159   2.290   1.119  11.829 -1.6473  0.3907  1.3531
 9234SOL     OW39160   4.107   1.631   7.913 -0.0424 -0.0291 -0.2211
 9234SOL    HW139161   4.175   1.661   7.972 -0.2184  0.7150 -0.4041
 9234SOL    HW239162   4.062   1.572   7.973  2.4842  0.2309  1.9043
 9235SOL     OW39163   3.883   4.116   7.336  0.5060 -0.2218 -0.5276
 9235SOL    HW139164   3.953   4.146   7.394  0.3514 -0.6032 -0.1458
 9235SOL    HW239165   3.869   4.025   7.362  0.0408  0.1365  0.4731
 9236SOL     OW39166   3.397   1.867   4.005  0.4839 -0.4598  0.2829
 9236SOL    HW139167   3.316   1.821   3.982 -0.4832  2.0626 -1.3890
 9236SOL    HW239168   3.434   1.874   3.917  1.1671  0.0004  0.6088
 9237SOL     OW39169   4.074   3.293   4.134  0.2384  0.0056  0.0110
 9237SOL    HW139170   4.065   3.225   4.200  1.2339  0.9122  1.0863
 9237SOL    HW239171   4.116   3.361   4.187 -2.3075  1.1995  0.4989
 9238SOL     OW39172   2.898   1.151   2.625  0.2937 -0.0827  0.2622
 9238SOL    HW139173   2.983   1.136   2.667  0.3311  3.5715  1.4527
 9238SOL    HW239174   2.907   1.118   2.536 -2.6254 -3.5458  1.2116
 9239SOL     OW39175   1.288   1.216   2.734 -0.1881  0.1243  0.0330
 9239SOL    HW139176   1.232   1.256   2.801  0.7639  1.2432  0.1642
 9239SOL    HW239177   1.230   1.175   2.670  0.0380 -1.7673  1.0419
 9240SOL     OW39178   0.407   0.369   6.934  0.0057 -0.6928 -0.0951
 9240SOL    HW139179   0.461   0.445   6.954 -0.1436 -0.4228 -0.7328
 9240SOL    HW239180   0.321   0.393   6.969 -0.3278 -1.2810 -0.5159
 9241SOL     OW39181   2.616   1.601  13.968 -0.2328 -0.0563 -0.3194
 9241SOL    HW139182   2.673   1.620  14.043 -1.2906 -1.6314  0.8729
 9241SOL    HW239183   2.556   1.674  13.981 -2.7547 -2.4427  1.5411
 9242SOL     OW39184   0.127   0.863   9.253 -0.3930  0.1689  0.6239
 9242SOL    HW139185   0.179   0.784   9.271 -0.9166 -0.0696  1.0870
 9242SOL    HW239186   0.191   0.911   9.200  0.0283 -2.4440 -1.2323
 9243SOL     OW39187   1.953   2.827   4.923 -0.2988 -0.4100  0.5582
 9243SOL    HW139188   2.010   2.898   4.896  1.4740 -1.2025  2.2080
 9243SOL    HW239189   2.000   2.752   4.887  0.3174  0.7629 -1.0580
 9244SOL     OW39190   3.946   4.213  10.518  0.4435 -0.4556  0.2478
 9244SOL    HW139191   3.939   4.293  10.466  0.5090 -1.0000 -0.5830
 9244SOL    HW239192   4.039   4.193  10.528  0.7548  1.0925  0.4631
 9245SOL     OW39193   4.306   4.343   6.041  0.0571 -0.5867 -0.3941
 9245SOL    HW139194   4.349   4.422   6.008  1.0002 -0.2100  1.7623
 9245SOL    HW239195   4.272   4.374   6.125  2.0682  0.6535 -0.0549
 9246SOL     OW39196   1.316   1.301   5.282 -0.3086 -0.9873 -0.3286
 9246SOL    HW139197   1.234   1.264   5.251 -1.4842  2.2582 -1.1290
 9246SOL    HW239198   1.291   1.367   5.346  0.2241 -1.6256  0.5405
 9247SOL     OW39199   2.456   1.229   3.463 -0.2577 -0.0703  0.0298
 9247SOL    HW139200   2.362   1.237   3.447 -0.4278 -2.4199 -0.1555
 9247SOL    HW239201   2.465   1.187   3.549 -1.8358  1.5166  0.9897
 9248SOL     OW39202   0.512   3.768  12.842 -0.1247  0.2988 -0.0858
 9248SOL    HW139203   0.531   3.853  12.803  0.3177  1.4000  2.5269
 9248SOL    HW239204   0.579   3.774  12.909 -1.0922 -3.8533  1.2243
 9249SOL     OW39205   2.235   0.245   7.407 -0.0664 -0.4102  0.2554
 9249SOL    HW139206   2.146   0.248   7.370 -0.1808 -0.9027  0.4849
 9249SOL    HW239207   2.287   0.307   7.356 -1.0671  0.0011 -0.2645
 9250SOL     OW39208   3.501   1.610  10.183 -0.1803 -0.7202  0.4800
 9250SOL    HW139209   3.516   1.657  10.265  0.5207 -1.2394  0.6511
 9250SOL    HW239210   3.439   1.671  10.143 -0.0824  0.2432  1.7692
 9251SOL     OW39211   2.679   1.116   1.432 -0.0205  0.3725  0.0033
 9251SOL    HW139212   2.619   1.118   1.507 -0.8677  0.4394 -0.6812
 9251SOL    HW239213   2.759   1.160   1.463  0.1317 -0.0579  0.2317
 9252SOL     OW39214   1.809   1.400  16.610  0.5106  0.0780  0.6745
 9252SOL    HW139215   1.723   1.435  16.632  0.2244  0.5472 -1.2190
 9252SOL    HW239216   1.842   1.475  16.562  0.2279 -0.1602  0.1104
 9253SOL     OW39217   0.047   3.324  11.965  0.3350 -0.1456 -0.1328
 9253SOL    HW139218   0.108   3.265  11.920  1.8190  0.2611  1.3705
 9253SOL    HW239219   0.048   3.283  12.051 -0.7079 -0.1171 -0.1150
 9254SOL     OW39220   0.117   2.778   3.348 -0.5156 -0.6321 -0.1201
 9254SOL    HW139221   0.208   2.749   3.347 -0.7527 -1.3921 -0.2230
 9254SOL    HW239222   0.121   2.853   3.407 -0.6208 -0.0365 -0.8594
 9255SOL     OW39223   0.426   2.312   6.320 -0.6073  0.0672  0.0593
 9255SOL    HW139224   0.454   2.296   6.230  0.4248  2.2851 -0.0236
 9255SOL    HW239225   0.513   2.330   6.357 -1.7799  0.6470  2.5248
 9256SOL     OW39226   1.410   3.665   7.164  0.1602 -0.3789 -0.2716
 9256SOL    HW139227   1.480   3.705   7.113  1.0742 -1.8309 -0.1633
 9256SOL    HW239228   1.460   3.594   7.204  2.4758  0.2846 -2.0279
 9257SOL     OW39229   3.481   3.075  10.831  1.1357 -0.3042 -0.6071
 9257SOL    HW139230   3.556   3.074  10.890  0.4189  1.0087  0.3190
 9257SOL    HW239231   3.520   3.019  10.764 -0.9206 -1.1655 -1.1150
 9258SOL     OW39232   2.121   3.570   7.970  0.2398 -0.3806 -0.0688
 9258SOL    HW139233   2.119   3.526   8.055 -1.7408  2.1368  1.2049
 9258SOL    HW239234   2.182   3.638   7.997  2.2533 -1.3710 -2.1498
 9259SOL     OW39235   1.850   0.740   0.698  0.0725 -0.6196  0.2257
 9259SOL    HW139236   1.899   0.810   0.740  0.7758 -0.8331 -0.2293
 9259SOL    HW239237   1.838   0.679   0.771 -1.5904  0.5154  0.8901
 9260SOL     OW39238   3.029   2.708   8.556 -0.4037 -0.0210  0.1842
 9260SOL    HW139239   3.110   2.683   8.511 -1.5444 -4.4736  0.5688
 9260SOL    HW239240   3.036   2.654   8.635 -2.2381  0.0031  0.3650
 9261SOL     OW39241   2.475   1.712   9.989  0.3567 -0.4857 -0.4998
 9261SOL    HW139242   2.513   1.787  10.034 -0.1643 -0.6234  0.1673
 9261SOL    HW239243   2.436   1.754   9.912  1.6408  1.4192 -0.0920
 9262SOL     OW39244   1.170   0.194   9.032 -0.1146  0.0533  0.3522
 9262SOL    HW139245   1.260   0.166   9.049  0.7927  1.0284 -2.7364
 9262SOL    HW239246   1.161   0.278   8.987  0.8991  1.0369  2.0060
 9263SOL     OW39247   4.485   2.002  12.316 -0.2254 -0.4658 -0.4974
 9263SOL    HW139248   4.472   1.952  12.236 -0.6558  0.8274 -1.2174
 9263SOL    HW239249   4.461   2.093  12.300 -0.0543  0.1347  2.4910
 9264SOL     OW39250   1.607   1.574   3.781 -0.1843 -0.0620  0.4409
 9264SOL    HW139251   1.640   1.651   3.735  0.2947 -0.7199 -0.3110
 9264SOL    HW239252   1.669   1.506   3.755  1.1850  0.7681  1.5474
 9265SOL     OW39253   3.145   0.152   8.070  0.2260  0.3947 -0.5865
 9265SOL    HW139254   3.149   0.237   8.026  1.9090  0.5766 -0.0982
 9265SOL    HW239255   3.224   0.116   8.029  0.9205  1.6237 -0.3269
 9266SOL     OW39256   4.282   1.633  17.155 -0.4802  0.1874 -0.4740
 9266SOL    HW139257   4.330   1.581  17.220 -2.0062 -0.7530 -0.0743
 9266SOL    HW239258   4.309   1.582  17.079  1.0339  0.6195 -0.2093
 9267SOL     OW39259   3.919   2.600   2.269  0.2921  0.3302  0.6163
 9267SOL    HW139260   3.894   2.692   2.275 -0.1453  0.4000 -2.2458
 9267SOL    HW239261   3.848   2.579   2.209 -0.1228 -1.0181  1.5687
 9268SOL     OW39262   1.916   3.994   5.728  0.1070 -0.0244  0.0178
 9268SOL    HW139263   1.947   3.933   5.794  0.8592 -0.0667 -0.3812
 9268SOL    HW239264   2.002   4.034   5.715  0.4112 -0.2584  1.3666
 9269SOL     OW39265   4.271   0.360   5.030 -0.0991 -0.0111 -0.4414
 9269SOL    HW139266   4.220   0.279   5.019  0.2414 -0.1452 -1.0073
 9269SOL    HW239267   4.288   0.391   4.941 -0.0122 -0.4708 -0.5887
 9270SOL     OW39268   4.505   3.111   0.181  0.3056 -0.2573  0.2393
 9270SOL    HW139269   4.565   3.101   0.256 -0.9582 -0.5349  1.2108
 9270SOL    HW239270   4.432   3.164   0.214 -0.5549 -0.5800 -1.1774
 9271SOL     OW39271   3.979   2.419   1.013 -0.0183 -0.0619  0.2668
 9271SOL    HW139272   4.063   2.407   1.057  1.0791  2.8020 -1.0956
 9271SOL    HW239273   3.967   2.513   1.004  0.5879 -0.0321 -0.1713
 9272SOL     OW39274   0.323   1.067   6.378 -0.3835 -0.2153  0.0939
 9272SOL    HW139275   0.264   1.086   6.451 -1.0558 -0.6990 -0.3265
 9272SOL    HW239276   0.395   1.021   6.422  0.4477  0.1428 -0.8875
 9273SOL     OW39277   4.321   4.566   2.805  0.0581  0.3038 -0.2407
 9273SOL    HW139278   4.332   4.472   2.793 -2.3038  0.2498 -2.1708
 9273SOL    HW239279   4.239   4.600   2.769  1.1308  0.6194 -2.3611
 9274SOL     OW39280   0.772   4.650   5.445  0.1321 -0.0781  0.0272
 9274SOL    HW139281   0.724   4.649   5.362 -0.7014  1.8794  0.4777
 9274SOL    HW239282   0.737   4.580   5.499 -0.2805  1.1372  1.3456
 9275SOL     OW39283   1.341   2.788   3.318  0.1077 -0.1065 -0.0125
 9275SOL    HW139284   1.248   2.770   3.327  0.4956 -2.7358 -1.3430
 9275SOL    HW239285   1.361   2.739   3.238 -0.5371 -0.5183  0.0795
 9276SOL     OW39286   3.032   4.458   5.366 -0.2153 -0.3741  0.2768
 9276SOL    HW139287   3.100   4.391   5.373 -1.1232 -1.1071  1.9465
 9276SOL    HW239288   2.996   4.441   5.279 -0.7107  3.2178 -0.2260
 9277SOL     OW39289   0.952   2.749   6.414  0.0638  0.3006  0.0850
 9277SOL    HW139290   1.009   2.672   6.415  3.6276  2.9032  0.9867
 9277SOL    HW239291   0.903   2.726   6.336 -0.6866  1.3648  0.2448
 9278SOL     OW39292   0.208   1.846   8.392 -0.1863 -0.5089 -0.3338
 9278SOL    HW139293   0.297   1.879   8.385 -0.3483  0.3045  1.4617
 9278SOL    HW239294   0.165   1.932   8.397  0.2082 -0.4747  2.1551
 9279SOL     OW39295   0.088   0.411  13.535  0.4565  0.1466  0.1199
 9279SOL    HW139296   0.053   0.394  13.622  0.5028  2.4518  0.5818
 9279SOL    HW239297   0.168   0.459  13.553  1.9766 -1.7878 -1.3867
 9280SOL     OW39298   4.060   2.745  17.214 -0.1746  0.5252 -0.4141
 9280SOL    HW139299   4.027   2.822  17.260 -1.3871 -0.4764  0.3958
 9280SOL    HW239300   3.984   2.686  17.210 -0.1320  0.5369 -1.4867
 9281SOL     OW39301   2.238   3.970   9.691  0.4237 -0.5300  0.0876
 9281SOL    HW139302   2.323   3.958   9.734 -0.2619 -1.4187  1.1999
 9281SOL    HW239303   2.210   4.057   9.721  1.9018 -0.9788  2.7418
 9282SOL     OW39304   2.172   1.243   3.377 -0.2869  0.0282 -0.3796
 9282SOL    HW139305   2.166   1.233   3.472 -0.3895 -1.0887 -0.5116
 9282SOL    HW239306   2.085   1.280   3.363 -0.5840 -0.6815 -0.4127
 9283SOL     OW39307   3.239   1.569   1.644  0.2740 -0.0527  0.4057
 9283SOL    HW139308   3.330   1.585   1.666 -0.0882  1.0351  1.0620
 9283SOL    HW239309   3.200   1.563   1.731  0.6462  1.1208  0.6426
 9284SOL     OW39310   2.038   0.418   4.131  0.3010  0.0581  0.8308
 9284SOL    HW139311   1.967   0.454   4.079  0.3571  0.9360  1.3740
 9284SOL    HW239312   2.113   0.473   4.109  1.7825 -1.2898  2.4416
 9285SOL     OW39313   2.062   1.067   9.466 -0.9445 -0.0121 -0.2674
 9285SOL    HW139314   2.026   1.142   9.514 -0.6376  0.4694 -0.7878
 9285SOL    HW239315   2.141   1.103   9.425 -1.6224 -0.3790 -1.8816
 9286SOL     OW39316   2.917   4.017   4.438 -0.1292 -0.4582  0.2237
 9286SOL    HW139317   2.872   3.976   4.364  0.4457  1.8985 -1.4405
 9286SOL    HW239318   3.008   4.008   4.408  0.3555  0.5943  1.3866
 9287SOL     OW39319   0.456   1.027   0.640 -0.5499 -0.2457 -0.0053
 9287SOL    HW139320   0.441   1.110   0.595 -0.3438 -0.7870 -1.0565
 9287SOL    HW239321   0.452   1.057   0.731 -0.1232  3.6117 -1.2674
 9288SOL     OW39322   0.277   2.917   6.046 -0.2463  0.0130  0.0287
 9288SOL    HW139323   0.355   2.968   6.025  0.7995 -0.9969  1.4896
 9288SOL    HW239324   0.311   2.859   6.115 -1.8478  1.2566  1.8655
 9289SOL     OW39325   0.080   4.018   2.858  0.6418 -0.0079  0.1653
 9289SOL    HW139326   0.110   4.022   2.767  0.0318  3.4279  0.1288
 9289SOL    HW239327   0.036   4.102   2.848 -1.6232 -1.2069  0.0968
 9290SOL     OW39328   1.566   1.087  11.880  0.4578 -0.1636  0.4410
 9290SOL    HW139329   1.529   0.999  11.891 -0.0895  0.0203  0.0625
 9290SOL    HW239330   1.648   1.064  11.922  0.2212 -1.7061  0.0584
 9291SOL     OW39331   4.183   2.783   1.930 -0.8162  0.1059 -0.4572
 9291SOL    HW139332   4.178   2.736   1.847  1.4085 -0.8441 -0.0724
 9291SOL    HW239333   4.232   2.715   1.977 -0.6378 -0.0389 -0.8496
 9292SOL     OW39334   4.420   1.043   7.040  0.8218  0.3671 -0.3063
 9292SOL    HW139335   4.507   1.075   7.013  1.1676  1.9245  2.7370
 9292SOL    HW239336   4.374   1.126   7.052  0.0984 -0.1099  0.1991
 9293SOL     OW39337   3.774   1.781   1.825 -0.1137 -0.0263 -0.2591
 9293SOL    HW139338   3.721   1.793   1.746 -0.0905  1.7361 -0.0111
 9293SOL    HW239339   3.759   1.864   1.870 -0.1259 -0.2074  0.0670
 9294SOL     OW39340   4.655   0.105  15.177 -0.5454 -0.4351  0.1741
 9294SOL    HW139341   0.005   0.133  15.226 -1.2745 -1.9842  2.1870
 9294SOL    HW239342   4.668   0.010  15.169 -1.3905 -0.4906 -0.5678
 9295SOL     OW39343   0.983   3.530  13.164 -0.1924  0.0255 -0.2188
 9295SOL    HW139344   0.933   3.495  13.090 -1.1758  1.1087 -0.0607
 9295SOL    HW239345   0.928   3.599  13.200 -1.1235 -0.1062 -1.4089
 9296SOL     OW39346   3.454   0.329   4.610 -0.2680 -0.1377  0.0146
 9296SOL    HW139347   3.388   0.262   4.590 -1.0757  0.8346 -0.5435
 9296SOL    HW239348   3.533   0.274   4.613 -0.5036 -0.3614  2.7879
 9297SOL     OW39349   3.038   0.756   3.506 -0.3842  0.1563 -0.0671
 9297SOL    HW139350   2.946   0.764   3.531 -1.3546 -0.9131 -3.3752
 9297SOL    HW239351   3.045   0.828   3.444 -0.0268 -0.8792 -1.2447
 9298SOL     OW39352   3.422   3.374   3.418  0.0811 -0.2808  0.2384
 9298SOL    HW139353   3.472   3.447   3.383 -0.2569 -0.8184 -1.3661
 9298SOL    HW239354   3.388   3.331   3.339  1.9629 -0.3216 -0.5341
 9299SOL     OW39355   3.598   3.478   7.836 -0.1036  0.1711  0.2385
 9299SOL    HW139356   3.601   3.495   7.930 -0.7860  2.0423 -0.0905
 9299SOL    HW239357   3.633   3.563   7.810 -2.7345  1.6572  1.5932
 9300SOL     OW39358   2.069   4.707   4.092 -0.2948 -0.0578 -0.1916
 9300SOL    HW139359   2.059   0.054   4.031 -0.6279 -0.9729 -1.2491
 9300SOL    HW239360   1.976   4.700   4.116 -0.6136  0.3763 -1.2944
 9301SOL     OW39361   2.731   2.449  15.091 -0.3847  0.4221 -0.3124
 9301SOL    HW139362   2.716   2.482  15.179  1.1343 -0.8932  0.4297
 9301SOL    HW239363   2.782   2.519  15.049  0.5197 -1.5539 -2.5078
 9302SOL     OW39364   1.730   0.349   4.050  0.0723 -0.5218  0.1977
 9302SOL    HW139365   1.769   0.271   4.011 -0.0987 -0.8146  0.5996
 9302SOL    HW239366   1.641   0.341   4.015  0.3936 -1.6268 -0.3709
 9303SOL     OW39367   1.251   0.959  11.182  0.3362 -0.0614  0.4388
 9303SOL    HW139368   1.206   0.925  11.105 -1.3753  1.0744  0.9172
 9303SOL    HW239369   1.245   1.051  11.156  3.8994  0.3487  1.0148
 9304SOL     OW39370   1.676   3.437   9.286  0.7934 -0.0844 -0.0683
 9304SOL    HW139371   1.672   3.355   9.238  0.5987  0.1420 -0.4428
 9304SOL    HW239372   1.610   3.495   9.248 -0.1684 -1.0447  0.1294
 9305SOL     OW39373   0.784   2.154   4.986  0.0411  0.4307  0.0894
 9305SOL    HW139374   0.826   2.179   4.904 -0.3555  0.2012 -0.1911
 9305SOL    HW239375   0.840   2.196   5.051  0.2856 -0.0615  0.1997
 9306SOL     OW39376   1.775   4.384   2.069  0.5803 -0.0877 -0.6510
 9306SOL    HW139377   1.726   4.328   2.008 -0.3161  0.3956 -0.3696
 9306SOL    HW239378   1.736   4.355   2.152  4.6432  0.8273  1.5939
 9307SOL     OW39379   4.131   3.529   6.220  0.2162 -0.4187  0.5591
 9307SOL    HW139380   4.132   3.623   6.207 -1.3163 -0.4095  0.4723
 9307SOL    HW239381   4.173   3.521   6.306  1.7009  0.6744 -0.0753
 9308SOL     OW39382   0.393   4.692   2.833  0.0357  0.3097  0.5730
 9308SOL    HW139383   0.367   0.048   2.793  3.0868  1.3549  0.7220
 9308SOL    HW239384   0.311   4.664   2.873 -0.2650 -0.0780 -0.3055
 9309SOL     OW39385   1.987   3.550   9.490 -0.4489 -0.2568 -0.2749
 9309SOL    HW139386   2.006   3.620   9.552 -0.2130 -2.6446  2.3103
 9309SOL    HW239387   1.913   3.517   9.539  0.0873 -1.8275 -0.5287
 9310SOL     OW39388   0.793   2.860   3.332 -0.3255  0.2802  0.4986
 9310SOL    HW139389   0.763   2.895   3.248  0.6028  3.1733  1.3765
 9310SOL    HW239390   0.748   2.921   3.391  0.7057  0.8001  0.7373
 9311SOL     OW39391   3.738   2.997   4.813 -0.2271 -0.5307  0.2602
 9311SOL    HW139392   3.712   3.070   4.757 -0.1142 -0.4832  0.2680
 9311SOL    HW239393   3.720   3.029   4.901 -2.5523  1.0107 -0.7994
 9312SOL     OW39394   3.986   1.808   4.418 -0.5588 -0.3772 -0.0883
 9312SOL    HW139395   3.990   1.722   4.376 -2.5693 -0.6395  0.2857
 9312SOL    HW239396   4.014   1.862   4.344  0.1923  1.6172  1.6283
 9313SOL     OW39397   1.754   2.795   8.433  0.8564 -0.5416 -0.2905
 9313SOL    HW139398   1.681   2.805   8.373 -0.6266 -2.8839  1.0904
 9313SOL    HW239399   1.769   2.877   8.480 -2.5013 -0.9223  1.4321
 9314SOL     OW39400   3.991   2.546   9.898 -0.0539  0.2216  0.2994
 9314SOL    HW139401   4.004   2.537   9.804 -0.4703  1.9800  0.0826
 9314SOL    HW239402   4.058   2.612   9.915  1.0964 -1.3486  1.9603
 9315SOL     OW39403   2.833   1.649  14.867 -0.1286  0.0624 -0.2532
 9315SOL    HW139404   2.833   1.726  14.809  1.1414  0.2054 -0.0577
 9315SOL    HW239405   2.917   1.609  14.848  0.4920  1.8009 -1.2162
 9316SOL     OW39406   0.697   0.735  10.609 -0.2240 -0.4041  0.3174
 9316SOL    HW139407   0.756   0.718  10.535  0.3760 -0.5921  0.8440
 9316SOL    HW239408   0.611   0.739  10.566  0.0249  0.6298 -0.0724
 9317SOL     OW39409   1.473   2.828  16.861 -0.1865  0.2147 -0.0715
 9317SOL    HW139410   1.396   2.806  16.809 -0.7419 -0.9461  1.2513
 9317SOL    HW239411   1.467   2.765  16.933  0.1778  1.4908  1.0803
 9318SOL     OW39412   1.925   1.161   5.732 -0.0500  0.4082 -0.4712
 9318SOL    HW139413   1.952   1.128   5.817  0.7693  1.4639 -0.3286
 9318SOL    HW239414   2.005   1.146   5.682 -0.0598 -0.7369 -0.1386
 9319SOL     OW39415   2.323   1.104   9.017 -0.8097  0.0155 -0.1068
 9319SOL    HW139416   2.384   1.070   9.083 -2.3206  1.1328  1.8684
 9319SOL    HW239417   2.377   1.167   8.968 -0.4482 -1.8581 -2.1198
 9320SOL     OW39418   1.033   3.938   6.602 -0.2487  0.1298  0.7218
 9320SOL    HW139419   0.983   4.019   6.592  0.1940  0.9802  5.3951
 9320SOL    HW239420   1.015   3.914   6.693  3.1506  1.3476  1.7311
 9321SOL     OW39421   1.633   0.637   2.301 -0.5842 -0.0823  0.1912
 9321SOL    HW139422   1.722   0.601   2.309 -0.6146 -0.6664 -2.0632
 9321SOL    HW239423   1.616   0.616   2.209  0.7966  0.4945 -0.1992
 9322SOL     OW39424   3.911   4.013   9.289 -0.3405  0.4975  0.1621
 9322SOL    HW139425   3.868   3.958   9.224  1.0084 -1.2832  0.7930
 9322SOL    HW239426   3.848   4.084   9.304  1.2165  1.9531 -0.0929
 9323SOL     OW39427   0.016   3.927   9.777  0.3254 -0.4303  0.3740
 9323SOL    HW139428   0.030   3.985   9.853 -0.6120  0.8604 -0.4327
 9323SOL    HW239429   4.710   3.847   9.817 -2.1191 -0.5673 -1.9145
 9324SOL     OW39430   0.638   4.601   2.899  0.4584  0.0132 -0.0252
 9324SOL    HW139431   0.558   4.649   2.879  0.4671 -0.2372 -0.6547
 9324SOL    HW239432   0.625   4.589   2.993 -0.2799  0.1458 -0.1099
 9325SOL     OW39433   0.520   3.501   3.585 -0.1477  0.5789 -0.0428
 9325SOL    HW139434   0.475   3.545   3.513  1.7757 -0.4108 -1.8450
 9325SOL    HW239435   0.451   3.461   3.639 -1.0937  1.5393 -0.5357
 9326SOL     OW39436   3.383   0.684  14.392 -0.8210 -0.1333 -0.2224
 9326SOL    HW139437   3.406   0.614  14.453  0.2477  1.3644  1.0852
 9326SOL    HW239438   3.333   0.742  14.450 -0.3282 -0.8266  0.9035
 9327SOL     OW39439   2.887   1.126   3.677  0.0772 -0.1926  0.5553
 9327SOL    HW139440   2.835   1.110   3.756 -1.4941  1.5431 -0.1165
 9327SOL    HW239441   2.815   1.158   3.623  0.8114  0.7883  0.1519
 9328SOL     OW39442   4.524   1.433   8.510  0.3259 -0.5487  0.0670
 9328SOL    HW139443   4.435   1.421   8.478  1.1694 -0.2556 -2.3782
 9328SOL    HW239444   4.526   1.529   8.510 -4.0903 -0.4714  1.7094
 9329SOL     OW39445   3.743   1.589  16.192  0.6998 -0.0581 -0.2251
 9329SOL    HW139446   3.831   1.576  16.226  0.5714 -1.6796 -0.4934
 9329SOL    HW239447   3.703   1.502  16.199 -0.0715  0.3473  0.3609
 9330SOL     OW39448   2.666   2.419   9.560  0.1858 -0.0158  0.1473
 9330SOL    HW139449   2.651   2.365   9.638 -1.3704  0.5060  0.2105
 9330SOL    HW239450   2.643   2.507   9.591  0.7134 -0.2923  1.3220
 9331SOL     OW39451   3.102   2.517   4.110  0.5608 -0.3676  0.1093
 9331SOL    HW139452   3.196   2.509   4.123  0.4398 -1.8021  0.1936
 9331SOL    HW239453   3.094   2.541   4.017 -2.2541 -3.1287 -0.3807
 9332SOL     OW39454   1.755   2.990   4.331 -0.7037 -0.3035  0.0450
 9332SOL    HW139455   1.849   2.983   4.350 -0.7079  2.8621  1.2605
 9332SOL    HW239456   1.718   2.976   4.418 -1.5417 -1.8171 -0.5573
 9333SOL     OW39457   1.552   3.557   4.994  0.0161  0.3844 -0.0498
 9333SOL    HW139458   1.481   3.612   4.962 -1.3389 -0.1692  2.0452
 9333SOL    HW239459   1.524   3.469   4.970  1.6073 -0.3234  0.6607
 9334SOL     OW39460   1.808   4.144  15.483  0.2765  0.5818  0.0343
 9334SOL    HW139461   1.883   4.085  15.496 -1.3921 -1.4930  0.3703
 9334SOL    HW239462   1.840   4.234  15.489  0.8899  0.3292  0.5636
 9335SOL     OW39463   3.513   3.996   4.992  0.1263  0.5971  0.1716
 9335SOL    HW139464   3.520   3.970   4.900  0.3729 -3.6277  1.4126
 9335SOL    HW239465   3.470   4.080   4.973  0.8729  0.9253 -0.0992
 9336SOL     OW39466   1.455   4.128   2.695  0.4271 -0.6365 -0.5180
 9336SOL    HW139467   1.463   4.050   2.639 -1.7260 -0.9874 -0.3169
 9336SOL    HW239468   1.545   4.160   2.687  0.5442 -1.2144 -1.5256
 9337SOL     OW39469   4.006   1.139  14.997  0.0089 -1.0505 -0.4510
 9337SOL    HW139470   4.089   1.100  14.969  1.5307  0.2790  2.1573
 9337SOL    HW239471   4.037   1.135  15.088  2.6130 -0.4099 -1.3173
 9338SOL     OW39472   0.528   3.123  10.149 -0.7402 -0.3984 -0.2418
 9338SOL    HW139473   0.505   3.138  10.240 -0.5615  0.7733 -0.3890
 9338SOL    HW239474   0.452   3.077  10.114 -1.9724  0.3140  1.5535
 9339SOL     OW39475   1.477   4.387   3.780  0.8865  0.0231  0.1783
 9339SOL    HW139476   1.545   4.369   3.845  1.1151 -2.5704 -0.7612
 9339SOL    HW239477   1.533   4.404   3.704 -1.5021  3.2921 -0.8399
 9340SOL     OW39478   4.214   1.312   3.260  0.3596 -0.0679 -0.5246
 9340SOL    HW139479   4.155   1.331   3.187  0.7996 -0.3763 -0.9716
 9340SOL    HW239480   4.150   1.287   3.326  1.0158  2.2958  0.9899
 9341SOL     OW39481   4.623   4.494   2.586 -0.6443 -0.0233 -0.4998
 9341SOL    HW139482   4.599   4.483   2.494  1.2630 -0.8307 -0.8961
 9341SOL    HW239483   4.598   4.583   2.610 -0.7257 -0.1061 -0.2669
 9342SOL     OW39484   2.477   0.211   7.147 -0.5105 -0.0329 -0.3673
 9342SOL    HW139485   2.436   0.288   7.187 -0.2369  1.2740 -2.6387
 9342SOL    HW239486   2.417   0.140   7.170 -0.8789  0.1186 -0.8717
 9343SOL     OW39487   2.789   0.433  17.320 -0.3574  0.0707 -0.2317
 9343SOL    HW139488   2.743   0.418  17.238 -1.4632  0.1593  0.3726
 9343SOL    HW239489   2.854   0.500  17.299  0.2762 -0.5455 -0.2492
 9344SOL     OW39490   0.549   1.425   4.809  0.1310 -0.5410  0.3315
 9344SOL    HW139491   0.641   1.412   4.832  0.7231  0.2855 -1.5552
 9344SOL    HW239492   0.533   1.504   4.861 -0.0080 -0.0500 -0.4470
 9345SOL     OW39493   1.450   0.787  10.383  0.2486 -0.5970  0.0844
 9345SOL    HW139494   1.493   0.867  10.354 -0.8497  0.6335  1.8953
 9345SOL    HW239495   1.363   0.795  10.344 -0.5407  0.0960  1.9615
 9346SOL     OW39496   3.449   3.310   4.979 -0.7323  0.1342 -0.4971
 9346SOL    HW139497   3.433   3.404   4.981 -0.5723  0.1758 -1.2572
 9346SOL    HW239498   3.481   3.303   5.069  1.0202  1.1193 -1.0538
 9347SOL     OW39499   1.555   0.785   7.723  0.2232  0.3059 -0.1100
 9347SOL    HW139500   1.548   0.873   7.687  0.2767  1.4326  2.6505
 9347SOL    HW239501   1.488   0.741   7.672  0.7504 -2.0822  1.2295
 9348SOL     OW39502   0.339   3.571  12.760  0.5215  0.0871  0.1595
 9348SOL    HW139503   0.330   3.607  12.672  3.0985 -1.0264 -0.5418
 9348SOL    HW239504   0.408   3.627  12.797 -1.3130 -0.0088  3.7413
 9349SOL     OW39505   1.235   2.748   5.272 -0.3402 -0.0106 -0.0524
 9349SOL    HW139506   1.262   2.663   5.305  1.2712  0.4014 -0.3450
 9349SOL    HW239507   1.314   2.781   5.230  0.7119  0.4442  2.3218
 9350SOL     OW39508   3.838   0.939   6.225 -0.0399 -0.3144  0.0880
 9350SOL    HW139509   3.817   1.014   6.282 -1.8259  0.4174 -1.5263
 9350SOL    HW239510   3.850   0.875   6.295 -3.4447 -1.3998 -0.3377
 9351SOL     OW39511   1.879   4.321   9.052  0.1289 -0.1303 -0.7585
 9351SOL    HW139512   1.807   4.379   9.027 -1.2062 -1.0290  0.9673
 9351SOL    HW239513   1.928   4.367   9.121 -0.1912 -2.7820  1.2642
 9352SOL     OW39514   1.665   0.559   7.844 -0.1880  0.2866  0.3700
 9352SOL    HW139515   1.587   0.553   7.898 -0.9089  1.8808 -0.5129
 9352SOL    HW239516   1.636   0.642   7.807  0.2315  0.3987  0.2882
 9353SOL     OW39517   1.583   0.692   8.854  0.5409 -0.2456  0.4174
 9353SOL    HW139518   1.597   0.770   8.907 -2.3918 -0.4553  1.4911
 9353SOL    HW239519   1.560   0.628   8.921 -1.2793 -1.1403 -1.0432
 9354SOL     OW39520   2.706   3.232   4.364  0.1887  0.3927  0.4685
 9354SOL    HW139521   2.652   3.206   4.289 -1.9020 -0.7216  2.3911
 9354SOL    HW239522   2.656   3.303   4.405  0.4862  1.1825 -0.5314
 9355SOL     OW39523   3.068   0.569  13.454 -0.2796  0.0569 -0.5270
 9355SOL    HW139524   3.159   0.593  13.441 -0.2822  0.2683 -0.1581
 9355SOL    HW239525   3.040   0.532  13.370 -0.4732 -0.9462 -0.0209
 9356SOL     OW39526   0.837   1.598   1.528  0.4380 -0.1986 -0.0117
 9356SOL    HW139527   0.778   1.562   1.594 -0.4046  1.2795  0.0379
 9356SOL    HW239528   0.796   1.677   1.494 -0.4770 -1.7140 -2.3820
 9357SOL     OW39529   2.673   4.142   2.932 -0.0603 -0.6213 -0.1844
 9357SOL    HW139530   2.700   4.096   3.011 -0.8444 -2.0002 -0.7094
 9357SOL    HW239531   2.713   4.086   2.867 -3.0020 -1.4525 -1.3019
 9358SOL     OW39532   2.693   3.110   3.443  0.0350 -0.6324 -0.1537
 9358SOL    HW139533   2.622   3.070   3.393 -0.6460  0.4447 -0.0273
 9358SOL    HW239534   2.765   3.090   3.382  0.6074 -1.1556  0.6918
 9359SOL     OW39535   1.050   1.032   4.455 -0.0945  0.3425  0.1444
 9359SOL    HW139536   0.979   1.017   4.517  0.7609  0.9619  1.2671
 9359SOL    HW239537   1.037   0.960   4.394  0.1157 -1.3279  2.0611
 9360SOL     OW39538   3.990   3.260  15.232  0.2500  0.6125 -0.0439
 9360SOL    HW139539   3.922   3.248  15.166 -1.2495  1.4723  1.3421
 9360SOL    HW239540   3.987   3.353  15.250 -1.2361  0.3820  0.8913
 9361SOL     OW39541   2.783   3.113  17.178 -0.2148 -0.3029 -0.1832
 9361SOL    HW139542   2.820   3.061  17.249  0.1315  1.2619  0.7602
 9361SOL    HW239543   2.768   3.043  17.113 -1.4533 -0.2797  0.0713
 9362SOL     OW39544   3.578   0.194   7.906 -0.1623 -0.1171 -0.1303
 9362SOL    HW139545   3.669   0.192   7.934  0.0671  1.0362 -0.7908
 9362SOL    HW239546   3.581   0.189   7.810  0.4690 -0.5614 -0.0866
 9363SOL     OW39547   4.000   3.548  15.201 -0.0841  0.3973  0.2167
 9363SOL    HW139548   3.984   3.579  15.290  1.5051  2.3508 -0.1898
 9363SOL    HW239549   3.994   3.621  15.140  2.0034  1.3613  1.1766
 9364SOL     OW39550   2.441   0.955   6.058 -0.1220 -0.0075 -0.4333
 9364SOL    HW139551   2.492   1.035   6.068 -1.3892  0.4882  1.9591
 9364SOL    HW239552   2.353   0.981   6.087 -1.8927 -2.5495 -3.4347
 9365SOL     OW39553   1.906   4.605   2.137  0.5399 -0.0096  0.0634
 9365SOL    HW139554   1.977   4.567   2.188  0.6757  0.2894  0.0936
 9365SOL    HW239555   1.873   4.526   2.092  3.7397 -0.1053 -2.1551
 9366SOL     OW39556   4.612   3.622   9.125  0.1009 -0.6578 -0.0452
 9366SOL    HW139557   4.620   3.713   9.154  1.2716 -0.6582 -0.3781
 9366SOL    HW239558   4.561   3.596   9.202  2.0371 -1.1460  1.0783
 9367SOL     OW39559   1.152   4.443  11.805  0.4727 -0.1880 -0.2156
 9367SOL    HW139560   1.079   4.387  11.832  0.2629 -0.6697 -1.8017
 9367SOL    HW239561   1.147   4.501  11.881 -1.1930 -0.0688 -0.4235
 9368SOL     OW39562   1.872   0.265   4.318 -0.3255  0.0453  0.1804
 9368SOL    HW139563   1.821   0.190   4.287  0.2046 -0.5453  0.7447
 9368SOL    HW239564   1.911   0.297   4.237 -0.8094 -0.2646 -0.1789
 9369SOL     OW39565   0.774   0.529  16.766 -0.7790 -0.5085  0.1701
 9369SOL    HW139566   0.830   0.464  16.723  0.3285 -0.0644  0.9241
 9369SOL    HW239567   0.715   0.543  16.692 -0.5143  1.3538  0.3150
 9370SOL     OW39568   0.880   2.615   9.489 -0.0593  0.5481 -0.1484
 9370SOL    HW139569   0.803   2.557   9.493 -0.6848  1.2273 -2.2372
 9370SOL    HW239570   0.841   2.691   9.534 -2.6744 -1.5602  1.1929
 9371SOL     OW39571   0.622   1.929   4.975  0.2449  0.6359  0.7101
 9371SOL    HW139572   0.673   1.999   5.015  1.4239 -0.1084  0.5185
 9371SOL    HW239573   0.575   1.980   4.910 -1.1603  0.7408  1.8115
 9372SOL     OW39574   0.850   0.823   7.848 -0.1142 -0.6451  0.1997
 9372SOL    HW139575   0.860   0.872   7.930  1.0176  0.1612 -0.4230
 9372SOL    HW239576   0.915   0.758   7.874 -1.2768 -1.7024  0.4710
 9373SOL     OW39577   1.725   3.645   3.624 -0.0352  0.5986  0.2963
 9373SOL    HW139578   1.649   3.699   3.643 -0.7344 -0.8682  1.7763
 9373SOL    HW239579   1.702   3.557   3.655  1.0179  0.4544  0.6542
 9374SOL     OW39580   2.234   1.023   3.879  0.0289  0.0428 -0.2830
 9374SOL    HW139581   2.151   1.010   3.925  0.2341  1.8940  0.5667
 9374SOL    HW239582   2.285   1.056   3.953 -0.7897 -1.6644  1.0607
 9375SOL     OW39583   4.313   1.741   0.439  0.3857 -0.0789  0.2291
 9375SOL    HW139584   4.262   1.821   0.449  1.3033  0.4317  0.8427
 9375SOL    HW239585   4.251   1.679   0.400 -0.2612  1.0327 -0.4997
 9376SOL     OW39586   3.134   2.270  12.224  0.0956 -0.3546  0.6023
 9376SOL    HW139587   3.046   2.302  12.201  0.6401  1.0248  0.4564
 9376SOL    HW239588   3.138   2.188  12.175  2.3716  1.0169 -1.5064
 9377SOL     OW39589   2.439   0.426   0.433  0.0323  0.4750  0.2795
 9377SOL    HW139590   2.400   0.342   0.455 -1.4981  1.4118  1.1649
 9377SOL    HW239591   2.379   0.488   0.474  0.6323 -0.4046  2.5030
 9378SOL     OW39592   4.315   1.783   5.435  0.4449  0.5106  0.1751
 9378SOL    HW139593   4.278   1.700   5.464 -0.4777  1.1718  0.8886
 9378SOL    HW239594   4.243   1.844   5.449  1.4748  1.9138 -0.5925
 9379SOL     OW39595   2.148   3.571   8.367  0.0139  0.4709  0.6903
 9379SOL    HW139596   2.060   3.553   8.401 -0.3807 -0.9820 -1.0780
 9379SOL    HW239597   2.125   3.650   8.318 -1.0656  0.0454  0.4984
 9380SOL     OW39598   0.262   2.341   6.777  0.0572  0.5973 -0.3527
 9380SOL    HW139599   0.219   2.255   6.774  0.7654  0.3322 -2.9479
 9380SOL    HW239600   0.345   2.310   6.815 -1.0362  0.3927  1.8833
 9381SOL     OW39601   2.291   2.456   7.221 -1.0214  0.2696 -0.3662
 9381SOL    HW139602   2.277   2.443   7.127 -0.3569  1.6103 -0.6470
 9381SOL    HW239603   2.386   2.461   7.231 -0.8227  0.4971 -2.2357
 9382SOL     OW39604   2.005   0.539   3.055  0.2568  0.1561 -0.2986
 9382SOL    HW139605   2.006   0.610   3.118  0.6965 -0.3663  0.2797
 9382SOL    HW239606   2.048   0.574   2.977  0.1149  0.2088 -0.3542
 9383SOL     OW39607   0.409   1.103  16.300  0.0679  0.0401  0.1896
 9383SOL    HW139608   0.495   1.066  16.279 -0.5544 -1.0579 -0.4240
 9383SOL    HW239609   0.375   1.032  16.354  1.7742 -1.1683 -0.3055
 9384SOL     OW39610   4.387   2.848   6.972 -0.1584  0.2546 -0.2508
 9384SOL    HW139611   4.411   2.827   6.882  0.4002  0.8841 -0.2492
 9384SOL    HW239612   4.431   2.770   7.006 -1.4837 -0.1196  0.6241
 9385SOL     OW39613   4.514   3.397   6.707  0.1209  0.5075 -0.2513
 9385SOL    HW139614   4.513   3.303   6.689 -0.1283  0.4653 -0.0092
 9385SOL    HW239615   4.603   3.415   6.738  0.0529 -0.0683  0.2901
 9386SOL     OW39616   4.450   1.374   2.683 -0.0776 -0.4739  0.1189
 9386SOL    HW139617   4.424   1.362   2.591  1.0535  0.2660 -0.3015
 9386SOL    HW239618   4.507   1.451   2.677 -2.4445  1.2859  0.3245
 9387SOL     OW39619   0.075   0.716  10.757 -0.1006  0.4324  0.4439
 9387SOL    HW139620   0.057   0.747  10.668  2.2809 -1.3539 -0.6627
 9387SOL    HW239621   0.063   0.621  10.747  0.0752  0.2376  2.1716
 9388SOL     OW39622   0.883   1.106   2.759  0.0038  0.1621  0.0799
 9388SOL    HW139623   0.858   1.076   2.671  1.5152 -2.5119  0.5581
 9388SOL    HW239624   0.803   1.124   2.808  0.7348  0.7788  1.0294
 9389SOL     OW39625   1.442   0.207   3.660 -0.1235 -0.0365 -0.1359
 9389SOL    HW139626   1.381   0.151   3.612 -0.5198 -0.8056  1.2639
 9389SOL    HW239627   1.513   0.168   3.609 -0.9663  0.6512 -1.8309
 9390SOL     OW39628   3.626   2.033   3.195 -0.1504  0.0888  0.3451
 9390SOL    HW139629   3.546   1.986   3.215 -1.1195  1.0996 -1.1971
 9390SOL    HW239630   3.609   2.088   3.272  0.2074  0.0975  0.4172
 9391SOL     OW39631   0.935   2.172   8.830  0.2231  0.5391 -0.0989
 9391SOL    HW139632   0.922   2.183   8.924  1.5914 -0.7712  0.2363
 9391SOL    HW239633   0.897   2.254   8.799 -0.2093  0.0818 -0.7754
 9392SOL     OW39634   4.590   1.908   6.708  0.4136 -0.8219  0.4393
 9392SOL    HW139635   4.639   1.955   6.640  0.8396 -0.7399  0.8058
 9392SOL    HW239636   4.551   1.983   6.753 -1.8314  0.7691 -4.1764
 9393SOL     OW39637   2.746   3.107  14.319 -0.2844  0.0616  0.3239
 9393SOL    HW139638   2.750   3.187  14.266 -0.9393  0.1235  0.3677
 9393SOL    HW239639   2.830   3.107  14.363 -0.2752 -1.3498  0.2965
 9394SOL     OW39640   2.397   0.042   3.648 -0.4559  0.1126 -0.7896
 9394SOL    HW139641   2.457   0.112   3.624  3.2299 -3.4414 -1.8211
 9394SOL    HW239642   2.409   0.039   3.743  1.7573 -0.6682 -1.1012
 9395SOL     OW39643   0.747   2.071   2.062  0.7027  0.2746  0.4448
 9395SOL    HW139644   0.705   2.130   2.000  0.8417 -0.5973 -0.4728
 9395SOL    HW239645   0.750   1.989   2.014  1.5396 -0.0051  0.9779
 9396SOL     OW39646   4.040   2.112  16.956  0.2459 -0.0997  0.0228
 9396SOL    HW139647   4.090   2.194  16.954 -0.2375  0.1932 -0.3022
 9396SOL    HW239648   3.956   2.147  16.924 -0.1606  0.0959  1.3301
 9397SOL     OW39649   4.265   3.241   0.164 -0.5092  0.1027  0.0811
 9397SOL    HW139650   4.227   3.310   0.109  0.0358  2.8669  3.1712
 9397SOL    HW239651   4.202   3.242   0.236  0.7610  2.9838  1.1547
 9398SOL     OW39652   4.139   0.765   5.828  0.1450  0.5203 -0.4203
 9398SOL    HW139653   4.070   0.793   5.888  0.6394 -0.1999  0.4828
 9398SOL    HW239654   4.175   0.851   5.807  3.0803 -0.9101 -1.2219
 9399SOL     OW39655   4.538   0.408   7.638  0.7300 -0.0683  0.1701
 9399SOL    HW139656   4.608   0.457   7.682  2.6231 -1.6186 -1.1299
 9399SOL    HW239657   4.457   0.425   7.686  1.3220 -0.9199  1.4492
 9400SOL     OW39658   1.709   3.604   0.260  0.1067  0.2196 -0.1329
 9400SOL    HW139659   1.746   3.659   0.191 -0.3267  0.0241 -0.5154
 9400SOL    HW239660   1.634   3.658   0.284 -0.6454 -1.8763  2.2650
 9401SOL     OW39661   3.622   2.393  13.052  0.1437  0.2160 -0.4892
 9401SOL    HW139662   3.637   2.303  13.081 -2.4785 -0.6866 -1.8978
 9401SOL    HW239663   3.576   2.374  12.970  0.9288 -0.0971 -0.8581
 9402SOL     OW39664   2.089   1.492   0.321  0.6473  0.2339  0.1946
 9402SOL    HW139665   2.031   1.528   0.254 -0.1026 -1.2769  0.0597
 9402SOL    HW239666   2.125   1.418   0.273 -0.6913 -1.0663  1.2269
 9403SOL     OW39667   3.834   0.655   0.137 -0.1542 -0.1337 -0.4493
 9403SOL    HW139668   3.817   0.607   0.218  0.9270  1.3841  0.6721
 9403SOL    HW239669   3.837   0.580   0.077 -1.2897  1.1973 -2.1411
 9404SOL     OW39670   4.460   0.063  10.440 -0.6474  0.1144  0.0846
 9404SOL    HW139671   4.426   4.726  10.377  0.0462  1.0519 -1.2605
 9404SOL    HW239672   4.456   0.006  10.516  0.3353 -0.5460 -0.3535
 9405SOL     OW39673   1.269   1.194  11.046 -0.0308  0.1435 -0.0856
 9405SOL    HW139674   1.337   1.252  11.079 -0.7904  3.0387 -3.5082
 9405SOL    HW239675   1.211   1.261  11.008  3.4236  2.7334 -0.7620
 9406SOL     OW39676   1.409   1.300   6.360  0.5855 -0.6128 -0.1292
 9406SOL    HW139677   1.444   1.244   6.429 -0.5881  0.5442  1.4039
 9406SOL    HW239678   1.365   1.368   6.412  1.4095 -0.1452 -0.0415
 9407SOL     OW39679   3.388   2.042   1.780  0.4310  0.1196  0.0144
 9407SOL    HW139680   3.385   1.963   1.725  0.6754  0.2398 -0.1744
 9407SOL    HW239681   3.324   2.104   1.745  1.0484 -0.0257 -1.3782
 9408SOL     OW39682   3.884   3.936   6.792 -0.0413 -0.3891 -0.1248
 9408SOL    HW139683   3.833   3.855   6.789 -0.8771  0.1871 -1.3513
 9408SOL    HW239684   3.944   3.926   6.718 -0.5280  0.1052 -0.5847
 9409SOL     OW39685   3.717   0.706   1.221 -0.2497  0.1705 -0.0415
 9409SOL    HW139686   3.676   0.720   1.135  1.5598 -0.2424 -0.9773
 9409SOL    HW239687   3.683   0.778   1.275  0.3854  1.0548 -0.8143
 9410SOL     OW39688   3.902   3.681  15.787  0.2223  0.5171 -0.0501
 9410SOL    HW139689   3.836   3.747  15.765  0.3640  0.9027  0.6622
 9410SOL    HW239690   3.854   3.644  15.862  0.0780  0.0262 -0.3821
 9411SOL     OW39691   0.622   3.277   7.575  0.4158 -0.2441  0.0131
 9411SOL    HW139692   0.537   3.240   7.552  0.0897  0.2110  0.5170
 9411SOL    HW239693   0.662   3.292   7.489  1.4598 -1.8428  0.2178
 9412SOL     OW39694   2.252   4.539   5.024  0.1498  0.0530  0.3397
 9412SOL    HW139695   2.239   4.478   4.952 -3.0491  1.2905 -0.1281
 9412SOL    HW239696   2.280   4.472   5.086  0.3472  0.0893  0.2906
 9413SOL     OW39697   1.008   2.705   4.207 -0.0310 -0.3332  0.4272
 9413SOL    HW139698   1.092   2.690   4.162 -0.3365  0.5548 -0.4306
 9413SOL    HW239699   1.035   2.730   4.295 -1.2218  0.0107  0.6844
 9414SOL     OW39700   0.460   1.836   2.847  0.2479  0.0121  0.0732
 9414SOL    HW139701   0.497   1.896   2.783  1.3602  1.2588  1.8898
 9414SOL    HW239702   0.451   1.765   2.783  0.9951  0.9559 -1.0765
 9415SOL     OW39703   3.952   3.471  13.584 -0.1334 -0.1507  0.3785
 9415SOL    HW139704   3.950   3.564  13.561  0.3954 -0.0425  0.7814
 9415SOL    HW239705   3.919   3.439  13.500  0.6251 -0.5734  0.2526
 9416SOL     OW39706   4.079   3.866  14.051 -0.0881  0.2193  0.0307
 9416SOL    HW139707   4.004   3.860  13.992 -0.3510 -1.4020  0.5296
 9416SOL    HW239708   4.135   3.931  14.008 -2.0925  0.1466 -2.7056
 9417SOL     OW39709   2.642   0.070   5.362 -0.2530 -0.4364  0.0168
 9417SOL    HW139710   2.717   0.012   5.373 -0.0490 -0.1611  0.0737
 9417SOL    HW239711   2.621   0.084   5.454  1.7198 -0.0958  0.4147
 9418SOL     OW39712   0.655   3.881   8.467 -0.4655 -0.0045 -0.2168
 9418SOL    HW139713   0.589   3.924   8.413 -0.7987 -0.8263 -0.4590
 9418SOL    HW239714   0.739   3.882   8.422  0.5511 -0.0788  1.6995
 9419SOL     OW39715   1.929   0.539   2.292 -0.0729 -0.7079 -0.8481
 9419SOL    HW139716   1.924   0.586   2.209 -1.0439  0.1391 -0.3129
 9419SOL    HW239717   1.972   0.456   2.272  1.7424 -0.0435  0.1845
 9420SOL     OW39718   1.379   2.990   0.857  0.2382 -0.3065  0.0085
 9420SOL    HW139719   1.349   3.081   0.857 -1.1801 -0.7722  0.9419
 9420SOL    HW239720   1.345   2.957   0.775 -0.8150  1.8010 -0.4135
 9421SOL     OW39721   2.806   0.577  17.552  0.1080  0.2825 -0.4505
 9421SOL    HW139722   2.772   0.529  17.476  0.4504  0.5138 -0.7507
 9421SOL    HW239723   2.901   0.586  17.542 -0.0628  3.0558  0.4196
 9422SOL     OW39724   3.558   2.798   4.940 -0.0657  0.2613  0.0991
 9422SOL    HW139725   3.594   2.833   4.859 -2.6834  0.2487 -1.0846
 9422SOL    HW239726   3.488   2.749   4.896 -1.3598  2.1880 -0.0015
 9423SOL     OW39727   1.483   0.495   8.680  0.2971  0.3198  0.3821
 9423SOL    HW139728   1.547   0.432   8.715 -0.4775 -1.1419 -0.8479
 9423SOL    HW239729   1.511   0.573   8.728  1.0027 -0.4382  1.2146
 9424SOL     OW39730   0.620   1.749  10.377  0.2520 -0.2758  0.1293
 9424SOL    HW139731   0.549   1.726  10.437 -1.3513  1.6641 -1.0523
 9424SOL    HW239732   0.646   1.836  10.407  0.7665 -0.3891  0.0106
 9425SOL     OW39733   3.387   1.477   9.907  0.0004  0.1748 -0.1377
 9425SOL    HW139734   3.299   1.462   9.942 -0.2574  3.6570  0.7413
 9425SOL    HW239735   3.419   1.534   9.977 -0.6036  0.1391  0.1684
 9426SOL     OW39736   0.530   2.884   2.578 -0.7064  0.7715  0.0136
 9426SOL    HW139737   0.564   2.842   2.499 -0.1511  0.2455  0.5335
 9426SOL    HW239738   0.468   2.949   2.544  0.2752  1.5445 -0.3091
 9427SOL     OW39739   2.425   3.371   9.617 -0.6866 -0.3375 -0.3706
 9427SOL    HW139740   2.410   3.362   9.711  1.0629 -0.2181 -0.0803
 9427SOL    HW239741   2.354   3.426   9.584 -1.8757 -0.6026  1.7581
 9428SOL     OW39742   3.951   3.699   4.428  0.1815  0.2649 -0.3130
 9428SOL    HW139743   3.974   3.647   4.505  0.6008  0.5332 -0.2556
 9428SOL    HW239744   3.938   3.790   4.455 -1.3528 -0.0463 -0.0003
 9429SOL     OW39745   4.416   4.277   2.440  0.3532 -0.3618  0.2904
 9429SOL    HW139746   4.438   4.187   2.466 -0.4117 -0.5260  0.3581
 9429SOL    HW239747   4.487   4.280   2.375  0.4832 -1.6184  0.3704
 9430SOL     OW39748   4.170   0.763   8.219  0.2066  0.1448  0.2620
 9430SOL    HW139749   4.239   0.743   8.282 -0.0496  0.7868  0.7472
 9430SOL    HW239750   4.202   0.851   8.199  1.9679 -0.7481 -0.9333
 9431SOL     OW39751   2.971   2.638   8.259  0.8546  0.0327  0.0088
 9431SOL    HW139752   2.916   2.588   8.320 -1.1921 -0.3401 -2.1042
 9431SOL    HW239753   2.898   2.685   8.218  1.0453 -2.6101 -3.3813
 9432SOL     OW39754   0.162   1.612   6.557  0.2920 -0.0521  0.6583
 9432SOL    HW139755   0.073   1.599   6.526 -0.7555  0.4118  3.5163
 9432SOL    HW239756   0.141   1.578   6.643 -2.1938 -0.1935 -0.0111
 9433SOL     OW39757   2.042   3.194   1.481  0.3345 -0.0813  0.0667
 9433SOL    HW139758   2.097   3.212   1.557 -0.9029  0.0877  0.9212
 9433SOL    HW239759   2.092   3.134   1.425 -0.2020  0.2504 -0.7586
 9434SOL     OW39760   0.854   0.694  11.445  0.0866  0.4544 -0.0327
 9434SOL    HW139761   0.791   0.763  11.467  0.1640  1.0984 -1.7551
 9434SOL    HW239762   0.888   0.722  11.360 -2.7071 -1.1599 -1.6871
 9435SOL     OW39763   4.337   2.782   4.452 -0.6540 -0.9057  0.1250
 9435SOL    HW139764   4.317   2.836   4.376  1.5738  0.0173  0.1953
 9435SOL    HW239765   4.418   2.824   4.481 -0.6927 -0.8767  0.1908
 9436SOL     OW39766   0.892   2.565   5.708 -0.0639  0.0365 -0.4495
 9436SOL    HW139767   0.927   2.649   5.677  0.8272 -0.7476 -1.6030
 9436SOL    HW239768   0.901   2.507   5.633  0.1115 -0.7790  0.2064
 9437SOL     OW39769   1.102   4.629  10.126 -0.1802  0.1990 -0.1123
 9437SOL    HW139770   1.038   4.573  10.083  1.1004 -0.5119 -1.1192
 9437SOL    HW239771   1.181   4.595  10.082  0.6904 -0.7393  2.1518
 9438SOL     OW39772   3.658   2.777   5.334 -0.2006 -0.4380  0.3995
 9438SOL    HW139773   3.630   2.695   5.373 -0.6790  0.5743  2.1760
 9438SOL    HW239774   3.732   2.798   5.390  0.5563  0.3451 -0.8735
 9439SOL     OW39775   4.413   4.319  14.258 -0.4085 -0.2418 -0.2174
 9439SOL    HW139776   4.418   4.226  14.234 -0.0208 -0.1910 -0.3412
 9439SOL    HW239777   4.458   4.351  14.180  0.6316 -0.8771  0.1205
 9440SOL     OW39778   4.538   2.064  14.338  0.1676 -0.0874 -0.4634
 9440SOL    HW139779   4.487   1.996  14.294  1.8413 -0.1210 -2.3384
 9440SOL    HW239780   4.621   2.065  14.291  0.5428  0.6267  0.2064
 9441SOL     OW39781   0.606   3.795  14.494  0.0903 -0.5686 -0.2310
 9441SOL    HW139782   0.579   3.813  14.404  3.0616  0.9012 -0.8392
 9441SOL    HW239783   0.701   3.803  14.488  0.2102 -0.5409  1.7048
 9442SOL     OW39784   1.499   2.720   5.550  0.3733  0.6621  0.6787
 9442SOL    HW139785   1.552   2.676   5.483  0.9360 -0.9079  2.1633
 9442SOL    HW239786   1.463   2.794   5.501  2.1684  1.2504  0.2314
 9443SOL     OW39787   2.793   3.054   6.115 -0.1965  0.1175 -0.3311
 9443SOL    HW139788   2.857   3.048   6.185 -0.3355  0.3055 -0.1870
 9443SOL    HW239789   2.746   3.137   6.128  2.0695  1.4612 -0.6441
 9444SOL     OW39790   0.259   3.257  16.451 -0.0140  0.1583 -0.0905
 9444SOL    HW139791   0.340   3.237  16.405 -0.6044  0.5780 -1.3223
 9444SOL    HW239792   0.261   3.199  16.527  0.1341  0.2005 -0.0623
 9445SOL     OW39793   1.691   3.849   3.375  0.1794  0.4490 -0.1552
 9445SOL    HW139794   1.599   3.837   3.350 -0.4625  1.5655  1.6299
 9445SOL    HW239795   1.691   3.938   3.410 -1.3566  0.1850  0.5192
 9446SOL     OW39796   1.266   1.519  14.207  0.2303  0.3424  0.0551
 9446SOL    HW139797   1.212   1.598  14.202  0.5199  0.4877 -0.8256
 9446SOL    HW239798   1.356   1.545  14.185  0.3944 -0.9831 -0.8691
 9447SOL     OW39799   0.598   1.984   2.672  0.2691  0.2029  0.4920
 9447SOL    HW139800   0.600   2.020   2.583 -0.3819  1.1274  0.8538
 9447SOL    HW239801   0.623   2.059   2.725 -0.6223  1.3472 -0.6779
 9448SOL     OW39802   0.378   4.280   5.154 -0.1103  0.0357 -0.5414
 9448SOL    HW139803   0.330   4.197   5.158 -0.2116  0.1936  1.4163
 9448SOL    HW239804   0.399   4.279   5.247 -0.8156 -0.8894 -0.3834
 9449SOL     OW39805   3.366   0.358   8.608  0.1605  0.4711  0.2617
 9449SOL    HW139806   3.347   0.400   8.692  0.8725  1.1223  0.0972
 9449SOL    HW239807   3.370   0.432   8.549 -1.1279  0.9632  0.7816
 9450SOL     OW39808   1.754   2.462   1.084  0.1142  0.8648 -0.4242
 9450SOL    HW139809   1.776   2.551   1.111  1.0128  1.1373 -2.0614
 9450SOL    HW239810   1.831   2.430   1.036 -1.2612 -1.2484 -1.2648
 9451SOL     OW39811   2.794   2.500  10.158  0.4137  0.2265  0.0828
 9451SOL    HW139812   2.844   2.473  10.235 -0.6381  2.7104  1.6243
 9451SOL    HW239813   2.722   2.548  10.199  0.9584  0.5019  0.7167
 9452SOL     OW39814   2.918   0.088   8.917  0.2263 -0.0143  0.2725
 9452SOL    HW139815   3.005   0.124   8.898  0.2502 -1.0767 -1.6646
 9452SOL    HW239816   2.939   4.725   8.891 -1.5892  0.2340 -1.9519
 9453SOL     OW39817   1.641   2.537   3.712  0.6927  0.0680  0.0498
 9453SOL    HW139818   1.633   2.444   3.688  0.1880  0.6387 -2.0370
 9453SOL    HW239819   1.675   2.526   3.800  2.5844  1.0723 -0.5532
 9454SOL     OW39820   4.411   3.182   5.864 -0.3221  0.0491  0.4435
 9454SOL    HW139821   4.410   3.114   5.796 -1.5763 -0.1436  0.6593
 9454SOL    HW239822   4.324   3.176   5.903  0.8451 -1.2650  2.8410
 9455SOL     OW39823   1.802   4.612   6.884  0.0377  0.6809 -0.6668
 9455SOL    HW139824   1.816   4.543   6.819 -0.1138  0.0368 -0.0149
 9455SOL    HW239825   1.883   4.662   6.871  0.8932 -0.3299  0.7543
 9456SOL     OW39826   2.214   3.654   5.958  0.4153  0.5773 -0.4672
 9456SOL    HW139827   2.278   3.715   5.994  2.1654 -1.6005  0.1323
 9456SOL    HW239828   2.250   3.569   5.986  0.2442 -0.3187 -2.9821
 9457SOL     OW39829   4.021   4.507   1.300  0.7539 -0.0008  0.3194
 9457SOL    HW139830   4.024   4.431   1.359  1.3187 -0.8869 -0.8535
 9457SOL    HW239831   4.110   4.514   1.266  0.4332  1.6060 -0.1789
 9458SOL     OW39832   0.215   2.741   9.050 -0.5042 -0.3197  0.6982
 9458SOL    HW139833   0.299   2.737   9.003 -0.8181 -1.7101  0.2505
 9458SOL    HW239834   0.245   2.753   9.140  0.4066 -3.6766  0.8717
 9459SOL     OW39835   3.621   1.790   7.326 -0.2296  0.3537  0.4635
 9459SOL    HW139836   3.702   1.765   7.371 -1.0579 -2.2235  0.5248
 9459SOL    HW239837   3.646   1.880   7.305  0.8813  0.0477  0.4765
 9460SOL     OW39838   0.267   1.745  11.488  0.7949  0.0814  1.1643
 9460SOL    HW139839   0.327   1.814  11.460  2.4646 -1.0123  2.0011
 9460SOL    HW239840   0.300   1.732  11.577 -0.6389  0.5067  1.7453
 9461SOL     OW39841   1.949   4.333   6.989  0.1094  0.2813  0.0289
 9461SOL    HW139842   2.007   4.402   6.957 -0.7103  0.5487 -0.8861
 9461SOL    HW239843   1.957   4.270   6.917 -0.1445 -0.5857  0.7547
 9462SOL     OW39844   1.582   3.056   2.049  0.8206  0.0372  0.0707
 9462SOL    HW139845   1.577   3.110   1.970 -0.7670  1.2601  0.9919
 9462SOL    HW239846   1.550   3.109   2.122  0.3963  0.4708 -0.4317
 9463SOL     OW39847   2.826   2.900   8.586  0.0609 -0.0934 -0.2684
 9463SOL    HW139848   2.861   2.811   8.588 -0.4030 -0.2836 -0.6215
 9463SOL    HW239849   2.737   2.896   8.622  0.3531  1.3038  0.6152
 9464SOL     OW39850   2.322   3.531   6.812  0.0936  0.3659  0.4861
 9464SOL    HW139851   2.236   3.502   6.782  1.2949 -1.6588 -1.0094
 9464SOL    HW239852   2.373   3.450   6.819 -0.1436  0.3979  2.5376
 9465SOL     OW39853   2.848   3.210   8.277 -0.1961  0.0419  0.4364
 9465SOL    HW139854   2.774   3.149   8.283  0.2958 -0.4265  1.7060
 9465SOL    HW239855   2.912   3.145   8.249  1.7235  2.6818 -1.2381
 9466SOL     OW39856   3.480   0.114   6.961 -0.0871  0.5756  0.1788
 9466SOL    HW139857   3.470   0.115   7.056 -1.4521 -0.1079  0.0292
 9466SOL    HW239858   3.390   0.130   6.934  0.3152  0.8364 -1.0492
 9467SOL     OW39859   0.573   3.821  13.398 -0.2514 -0.0648  0.4399
 9467SOL    HW139860   0.640   3.863  13.450  0.4588  0.0956 -0.6055
 9467SOL    HW239861   0.500   3.847  13.454 -0.5535  0.9556 -0.4143
 9468SOL     OW39862   3.207   2.892   1.633 -0.6144  0.6183 -0.8407
 9468SOL    HW139863   3.208   2.980   1.672  1.3795 -0.7276  2.0982
 9468SOL    HW239864   3.301   2.879   1.619 -0.9935 -0.1151 -2.6989
 9469SOL     OW39865   3.537   0.607   4.210  0.1556  0.3388  0.2824
 9469SOL    HW139866   3.549   0.621   4.303 -0.6702  0.7399  0.3318
 9469SOL    HW239867   3.501   0.519   4.223  1.4708 -0.3352 -0.7074
 9470SOL     OW39868   4.373   2.320   0.439  0.4406 -0.0057 -0.8534
 9470SOL    HW139869   4.392   2.291   0.350 -2.5720  0.1338 -1.5580
 9470SOL    HW239870   4.447   2.375   0.464 -0.3382  1.0703 -0.8945
 9471SOL     OW39871   4.462   1.279   6.450  0.5237  0.8770  0.9871
 9471SOL    HW139872   4.472   1.319   6.363  1.5476 -1.8222 -0.1562
 9471SOL    HW239873   4.367   1.276   6.457  0.5786  3.3584  2.8286
 9472SOL     OW39874   2.012   4.447   2.818 -0.8859  0.3767  0.0754
 9472SOL    HW139875   2.066   4.367   2.814 -4.2968 -1.9463  0.4413
 9472SOL    HW239876   2.077   4.510   2.788  0.1013  0.0874  1.5969
 9473SOL     OW39877   3.244   1.399   1.011  0.3223  0.4866 -0.8859
 9473SOL    HW139878   3.310   1.423   1.076 -0.1734 -1.7231  0.3940
 9473SOL    HW239879   3.295   1.330   0.969 -0.7055  1.6459 -4.0711
 9474SOL     OW39880   2.695   2.855  15.269 -0.1956 -0.0189  0.4721
 9474SOL    HW139881   2.692   2.951  15.263 -1.4739  0.0495  2.1687
 9474SOL    HW239882   2.654   2.837  15.354  0.0716 -0.9806  0.3944
 9475SOL     OW39883   2.257   2.512   1.196  0.5648  0.2653 -0.4023
 9475SOL    HW139884   2.284   2.422   1.211 -1.2009 -0.1885  0.0070
 9475SOL    HW239885   2.329   2.553   1.244 -0.7832  0.9693  1.0093
 9476SOL     OW39886   0.678   1.279   6.726  0.4022 -0.0437  0.3474
 9476SOL    HW139887   0.626   1.250   6.800 -0.6640 -3.3841 -1.7122
 9476SOL    HW239888   0.752   1.320   6.770  1.7427 -0.0694 -1.8541
 9477SOL     OW39889   2.855   0.642   3.158 -0.1703  0.0981  0.0071
 9477SOL    HW139890   2.845   0.660   3.065 -3.5062  1.5647  0.6613
 9477SOL    HW239891   2.950   0.626   3.154 -0.3778 -0.4099 -2.8654
 9478SOL     OW39892   2.192   4.384   8.075  0.0211  0.2534  0.0439
 9478SOL    HW139893   2.132   4.458   8.087  0.7783  0.8237  0.3339
 9478SOL    HW239894   2.140   4.331   8.136  1.1278  1.9990  2.5053
 9479SOL     OW39895   3.158   1.413   4.722 -0.6235  0.5083  0.2969
 9479SOL    HW139896   3.063   1.405   4.707 -0.5998 -2.2032  1.6349
 9479SOL    HW239897   3.192   1.333   4.683  0.1245  1.4995 -1.0690
 9480SOL     OW39898   0.939   4.060   2.668 -0.0207  0.0900  0.3091
 9480SOL    HW139899   1.024   4.102   2.680  0.5028 -0.7725 -0.3770
 9480SOL    HW239900   0.961   4.015   2.587 -1.3024  1.1086 -0.5928
 9481SOL     OW39901   1.446   0.507   7.984  0.1604  0.5049  0.7917
 9481SOL    HW139902   1.513   0.468   8.040  0.5374  1.5608  1.0734
 9481SOL    HW239903   1.380   0.438   7.995  0.1509  0.0269 -2.2842
 9482SOL     OW39904   2.173   3.114   0.001  0.0480  0.7575  0.0523
 9482SOL    HW139905   2.215   3.105  17.624  0.7143  0.5374  0.4009
 9482SOL    HW239906   2.090   3.078  17.680  0.3851  1.1363 -1.3562
 9483SOL     OW39907   1.565   3.402   7.887 -0.2580 -1.0394  0.0707
 9483SOL    HW139908   1.523   3.341   7.826 -2.3822  0.7078 -0.2112
 9483SOL    HW239909   1.573   3.472   7.823  0.6455  0.1486  1.4798
 9484SOL     OW39910   1.386   3.482   1.850  0.1644  0.2680 -0.0600
 9484SOL    HW139911   1.466   3.534   1.835  0.4769 -0.0573  0.4966
 9484SOL    HW239912   1.368   3.435   1.768 -0.2302  2.3535 -1.1826
 9485SOL     OW39913   1.089   2.589   8.994 -0.4151  0.3724  0.1902
 9485SOL    HW139914   1.059   2.545   9.074 -2.9882 -0.6451 -1.3480
 9485SOL    HW239915   1.165   2.642   9.017  0.6520 -0.0327 -2.3458
 9486SOL     OW39916   1.540   0.019   6.482  0.7340  0.5489  0.5470
 9486SOL    HW139917   1.466   0.068   6.448  0.2999 -0.7175 -0.3368
 9486SOL    HW239918   1.607   0.085   6.468 -0.1290  1.6305  1.5169
 9487SOL     OW39919   4.369   2.721   6.279  0.5157  0.5601  0.3635
 9487SOL    HW139920   4.387   2.815   6.274 -1.8448  0.9584 -0.6611
 9487SOL    HW239921   4.454   2.677   6.271 -0.2560 -0.7223 -0.9383
 9488SOL     OW39922   0.045   3.787   4.470  0.0806  0.3155  0.3100
 9488SOL    HW139923   4.717   3.715   4.500 -0.7034  1.4327  1.5369
 9488SOL    HW239924   0.101   3.790   4.547 -0.7462 -1.0433  0.9722
 9489SOL     OW39925   2.901   3.379  16.926 -0.0327 -0.5911 -0.5727
 9489SOL    HW139926   2.829   3.397  16.986 -2.4397  3.0673 -4.5844
 9489SOL    HW239927   2.952   3.303  16.955 -1.1043 -0.9838  0.2967
 9490SOL     OW39928   1.947   0.370  15.254 -0.1451 -0.4155 -0.5456
 9490SOL    HW139929   1.895   0.291  15.243 -0.0388 -0.5478 -0.0972
 9490SOL    HW239930   1.922   0.425  15.180 -2.0121  0.9222  1.1153
 9491SOL     OW39931   3.361   1.714   7.438  0.0082  0.0190  0.1802
 9491SOL    HW139932   3.453   1.716   7.413 -0.0438  0.5541  0.0356
 9491SOL    HW239933   3.370   1.684   7.529 -0.8638  0.1916  0.3204
 9492SOL     OW39934   1.594   0.165  16.374  0.1038  0.0662  0.3420
 9492SOL    HW139935   1.651   0.238  16.350  1.8728 -1.7641 -0.9560
 9492SOL    HW239936   1.516   0.208  16.338  2.3077  2.3609 -1.6959
 9493SOL     OW39937   3.383   0.015   7.968  0.3533  0.1430  0.2474
 9493SOL    HW139938   3.440   0.086   7.938  1.2741 -1.0823 -0.8969
 9493SOL    HW239939   3.445   4.669   7.973 -2.5678 -2.4076 -0.3895
 9494SOL     OW39940   2.807   0.023  12.953 -0.2282 -0.1676 -0.6703
 9494SOL    HW139941   2.865   0.033  12.878 -1.1462 -0.6374 -1.4516
 9494SOL    HW239942   2.798   0.116  12.973 -2.7885 -0.0320 -2.4392
 9495SOL     OW39943   2.951   1.178   1.183  0.0473  0.8945  0.2559
 9495SOL    HW139944   2.969   1.272   1.178 -1.4995  1.2537  1.4019
 9495SOL    HW239945   2.857   1.168   1.202  0.0194  0.4600 -0.1251
 9496SOL     OW39946   4.613   2.485  12.107 -0.5402  0.1751 -0.3640
 9496SOL    HW139947   4.645   2.413  12.161  1.0285 -1.5226 -3.5618
 9496SOL    HW239948   4.531   2.447  12.076 -1.0121  0.8893 -0.0057
 9497SOL     OW39949   2.401   3.868   2.099 -0.4068  0.3091  0.0126
 9497SOL    HW139950   2.464   3.840   2.165  1.1475  1.2893 -1.0817
 9497SOL    HW239951   2.461   3.913   2.040 -0.2950 -1.0771 -0.9380
 9498SOL     OW39952   1.414   3.561   6.421 -0.5698 -0.2659 -0.0437
 9498SOL    HW139953   1.459   3.641   6.448  0.0418  0.3797 -2.9195
 9498SOL    HW239954   1.402   3.573   6.327 -0.6974 -0.2146 -0.0207
 9499SOL     OW39955   4.159   4.372  10.309  1.2203 -0.1180 -0.5948
 9499SOL    HW139956   4.072   4.386  10.348  1.3592 -0.2468 -0.2369
 9499SOL    HW239957   4.153   4.291  10.259  0.6412 -0.5230  0.1232
 9500SOL     OW39958   0.852   1.320  17.621 -0.2526  0.3890 -0.4341
 9500SOL    HW139959   0.792   1.254  17.657 -0.5272  0.8268 -0.0934
 9500SOL    HW239960   0.786   1.374  17.578  0.0870 -0.1130 -1.5863
 9501SOL     OW39961   1.658   2.506   5.664  0.1067  0.4811 -0.1086
 9501SOL    HW139962   1.726   2.489   5.598 -2.4249 -1.2370 -2.2562
 9501SOL    HW239963   1.627   2.596   5.652 -1.5075  0.0422  0.7643
 9502SOL     OW39964   4.131   0.366  12.177  0.1021 -0.3181  0.1803
 9502SOL    HW139965   4.119   0.429  12.106 -0.6991 -3.0644 -2.0963
 9502SOL    HW239966   4.220   0.334  12.168 -0.5849 -2.2917  0.3865
 9503SOL     OW39967   3.385   0.300   1.250  0.2609  0.2410  0.6451
 9503SOL    HW139968   3.476   0.296   1.220 -0.8881  0.6861 -2.8962
 9503SOL    HW239969   3.345   0.218   1.221  1.3705  0.5934 -1.9060
 9504SOL     OW39970   3.159   2.841  16.218  0.3105  0.3124  0.2036
 9504SOL    HW139971   3.168   2.834  16.313  0.8040  0.4751  0.1724
 9504SOL    HW239972   3.067   2.828  16.195  0.6447  0.0374 -0.9741
 9505SOL     OW39973   1.076   2.622   7.135  0.0644 -0.1730 -0.2233
 9505SOL    HW139974   1.057   2.709   7.172  1.1203 -0.5860  1.3268
 9505SOL    HW239975   0.995   2.579   7.163  1.1148 -2.3277 -0.5001
 9506SOL     OW39976   1.369   0.421  11.165  0.1807 -0.0324  0.2101
 9506SOL    HW139977   1.356   0.356  11.095 -1.0921  0.4841 -0.0484
 9506SOL    HW239978   1.288   0.405  11.213  0.8920  0.6596  1.6355
 9507SOL     OW39979   2.972   2.619   4.526  0.5625 -0.1305 -0.4273
 9507SOL    HW139980   3.050   2.618   4.470 -1.0972 -0.3910 -2.6966
 9507SOL    HW239981   2.911   2.671   4.474  0.9299  0.8830  0.1395
 9508SOL     OW39982   0.791   0.711   6.970  0.0182  0.4569 -0.2930
 9508SOL    HW139983   0.869   0.717   6.915  1.1507  1.2194  1.3995
 9508SOL    HW239984   0.827   0.681   7.054 -0.0794  1.2073  0.0135
 9509SOL     OW39985   1.990   4.669  13.369 -0.4050  0.8204 -0.4856
 9509SOL    HW139986   2.076   4.708  13.357  0.2733 -0.2304  1.0387
 9509SOL    HW239987   2.023   4.607  13.433  1.9238  2.6051  0.0524
 9510SOL     OW39988   1.926   2.902   3.822  0.3632 -0.3243 -0.0264
 9510SOL    HW139989   1.881   2.842   3.762 -1.5411  0.7728  0.3175
 9510SOL    HW239990   1.999   2.845   3.847  1.8571  1.8544  0.5829
 9511SOL     OW39991   3.891   2.160   1.385 -0.4910  0.3541 -0.3134
 9511SOL    HW139992   3.842   2.230   1.342  0.3131 -0.3174 -2.3440
 9511SOL    HW239993   3.967   2.206   1.418 -1.7850  1.3929  1.2033
 9512SOL     OW39994   3.676   2.384   1.753 -0.0524  0.6107 -0.0910
 9512SOL    HW139995   3.656   2.291   1.748  0.5409  0.5252 -0.8739
 9512SOL    HW239996   3.750   2.392   1.692 -1.2543 -0.6431 -1.7223
 9513SOL     OW39997   3.000   2.603   0.584 -0.0672  0.3875 -0.5200
 9513SOL    HW139998   3.023   2.532   0.644 -0.0040  0.4503 -0.4696
 9513SOL    HW239999   3.088   2.641   0.582  0.0965  0.0824  0.7235
 9514SOL     OW40000   1.694   2.378   1.486  0.1340  0.5847  0.0713
 9514SOL    HW140001   1.631   2.428   1.538  0.4621  1.8378 -0.7132
 9514SOL    HW240002   1.679   2.292   1.523 -1.7834  1.9569  2.4553
 9515SOL     OW40003   0.495   2.132  16.730 -0.2687 -0.8026  0.6081
 9515SOL    HW140004   0.494   2.222  16.761  0.3835 -0.7169  0.3745
 9515SOL    HW240005   0.437   2.122  16.654 -0.2549 -0.0166  0.4999
 9516SOL     OW40006   0.667   2.204   2.897 -0.2089  0.1905  0.3113
 9516SOL    HW140007   0.753   2.239   2.917 -1.0567  1.5996  1.4620
 9516SOL    HW240008   0.622   2.279   2.860  0.1606  0.4872  0.4717
 9517SOL     OW40009   2.361   4.023   5.859  0.5336 -0.1872 -0.1115
 9517SOL    HW140010   2.388   4.111   5.834 -0.0370  0.3443  1.1029
 9517SOL    HW240011   2.267   4.036   5.843  0.4013  0.3250  1.0456
 9518SOL     OW40012   4.115   0.358   2.808 -0.0120 -0.4524 -0.0229
 9518SOL    HW140013   4.025   0.340   2.780  0.4177  1.0348 -2.3171
 9518SOL    HW240014   4.103   0.440   2.856  0.6948 -0.4022  0.0668
 9519SOL     OW40015   4.725   0.659   6.977  0.7235  0.2364 -0.4864
 9519SOL    HW140016   0.013   0.742   7.022 -4.0834 -1.7625  4.8914
 9519SOL    HW240017   4.630   0.651   6.966  0.5685  1.3953 -0.0078
 9520SOL     OW40018   3.404   0.990   6.946 -0.1796 -0.0597  0.1199
 9520SOL    HW140019   3.376   0.902   6.971 -0.6360 -0.6125 -2.3155
 9520SOL    HW240020   3.329   1.008   6.888 -0.1174 -0.1405  0.0134
 9521SOL     OW40021   1.306   1.977   6.800  0.2514 -0.0461 -0.3266
 9521SOL    HW140022   1.372   1.921   6.840  0.7186 -0.3659 -1.5426
 9521SOL    HW240023   1.354   2.060   6.802 -2.9457  1.7952  1.2024
 9522SOL     OW40024   3.783   0.765   4.242 -1.0241  0.5813  0.4381
 9522SOL    HW140025   3.693   0.732   4.247 -0.0603 -2.4845 -2.1987
 9522SOL    HW240026   3.831   0.685   4.223 -1.2304  0.0769  1.9824
 9523SOL     OW40027   2.676   1.783  10.997  0.0476  0.3132  0.3268
 9523SOL    HW140028   2.667   1.870  10.959  0.1514  0.8531  1.5172
 9523SOL    HW240029   2.716   1.724  10.933 -2.7262  0.2939 -1.3526
 9524SOL     OW40030   1.073   1.046   4.888 -0.0142  0.6274  0.3822
 9524SOL    HW140031   0.996   1.100   4.870 -0.4997 -0.7225 -1.6293
 9524SOL    HW240032   1.141   1.069   4.824 -0.4930  0.3602 -0.2230
 9525SOL     OW40033   0.147   3.503   7.055  0.1025  0.3245 -0.5818
 9525SOL    HW140034   0.239   3.501   7.028  0.5343  1.4569  0.7825
 9525SOL    HW240035   0.147   3.596   7.077 -1.4897  0.4139 -0.9712
 9526SOL     OW40036   1.145   1.727   7.931 -0.4599 -0.0768  0.1865
 9526SOL    HW140037   1.146   1.816   7.895  0.8156  0.3626  1.3087
 9526SOL    HW240038   1.238   1.713   7.947 -0.4633 -2.8805 -2.3196
 9527SOL     OW40039   0.123   0.923   5.516  0.0997  1.0720 -0.2201
 9527SOL    HW140040   0.121   0.994   5.452  0.3291 -0.6258 -2.1398
 9527SOL    HW240041   0.218   0.916   5.529 -0.4096 -0.5729  2.4655
 9528SOL     OW40042   1.923   1.380   3.352  0.1363 -0.3008  0.2604
 9528SOL    HW140043   1.887   1.387   3.264 -1.6903  0.8546  1.1041
 9528SOL    HW240044   1.977   1.460   3.353 -1.6850  0.9431 -1.1875
 9529SOL     OW40045   2.996   1.284   4.018  0.3606 -0.0113 -0.1038
 9529SOL    HW140046   2.966   1.277   4.108  0.6740 -0.2739 -0.0189
 9529SOL    HW240047   3.021   1.196   3.990 -1.4448 -0.6776  0.4007
 9530SOL     OW40048   3.116   3.675   6.030 -0.7130  0.0032  0.4530
 9530SOL    HW140049   3.087   3.616   6.099 -2.4720 -1.4212 -1.4794
 9530SOL    HW240050   3.188   3.623   5.994 -0.4256  0.1972  0.7440
 9531SOL     OW40051   3.471   0.149  10.045  0.0155  0.1570  0.5213
 9531SOL    HW140052   3.394   0.101  10.075 -0.3650  0.0769 -0.5778
 9531SOL    HW240053   3.428   0.233  10.028  0.2858 -0.0454 -1.1096
 9532SOL     OW40054   3.457   2.986   7.299  0.2156  0.6693 -0.7805
 9532SOL    HW140055   3.475   3.079   7.291  2.0148  0.4702  0.7797
 9532SOL    HW240056   3.450   2.945   7.213  0.3034  0.4336 -0.6767
 9533SOL     OW40057   2.876   3.742   9.433 -0.0913  0.2119 -0.2293
 9533SOL    HW140058   2.958   3.695   9.448 -0.0912  0.0786 -0.6549
 9533SOL    HW240059   2.825   3.735   9.514  0.3391 -0.3786 -0.0134
 9534SOL     OW40060   2.691   3.438   7.658  0.0777 -0.1294  0.4791
 9534SOL    HW140061   2.658   3.390   7.582 -1.2050 -0.8653  1.5071
 9534SOL    HW240062   2.618   3.416   7.715 -0.9445  1.2289 -0.3054
 9535SOL     OW40063   4.644   2.247   8.760  0.4434 -0.9030 -0.0494
 9535SOL    HW140064   4.598   2.328   8.740 -3.1243 -2.0721  3.4297
 9535SOL    HW240065   4.629   2.226   8.852 -2.5146 -2.7892 -0.9437
 9536SOL     OW40066   2.579   2.467   7.309  0.1195  0.3396  0.1855
 9536SOL    HW140067   2.659   2.512   7.337 -0.0475 -1.0481  2.7726
 9536SOL    HW240068   2.605   2.377   7.327 -0.0406  0.8360  2.8386
 9537SOL     OW40069   3.951   4.439  11.072  0.2902  0.7606  0.3937
 9537SOL    HW140070   3.874   4.412  11.022  0.5847  0.4916  0.0781
 9537SOL    HW240071   4.011   4.443  10.997  1.6832  2.0328  1.5905
 9538SOL     OW40072   0.438   4.145   8.453  0.2767  0.7749  0.0525
 9538SOL    HW140073   0.520   4.184   8.423  0.3066 -0.0479 -0.8992
 9538SOL    HW240074   0.431   4.075   8.388  0.0806 -0.2495  1.1882
 9539SOL     OW40075   0.542   4.487   3.194 -0.1124 -0.4411  0.5098
 9539SOL    HW140076   0.463   4.444   3.228  1.0491 -0.2294  3.5002
 9539SOL    HW240077   0.566   4.435   3.118 -2.4133  1.6611 -1.6761
 9540SOL     OW40078   0.030   2.088  12.408  0.1684 -0.2430  0.0207
 9540SOL    HW140079   0.090   2.078  12.482  1.4659 -0.2301 -1.0278
 9540SOL    HW240080   0.087   2.062  12.336  0.9392 -0.4705  0.7033
 9541SOL     OW40081   1.617   1.287   4.661  0.2832 -0.0624  0.6234
 9541SOL    HW140082   1.639   1.230   4.587  1.7399  0.7540  0.4103
 9541SOL    HW240083   1.677   1.252   4.726 -2.3181 -1.9085  1.9806
 9542SOL     OW40084   4.381   3.260  17.033  0.0465 -0.5993  0.2362
 9542SOL    HW140085   4.460   3.314  17.038 -0.0419 -0.4180 -0.3792
 9542SOL    HW240086   4.317   3.331  17.023  2.1672  1.5405  1.8126
 9543SOL     OW40087   2.077   2.767   2.814 -0.7791 -0.2534  0.4291
 9543SOL    HW140088   2.139   2.734   2.879  0.0740  1.5810  0.5590
 9543SOL    HW240089   2.003   2.709   2.831 -0.8324 -0.3568 -0.1904
 9544SOL     OW40090   0.245   3.666  12.490 -0.2800 -0.7969 -0.1895
 9544SOL    HW140091   0.201   3.751  12.502  1.1350  0.0417 -0.9044
 9544SOL    HW240092   0.218   3.649  12.400 -0.0442  2.2356 -0.8589
 9545SOL     OW40093   3.819   1.071   8.745 -0.2487 -0.0286  0.1305
 9545SOL    HW140094   3.805   0.977   8.752  0.0646 -0.1650 -1.0952
 9545SOL    HW240095   3.769   1.099   8.669  1.3165  1.2595 -0.4165
 9546SOL     OW40096   4.595   2.779  13.487  0.0541 -0.0723  0.0321
 9546SOL    HW140097   4.637   2.862  13.509 -0.0663  0.0780 -0.3182
 9546SOL    HW240098   4.513   2.764  13.534 -0.0432  2.1818  0.5763
 9547SOL     OW40099   4.169   1.958   0.210 -0.2857 -0.1696  0.6673
 9547SOL    HW140100   4.164   1.939   0.304 -0.2247 -0.0023  0.7024
 9547SOL    HW240101   4.105   1.895   0.175  0.0750 -1.2538  1.9385
 9548SOL     OW40102   0.739   2.438   5.907 -0.4409  0.2480 -0.4219
 9548SOL    HW140103   0.682   2.398   5.841 -1.0865 -0.8212  0.7803
 9548SOL    HW240104   0.775   2.514   5.860  1.2915 -1.8599 -2.5184
 9549SOL     OW40105   0.703   2.737   8.142 -0.0514  0.1181 -0.5903
 9549SOL    HW140106   0.665   2.737   8.054  2.4423 -0.1813 -1.6631
 9549SOL    HW240107   0.663   2.656   8.175 -1.0899  0.7094 -0.3910
 9550SOL     OW40108   4.220   0.829   7.626  0.7603 -0.3171 -0.2284
 9550SOL    HW140109   4.176   0.837   7.541 -1.1883 -4.7996  0.3383
 9550SOL    HW240110   4.143   0.800   7.674  1.8823  0.8007  2.2535
 9551SOL     OW40111   1.053   2.301  14.617 -0.2481  0.7009  0.1993
 9551SOL    HW140112   0.979   2.264  14.665 -0.0099 -0.6226 -0.4630
 9551SOL    HW240113   1.069   2.231  14.554 -0.6164 -0.9292  1.9151
 9552SOL     OW40114   2.380   0.273   5.230  0.5202 -0.2715 -0.0979
 9552SOL    HW140115   2.293   0.242   5.254  0.5741 -0.0528  0.3814
 9552SOL    HW240116   2.410   0.216   5.160 -1.5607  0.2340 -1.3837
 9553SOL     OW40117   1.057   3.494   2.161 -0.5757  0.4533 -0.0537
 9553SOL    HW140118   1.136   3.542   2.187 -0.2130 -0.7691  1.0830
 9553SOL    HW240119   0.995   3.562   2.188 -2.6184 -1.8513  1.0347
 9554SOL     OW40120   2.050   0.105   7.887 -0.3863 -0.0213 -0.3805
 9554SOL    HW140121   2.030   0.184   7.936  0.5469 -1.1110  1.7874
 9554SOL    HW240122   2.139   0.128   7.859 -1.1368  1.4191 -1.5762
 9555SOL     OW40123   4.402   2.422   3.016  0.3290  0.2384  0.5584
 9555SOL    HW140124   4.479   2.370   3.037 -1.4144 -1.5480  2.5981
 9555SOL    HW240125   4.327   2.367   3.041  0.1467 -0.0331 -0.6077
 9556SOL     OW40126   1.372   2.794   2.441 -0.1888 -0.1640  0.0383
 9556SOL    HW140127   1.386   2.719   2.498  0.3400 -0.1031 -0.0074
 9556SOL    HW240128   1.326   2.746   2.372 -1.7039  1.9732 -0.4539
 9557SOL     OW40129   4.289   1.655   2.877 -0.0053  0.4306 -1.0729
 9557SOL    HW140130   4.273   1.569   2.914 -0.5305  0.3958 -1.3886
 9557SOL    HW240131   4.378   1.639   2.845  0.6028  0.0143  0.7999
 9558SOL     OW40132   2.805   4.593   5.457  0.5758 -0.4516  1.3239
 9558SOL    HW140133   2.791   4.620   5.548 -1.2016  0.7359  0.7099
 9558SOL    HW240134   2.895   4.562   5.461  1.7612  2.9861  1.2550
 9559SOL     OW40135   1.064   1.600   1.977  0.3787  0.7942 -0.2963
 9559SOL    HW140136   1.041   1.653   2.053  1.9884 -0.5302  1.1251
 9559SOL    HW240137   0.982   1.589   1.930 -1.0204 -1.7166  2.6861
 9560SOL     OW40138   0.406   2.795  14.248 -0.0450  0.3522 -0.0849
 9560SOL    HW140139   0.417   2.722  14.309 -0.1144  0.3134 -0.1182
 9560SOL    HW240140   0.428   2.750  14.167  1.3330  0.7927  0.0546
 9561SOL     OW40141   1.365   1.249   4.823  0.9976 -0.4573 -0.0958
 9561SOL    HW140142   1.338   1.164   4.790  0.6522  0.0132 -1.0225
 9561SOL    HW240143   1.435   1.266   4.760  0.7421  1.6589  0.1921
 9562SOL     OW40144   3.945   0.657  11.447 -0.0733  0.2910 -0.7299
 9562SOL    HW140145   4.004   0.651  11.523 -0.1196 -0.4050 -0.7495
 9562SOL    HW240146   3.873   0.704  11.488 -0.1766  1.5307 -2.3361
 9563SOL     OW40147   0.048   1.401   8.201 -0.0898 -0.1360 -0.1883
 9563SOL    HW140148   0.007   1.458   8.267 -1.9444 -0.8326 -0.7275
 9563SOL    HW240149   4.722   1.431   8.127 -1.1389 -1.2644  0.1089
 9564SOL     OW40150   0.322   2.767  16.210  0.1234  0.1387 -0.0630
 9564SOL    HW140151   0.352   2.753  16.300  1.2890 -0.6238 -0.5737
 9564SOL    HW240152   0.229   2.782  16.228  0.1021 -0.7768  0.6028
 9565SOL     OW40153   3.999   3.090  16.662  0.3324 -0.3731  0.0220
 9565SOL    HW140154   3.980   3.038  16.583  0.4632  0.4262 -0.5408
 9565SOL    HW240155   4.054   3.031  16.713  0.1894 -0.4835  0.0464
   4.72701   4.72701  17.70894
