Membrane in water
40155
    1TCq1    O1    1   4.153   1.555  11.106 -0.2642 -0.0285  0.2401
    1TCq1    C1    2   4.191   1.450  11.183 -0.1203 -0.0919  0.1150
    1TCq1    O2    3   4.267   1.355  11.165 -0.0966 -0.3227 -0.7164
    1TCq1    C2    4   4.115   1.451  11.303 -0.0648 -0.0368  0.1831
    1TCq1    C3    5   4.090   1.571  11.364 -0.4169  0.1054 -0.2324
    1TCq1    C4    6   4.006   1.569  11.471 -0.2518  0.3624  0.3054
    1TCq1    C5    7   3.956   1.458  11.521  0.3689 -0.3240  0.0525
    1TCq1    C6    8   3.982   1.334  11.453 -0.8006 -0.0663 -0.4381
    1TCq1    C7    9   4.065   1.331  11.345 -0.7025  0.0182 -0.6608
    1TCq1    C8   10   3.937   1.211  11.520  0.0439 -0.4970  0.6861
    1TCq1    O4   11   3.848   1.236  11.598 -0.0029  0.2045 -0.2468
    1TCq1    C9   12   3.983   1.686  11.544  0.5769 -0.5041 -1.1745
    1TCq1    O5   13   3.917   1.680  11.652 -0.1251 -0.0220 -0.4663
    1TCq1    O6   14   4.010   1.793  11.481  0.5033  0.5421  0.5726
    1TCq1    H1   15   4.085   1.616  11.143  1.1052  2.4109 -1.2742
    1TCq1    H2   16   4.139   1.664  11.340 -2.0632  1.1552  0.4880
    1TCq1    H3   17   3.892   1.458  11.607  1.0216  0.4718  0.5306
    1TCq1    H4   18   4.087   1.240  11.290  0.0083  1.2932 -2.4688
    2MPD2     C   19   3.859   0.706  11.623 -0.3547  0.4085 -0.8199
    2MPD2    C1   20   3.817   0.823  11.684  0.1019 -0.3562  0.1206
    2MPD2    C2   21   3.857   0.944  11.632  0.4518 -0.1702  0.3219
    2MPD2    C3   22   3.938   0.960  11.522  0.1885  0.0141  0.7444
    2MPD2    C4   23   3.980   0.844  11.464 -0.1452 -0.3227 -0.7504
    2MPD2    C5   24   3.940   0.724  11.513  0.2170 -0.3715  0.1191
    2MPD2     H   25   3.836   1.036  11.686 -0.2848  1.1186 -2.1689
    2MPD2    H1   26   4.040   0.849  11.374 -3.4056 -1.0234 -2.9756
    2MPD2    H2   27   3.828   0.608  11.658  1.4746 -0.1032 -0.6691
    2MPD2    H3   28   3.978   0.639  11.458 -1.0510  1.3420 -3.4132
    2MPD2     N   29   3.985   1.089  11.470  0.1705 -0.4784 -0.5267
    2MPD2    H5   30   4.042   1.095  11.386  0.3097 -1.9024 -0.5421
    2MPD2    N1   31   3.736   0.817  11.802 -1.0234 -0.2752  1.1128
    2MPD2    H7   32   3.717   0.904  11.850  0.3246  0.1232  0.9214
    3TCq1    O1   33   2.903   1.721  10.114 -0.0654 -0.8319  0.3205
    3TCq1    C1   34   3.037   1.744  10.094 -0.2727 -0.6106  0.1111
    3TCq1    O2   35   3.085   1.711   9.989  0.0196 -0.7886  0.0868
    3TCq1    C2   36   3.088   1.850  10.181 -0.7551  0.3638  0.6209
    3TCq1    C3   37   3.176   1.926  10.124  0.2681  0.6525 -1.0412
    3TCq1    C4   38   3.204   2.044  10.182  0.0969 -0.3712 -0.4064
    3TCq1    C5   39   3.138   2.089  10.294 -0.1373  0.1044  0.6525
    3TCq1    C6   40   3.045   2.011  10.347  0.7098  0.6319 -0.1095
    3TCq1    C7   41   3.013   1.886  10.292 -0.0344  0.4743  0.5022
    3TCq1    C8   42   2.989   2.040  10.483  0.4379 -0.2555 -0.6016
    3TCq1    O4   43   2.934   1.945  10.541 -0.5123  0.2261  0.2170
    3TCq1    C9   44   3.283   2.147  10.107  0.1816  0.8158  0.7368
    3TCq1    O5   45   3.360   2.104  10.015  0.1311 -0.2287  0.0491
    3TCq1    O6   46   3.302   2.248  10.180 -0.4643 -0.3177  0.2654
    3TCq1    H1   47   2.867   1.763  10.195 -0.7185 -0.5439 -0.1187
    3TCq1    H2   48   3.223   1.891  10.033  1.1922  0.6857 -0.5773
    3TCq1    H3   49   3.164   2.185  10.336 -1.3521 -0.2772  2.2816
    3TCq1    H4   50   2.939   1.825  10.342  0.8724 -2.3829 -1.6793
    4MPD2     C   51   2.876   2.357  10.863 -0.0471 -0.6646  0.1173
    4MPD2    C1   52   2.960   2.430  10.776 -0.5597  0.2719 -0.1232
    4MPD2    C2   53   3.009   2.361  10.668 -0.2434  0.4602 -0.0882
    4MPD2    C3   54   2.984   2.229  10.643 -0.1518 -0.1811  0.2074
    4MPD2    C4   55   2.904   2.161  10.734  0.6778 -0.0467  0.0704
    4MPD2    C5   56   2.845   2.221  10.835 -0.1017 -0.0472  0.3871
    4MPD2     H   57   3.058   2.412  10.587  0.4237 -2.8125 -1.7599
    4MPD2    H1   58   2.886   2.055  10.720 -1.4416 -0.0703  2.9534
    4MPD2    H2   59   2.826   2.399  10.950  1.2487 -2.2265  1.6085
    4MPD2    H3   60   2.781   2.164  10.900 -0.6859  1.4505  1.1231
    4MPD2     N   61   3.030   2.164  10.531 -0.7263 -0.2425  0.5727
    4MPD2    H5   62   3.080   2.223  10.465  0.0198 -1.4230  0.0753
    4MPD2    N1   63   2.969   2.573  10.776 -0.1827 -0.3444  0.3190
    4MPD2    H7   64   3.033   2.616  10.710 -1.1114  0.0479 -0.3300
    5TCq1    O1   65   3.571   4.166  10.859  0.3742  0.2914 -0.2216
    5TCq1    C1   66   3.529   4.042  10.885  0.0559 -0.2639  0.0870
    5TCq1    O2   67   3.598   3.948  10.929  0.1540  0.9834 -0.1741
    5TCq1    C2   68   3.422   4.009  10.783 -0.2235 -0.3024  0.1018
    5TCq1    C3   69   3.307   4.084  10.756 -0.2078 -0.5658  0.0321
    5TCq1    C4   70   3.216   4.027  10.667  0.0526  0.5662  0.2137
    5TCq1    C5   71   3.246   3.909  10.601 -0.0309 -0.1693 -0.2400
    5TCq1    C6   72   3.358   3.842  10.634 -0.0828  1.0472 -0.4096
    5TCq1    C7   73   3.446   3.885  10.723  0.7901  0.0008  0.1775
    5TCq1    C8   74   3.417   3.734  10.560  0.1458  0.0165  0.3105
    5TCq1    O4   75   3.541   3.719  10.551  0.4646 -0.0373  0.3532
    5TCq1    C9   76   3.087   4.089  10.639  0.6252  0.6370  0.3801
    5TCq1    O5   77   3.048   4.163  10.733  0.5247 -0.0783 -0.8000
    5TCq1    O6   78   3.020   4.041  10.541 -0.1897 -0.0911  0.0336
    5TCq1    H1   79   3.522   4.203  10.782 -0.8847 -1.5975 -0.3160
    5TCq1    H2   80   3.286   4.174  10.812 -3.1321 -0.2154 -1.6426
    5TCq1    H3   81   3.178   3.868  10.528 -0.3799 -0.2357  0.1239
    5TCq1    H4   82   3.544   3.839  10.735  0.7207 -0.3857 -0.7378
    6MPD2     C   83   3.244   3.478  10.359 -0.3826 -0.4771 -0.4676
    6MPD2    C1   84   3.350   3.548  10.406  0.8976  0.2578  0.4869
    6MPD2    C2   85   3.476   3.506  10.363 -0.7883  0.1470  0.3307
    6MPD2    C3   86   3.495   3.412  10.260  0.8096 -0.0940 -0.1633
    6MPD2    C4   87   3.381   3.364  10.196  0.3703 -0.3819 -0.1478
    6MPD2    C5   88   3.257   3.393  10.257  0.3285 -0.0084 -0.1518
    6MPD2     H   89   3.560   3.522  10.430 -0.6423  2.1660 -0.3385
    6MPD2    H1   90   3.385   3.290  10.117 -1.7741  1.3517 -1.8795
    6MPD2    H2   91   3.145   3.505  10.393 -0.6016 -0.5296 -1.0689
    6MPD2    H3   92   3.167   3.367  10.203 -0.0927  1.1795 -0.0258
    6MPD2     N   93   3.622   3.374  10.217  0.0044 -0.4042  0.1968
    6MPD2    H5   94   3.696   3.400  10.283  0.1562  1.0598 -0.5464
    6MPD2    N1   95   3.323   3.646  10.505  0.4040  0.1974  0.2947
    6MPD2    H7   96   3.224   3.662  10.525  0.2870  0.8270 -0.8235
    7TCq1    O1   97   0.809   3.529  12.610  1.0224 -0.2171 -0.5869
    7TCq1    C1   98   0.871   3.492  12.725  0.6201 -0.2466 -0.2518
    7TCq1    O2   99   0.952   3.560  12.787  0.4149  0.6997  0.2939
    7TCq1    C2  100   0.822   3.357  12.768 -0.0322 -0.1647  0.6821
    7TCq1    C3  101   0.777   3.254  12.679  0.2739 -0.1572 -1.5552
    7TCq1    C4  102   0.770   3.121  12.725 -0.1027 -0.4618 -0.0200
    7TCq1    C5  103   0.787   3.100  12.863  0.1155 -0.5290  0.1172
    7TCq1    C6  104   0.837   3.200  12.944 -0.0224  0.0082  0.3663
    7TCq1    C7  105   0.849   3.331  12.899  0.0748 -0.5649 -0.7793
    7TCq1    C8  106   0.922   3.149  13.050 -0.4017  0.7709  0.2323
    7TCq1    O4  107   0.954   3.032  13.040  0.0919  0.1783 -0.1325
    7TCq1    C9  108   0.729   3.017  12.637  0.5720 -0.4791  0.9627
    7TCq1    O5  109   0.751   3.037  12.517  0.4115  0.4589  0.4690
    7TCq1    O6  110   0.687   2.909  12.690 -0.2071 -0.0905 -0.0897
    7TCq1    H1  111   0.738   3.473  12.573 -0.3296 -0.6715  2.7068
    7TCq1    H2  112   0.769   3.267  12.572 -1.9833 -0.6185 -1.4342
    7TCq1    H3  113   0.772   3.001  12.903  1.3111 -1.8497 -2.6715
    7TCq1    H4  114   0.876   3.405  12.974 -3.8340  0.3788 -0.3210
    8MPD2     C  115   1.145   3.109  13.506  0.1688  0.3011 -0.2875
    8MPD2    C1  116   1.146   3.024  13.397 -0.9122 -0.6050 -0.5121
    8MPD2    C2  117   1.087   3.071  13.283  0.3709 -0.0092 -0.6279
    8MPD2    C3  118   1.023   3.196  13.268  0.3534 -0.1888  0.0521
    8MPD2    C4  119   1.006   3.265  13.387  0.6177  0.4613 -0.2843
    8MPD2    C5  120   1.072   3.223  13.503  0.2443 -0.1853 -0.1959
    8MPD2     H  121   1.108   3.011  13.196 -0.5473 -2.3390  0.7638
    8MPD2    H1  122   0.940   3.351  13.384 -0.2585 -0.1846  0.5526
    8MPD2    H2  123   1.183   3.078  13.603  0.5796 -0.4572 -0.6886
    8MPD2    H3  124   1.074   3.292  13.586 -1.7998 -1.7593  1.1498
    8MPD2     N  125   0.949   3.232  13.158 -0.2057  0.0334  0.1599
    8MPD2    H5  126   0.888   3.313  13.156 -0.9096 -0.4452  2.0297
    8MPD2    N1  127   1.197   2.885  13.408  0.6197  0.6349  0.2291
    8MPD2    H7  128   1.241   2.864  13.497 -0.3596 -3.5827 -0.3053
    9TCq1    O1  129   3.570   2.226  10.742 -0.1743 -0.1470 -0.4968
    9TCq1    C1  130   3.598   2.147  10.846 -0.2818 -0.3849 -0.1788
    9TCq1    O2  131   3.567   2.181  10.959  0.1874 -0.2900  0.0214
    9TCq1    C2  132   3.606   2.013  10.800  0.5641 -0.6640  0.8359
    9TCq1    C3  133   3.687   1.976  10.694  0.5265  0.4577  0.4207
    9TCq1    C4  134   3.692   1.847  10.650 -0.2448 -1.2415  1.0293
    9TCq1    C5  135   3.615   1.757  10.710  0.6350  0.3221  0.3133
    9TCq1    C6  136   3.538   1.803  10.813  0.5542 -0.2316 -0.2377
    9TCq1    C7  137   3.541   1.925  10.874  0.1336  0.2260  0.3517
    9TCq1    C8  138   3.454   1.703  10.877 -0.2634  0.1933 -0.2849
    9TCq1    O4  139   3.412   1.606  10.811 -0.0271 -0.0880 -0.0120
    9TCq1    C9  140   3.757   1.805  10.526  0.2671  0.1111  0.0118
    9TCq1    O5  141   3.839   1.880  10.466  0.3702 -0.0292  0.3422
    9TCq1    O6  142   3.702   1.703  10.474 -0.1275  0.3951 -0.3474
    9TCq1    H1  143   3.585   2.198  10.649  1.0109  1.7983 -0.8834
    9TCq1    H2  144   3.736   2.055  10.638 -1.0122 -1.3082 -3.4125
    9TCq1    H3  145   3.601   1.655  10.676 -0.8508  0.2931  1.0331
    9TCq1    H4  146   3.460   1.954  10.940 -0.6286 -2.7755  0.7430
   10MPD2     C  147   3.266   1.549  11.050  0.4486 -0.2589  0.4277
   10MPD2    C1  148   3.346   1.654  11.093 -0.3178  0.6876  0.9988
   10MPD2    C2  149   3.332   1.697  11.219  0.2670 -0.9169  0.1270
   10MPD2    C3  150   3.243   1.639  11.309  0.0499  0.1987  0.2569
   10MPD2    C4  151   3.163   1.535  11.267 -0.1471 -0.3235 -0.1323
   10MPD2    C5  152   3.171   1.504  11.140 -0.7088  0.4042  0.0045
   10MPD2     H  153   3.392   1.781  11.253 -0.6340  0.4746 -1.7505
   10MPD2    H1  154   3.083   1.491  11.326 -0.7555 -0.8535 -1.3475
   10MPD2    H2  155   3.267   1.498  10.954 -0.6614  0.7067 -0.0984
   10MPD2    H3  156   3.109   1.421  11.107  3.2003 -2.5050 -0.0722
   10MPD2     N  157   3.217   1.683  11.441 -0.0392  0.8694 -0.0256
   10MPD2    H5  158   3.135   1.650  11.492 -1.3527  1.1513 -1.9592
   10MPD2    N1  159   3.432   1.731  11.011  0.2363  0.8711  0.0169
   10MPD2    H7  160   3.483   1.816  11.034 -0.4036  1.2869 -0.0933
   11TCq1    O1  161   0.086   1.893  14.477  0.3596  0.1900 -0.0316
   11TCq1    C1  162   4.714   1.817  14.431 -0.0082  0.1296 -0.6376
   11TCq1    O2  163   4.664   1.729  14.502 -0.1566  0.9649 -0.1085
   11TCq1    C2  164   4.633   1.899  14.345 -0.2695  0.4147  0.4175
   11TCq1    C3  165   4.606   2.032  14.384 -0.0867  0.3129  0.2521
   11TCq1    C4  166   4.490   2.098  14.347 -0.4183 -0.4850  0.2829
   11TCq1    C5  167   4.398   2.028  14.269 -0.0096  0.6610 -0.3426
   11TCq1    C6  168   4.422   1.902  14.230  0.1247  0.0034  0.4492
   11TCq1    C7  169   4.535   1.836  14.270  0.0164 -0.5632 -0.1483
   11TCq1    C8  170   4.324   1.835  14.155  0.4208  0.3833 -0.4795
   11TCq1    O4  171   4.312   1.713  14.177  0.0962 -0.1264 -0.3251
   11TCq1    C9  172   4.461   2.235  14.369 -0.6959  0.5377 -0.2090
   11TCq1    O5  173   4.348   2.279  14.354 -0.1141 -0.0864 -0.4718
   11TCq1    O6  174   4.557   2.315  14.396 -0.5241 -0.3260 -0.6651
   11TCq1    H1  175   0.107   1.960  14.408 -1.3971  0.2879 -0.4520
   11TCq1    H2  176   4.674   2.098  14.436 -0.0826 -0.9190  1.8242
   11TCq1    H3  177   4.310   2.077  14.230 -0.3955 -0.1731 -0.5169
   11TCq1    H4  178   4.528   1.728  14.260 -1.4640 -0.2322 -2.6919
   12MPD2     C  179   4.116   1.955  13.877 -0.6418  0.4691 -0.1174
   12MPD2    C1  180   4.175   1.861  13.953  0.3636 -0.2343  0.2200
   12MPD2    C2  181   4.153   1.728  13.923 -0.1011  0.0366  0.3705
   12MPD2    C3  182   4.061   1.697  13.821 -0.1144 -0.1666  0.4143
   12MPD2    C4  183   3.997   1.795  13.754 -0.0336 -0.0298  0.1735
   12MPD2    C5  184   4.018   1.927  13.785 -0.0332 -0.3808  0.8582
   12MPD2     H  185   4.198   1.649  13.982  1.7405  2.0453  1.6724
   12MPD2    H1  186   3.917   1.779  13.683  0.0276 -1.8915  0.5288
   12MPD2    H2  187   4.141   2.057  13.901  0.5808  0.2318 -0.3843
   12MPD2    H3  188   3.959   2.001  13.734 -1.6630 -2.7573 -0.7179
   12MPD2     N  189   4.012   1.569  13.788 -0.1707  0.1465 -0.3278
   12MPD2    H5  190   3.937   1.561  13.720 -0.7636 -1.1974  0.4815
   12MPD2    N1  191   4.256   1.909  14.060  0.3057  0.0051 -1.0196
   12MPD2    H7  192   4.274   2.009  14.058 -0.8677  0.2230 -0.4384
   13TCq1    O1  193   3.471   1.606  10.356 -0.1368 -0.4834 -0.3349
   13TCq1    C1  194   3.350   1.659  10.370  0.1323 -0.1949 -0.3351
   13TCq1    O2  195   3.245   1.594  10.386  0.2014 -0.4158 -0.4670
   13TCq1    C2  196   3.360   1.786  10.434 -0.2637 -0.6050  0.2235
   13TCq1    C3  197   3.449   1.879  10.384  0.4625  0.1371 -0.3501
   13TCq1    C4  198   3.446   2.002  10.444 -0.7395 -0.1341 -0.7260
   13TCq1    C5  199   3.370   2.035  10.558  0.3443  0.7949 -0.9463
   13TCq1    C6  200   3.291   1.929  10.608 -0.2310  0.1700  0.1399
   13TCq1    C7  201   3.282   1.814  10.544  0.1809 -0.2727 -0.6127
   13TCq1    C8  202   3.238   1.959  10.739  0.8614  0.1581  0.2613
   13TCq1    O4  203   3.250   2.073  10.783 -0.0620 -0.1688 -0.4559
   13TCq1    C9  204   3.534   2.105  10.394  0.7146 -0.1559  0.4217
   13TCq1    O5  205   3.605   2.070  10.297  0.4729 -0.3512 -0.0171
   13TCq1    O6  206   3.559   2.196  10.481 -0.1536 -0.0573 -0.2608
   13TCq1    H1  207   3.545   1.665  10.384  0.3763 -1.4893  0.4075
   13TCq1    H2  208   3.513   1.856  10.300 -0.0020 -1.4237 -0.2771
   13TCq1    H3  209   3.381   2.133  10.603 -0.5074  1.3288 -1.9336
   13TCq1    H4  210   3.215   1.735  10.574 -1.2088  0.9214 -0.5609
   14MPD2     C  211   3.021   1.738  10.949 -0.4630 -0.0236 -0.1886
   14MPD2    C1  212   3.090   1.854  10.913  0.5289 -0.2188  0.4530
   14MPD2    C2  213   3.070   1.973  10.991 -0.3800 -0.0412 -0.0225
   14MPD2    C3  214   2.988   1.973  11.100 -0.1943  0.0163 -0.6781
   14MPD2    C4  215   2.923   1.856  11.137  0.1664  0.3568  0.3356
   14MPD2    C5  216   2.938   1.746  11.054  0.2260  0.4211 -0.4224
   14MPD2     H  217   3.116   2.069  10.972 -1.9279  0.2980 -2.0725
   14MPD2    H1  218   2.866   1.846  11.229 -1.3502 -1.2355 -0.7810
   14MPD2    H2  219   3.035   1.649  10.890 -1.2548 -1.4301  1.7200
   14MPD2    H3  220   2.895   1.654  11.092  0.9118  1.0263  1.8405
   14MPD2     N  221   2.993   2.086  11.187 -0.1512 -0.2390  0.7355
   14MPD2    H5  222   3.053   2.159  11.149 -1.6001  0.2164 -0.6327
   14MPD2    N1  223   3.171   1.854  10.792  0.4908  0.3786  0.2897
   14MPD2    H7  224   3.177   1.774  10.731 -1.7688 -1.2005  2.1470
   15TCq1    O1  225   1.046   1.055   1.867  0.0143 -0.6629  0.3370
   15TCq1    C1  226   1.128   1.029   1.762  0.9277 -0.1308 -1.0692
   15TCq1    O2  227   1.101   0.957   1.665  0.3866 -0.0664 -0.4525
   15TCq1    C2  228   1.256   1.019   1.827  0.2341 -0.1469 -0.4429
   15TCq1    C3  229   1.295   1.107   1.928 -0.2043  0.1708  0.5726
   15TCq1    C4  230   1.413   1.082   1.983 -0.3940 -1.4032  0.4339
   15TCq1    C5  231   1.504   0.992   1.933  0.1808  0.2293  0.1166
   15TCq1    C6  232   1.464   0.909   1.835 -0.0661  0.3727  0.2761
   15TCq1    C7  233   1.340   0.918   1.789 -1.0370 -0.6403 -0.1131
   15TCq1    C8  234   1.570   0.853   1.748 -0.6842 -0.6039  0.4560
   15TCq1    O4  235   1.676   0.829   1.800 -0.1275 -0.3644 -0.3596
   15TCq1    C9  236   1.460   1.162   2.090  0.2702  0.6814  0.8704
   15TCq1    O5  237   1.541   1.106   2.175  0.0876 -0.5930  0.0720
   15TCq1    O6  238   1.392   1.264   2.119 -0.4339  0.2131  0.9939
   15TCq1    H1  239   1.096   1.060   1.951 -0.3817 -1.3677  0.6223
   15TCq1    H2  240   1.233   1.188   1.965 -1.4248 -1.2326  1.6081
   15TCq1    H3  241   1.606   0.988   1.971  1.1088  1.8539 -2.1541
   15TCq1    H4  242   1.301   0.853   1.711  2.4566 -3.3815  0.4388
   16MPD2     C  243   1.556   0.787   1.392 -0.7672 -0.7582  1.1527
   16MPD2    C1  244   1.611   0.777   1.513 -0.8493 -0.2073  0.4010
   16MPD2    C2  245   1.736   0.726   1.526 -0.1023  0.2815  1.1034
   16MPD2    C3  246   1.799   0.665   1.422  0.0382 -0.0635  0.3941
   16MPD2    C4  247   1.744   0.665   1.298 -0.0931  0.0743  0.5238
   16MPD2    C5  248   1.624   0.737   1.286 -0.4996  0.1816  0.5014
   16MPD2     H  249   1.783   0.717   1.624 -0.7949 -1.2473  1.2928
   16MPD2    H1  250   1.787   0.627   1.206 -0.1036 -3.2210  1.8847
   16MPD2    H2  251   1.465   0.843   1.375 -0.6870 -0.9249  0.1558
   16MPD2    H3  252   1.576   0.753   1.190 -2.3011 -1.7072  1.0761
   16MPD2     N  253   1.930   0.611   1.454  0.1949 -0.8349 -0.0229
   16MPD2    H5  254   1.975   0.639   1.540  0.2880  2.1319 -1.0593
   16MPD2    N1  255   1.531   0.827   1.616  0.0339  0.0095 -0.2683
   16MPD2    H7  256   1.447   0.879   1.591 -0.0905  0.5566  1.2970
   17TCq1    O1  257   3.473   1.450  11.496 -0.1479  0.0580  0.0962
   17TCq1    C1  258   3.465   1.379  11.376  0.0581  0.1528 -0.3558
   17TCq1    O2  259   3.392   1.282  11.357 -0.1463 -0.5242  0.8949
   17TCq1    C2  260   3.581   1.412  11.293 -0.0503 -0.3040 -0.3867
   17TCq1    C3  261   3.628   1.539  11.290 -0.1182 -0.0293 -0.0964
   17TCq1    C4  262   3.742   1.561  11.210 -1.0045  0.1638  0.1280
   17TCq1    C5  263   3.796   1.455  11.142  0.3738  0.6293 -0.5430
   17TCq1    C6  264   3.748   1.327  11.153 -0.0884  0.0363 -0.6630
   17TCq1    C7  265   3.636   1.304  11.227  0.3908  0.0861 -0.7263
   17TCq1    C8  266   3.825   1.209  11.112  0.7114 -0.5607  0.1454
   17TCq1    O4  267   3.787   1.106  11.165 -0.0691 -0.1288  0.1068
   17TCq1    C9  268   3.809   1.693  11.214 -0.4824 -0.0024 -0.1872
   17TCq1    O5  269   3.927   1.698  11.167 -0.0912  0.3223 -0.4791
   17TCq1    O6  270   3.751   1.789  11.278 -0.4528 -0.6778  0.2124
   17TCq1    H1  271   3.552   1.508  11.498  0.2417 -0.4661  0.0919
   17TCq1    H2  272   3.575   1.620  11.339  1.9590  1.9621 -1.1515
   17TCq1    H3  273   3.892   1.478  11.097  0.2176  1.3688 -0.4895
   17TCq1    H4  274   3.593   1.205  11.220  3.1141 -0.9212 -3.1572
   18MPD2     C  275   4.040   1.017  11.044  0.3238  0.1641 -0.4527
   18MPD2    C1  276   4.026   1.144  10.990 -0.2037 -0.1418  0.1861
   18MPD2    C2  277   4.107   1.194  10.891 -0.5837 -0.7798 -0.3219
   18MPD2    C3  278   4.212   1.116  10.845  0.6143 -0.3903 -0.2707
   18MPD2    C4  279   4.234   0.995  10.902  0.0516 -0.3509  0.3323
   18MPD2    C5  280   4.144   0.946  10.996  1.0847  0.2441 -0.3257
   18MPD2     H  281   4.069   1.287  10.849 -1.3400 -0.0555  1.9357
   18MPD2    H1  282   4.317   0.932  10.873  0.2424 -0.5229  1.2680
   18MPD2    H2  283   3.972   0.965  11.110  0.5526  1.4770  0.8165
   18MPD2    H3  284   4.157   0.845  11.033 -0.4556 -0.0805 -0.6749
   18MPD2     N  285   4.299   1.171  10.745  0.0409 -0.1679  0.2816
   18MPD2    H5  286   4.379   1.113  10.724  1.1253  2.1084 -1.9221
   18MPD2    N1  287   3.930   1.236  11.031 -0.0219  0.0423 -0.0586
   18MPD2    H7  288   3.933   1.330  10.994 -0.5603  0.1206  0.0983
   19TMC2    C1  289   0.229   1.609  13.772 -0.7120 -0.1940 -0.4070
   19TMC2    C2  290   0.165   1.633  13.651 -0.2808  0.0629 -0.0712
   19TMC2    C3  291   0.049   1.563  13.617 -0.2990 -0.5241 -0.0013
   19TMC2    C4  292   0.192   1.504  13.839 -0.3349 -0.0324 -0.3625
   19TMC2    C5  293   0.085   1.430  13.795  0.3144 -0.0065 -0.6118
   19TMC2    C6  294   0.020   1.450  13.681  0.0230  0.1953  0.1491
   19TMC2     C  295   0.349   1.695  13.800 -0.4692  0.2076 -0.2633
   19TMC2     O  296   0.380   1.786  13.723 -0.2469 -0.1255 -0.2835
   19TMC2     H  297   0.206   1.711  13.588  0.5950 -1.8179 -1.8595
   19TMC2    H1  298   0.232   1.493  13.940 -0.2873 -0.9939 -0.4874
   19TMC2    H2  299   4.674   1.382  13.629 -0.0466 -0.7844  1.5155
   19TMC2    C7  300   0.051   1.299  13.864 -0.5890 -0.3232 -0.0889
   19TMC2    C8  301   4.698   1.586  13.488 -0.5544  0.4710 -0.3308
   19TMC2    O1  302   4.698   1.222  13.798 -0.0384  0.2347 -0.3663
   19TMC2    O2  303   4.693   1.496  13.408 -0.0852 -0.1643 -0.6548
   19TMC2    O5  304   4.674   1.712  13.466  0.4911  0.4182 -0.0761
   19TMC2    H5  305   4.678   1.749  13.557  2.9972 -0.1159  0.0329
   20MPD2     C  306   0.514   1.874  13.965 -1.0632 -0.4537 -0.2365
   20MPD2    C1  307   0.517   1.735  13.971 -0.6020  0.0630 -0.4930
   20MPD2    C2  308   0.604   1.673  14.058  0.3135  0.1066  0.2522
   20MPD2    C3  309   0.701   1.756  14.127  0.3975  0.2028 -0.5927
   20MPD2    C4  310   0.698   1.890  14.107  0.8098 -0.2532 -0.2023
   20MPD2    C5  311   0.606   1.945  14.029  0.8944 -0.7935 -0.0522
   20MPD2     H  312   0.608   1.565  14.067  1.7643  0.2295  1.1340
   20MPD2    H1  313   0.770   1.958  14.151  0.3521  0.5549 -0.6967
   20MPD2    H2  314   0.445   1.931  13.904  0.7119 -0.3694 -2.1480
   20MPD2    H3  315   0.619   2.047  13.996  0.2622  0.3879  3.3098
   20MPD2     N  316   0.801   1.710  14.213  0.0911  0.0237 -0.5374
   20MPD2    H5  317   0.869   1.780  14.242  0.4764 -0.5501 -0.0325
   20MPD2    N1  318   0.419   1.654  13.911  0.2535  0.6289 -0.1325
   20MPD2    H7  319   0.396   1.565  13.955  1.1686 -0.3501 -1.6430
   21MPD2     C  320   2.815   2.214  14.019 -0.0991 -0.2513  0.2476
   21MPD2    C1  321   2.898   2.114  14.056  0.0360 -0.0375 -0.2176
   21MPD2    C2  322   2.865   2.033  14.161  0.3028  0.3118  0.8755
   21MPD2    C3  323   2.749   2.069  14.240  0.4176  0.5036 -0.2155
   21MPD2    C4  324   2.687   2.183  14.206  0.3581 -0.3999 -0.1921
   21MPD2    C5  325   2.718   2.259  14.100 -0.0964 -0.5973  0.8365
   21MPD2     H  326   2.925   1.948  14.190  2.7178  1.6415 -0.2675
   21MPD2    H1  327   2.597   2.215  14.258  0.0272 -0.3046 -0.8183
   21MPD2    H2  328   2.818   2.266  13.924 -2.1315 -1.3695 -0.4173
   21MPD2    H3  329   2.665   2.353  14.085 -0.5740 -0.6631  2.0995
   21MPD2     N  330   2.721   2.011  14.366  0.0014  0.0687 -0.8301
   21MPD2    H5  331   2.671   2.067  14.434 -0.7777 -1.4303 -0.1627
   21MPD2    N1  332   3.008   2.077  13.977 -0.6821  0.0680  0.7355
   21MPD2    H7  333   3.047   1.984  13.987  1.0463  0.5374 -1.7340
   22TCq2    C1  334   2.766   1.882  14.401 -0.3712  0.2019  0.6531
   22TCq2    O2  335   2.850   1.812  14.351 -0.2052 -0.0072  0.0591
   22TCq2    C2  336   2.721   1.848  14.538  0.0664  0.7762  1.2113
   22TCq2    C3  337   2.791   1.744  14.596  0.1018  0.1318 -0.4013
   22TCq2    C4  338   2.785   1.723  14.729 -0.5739  0.4660  0.5180
   22TCq2    C5  339   2.712   1.805  14.811 -0.5170 -0.8061  0.1131
   22TCq2    C6  340   2.652   1.916  14.756  0.0022  0.8932 -0.3118
   22TCq2    C7  341   2.664   1.939  14.621  0.5547  0.9052 -0.3504
   22TCq2    C8  342   2.584   2.013  14.846  0.9420 -0.4159 -0.1522
   22TCq2    O4  343   2.587   1.981  14.967  0.3999 -0.3763  0.1915
   22TCq2    C9  344   2.852   1.617  14.794 -0.0173  0.6771  0.2751
   22TCq2    O5  345   2.928   1.552  14.711 -0.1852 -0.4341  0.7443
   22TCq2    O6  346   2.817   1.583  14.910  0.2967  0.7191 -0.2582
   22TCq2    H2  347   2.860   1.677  14.545  0.4780  1.8671 -2.1733
   22TCq2    H3  348   2.719   1.796  14.919  0.2899 -1.3605  0.0084
   22TCq2    H4  349   2.614   2.027  14.584 -1.6922 -0.7403 -1.2554
   23MPD2     C  350   4.423   3.496  14.393 -0.9477  0.0483  0.0763
   23MPD2    C1  351   4.359   3.397  14.469  0.0111  0.0826  0.0276
   23MPD2    C2  352   4.244   3.332  14.424 -0.0326  0.6678 -0.7262
   23MPD2    C3  353   4.183   3.386  14.314  0.1869 -0.0265  0.5312
   23MPD2    C4  354   4.241   3.491  14.244 -0.0448 -0.3841  0.3476
   23MPD2    C5  355   4.363   3.542  14.280 -0.0250  0.8899 -0.5043
   23MPD2     H  356   4.193   3.256  14.482  0.4654  0.9675  0.1120
   23MPD2    H1  357   4.184   3.533  14.162  0.9939 -0.6590 -0.5076
   23MPD2    H2  358   4.506   3.555  14.431 -0.0830 -1.4758  0.5655
   23MPD2    H3  359   4.411   3.620  14.222 -0.0289  1.8066  0.7134
   23MPD2     N  360   4.067   3.329  14.254  0.1695  0.4793  0.4709
   23MPD2    H5  361   4.038   3.363  14.163 -1.6386  0.3803  1.0078
   23MPD2    N1  362   4.395   3.360  14.604 -0.3989 -0.0672 -0.2717
   23MPD2    H7  363   4.348   3.280  14.646 -0.1328  0.9345  1.9504
   24TCq2    C1  364   3.990   3.231  14.317  1.1118  0.8759 -0.1159
   24TCq2    O2  365   4.002   3.185  14.431 -0.0932 -0.3361  1.0535
   24TCq2    C2  366   3.868   3.196  14.246  0.3079  0.4187  0.5815
   24TCq2    C3  367   3.810   3.290  14.165 -0.5895 -0.0071  0.0151
   24TCq2    C4  368   3.684   3.265  14.112  0.0819 -1.0925 -0.4807
   24TCq2    C5  369   3.622   3.151  14.135 -0.5605 -0.5548 -0.2322
   24TCq2    C6  370   3.684   3.062  14.220 -0.6830 -0.3495  0.3180
   24TCq2    C7  371   3.810   3.078  14.275 -0.1659  0.8009  0.5091
   24TCq2    C8  372   3.594   2.973  14.293 -0.3582 -0.4229 -0.3041
   24TCq2    O4  373   3.646   2.869  14.335  0.1691  0.0181  0.3862
   24TCq2    C9  374   3.622   3.370  14.027 -0.4056 -0.1314  0.7451
   24TCq2    O5  375   3.699   3.465  13.990 -0.0766  0.2186 -0.0581
   24TCq2    O6  376   3.510   3.335  13.984 -0.4933 -0.0575  0.0140
   24TCq2    H2  377   3.865   3.380  14.144  0.7734 -1.5501 -3.0140
   24TCq2    H3  378   3.527   3.128  14.089 -0.1303  0.6220 -1.7455
   24TCq2    H4  379   3.865   3.002  14.330 -1.6606  0.4254  1.5151
   25TMC2    C1  380   3.664   0.339  11.202 -0.3941  0.2208 -0.3237
   25TMC2    C2  381   3.769   0.412  11.157 -0.0325  0.0026  0.3773
   25TMC2    C3  382   3.777   0.535  11.202  0.1784 -0.6275 -0.5171
   25TMC2    C4  383   3.578   0.387  11.301  0.4279 -0.9627 -0.1817
   25TMC2    C5  384   3.613   0.509  11.361 -0.3234 -0.2790 -0.4798
   25TMC2    C6  385   3.705   0.591  11.302  0.4773  0.5614 -0.2074
   25TMC2     C  386   3.649   0.211  11.136 -0.1938  0.0837  0.4567
   25TMC2     O  387   3.752   0.168  11.086  0.1487 -0.1175 -0.3675
   25TMC2     H  388   3.831   0.373  11.077 -2.6538 -0.6452 -1.3472
   25TMC2    H1  389   3.496   0.332  11.346  1.9193 -1.3677  2.0320
   25TMC2    H2  390   3.735   0.685  11.346  0.0814 -0.3859  2.0549
   25TMC2    C7  391   3.549   0.547  11.491  0.5814 -0.2652 -0.3172
   25TMC2    C8  392   3.884   0.616  11.146 -0.3709  0.4548 -0.9808
   25TMC2    O1  393   3.505   0.446  11.549 -0.6175  0.3991 -0.1946
   25TMC2    O2  394   3.985   0.559  11.106 -0.1586 -0.3297 -0.5288
   25TMC2    O5  395   3.830   0.727  11.097  0.2671 -0.2459 -0.0540
   25TMC2    H5  396   3.741   0.758  11.124 -0.3748 -0.3232 -2.1059
   26MPD2     C  397   3.386   4.490  11.043 -0.6363  0.1423  0.6326
   26MPD2    C1  398   3.295   4.592  11.068  0.2570 -0.1610  0.1796
   26MPD2    C2  399   3.342   4.718  11.106  0.1968  0.6102 -0.7264
   26MPD2    C3  400   3.480   0.023  11.113  1.1001  0.2749  0.2125
   26MPD2    C4  401   3.564   4.635  11.086 -0.0345 -0.0530  0.3643
   26MPD2    C5  402   3.518   4.510  11.066 -0.0745  0.0083 -0.0326
   26MPD2     H  403   3.265   0.069  11.130 -0.6143  0.3651 -2.6162
   26MPD2    H1  404   3.671   4.644  11.102  0.4972 -3.2369 -1.6101
   26MPD2    H2  405   3.358   4.389  11.016 -0.2697  0.6158 -1.5706
   26MPD2    H3  406   3.585   4.426  11.053  2.4281  2.4105 -2.5087
   26MPD2     N  407   3.521   0.154  11.150  0.0207 -0.4135 -0.4409
   26MPD2    H5  408   3.449   0.224  11.169  1.8791  1.5397 -0.6158
   26MPD2    N1  409   3.160   4.573  11.032 -0.5573 -0.2908  0.1223
   26MPD2    H7  410   3.130   4.480  11.006 -0.7012 -0.3600  0.5303
   27TMC2    C1  411   1.771   2.538  11.822  0.9839 -0.4186 -0.1030
   27TMC2    C2  412   1.895   2.495  11.785  0.5269  0.3098  0.7035
   27TMC2    C3  413   1.937   2.541  11.666 -0.3729 -0.2317  0.3760
   27TMC2    C4  414   1.706   2.642  11.752  0.4458 -0.0716 -0.3054
   27TMC2    C5  415   1.767   2.698  11.647  0.2896  0.3650  0.1380
   27TMC2    C6  416   1.886   2.640  11.596 -0.5120  0.6667 -0.0728
   27TMC2     C  417   1.721   2.527  11.960 -0.3249 -0.7378 -0.0905
   27TMC2     O  418   1.642   2.615  11.993  0.0671 -0.2494  0.2270
   27TMC2     H  419   1.951   2.421  11.842 -0.4081  1.2378  2.8278
   27TMC2    H1  420   1.605   2.669  11.782 -0.1822 -1.7040 -0.9960
   27TMC2    H2  421   1.938   2.685  11.512  0.6126  0.0390  0.3011
   27TMC2    C7  422   1.775   2.842  11.654 -0.3043 -0.0588 -0.1113
   27TMC2    C8  423   2.046   2.463  11.613 -0.8876 -0.5276  0.0226
   27TMC2    O1  424   1.840   2.905  11.574  0.4151  0.5958 -0.5128
   27TMC2    O2  425   2.109   2.388  11.685 -0.7600 -0.3368 -0.3906
   27TMC2    O5  426   2.017   2.451  11.480 -0.1943 -0.2494  0.5109
   27TMC2    H5  427   1.935   2.492  11.445  0.5663  1.9147  1.2497
   28MPD2     C  428   1.693   2.293  12.420 -0.3727 -0.3749 -0.4067
   28MPD2    C1  429   1.636   2.411  12.382 -0.1105  0.4436  0.2653
   28MPD2    C2  430   1.654   2.458  12.246  0.6524 -0.0659  0.4348
   28MPD2    C3  431   1.737   2.380  12.163 -0.3770 -0.2677 -0.9642
   28MPD2    C4  432   1.785   2.260  12.204  0.9060 -0.8401 -0.4396
   28MPD2    C5  433   1.776   2.230  12.336 -0.7959  0.0488 -0.4890
   28MPD2     H  434   1.614   2.556  12.222 -0.3921 -0.0299  2.2955
   28MPD2    H1  435   1.844   2.195  12.140  0.8857 -0.4051 -0.9022
   28MPD2    H2  436   1.689   2.260  12.523  0.4143 -0.8379 -0.5314
   28MPD2    H3  437   1.818   2.135  12.368 -1.4451 -0.2470 -0.5081
   28MPD2     N  438   1.771   2.424  12.034 -0.2401  0.2569  0.1073
   28MPD2    H5  439   1.839   2.361  11.992  0.1564 -1.2763  3.0206
   28MPD2    N1  440   1.562   2.475  12.486 -0.0422  0.6566  0.4956
   28MPD2    H7  441   1.566   2.427  12.575 -1.7725 -0.4868 -0.0486
   29MPD2     C  442   1.323   0.118  14.010  0.4196 -0.2905 -0.1973
   29MPD2    C1  443   1.385   0.034  14.100  0.1132  0.1709 -0.9586
   29MPD2    C2  444   1.395   0.083  14.232  0.0227  0.1938  0.7171
   29MPD2    C3  445   1.350   0.204  14.272  0.0605 -0.4685 -0.1055
   29MPD2    C4  446   1.290   0.289  14.181  0.5246 -0.1004 -0.0183
   29MPD2    C5  447   1.283   0.246  14.047  0.7757 -0.3204 -0.1837
   29MPD2     H  448   1.431   0.012  14.306  2.5371 -0.2920 -0.9635
   29MPD2    H1  449   1.268   0.393  14.201  0.5916  0.1193 -1.1143
   29MPD2    H2  450   1.296   0.092  13.909  1.5122  2.1735 -1.1171
   29MPD2    H3  451   1.244   0.314  13.971 -0.9546 -0.5586  0.5038
   29MPD2     N  452   1.374   0.253  14.402 -0.4655 -0.0161 -0.2713
   29MPD2    H5  453   1.368   0.353  14.418  0.5581 -0.0157  0.0936
   29MPD2    N1  454   1.416   4.618  14.074  0.3306  0.3450  0.0141
   29MPD2    H7  455   1.465   4.570  14.149  3.6343  0.0079 -2.3476
   30TCq2    C1  456   1.397   0.178  14.515 -0.1417  0.1381  0.4758
   30TCq2    O2  457   1.384   0.055  14.530 -0.0527 -0.9189 -0.4075
   30TCq2    C2  458   1.427   0.256  14.630  0.0613  0.2142 -0.9129
   30TCq2    C3  459   1.393   0.211  14.760 -0.3866  0.2347  0.3872
   30TCq2    C4  460   1.428   0.297  14.866  0.5662  0.1410 -0.1982
   30TCq2    C5  461   1.497   0.414  14.848 -0.3407  0.4897 -0.1339
   30TCq2    C6  462   1.541   0.439  14.727 -0.8200  0.6043  0.4876
   30TCq2    C7  463   1.502   0.369  14.614  0.1974  0.6909 -0.2298
   30TCq2    C8  464   1.638   0.544  14.713 -0.1213  0.4048  0.0081
   30TCq2    O4  465   1.688   0.581  14.818  0.3502  0.5170 -0.2885
   30TCq2    C9  466   1.378   0.262  14.998  0.5320  0.0633  0.3215
   30TCq2    O5  467   1.416   0.328  15.097  1.0515 -0.4337 -0.1079
   30TCq2    O6  468   1.314   0.156  14.999 -0.0344  0.0796  0.5043
   30TCq2    H2  469   1.329   0.124  14.775  0.7256 -0.6613 -0.0317
   30TCq2    H3  470   1.531   0.468  14.936  2.6195  2.9092 -2.7413
   30TCq2    H4  471   1.550   0.388  14.518  0.1028 -1.0013 -0.6179
   31MPD2     C  472   4.336   3.861  14.427  0.0482  0.4010  0.0961
   31MPD2    C1  473   4.220   3.876  14.356  0.0976  0.4086 -0.3491
   31MPD2    C2  474   4.101   3.846  14.424  0.2541 -0.0960 -0.0223
   31MPD2    C3  475   4.103   3.802  14.559  0.3120  1.0162 -0.5383
   31MPD2    C4  476   4.230   3.783  14.629 -0.2765 -0.6313  0.0665
   31MPD2    C5  477   4.345   3.816  14.560 -0.4383 -0.0086 -0.3437
   31MPD2     H  478   4.005   3.866  14.378 -1.3527 -0.9020  2.9640
   31MPD2    H1  479   4.238   3.741  14.729  0.3332 -0.9426 -0.1091
   31MPD2    H2  480   4.429   3.868  14.372  0.2936  4.2855  0.9798
   31MPD2    H3  481   4.442   3.786  14.600  0.1009  0.2774 -1.4559
   31MPD2     N  482   3.988   3.787  14.641  0.1965 -0.2931  0.0784
   31MPD2    H5  483   4.004   3.761  14.738  1.7807 -0.9879 -0.3658
   31MPD2    N1  484   4.236   3.916  14.225  0.0240  0.4217  0.5069
   31MPD2    H7  485   4.332   3.915  14.193 -0.0152 -3.6581  0.3958
   32TCq2    C1  486   3.860   3.806  14.597 -0.0096 -0.3497  0.7124
   32TCq2    O2  487   3.813   3.844  14.493  0.2771  0.1406 -0.4419
   32TCq2    C2  488   3.763   3.817  14.706  0.5144  0.3872 -0.1064
   32TCq2    C3  489   3.635   3.800  14.676  0.3014 -0.8495  0.0253
   32TCq2    C4  490   3.546   3.808  14.781  0.0032 -0.1651  0.5161
   32TCq2    C5  491   3.578   3.848  14.907 -0.6911 -0.2402  0.0593
   32TCq2    C6  492   3.710   3.861  14.932 -0.5469 -0.1083 -0.1621
   32TCq2    C7  493   3.807   3.839  14.838 -0.4499 -0.3385  0.4384
   32TCq2    C8  494   3.748   3.859  15.073  0.0929 -0.5159 -0.0224
   32TCq2    O4  495   3.847   3.796  15.094  0.0598  0.1078 -0.1335
   32TCq2    C9  496   3.405   3.767  14.768  0.2642 -0.3975  0.5532
   32TCq2    O5  497   3.351   3.771  14.654 -0.2695 -0.2792  0.0394
   32TCq2    O6  498   3.327   3.763  14.868  0.3540 -0.1270  0.7337
   32TCq2    H2  499   3.602   3.766  14.578  2.1232  1.0131 -1.2232
   32TCq2    H3  500   3.504   3.850  14.987 -0.9462  0.6403 -0.2046
   32TCq2    H4  501   3.910   3.856  14.865 -0.1210 -1.1635 -0.3338
   33MPD2     C  502   0.063   1.830  10.296  0.1615 -0.0110 -0.2931
   33MPD2    C1  503   4.660   1.812  10.349  0.3346 -0.0665  0.0632
   33MPD2    C2  504   4.549   1.890  10.317  0.1309  0.0368 -0.3476
   33MPD2    C3  505   4.562   1.978  10.208 -0.0589  0.3279 -0.6831
   33MPD2    C4  506   4.691   1.988  10.158 -0.0078  0.2977 -0.2852
   33MPD2    C5  507   0.080   1.917  10.197  0.1155 -0.5494 -0.5326
   33MPD2     H  508   4.456   1.865  10.368 -0.9546  4.1368 -0.3445
   33MPD2    H1  509   4.711   2.055  10.075  0.8643  0.0589 -0.2647
   33MPD2    H2  510   0.141   1.761  10.326 -0.6363  0.5771  3.1872
   33MPD2    H3  511   0.172   1.934  10.143  0.0375  2.0361  0.1538
   33MPD2     N  512   4.458   2.068  10.167 -0.5386  0.1991 -0.0551
   33MPD2    H5  513   4.483   2.129  10.090 -0.2121  0.9260  0.6394
   33MPD2    N1  514   4.639   1.691  10.417 -0.8094  0.1532 -0.3010
   33MPD2    H7  515   4.711   1.620  10.412 -2.3334 -1.2906 -2.3382
   34TCq2    C1  516   4.331   2.078  10.215  0.2755 -0.8073 -0.1136
   34TCq2    O2  517   4.279   1.995  10.283 -0.1480  0.4561 -0.2183
   34TCq2    C2  518   4.256   2.170  10.137  0.4337  0.4525 -0.6338
   34TCq2    C3  519   4.126   2.159  10.148  0.1381 -0.1175 -0.1765
   34TCq2    C4  520   4.037   2.218  10.061 -0.2796  0.1527 -0.1135
   34TCq2    C5  521   4.085   2.293   9.966  0.5523  0.4909 -0.1720
   34TCq2    C6  522   4.221   2.309   9.956  0.0280  0.0174 -0.2011
   34TCq2    C7  523   4.312   2.244  10.036 -0.4497  0.9555  0.5017
   34TCq2    C8  524   4.265   2.413   9.868 -0.0307 -0.0363 -0.1554
   34TCq2    O4  525   4.381   2.447   9.874 -0.0854  0.7235 -0.4026
   34TCq2    C9  526   3.896   2.188  10.074 -0.6991 -0.1012 -0.1968
   34TCq2    O5  527   3.853   2.149  10.184  0.3359 -0.4250 -0.8892
   34TCq2    O6  528   3.820   2.210   9.979 -0.7426  0.6030 -0.2977
   34TCq2    H2  529   4.075   2.086  10.210  1.1257 -0.9873 -0.3978
   34TCq2    H3  530   4.009   2.342   9.908  0.3331 -0.5897 -0.7951
   34TCq2    H4  531   4.414   2.282  10.039 -0.6192  1.2398  2.3598
   35MPD2     C  532   1.353   3.116  11.644 -0.2837  0.5999  1.0889
   35MPD2    C1  533   1.328   2.984  11.678 -0.3330  0.4134 -0.6110
   35MPD2    C2  534   1.242   2.910  11.599 -0.1622  0.6889 -0.3336
   35MPD2    C3  535   1.178   2.965  11.488 -0.1967  0.1619  0.0552
   35MPD2    C4  536   1.219   3.093  11.447  0.5097  0.1497  0.2456
   35MPD2    C5  537   1.298   3.166  11.527 -1.4136 -0.1709 -0.2817
   35MPD2     H  538   1.221   2.807  11.624 -0.6105  1.1195  1.0666
   35MPD2    H1  539   1.179   3.135  11.355  2.5378  0.8040 -0.3533
   35MPD2    H2  540   1.422   3.173  11.705  0.5922 -0.3817  1.0253
   35MPD2    H3  541   1.321   3.262  11.483  0.1346  0.1998  1.3708
   35MPD2     N  542   1.075   2.891  11.427  0.0177  0.1696  0.0224
   35MPD2    H5  543   1.062   2.800  11.470  0.4687 -0.2707 -0.7509
   35MPD2    N1  544   1.384   2.944  11.801  0.7663 -0.7301 -0.2696
   35MPD2    H7  545   1.428   3.014  11.860 -1.1570  0.5729 -0.3876
   36TCq2    C1  546   0.984   2.937  11.337 -0.3611 -0.1870 -0.1825
   36TCq2    O2  547   1.003   3.008  11.240 -0.2111 -0.2302  0.1603
   36TCq2    C2  548   0.859   2.861  11.341 -0.5099 -0.0466 -0.3126
   36TCq2    C3  549   0.803   2.800  11.239 -0.2455 -0.0037  0.4759
   36TCq2    C4  550   0.708   2.702  11.256 -0.1801  0.5022  0.1522
   36TCq2    C5  551   0.654   2.681  11.380 -0.4603 -0.0664 -0.8158
   36TCq2    C6  552   0.698   2.759  11.489 -0.0704 -0.5802 -0.0257
   36TCq2    C7  553   0.811   2.841  11.466  0.5035  0.3408  0.3740
   36TCq2    C8  554   0.642   2.750  11.624 -0.4580 -0.1598 -0.4254
   36TCq2    O4  555   0.685   2.823  11.712  0.2179 -0.1132 -0.1518
   36TCq2    C9  556   0.643   2.653  11.136  0.3192 -0.1459  0.4495
   36TCq2    O5  557   0.532   2.596  11.162  0.7258  0.2632 -0.0636
   36TCq2    O6  558   0.706   2.673  11.029 -0.0232 -0.6001  0.2235
   36TCq2    H2  559   0.848   2.811  11.141 -1.2673 -0.4842 -0.0464
   36TCq2    H3  560   0.579   2.604  11.387 -1.0462  0.6329  0.4554
   36TCq2    H4  561   0.860   2.906  11.538  0.3385  0.7367  0.1275
   37TMC2    C1  562   2.924   2.852  11.593 -0.1801 -0.6002 -0.4808
   37TMC2    C2  563   2.903   2.923  11.471  0.6600 -0.0580  0.3469
   37TMC2    C3  564   3.012   2.952  11.397  0.4577 -0.0975 -0.1940
   37TMC2    C4  565   3.051   2.805  11.627  0.1840  0.3794 -0.3777
   37TMC2    C5  566   3.155   2.817  11.542  0.4851  0.8005  0.6548
   37TMC2    C6  567   3.137   2.899  11.433 -1.0479 -0.1004  0.0115
   37TMC2     C  568   2.806   2.854  11.674 -0.1071  0.3400 -0.3347
   37TMC2     O  569   2.700   2.899  11.633  0.1194  0.4362  0.3643
   37TMC2     H  570   2.803   2.941  11.433  1.8374  1.0625 -2.1908
   37TMC2    H1  571   3.061   2.728  11.703  0.8511  0.3346 -0.5164
   37TMC2    H2  572   3.231   2.922  11.383  0.2132 -1.1327  1.9105
   37TMC2    C7  573   3.284   2.765  11.572 -0.2759  0.3401  0.0314
   37TMC2    C8  574   3.005   3.071  11.308 -0.1106 -0.2803  0.4856
   37TMC2    O1  575   3.310   2.726  11.686  0.1030  0.0326  0.0503
   37TMC2    O2  576   3.080   3.087  11.215 -0.7155 -0.0970  0.1265
   37TMC2    O5  577   2.967   3.166  11.400 -0.1364 -0.0323 -0.4793
   37TMC2    H5  578   2.955   3.131  11.491  1.6490  0.2440 -0.1387
   38MPD2     C  579   2.602   2.806  12.151 -0.6598 -0.1180  0.0363
   38MPD2    C1  580   2.735   2.769  12.150 -0.8376  0.3678  0.3425
   38MPD2    C2  581   2.802   2.756  12.027 -0.2010  0.5633 -0.3664
   38MPD2    C3  582   2.734   2.783  11.908 -0.9206  0.1866 -1.1299
   38MPD2    C4  583   2.600   2.813  11.911  0.1429 -0.4227 -0.6726
   38MPD2    C5  584   2.538   2.824  12.030  1.0125  0.5253 -0.4582
   38MPD2     H  585   2.910   2.743  12.025 -0.2832 -0.1101 -0.3873
   38MPD2    H1  586   2.545   2.852  11.826 -1.3847 -1.8582 -0.3428
   38MPD2    H2  587   2.555   2.825  12.246 -1.5805 -0.9096 -0.2696
   38MPD2    H3  588   2.432   2.847  12.034  1.0229  0.5052 -0.0395
   38MPD2     N  589   2.824   2.794  11.800  0.3401 -0.3313  0.6644
   38MPD2    H5  590   2.916   2.756  11.822  1.7829  1.8257 -1.5905
   38MPD2    N1  591   2.815   2.758  12.263  0.2777 -0.5122  0.9124
   38MPD2    H7  592   2.913   2.747  12.242  0.3348 -0.1328  0.9698
   39MPD2     C  593   2.238   0.062   1.456  0.5495  0.4883  0.2610
   39MPD2    C1  594   2.198   0.167   1.544 -0.1253  0.2677  0.9264
   39MPD2    C2  595   2.067   0.213   1.527 -0.3008 -0.1026 -0.0028
   39MPD2    C3  596   1.980   0.168   1.431  0.1323  0.1393 -0.0071
   39MPD2    C4  597   2.024   0.060   1.361  0.1612  0.4058 -0.8540
   39MPD2    C5  598   2.153   0.015   1.358  0.0209  0.4507  0.8142
   39MPD2     H  599   2.032   0.292   1.593 -0.9035 -0.9643  0.7242
   39MPD2    H1  600   1.966   0.015   1.281 -2.0543 -1.4255  1.7581
   39MPD2    H2  601   2.334   0.013   1.449  0.8263  1.1344 -0.4032
   39MPD2    H3  602   2.181   4.654   1.293 -0.3008  0.0045  1.2451
   39MPD2     N  603   1.849   0.219   1.415  0.5064  0.1110 -0.3027
   39MPD2    H5  604   1.798   0.183   1.335  2.6687 -2.1575 -0.6716
   39MPD2    N1  605   2.298   0.223   1.626  0.9829  0.4459 -0.2176
   39MPD2    H7  606   2.386   0.173   1.623  0.4903 -0.4644  0.2823
   40TCq2    C1  607   2.288   0.331   1.704  0.7613 -0.1477  0.4450
   40TCq2    O2  608   2.182   0.383   1.740 -0.0565 -0.2176  0.2306
   40TCq2    C2  609   2.420   0.372   1.749  0.0898 -0.3451  0.1065
   40TCq2    C3  610   2.440   0.401   1.878 -0.1560 -0.1444  1.0677
   40TCq2    C4  611   2.565   0.441   1.914  0.1991  0.4378  0.5726
   40TCq2    C5  612   2.669   0.442   1.828 -0.2052 -0.2266  0.3463
   40TCq2    C6  613   2.651   0.413   1.699 -0.6019  0.3810  0.2869
   40TCq2    C7  614   2.524   0.371   1.663  0.2661 -0.0895 -0.0023
   40TCq2    C8  615   2.738   0.459   1.591  0.3164 -0.3285  0.3466
   40TCq2    O4  616   2.710   0.424   1.476 -0.3506 -0.2248 -0.3722
   40TCq2    C9  617   2.588   0.475   2.049  0.0853 -0.3845 -0.3542
   40TCq2    O5  618   2.524   0.409   2.137 -0.1166  0.1451  0.0069
   40TCq2    O6  619   2.684   0.551   2.074 -0.4159 -0.3807  0.1021
   40TCq2    H2  620   2.363   0.389   1.954 -0.3386 -1.0783  0.7249
   40TCq2    H3  621   2.769   0.464   1.863  0.1849 -1.3507 -0.0797
   40TCq2    H4  622   2.504   0.340   1.561  1.0527 -0.6047  0.0037
   41TMC2    C1  623   4.203   2.887  13.284  0.3348 -0.2105 -0.4743
   41TMC2    C2  624   4.329   2.935  13.273 -0.2854  0.0941  0.1324
   41TMC2    C3  625   4.365   2.990  13.151 -0.1730 -0.5899  0.3169
   41TMC2    C4  626   4.118   2.881  13.178  0.1227 -0.8890 -0.1023
   41TMC2    C5  627   4.159   2.924  13.060 -0.4889  0.2880 -0.0488
   41TMC2    C6  628   4.284   2.986  13.043  0.8080 -0.1378  0.2869
   41TMC2     C  629   4.151   2.832  13.414  0.8767  0.6485 -0.2407
   41TMC2     O  630   4.041   2.776  13.428 -0.3633 -0.2100  0.0431
   41TMC2     H  631   4.399   2.948  13.355  0.3215 -1.1701 -0.1921
   41TMC2    H1  632   4.031   2.817  13.188  0.9110 -1.8144  0.7930
   41TMC2    H2  633   4.308   3.052  12.961  1.1339 -0.6430 -0.0253
   41TMC2    C7  634   4.107   2.850  12.950  0.2645 -0.2313  0.1731
   41TMC2    C8  635   4.460   3.107  13.166  0.0400  0.1517  0.1011
   41TMC2    O1  636   3.986   2.826  12.943  0.1982 -0.2607 -0.4959
   41TMC2    O2  637   4.466   3.174  13.269 -0.0763 -0.1968 -0.0531
   41TMC2    O5  638   4.490   3.149  13.043 -0.5576  0.2807 -0.5715
   41TMC2    H5  639   4.473   3.086  12.970  0.0779  1.1844 -1.5129
   42MPD2     C  640   4.133   2.737  13.693 -0.1099  0.0290  0.3174
   42MPD2    C1  641   4.223   2.829  13.642  0.6226 -0.9405  0.1275
   42MPD2    C2  642   4.335   2.874  13.725 -0.3263  0.2965  0.2059
   42MPD2    C3  643   4.358   2.802  13.844  0.6601 -0.6681  0.3401
   42MPD2    C4  644   4.273   2.703  13.883 -0.2877 -0.3207  0.2472
   42MPD2    C5  645   4.154   2.679  13.816  0.0510  0.3434  0.2072
   42MPD2     H  646   4.399   2.951  13.682 -1.8211  1.3183 -0.1755
   42MPD2    H1  647   4.272   2.655  13.980  1.4816 -0.2252  0.3027
   42MPD2    H2  648   4.042   2.710  13.640 -0.1211  0.2066  0.2448
   42MPD2    H3  649   4.080   2.610  13.856  0.7507 -0.5149  0.0126
   42MPD2     N  650   4.462   2.845  13.929  0.5750 -0.6911  0.0031
   42MPD2    H5  651   4.473   2.784  14.010 -0.2297 -2.4433 -1.1809
   42MPD2    N1  652   4.223   2.885  13.514  0.1323 -0.0473 -0.4586
   42MPD2    H7  653   4.302   2.946  13.493  0.1265  0.2776  0.4425
   43MPD2     C  654   1.885   1.944   0.969 -0.6888  0.1691  0.8781
   43MPD2    C1  655   2.021   1.964   0.958 -0.5650 -0.5706  0.1730
   43MPD2    C2  656   2.083   2.073   1.019 -0.4650  0.1951  0.1382
   43MPD2    C3  657   2.006   2.158   1.097  0.5660 -0.8150 -0.2829
   43MPD2    C4  658   1.871   2.133   1.122 -0.4398 -0.3123  0.6141
   43MPD2    C5  659   1.812   2.026   1.056 -0.9017 -0.0940  0.6773
   43MPD2     H  660   2.185   2.107   1.003 -0.9857  0.9217 -1.6686
   43MPD2    H1  661   1.802   2.192   1.180 -0.2805 -0.4025  0.8940
   43MPD2    H2  662   1.841   1.854   0.927  0.9509 -0.6863  1.0106
   43MPD2    H3  663   1.713   1.993   1.085 -1.5555  0.6816 -0.6938
   43MPD2     N  664   2.051   2.278   1.157  0.4687 -0.2927  0.4787
   43MPD2    H5  665   1.986   2.332   1.213  0.7741  0.8290 -0.2655
   43MPD2    N1  666   2.107   1.882   0.877 -0.0568 -0.1760 -0.5671
   43MPD2    H7  667   2.209   1.879   0.884 -0.0515  1.6463  0.2603
   44TCq2    C1  668   2.088   2.629   1.518  0.2491 -0.7230 -0.0937
   44TCq2    O2  669   2.156   2.670   1.614 -0.2549 -0.0508 -0.4617
   44TCq2    C2  670   2.173   2.590   1.408 -0.8356 -0.3081  0.8670
   44TCq2    C3  671   2.295   2.662   1.386 -0.0507  0.8888  0.0581
   44TCq2    C4  672   2.356   2.638   1.271 -0.3104 -0.1890 -0.0547
   44TCq2    C5  673   2.309   2.544   1.184  0.2450  0.0579 -0.2184
   44TCq2    C6  674   2.194   2.468   1.211  0.0936 -0.4533 -0.4688
   44TCq2    C7  675   2.128   2.497   1.324  0.0709  0.4357 -0.8842
   44TCq2    C8  676   2.172   2.348   1.132  0.1810 -0.4907  0.0517
   44TCq2    O4  677   2.251   2.327   1.041 -0.5882  1.3604 -0.3204
   44TCq2    C9  678   2.474   2.715   1.250  0.3549 -0.6875  0.4984
   44TCq2    O5  679   2.492   2.820   1.321 -0.1454 -0.4251 -0.0120
   44TCq2    O6  680   2.564   2.665   1.174 -0.0990 -0.2707 -0.0427
   44TCq2    H2  681   2.339   2.725   1.462 -0.7094  0.8009  0.5153
   44TCq2    H3  682   2.374   2.533   1.099 -0.6656 -0.6874 -0.8204
   44TCq2    H4  683   2.046   2.435   1.358  0.1932 -0.2433 -1.8428
   45TMC2    C1  684   2.575   3.511   8.953  1.0636  0.1147  0.1896
   45TMC2    C2  685   2.522   3.523   8.829  0.1545  0.0882 -0.1231
   45TMC2    C3  686   2.559   3.635   8.762 -0.0205 -0.2117 -0.0330
   45TMC2    C4  687   2.644   3.615   9.021  0.0024  0.1217  0.5053
   45TMC2    C5  688   2.671   3.730   8.953 -0.7841  0.2819  0.0976
   45TMC2    C6  689   2.635   3.735   8.821 -0.0270 -0.7496  0.1342
   45TMC2     C  690   2.529   3.407   9.041  0.3701  0.9395 -0.1036
   45TMC2     O  691   2.601   3.389   9.140 -0.2180 -0.1259  0.6698
   45TMC2     H  692   2.473   3.439   8.780 -0.5392 -1.6744  3.6058
   45TMC2    H1  693   2.686   3.605   9.121  2.9371 -0.6076 -0.8389
   45TMC2    H2  694   2.662   3.821   8.759  0.3831 -0.9419  0.0438
   45TMC2    C7  695   2.784   3.815   8.999 -0.8247 -0.3891 -0.1470
   45TMC2    C8  696   2.518   3.661   8.630  0.3688  0.2919 -0.2270
   45TMC2    O1  697   2.859   3.856   8.906  0.1450 -0.0315 -0.2203
   45TMC2    O2  698   2.534   3.767   8.574  0.1067  0.5835  0.1772
   45TMC2    O5  699   2.453   3.560   8.570  0.5518 -0.6334  0.1386
   45TMC2    H5  700   2.454   3.469   8.608  1.5228  0.1102  1.8842
   46MPD2     C  701   2.454   3.124   9.147 -0.5572 -0.4163 -0.3453
   46MPD2    C1  702   2.402   3.186   9.033  0.0022  0.0387 -0.2055
   46MPD2    C2  703   2.316   3.119   8.956 -0.2632  0.1209  0.2958
   46MPD2    C3  704   2.263   3.001   9.000  0.4808 -0.8022 -0.0386
   46MPD2    C4  705   2.303   2.948   9.118  0.2921  0.1090 -0.0326
   46MPD2    C5  706   2.403   3.007   9.191  0.1504 -0.1699  0.2086
   46MPD2     H  707   2.274   3.159   8.864 -1.7099  2.8806  2.1468
   46MPD2    H1  708   2.264   2.853   9.153  0.1529  1.1622  2.6264
   46MPD2    H2  709   2.522   3.181   9.209  0.5259 -2.3815  0.2974
   46MPD2    H3  710   2.436   2.964   9.284 -1.4110  0.1447  0.9049
   46MPD2     N  711   2.164   2.951   8.914 -0.0198 -0.3312 -0.3748
   46MPD2    H5  712   2.141   3.015   8.838  1.6395  2.8462  1.8136
   46MPD2    N1  713   2.436   3.319   8.986 -0.4769  0.3496  0.4682
   46MPD2    H7  714   2.380   3.355   8.909 -0.4755  1.2080  0.8787
   47TMC2    C1  715   0.472   4.071   9.238 -0.1038 -0.6460 -0.6240
   47TMC2    C2  716   0.507   3.952   9.179  0.0235  0.8838  0.1372
   47TMC2    C3  717   0.445   3.925   9.058  0.8897  0.4344 -0.2259
   47TMC2    C4  718   0.399   4.162   9.169 -0.2892  0.4393  0.2118
   47TMC2    C5  719   0.336   4.127   9.052  0.0801  0.4177 -0.1956
   47TMC2    C6  720   0.356   4.007   8.994 -0.3743  0.4691  0.4608
   47TMC2     C  721   0.532   4.109   9.370  0.3151 -0.4934  0.2921
   47TMC2     O  722   0.517   4.223   9.412 -0.1405 -0.4695  0.4914
   47TMC2     H  723   0.573   3.879   9.226 -0.1351  0.3315 -0.4907
   47TMC2    H1  724   0.380   4.258   9.216 -2.0484  0.2278 -0.0538
   47TMC2    H2  725   0.312   3.988   8.896 -0.3697 -1.0743  0.7728
   47TMC2    C7  726   0.250   4.220   8.991 -0.1693  0.4372  0.2046
   47TMC2    C8  727   0.475   3.792   8.996 -0.2912 -0.0005  0.5189
   47TMC2    O1  728   0.260   4.235   8.873 -0.5546 -0.6867 -0.4024
   47TMC2    O2  729   0.527   3.711   9.071 -0.6370 -0.5113 -0.1559
   47TMC2    O5  730   0.523   3.816   8.872  0.4152 -0.0780 -0.0567
   47TMC2    H5  731   0.493   3.898   8.829 -0.8354  0.9372  2.7580
   48MPD2     C  732   0.648   4.101   9.649 -0.4205 -0.3941 -0.1497
   48MPD2    C1  733   0.636   3.991   9.562  0.9116 -0.7288 -0.1048
   48MPD2    C2  734   0.686   3.871   9.606  0.2789 -0.3681  0.0975
   48MPD2    C3  735   0.744   3.851   9.734 -0.3911 -0.6445  0.9125
   48MPD2    C4  736   0.756   3.965   9.810 -0.5394 -0.2551 -0.4787
   48MPD2    C5  737   0.704   4.081   9.764  1.1688  0.1390 -0.3319
   48MPD2     H  738   0.680   3.787   9.537  1.3622  1.2044 -1.9076
   48MPD2    H1  739   0.791   3.964   9.912 -0.7891  2.2026 -0.3821
   48MPD2    H2  740   0.618   4.203   9.630  0.3308  0.0891  1.2515
   48MPD2    H3  741   0.725   4.163   9.833  4.5956 -0.7009 -0.3645
   48MPD2     N  742   0.782   3.721   9.762  0.2689  0.6316  0.2866
   48MPD2    H5  743   0.785   3.656   9.684  0.6102  0.3018  0.5749
   48MPD2    N1  744   0.575   3.997   9.432 -0.0424  0.7363 -0.4183
   48MPD2    H7  745   0.558   3.910   9.382 -1.5208  0.6397  0.2511
   49MPD2     C  746   2.465   0.456  10.621 -1.2054 -0.3532 -0.3918
   49MPD2    C1  747   2.367   0.361  10.625  0.6400 -0.3746 -0.5341
   49MPD2    C2  748   2.376   0.248  10.717  0.1514 -0.5337  0.1748
   49MPD2    C3  749   2.481   0.252  10.808 -0.1480 -0.0018 -0.2101
   49MPD2    C4  750   2.576   0.353  10.809 -0.4316 -0.1431 -0.1218
   49MPD2    C5  751   2.565   0.452  10.718  0.0633 -0.3552  0.4752
   49MPD2     H  752   2.298   0.173  10.726 -0.7573  0.4582  0.6306
   49MPD2    H1  753   2.653   0.358  10.885 -0.3527  1.8195 -0.3315
   49MPD2    H2  754   2.468   0.542  10.555 -0.7532 -0.0051  0.0779
   49MPD2    H3  755   2.641   0.529  10.715 -0.1866 -0.1382 -0.4116
   49MPD2     N  756   2.504   0.163  10.907  0.0619 -0.7326 -0.4814
   49MPD2    H5  757   2.578   0.169  10.976  1.8732 -2.2528 -2.3121
   49MPD2    N1  758   2.261   0.358  10.533  0.1365 -0.6176 -0.5988
   49MPD2    H7  759   2.190   0.287  10.546 -1.2657  0.6613 -1.2899
   50TCq2    C1  760   2.235   0.449  10.440  0.1698  0.1103 -0.4646
   50TCq2    O2  761   2.311   0.527  10.381 -0.5399 -0.0923 -0.2020
   50TCq2    C2  762   2.110   0.420  10.372  0.4543  0.2863 -0.0326
   50TCq2    C3  763   2.016   0.332  10.435  0.1167  0.1322 -0.3911
   50TCq2    C4  764   1.904   0.312  10.368  0.1380  0.8094 -0.0399
   50TCq2    C5  765   1.882   0.362  10.239 -0.5795  0.6005 -0.5524
   50TCq2    C6  766   1.973   0.449  10.176  0.6065  0.4799 -0.1458
   50TCq2    C7  767   2.092   0.475  10.241 -0.6955  0.3270  0.0017
   50TCq2    C8  768   1.947   0.539  10.069  0.0120 -0.4488  0.6570
   50TCq2    O4  769   2.036   0.586   9.999 -0.7046 -0.0728  0.0501
   50TCq2    C9  770   1.814   0.218  10.417 -0.6846  0.6275 -0.6186
   50TCq2    O5  771   1.857   0.147  10.511 -0.0903 -0.3223  0.0594
   50TCq2    O6  772   1.696   0.223  10.381 -0.0768  1.0001 -0.2197
   50TCq2    H2  773   2.024   0.300  10.538 -0.3719 -0.5574 -0.5697
   50TCq2    H3  774   1.794   0.335  10.181  0.9193  0.9669 -3.0221
   50TCq2    H4  775   2.161   0.551  10.208 -1.2886  0.8401 -0.0650
   51MPD2     C  776   4.169   0.054   0.977  0.3949  0.3186  0.4544
   51MPD2    C1  777   4.081   4.704   1.054 -0.3481 -0.3544 -0.8404
   51MPD2    C2  778   4.009   0.050   1.149 -0.2326 -0.1989  0.0391
   51MPD2    C3  779   4.005   0.189   1.158 -0.1152  0.2871 -0.4671
   51MPD2    C4  780   4.092   0.257   1.073  0.1275 -0.1480  0.8961
   51MPD2    C5  781   4.168   0.185   0.987  0.5944  0.3877  0.1210
   51MPD2     H  782   3.952   4.709   1.217 -0.0365  0.2750  0.6255
   51MPD2    H1  783   4.094   0.365   1.067 -1.7466 -0.2923 -2.5020
   51MPD2    H2  784   4.220   0.009   0.893 -1.2651 -0.4083 -0.1607
   51MPD2    H3  785   4.220   0.241   0.911  0.4035 -0.4811 -0.6559
   51MPD2     N  786   3.924   0.271   1.238  0.4062  1.1612 -0.6339
   51MPD2    H5  787   3.950   0.369   1.234 -0.1264  1.3433  0.3464
   51MPD2    N1  788   4.058   4.565   1.035  0.1619 -0.2383  0.3884
   51MPD2    H7  789   3.977   4.528   1.082  0.3771 -1.4561 -0.1921
   52TCq2    C1  790   3.826   0.218   1.320 -0.0510  0.0922  0.0494
   52TCq2    O2  791   3.807   0.100   1.349 -0.2731 -0.3178 -1.0535
   52TCq2    C2  792   3.751   0.318   1.393 -0.2136  0.0977  0.4520
   52TCq2    C3  793   3.642   0.272   1.462  0.3065 -0.2609  0.1577
   52TCq2    C4  794   3.593   0.343   1.561  0.7462 -0.7788 -0.0049
   52TCq2    C5  795   3.642   0.466   1.594  0.4415 -0.6203 -0.2291
   52TCq2    C6  796   3.756   0.503   1.530  0.1794  0.2532  0.6468
   52TCq2    C7  797   3.816   0.434   1.424  0.3312  0.5459  0.2877
   52TCq2    C8  798   3.827   0.629   1.570 -0.9423  0.2699  0.3028
   52TCq2    O4  799   3.914   0.671   1.503  0.2648 -0.4817 -0.7149
   52TCq2    C9  800   3.479   0.294   1.645 -0.7190  0.2341  0.7194
   52TCq2    O5  801   3.446   0.366   1.740 -0.3254 -0.0716 -0.4278
   52TCq2    O6  802   3.400   0.217   1.582 -0.3383 -0.0763  0.1449
   52TCq2    H2  803   3.604   0.171   1.448  0.7817 -0.6097  1.3909
   52TCq2    H3  804   3.600   0.533   1.667 -0.5387 -1.3004 -0.1678
   52TCq2    H4  805   3.911   0.464   1.382  0.2710  1.2227  0.6372
   53TMC2    C1  806   3.917   2.499  11.863  0.0607  0.4047 -0.1851
   53TMC2    C2  807   4.044   2.544  11.894  0.1951 -0.1372  0.0759
   53TMC2    C3  808   4.068   2.591  12.019 -0.0862 -0.1242 -0.2025
   53TMC2    C4  809   3.816   2.511  11.952  0.3269 -0.5615 -0.0128
   53TMC2    C5  810   3.838   2.577  12.069 -0.0283  0.2522  0.1558
   53TMC2    C6  811   3.966   2.612  12.105 -0.4822 -0.6195 -0.5642
   53TMC2     C  812   3.881   2.519  11.726 -0.1940  0.4798 -0.0115
   53TMC2     O  813   3.962   2.481  11.642 -0.3734 -0.4486  0.3785
   53TMC2     H  814   4.131   2.530  11.831 -0.4836 -2.1692 -0.4246
   53TMC2    H1  815   3.717   2.477  11.923 -1.0282  2.4814  0.9587
   53TMC2    H2  816   3.981   2.675  12.192  1.0774 -1.9793  0.1564
   53TMC2    C7  817   3.725   2.652  12.110 -0.7151  0.1925  0.3188
   53TMC2    C8  818   4.185   2.672  12.032  0.5704 -0.4878  0.7215
   53TMC2    O1  819   3.662   2.700  12.022 -0.3173  0.4385  0.4448
   53TMC2    O2  820   4.225   2.746  11.939  0.3259 -0.1307 -0.4837
   53TMC2    O5  821   4.255   2.620  12.131  0.3002  0.5874  0.2944
   53TMC2    H5  822   4.206   2.542  12.167  1.1587 -0.5101 -0.9261
   54MPD2     C  823   3.735   2.562  11.470  0.1628  0.6506  0.6922
   54MPD2    C1  824   3.691   2.604  11.591  0.5510  0.0276 -0.2439
   54MPD2    C2  825   3.560   2.660  11.596  0.5166  0.3588 -0.5247
   54MPD2    C3  826   3.487   2.675  11.475 -0.1737 -0.7074  0.9396
   54MPD2    C4  827   3.541   2.618  11.351  0.2235  0.8778 -0.4039
   54MPD2    C5  828   3.672   2.580  11.351 -0.1816 -0.1511 -0.5856
   54MPD2     H  829   3.526   2.695  11.693 -1.2033 -1.0859 -0.6205
   54MPD2    H1  830   3.480   2.604  11.263 -2.8025  1.6176  1.6006
   54MPD2    H2  831   3.832   2.515  11.465 -0.2687  0.3493 -4.1124
   54MPD2    H3  832   3.711   2.543  11.256 -0.9625 -1.9854 -0.1959
   54MPD2     N  833   3.361   2.737  11.465 -0.1730  0.0108  0.4123
   54MPD2    H5  834   3.329   2.746  11.370 -0.6749 -2.1666  0.3787
   54MPD2    N1  835   3.755   2.580  11.715 -0.5846 -0.1364 -0.0223
   54MPD2    H7  836   3.709   2.612  11.800  0.3897  0.6095  0.2326
   55MPD2     C  837   4.538   0.682  17.621 -0.0969  0.1857 -1.0644
   55MPD2    C1  838   4.517   0.612   0.062 -0.1671  0.5259 -0.6605
   55MPD2    C2  839   4.520   0.688   0.180 -0.1581 -0.0771  0.4895
   55MPD2    C3  840   4.521   0.827   0.180 -0.2021  0.3288 -0.1958
   55MPD2    C4  841   4.530   0.888   0.060  0.1468  0.4744 -0.9355
   55MPD2    C5  842   4.540   0.818  17.633 -0.0564  0.8272 -0.4868
   55MPD2     H  843   4.505   0.634   0.273  1.0486 -1.7992 -0.3169
   55MPD2    H1  844   4.530   0.997   0.062  0.4894  0.4441  0.5324
   55MPD2    H2  845   4.521   0.635  17.525  1.4516 -1.7525 -0.3804
   55MPD2    H3  846   4.564   0.873  17.543  2.1215 -0.2367 -0.5425
   55MPD2     N  847   4.495   0.904   0.295 -0.5212  0.2388 -0.0180
   55MPD2    H5  848   4.482   1.004   0.290 -0.8122  0.1427 -1.0899
   55MPD2    N1  849   4.488   0.475   0.061 -0.3380 -0.1231  0.5217
   55MPD2    H7  850   4.495   0.424  17.658 -0.4587  0.0609  0.4042
   56TCq2    C1  851   4.480   0.393   0.173  0.3141  0.0846  0.5503
   56TCq2    O2  852   4.476   0.428   0.291 -0.9153 -0.3477  0.2855
   56TCq2    C2  853   4.468   0.252   0.140  0.6598 -0.2619 -0.3061
   56TCq2    C3  854   4.527   0.202   0.023 -0.0680 -0.1472 -0.1509
   56TCq2    C4  855   4.556   0.067   0.024  0.7940 -0.1556 -0.2006
   56TCq2    C5  856   4.529   4.705   0.123  0.1175 -0.4450 -0.3169
   56TCq2    C6  857   4.497   0.047   0.239 -0.4758  0.4345  0.6233
   56TCq2    C7  858   4.462   0.173   0.255  0.1893  0.2701  0.1352
   56TCq2    C8  859   4.454   4.681   0.354 -0.1429 -0.7931  0.2201
   56TCq2    O4  860   4.505   4.567   0.354  0.0046 -0.5323  0.7628
   56TCq2    C9  861   4.596   0.013  17.579 -0.0225 -0.5420  0.0224
   56TCq2    O5  862   4.591   0.100  17.489  0.0216 -0.6452  0.0772
   56TCq2    O6  863   4.628   4.617  17.574 -0.3445 -0.2367  0.2663
   56TCq2    H2  864   4.542   0.263  17.620 -0.7167 -0.4522 -0.4770
   56TCq2    H3  865   4.536   4.597   0.110  0.0526 -0.4367 -0.4246
   56TCq2    H4  866   4.456   0.220   0.353  0.7863 -0.1002  0.3447
   57TMC2    C1  867   3.200   1.453  13.104  0.3781 -0.1376 -0.5636
   57TMC2    C2  868   3.114   1.529  13.028  0.1276  0.0585  0.7853
   57TMC2    C3  869   3.169   1.643  12.979 -0.0137 -0.1187 -0.1320
   57TMC2    C4  870   3.334   1.476  13.094 -1.0625  0.0625 -0.1580
   57TMC2    C5  871   3.380   1.589  13.037 -0.3212  0.2340  0.0741
   57TMC2    C6  872   3.301   1.679  12.977  0.0520  0.4696  1.0276
   57TMC2     C  873   3.155   1.411  13.232  0.5708 -0.5488  0.0933
   57TMC2     O  874   3.227   1.435  13.328  0.2651  0.4571  0.2983
   57TMC2     H  875   3.008   1.510  13.029  0.2383 -0.5922 -1.3773
   57TMC2    H1  876   3.407   1.406  13.134 -0.9295 -0.4418 -1.2661
   57TMC2    H2  877   3.344   1.778  12.965  1.0508 -0.2288 -1.3594
   57TMC2    C7  878   3.525   1.610  13.051  0.3817  0.2917  0.2141
   57TMC2    C8  879   3.078   1.751  12.955 -0.3115 -0.8344 -0.4909
   57TMC2    O1  880   3.595   1.525  13.104 -0.7218  0.1156  0.1740
   57TMC2    O2  881   2.972   1.747  13.005  0.1329  0.1475 -0.1616
   57TMC2    O5  882   3.100   1.793  12.831 -0.2694  0.1079 -0.3810
   57TMC2    H5  883   3.187   1.794  12.785 -0.2667  1.4370 -0.3689
   58MPD2     C  884   2.721   1.423  13.517  1.0175 -0.3171 -0.1903
   58MPD2    C1  885   2.846   1.477  13.550 -0.2638 -0.4068  0.0378
   58MPD2    C2  886   2.953   1.454  13.462 -0.1977  0.3716 -0.2623
   58MPD2    C3  887   2.926   1.396  13.333 -0.0760 -1.1889 -0.4131
   58MPD2    C4  888   2.797   1.367  13.305  0.8906 -0.0113 -0.1462
   58MPD2    C5  889   2.698   1.379  13.395 -1.0222  0.0169  0.0604
   58MPD2     H  890   3.051   1.496  13.482  0.4760 -1.5296  0.4231
   58MPD2    H1  891   2.773   1.335  13.204 -0.1702  1.1070 -0.2489
   58MPD2    H2  892   2.632   1.440  13.578  0.5733 -3.4954  0.0499
   58MPD2    H3  893   2.595   1.358  13.368 -1.4062 -0.9671  2.3180
   58MPD2     N  894   3.024   1.382  13.230 -0.4911 -0.3337  0.7085
   58MPD2    H5  895   2.985   1.342  13.145  1.6921 -1.8786  0.4189
   58MPD2    N1  896   2.864   1.571  13.657 -0.1071 -0.0598 -0.6468
   58MPD2    H7  897   2.955   1.615  13.660  1.0890 -2.6227  1.4116
   59MPD2     C  898   1.385   1.967  13.338  0.3272 -0.5863  0.2941
   59MPD2    C1  899   1.409   2.048  13.236  0.1960  0.5306  0.1196
   59MPD2    C2  900   1.479   2.170  13.257  0.5240  1.6096  0.2572
   59MPD2    C3  901   1.532   2.196  13.377 -0.3839  0.2084  0.7962
   59MPD2    C4  902   1.498   2.124  13.481  0.5001 -0.6839  0.2382
   59MPD2    C5  903   1.425   2.009  13.460 -0.1804  0.2200 -0.3365
   59MPD2     H  904   1.509   2.230  13.172 -0.7728  0.3933 -1.0623
   59MPD2    H1  905   1.506   2.151  13.586 -1.3740 -1.3510  0.5696
   59MPD2    H2  906   1.335   1.872  13.323  1.5815 -1.2510  0.2899
   59MPD2    H3  907   1.399   1.944  13.543  1.1696  0.3141  0.1538
   59MPD2     N  908   1.605   2.311  13.400 -0.5680  0.1070  0.2175
   59MPD2    H5  909   1.615   2.338  13.497  0.4480  0.8847 -0.1062
   59MPD2    N1  910   1.345   2.005  13.115  0.9011 -0.2282 -0.5548
   59MPD2    H7  911   1.298   1.915  13.115 -0.4129  0.4529  0.5255
   60TCq2    C1  912   1.350   2.085  12.998  0.9520  0.4362  0.1583
   60TCq2    O2  913   1.425   2.176  12.967 -0.4203  0.1178 -0.1020
   60TCq2    C2  914   1.279   2.014  12.892  0.3143 -0.6059 -0.8934
   60TCq2    C3  915   1.197   1.910  12.929  0.2804 -0.0807 -0.1234
   60TCq2    C4  916   1.163   1.825  12.833  0.5602  0.1123 -0.8804
   60TCq2    C5  917   1.199   1.834  12.702  0.2985  0.4498 -0.1074
   60TCq2    C6  918   1.277   1.941  12.673 -0.2814 -0.4526 -0.3316
   60TCq2    C7  919   1.321   2.038  12.762  0.5501 -0.0172 -0.0311
   60TCq2    C8  920   1.326   1.951  12.534 -0.5180 -0.5639  0.0766
   60TCq2    O4  921   1.336   1.849  12.465 -0.0881 -0.1177 -0.0787
   60TCq2    C9  922   1.086   1.707  12.861 -0.2590  0.0332  0.1985
   60TCq2    O5  923   1.037   1.699  12.975  0.9700 -0.1857  0.3207
   60TCq2    O6  924   1.075   1.622  12.767 -0.5528  0.3624 -0.3440
   60TCq2    H2  925   1.147   1.908  13.025 -1.0441  2.1407 -0.7558
   60TCq2    H3  926   1.169   1.757  12.631 -2.3446 -0.6148  2.1376
   60TCq2    H4  927   1.389   2.120  12.744 -0.4456  0.9138  0.4488
   61MPD2     C  928   0.746   2.963  14.644 -0.3221  0.6155  0.7796
   61MPD2    C1  929   0.817   3.078  14.681  0.1608  0.3235 -0.4631
   61MPD2    C2  930   0.850   3.172  14.589  0.4339  0.4796  0.5189
   61MPD2    C3  931   0.807   3.173  14.463 -0.2429 -0.2527 -0.6014
   61MPD2    C4  932   0.724   3.064  14.426  0.0103 -0.0777  0.4257
   61MPD2    C5  933   0.695   2.967  14.519 -0.2426  0.0610  0.2687
   61MPD2     H  934   0.925   3.246  14.617  0.5956  1.5803 -2.7902
   61MPD2    H1  935   0.690   3.054  14.324 -0.1296  3.9213  0.0914
   61MPD2    H2  936   0.728   2.875  14.705 -5.0093  1.3061  0.3892
   61MPD2    H3  937   0.622   2.892  14.492  1.1501 -0.5282 -1.8547
   61MPD2     N  938   0.834   3.279  14.369  0.7043 -0.4463  0.2406
   61MPD2    H5  939   0.782   3.272  14.283 -0.9383 -0.1484  1.2185
   61MPD2    N1  940   0.867   3.096  14.817  0.1450 -0.0884 -0.7083
   61MPD2    H7  941   0.939   3.168  14.819 -0.5444  0.5993 -0.7128
   62TCq2    C1  942   0.855   3.011  14.924 -0.8846 -0.2308 -0.1893
   62TCq2    O2  943   0.805   2.897  14.934  0.0762 -0.2015 -0.0888
   62TCq2    C2  944   0.897   3.077  15.044  0.0667  0.7206  0.0436
   62TCq2    C3  945   0.959   2.995  15.132  0.0869  0.3612 -0.5763
   62TCq2    C4  946   0.970   3.037  15.263 -0.4864  0.8567  0.7146
   62TCq2    C5  947   0.918   3.154  15.303 -1.1581  0.1103 -0.0189
   62TCq2    C6  948   0.852   3.235  15.212  0.6424  0.7598 -0.8396
   62TCq2    C7  949   0.859   3.202  15.076 -0.1991  0.1663 -0.0520
   62TCq2    C8  950   0.768   3.348  15.249 -1.2132  0.0043  0.7809
   62TCq2    O4  951   0.713   3.418  15.165  0.2838  0.1607 -0.2751
   62TCq2    C9  952   1.044   2.961  15.354 -0.7639 -0.2489 -0.2645
   62TCq2    O5  953   1.073   3.010  15.467  0.2545 -0.4570  0.2660
   62TCq2    O6  954   1.050   2.838  15.332 -0.0989 -0.4567 -0.3265
   62TCq2    H2  955   1.003   2.904  15.092 -2.3503 -1.2693  0.4570
   62TCq2    H3  956   0.921   3.177  15.409  2.3758 -3.3451  0.6007
   62TCq2    H4  957   0.811   3.268  15.005  0.7570 -0.3751 -1.2055
   63TMC2    C1  958   0.232   3.604  10.507 -0.2627 -0.4012  0.3369
   63TMC2    C2  959   0.310   3.578  10.614 -0.4287 -0.2771  0.2653
   63TMC2    C3  960   0.434   3.637  10.635 -0.4144 -0.6194  0.1665
   63TMC2    C4  961   0.280   3.681  10.409 -0.5221 -0.3518  1.1363
   63TMC2    C5  962   0.397   3.752  10.433 -0.6803 -0.4303 -0.0026
   63TMC2    C6  963   0.472   3.740  10.551 -0.2910  0.1800  0.1425
   63TMC2     C  964   0.128   3.517  10.467  0.2234  0.0342  0.0414
   63TMC2     O  965   0.055   3.563  10.384 -0.4730  0.2553 -0.4870
   63TMC2     H  966   0.267   3.526  10.699  0.2705 -0.4470  0.5196
   63TMC2    H1  967   0.225   3.690  10.316  1.8523  0.4270 -0.1951
   63TMC2    H2  968   0.577   3.767  10.552 -0.3126  0.4214 -2.8928
   63TMC2    C7  969   0.427   3.835  10.320  0.4035  0.0793  0.5732
   63TMC2    C8  970   0.481   3.650  10.769 -0.0602  0.4990 -0.2908
   63TMC2    O1  971   0.371   3.809  10.218 -0.5707 -0.0344 -0.3212
   63TMC2    O2  972   0.456   3.557  10.850 -0.6432  0.5561 -0.2352
   63TMC2    O5  973   0.491   3.787  10.806 -0.1397  0.3724 -0.0053
   63TMC2    H5  974   0.485   3.851  10.732  0.5324  1.5301  0.9252
   64MPD2     C  975   4.614   3.066  10.398 -0.0674  0.0916 -0.3886
   64MPD2    C1  976   0.010   3.039  10.479  0.5224 -0.1119  0.2568
   64MPD2    C2  977   0.081   3.153  10.527  0.6269  0.6015 -0.7193
   64MPD2    C3  978   0.051   3.281  10.490 -0.4005  0.2527 -0.2323
   64MPD2    C4  979   4.658   3.298  10.416 -0.1417 -0.3689 -0.3558
   64MPD2    C5  980   4.583   3.196  10.372 -0.2821  0.0819 -0.5483
   64MPD2     H  981   0.171   3.138  10.586  1.2156  0.3182 -1.6929
   64MPD2    H1  982   4.637   3.402  10.390 -0.3020  0.3872  2.7254
   64MPD2    H2  983   4.562   2.983  10.352  0.1626 -0.1099 -0.2872
   64MPD2    H3  984   4.502   3.204  10.300 -0.0089 -0.7250 -0.9446
   64MPD2     N  985   0.136   3.387  10.522  0.1938 -0.2066 -0.2710
   64MPD2    H5  986   0.208   3.379  10.592  0.0809  4.3995  0.3985
   64MPD2    N1  987   0.056   2.917  10.526  0.0446  0.0851  0.2263
   64MPD2    H7  988   0.138   2.912  10.586 -0.1137  0.6142  0.4828
   65MPD2     C  989   1.488   2.694  15.607 -0.4277  0.1003  0.8875
   65MPD2    C1  990   1.461   2.671  15.475  0.6910  0.4954 -0.2848
   65MPD2    C2  991   1.445   2.535  15.433 -0.5652 -0.1804  0.3025
   65MPD2    C3  992   1.431   2.440  15.535 -0.2020 -0.5790 -0.0102
   65MPD2    C4  993   1.454   2.477  15.665 -0.8315  0.2339 -1.1361
   65MPD2    C5  994   1.484   2.597  15.705 -0.1121 -0.0518  0.3895
   65MPD2     H  995   1.447   2.500  15.331  1.3191  1.2303 -0.1507
   65MPD2    H1  996   1.450   2.406  15.747  2.2389  0.1386 -1.0825
   65MPD2    H2  997   1.517   2.790  15.648 -1.0304 -0.2424  2.1078
   65MPD2    H3  998   1.499   2.636  15.805  0.7573 -0.8018  0.5535
   65MPD2     N  999   1.378   2.310  15.518  0.3790 -0.4345  0.6758
   65MPD2    H5 1000   1.339   2.260  15.597 -2.4016 -0.3292 -0.6575
   65MPD2    N1 1001   1.466   2.770  15.381 -0.3393 -0.2414 -0.0608
   65MPD2    H7 1002   1.457   2.730  15.289 -1.2909  0.8388 -0.4446
   66TCq2    C1 1003   1.460   2.903  15.399  0.4659 -0.2418 -0.0016
   66TCq2    O2 1004   1.423   2.960  15.502 -0.5167  0.9693  0.3345
   66TCq2    C2 1005   1.468   2.972  15.272 -0.6392 -0.5593  0.1867
   66TCq2    C3 1006   1.534   2.915  15.162  0.0492 -0.0925  0.1566
   66TCq2    C4 1007   1.549   2.980  15.047 -0.2224 -0.5655 -0.2595
   66TCq2    C5 1008   1.484   3.110  15.031 -0.4050 -0.1784 -0.0239
   66TCq2    C6 1009   1.425   3.163  15.145 -0.4058 -0.7324 -0.3557
   66TCq2    C7 1010   1.423   3.099  15.268 -0.1938  0.4636 -0.1054
   66TCq2    C8 1011   1.366   3.291  15.135  0.6759 -0.8484 -0.8371
   66TCq2    O4 1012   1.340   3.341  15.024 -0.4149 -0.1497  0.9462
   66TCq2    C9 1013   1.610   2.902  14.939 -0.5365  0.7089  0.3237
   66TCq2    O5 1014   1.616   2.962  14.829 -0.9149 -0.6726 -0.6532
   66TCq2    O6 1015   1.640   2.783  14.957  0.1052 -0.3703  0.3039
   66TCq2    H2 1016   1.588   2.822  15.176  0.5689  0.4888  2.0577
   66TCq2    H3 1017   1.497   3.161  14.936 -0.9965  0.4504  0.2341
   66TCq2    H4 1018   1.389   3.136  15.365  0.3368  1.4911 -0.3116
   67MPD2     C 1019   1.348   2.222  13.930 -0.0269  0.2554 -0.0140
   67MPD2    C1 1020   1.286   2.300  14.034 -0.1536 -0.4253  0.0627
   67MPD2    C2 1021   1.155   2.342  14.013  0.7037  0.4985 -0.4652
   67MPD2    C3 1022   1.082   2.293  13.916  0.0628  0.4621 -0.5258
   67MPD2    C4 1023   1.135   2.201  13.826 -0.0147 -0.1871  0.3618
   67MPD2    C5 1024   1.267   2.175  13.832 -0.8055 -0.3923 -0.0957
   67MPD2     H 1025   1.122   2.402  14.098 -1.2149 -2.0918  0.6054
   67MPD2    H1 1026   1.075   2.162  13.745 -1.2180  0.8062  0.7653
   67MPD2    H2 1027   1.454   2.201  13.937  0.0667  1.0039  0.7012
   67MPD2    H3 1028   1.319   2.115  13.758  0.7710  2.9920 -1.7215
   67MPD2     N 1029   0.944   2.324  13.902  0.4749  0.5255  0.5065
   67MPD2    H5 1030   0.892   2.289  13.822 -0.4132  0.5050  1.1006
   67MPD2    N1 1031   1.354   2.329  14.150 -0.4723 -0.4129 -0.0995
   67MPD2    H7 1032   1.320   2.407  14.206 -1.0742 -0.3825 -0.5105
   68TCq2    C1 1033   1.478   2.281  14.188 -0.5057  0.1352  0.0189
   68TCq2    O2 1034   1.546   2.188  14.145  0.2807  0.4549 -0.6772
   68TCq2    C2 1035   1.534   2.351  14.302  0.0416 -0.1907 -0.2850
   68TCq2    C3 1036   1.473   2.474  14.335 -0.1050 -0.0816  0.3140
   68TCq2    C4 1037   1.543   2.552  14.419  0.0061 -0.9956  0.0093
   68TCq2    C5 1038   1.667   2.521  14.468 -0.1659  0.1071 -0.2035
   68TCq2    C6 1039   1.714   2.394  14.434  0.1900 -0.2439  0.0454
   68TCq2    C7 1040   1.651   2.312  14.351  0.2122  0.8096 -1.2106
   68TCq2    C8 1041   1.813   2.341  14.517  0.4684 -0.4921 -1.2158
   68TCq2    O4 1042   1.895   2.267  14.473  0.1307 -0.5019  0.0716
   68TCq2    C9 1043   1.485   2.680  14.456 -0.5221  1.2787  0.1567
   68TCq2    O5 1044   1.552   2.756  14.528 -0.3793 -0.2578 -0.2792
   68TCq2    O6 1045   1.363   2.699  14.432 -0.9160  0.2423  0.1002
   68TCq2    H2 1046   1.379   2.515  14.300  0.9916  1.2119 -1.1208
   68TCq2    H3 1047   1.722   2.594  14.528 -1.6860  0.0243  1.2814
   68TCq2    H4 1048   1.697   2.216  14.336  0.3561  0.9358 -1.5858
   69TMC2    C1 1049   2.936   3.482  11.719  0.5284 -0.7254  0.0626
   69TMC2    C2 1050   2.819   3.554  11.702  0.2393 -0.1682 -0.1106
   69TMC2    C3 1051   2.801   3.600  11.575  0.4717  0.0749 -0.4385
   69TMC2    C4 1052   3.024   3.450  11.618  0.2298  0.0519  0.3182
   69TMC2    C5 1053   3.002   3.498  11.497  0.0274  0.0634 -0.5421
   69TMC2    C6 1054   2.890   3.574  11.472  1.0098  0.3510 -0.1549
   69TMC2     C 1055   2.976   3.452  11.856  0.2123  0.6007  0.1610
   69TMC2     O 1056   2.889   3.468  11.941  0.0804  0.3962  0.2197
   69TMC2     H 1057   2.748   3.565  11.783  1.3540  1.3582  0.6699
   69TMC2    H1 1058   3.102   3.375  11.630  1.1917  0.5669 -2.5961
   69TMC2    H2 1059   2.859   3.593  11.370 -0.8388 -1.1413  0.1253
   69TMC2    C7 1060   3.109   3.504  11.402  0.6541  0.1052 -0.3211
   69TMC2    C8 1061   2.680   3.664  11.535 -0.0384 -0.6258 -0.2880
   69TMC2    O1 1062   3.208   3.442  11.438  0.1685  0.0587 -0.4506
   69TMC2    O2 1063   2.668   3.715  11.427 -0.5038 -0.3128 -0.1258
   69TMC2    O5 1064   2.593   3.661  11.639  0.4462  0.2920  0.0392
   69TMC2    H5 1065   2.519   3.725  11.636 -0.6776 -1.0406 -0.7147
   70MPD2     C 1066   3.313   3.388  11.968  0.0425 -0.7960  0.0597
   70MPD2    C1 1067   3.178   3.403  11.983 -0.4888  0.0314  0.0461
   70MPD2    C2 1068   3.117   3.377  12.106  0.8937 -0.1623  0.7874
   70MPD2    C3 1069   3.200   3.340  12.214 -0.1024  0.6140  0.8378
   70MPD2    C4 1070   3.339   3.330  12.191  0.0688  0.4178 -0.0544
   70MPD2    C5 1071   3.396   3.361  12.071 -0.3915 -1.0120  0.3854
   70MPD2     H 1072   3.009   3.375  12.113  0.8589 -0.8782 -0.0278
   70MPD2    H1 1073   3.404   3.290  12.267 -1.2634  1.5765  1.6948
   70MPD2    H2 1074   3.354   3.399  11.868  0.8073 -1.1966  0.3251
   70MPD2    H3 1075   3.503   3.345  12.057 -0.6196 -1.2138 -1.1655
   70MPD2     N 1076   3.155   3.302  12.335 -0.5368  0.5549  0.1865
   70MPD2    H5 1077   3.224   3.273  12.404 -0.3894 -0.2668 -0.2977
   70MPD2    N1 1078   3.111   3.442  11.863  0.1149 -0.0618  0.2414
   70MPD2    H7 1079   3.170   3.449  11.780  2.1973  0.8184  1.8019
   71TMC2    C1 1080   2.098   4.513   1.695 -0.7219 -0.6021 -0.1326
   71TMC2    C2 1081   2.222   4.552   1.732  0.2546 -0.1166 -0.1945
   71TMC2    C3 1082   2.231   4.603   1.859 -0.3269 -0.1471 -0.0382
   71TMC2    C4 1083   1.986   4.507   1.779  0.0386  0.4404 -0.7437
   71TMC2    C5 1084   2.003   4.564   1.902  0.0757 -0.3131 -0.2097
   71TMC2    C6 1085   2.124   4.613   1.945 -0.6484  0.7770 -0.7122
   71TMC2     C 1086   2.087   4.475   1.559  0.2030 -0.0578 -1.0230
   71TMC2     O 1087   2.193   4.452   1.507  0.1842  0.0030  0.4462
   71TMC2     H 1088   2.305   4.567   1.664 -0.8272 -1.0777 -1.7407
   71TMC2    H1 1089   1.894   4.457   1.751 -0.5084  1.0495 -0.0223
   71TMC2    H2 1090   2.123   4.643   2.049  1.8704  1.3141 -0.8415
   71TMC2    C7 1091   1.898   4.553   2.005 -0.6655 -0.8628 -0.4490
   71TMC2    C8 1092   2.353   4.653   1.909 -0.0571  0.2488  0.4745
   71TMC2    O1 1093   1.929   4.568   2.123  0.3918  0.1375  0.3265
   71TMC2    O2 1094   2.352   0.036   1.977 -0.6007 -0.0892 -0.0020
   71TMC2    O5 1095   2.453   4.600   1.843 -0.2171  0.0420 -0.5220
   71TMC2    H5 1096   2.437   4.506   1.820 -1.0665 -0.5419  2.4574
   72MPD2     C 1097   1.902   4.239   1.139  0.0323 -0.2776  0.2071
   72MPD2    C1 1098   2.022   4.306   1.170  0.2895  0.0068  0.5462
   72MPD2    C2 1099   2.042   4.368   1.290  0.2525  0.1639 -0.8737
   72MPD2    C3 1100   1.947   4.368   1.390  0.1135  0.1073  0.0622
   72MPD2    C4 1101   1.826   4.303   1.361  0.1491 -0.2442 -0.0826
   72MPD2    C5 1102   1.806   4.250   1.234 -0.3356 -0.1267 -0.4785
   72MPD2     H 1103   2.144   4.403   1.299  0.9951 -2.2393  0.1293
   72MPD2    H1 1104   1.744   4.307   1.432 -0.9571  3.4651 -1.5296
   72MPD2    H2 1105   1.884   4.199   1.040 -0.2288  1.4780 -0.4608
   72MPD2    H3 1106   1.706   4.215   1.210  0.7507 -1.6523 -2.8283
   72MPD2     N 1107   1.964   4.435   1.511 -0.3490  0.1643 -0.6224
   72MPD2    H5 1108   1.889   4.427   1.580 -0.7758  0.4157 -1.0603
   72MPD2    N1 1109   2.125   4.323   1.073 -0.3849 -0.1468  0.7731
   72MPD2    H7 1110   2.204   4.381   1.098 -0.8052  0.5699  0.4379
   73TMC2    C1 1111   0.351   0.880  13.959 -0.1681 -0.5048  0.2070
   73TMC2    C2 1112   0.344   0.759  13.899 -0.5529  0.5954  0.5665
   73TMC2    C3 1113   0.400   0.644  13.950 -0.7723  0.4564 -0.7301
   73TMC2    C4 1114   0.426   0.883  14.075  0.5830  0.1482  0.1198
   73TMC2    C5 1115   0.494   0.770  14.122  0.1776  0.3838  0.0505
   73TMC2    C6 1116   0.482   0.645  14.057 -0.1561 -0.4617  0.7698
   73TMC2     C 1117   0.401   0.978  13.864  0.5524 -0.4066 -0.7591
   73TMC2     O 1118   0.513   1.020  13.895  0.1681 -0.0100 -0.0440
   73TMC2     H 1119   0.281   0.754  13.810  1.0249 -0.0487 -0.5280
   73TMC2    H1 1120   0.437   0.977  14.129  0.0415 -0.6982  1.6950
   73TMC2    H2 1121   0.553   0.565  14.074 -2.1781 -2.5761 -0.8318
   73TMC2    C7 1122   0.629   0.797  14.163 -0.5591  0.4173  0.2888
   73TMC2    C8 1123   0.398   0.518  13.870  0.4487  0.2490 -0.3469
   73TMC2    O1 1124   0.686   0.713  14.229 -0.0257 -0.6237 -0.7418
   73TMC2    O2 1125   0.320   0.425  13.879 -0.0913 -0.1345  0.2191
   73TMC2    O5 1126   0.428   0.565  13.744 -0.0914 -0.2473  0.0184
   73TMC2    H5 1127   0.503   0.628  13.748 -1.0312  0.9621 -1.6687
   74MPD2     C 1128   0.378   1.371  13.540  0.1840  0.3559 -0.3441
   74MPD2    C1 1129   0.456   1.354  13.647 -0.1961  0.4310  0.2158
   74MPD2    C2 1130   0.431   1.243  13.727 -0.0053  0.1196 -0.3264
   74MPD2    C3 1131   0.336   1.150  13.703 -0.5393 -0.2563 -0.7200
   74MPD2    C4 1132   0.256   1.174  13.595  0.3010 -0.8559  0.6784
   74MPD2    C5 1133   0.273   1.283  13.519  0.1524 -0.1560  0.3485
   74MPD2     H 1134   0.490   1.229  13.817  4.1833  2.1363 -2.7446
   74MPD2    H1 1135   0.168   1.113  13.580  0.2841 -0.4764 -0.7994
   74MPD2    H2 1136   0.395   1.450  13.467  0.0193  1.3888  0.7489
   74MPD2    H3 1137   0.206   1.305  13.436  0.2427  0.7709  0.5189
   74MPD2     N 1138   0.314   1.038  13.782 -0.1044 -0.3770 -0.0106
   74MPD2    H5 1139   0.227   0.987  13.769  0.3046 -1.4273  1.3340
   74MPD2    N1 1140   0.569   1.435  13.665 -0.1000  0.0644  0.4229
   74MPD2    H7 1141   0.578   1.508  13.595  1.5100  0.3817  0.9520
   75TCq2    C1 1142   0.867   2.394  14.001  0.7421 -0.3286  0.3235
   75TCq2    O2 1143   0.882   2.407  14.123  0.1284 -0.3404  0.4602
   75TCq2    C2 1144   0.741   2.451  13.952 -0.2299 -0.0910 -0.3000
   75TCq2    C3 1145   0.642   2.475  14.042  0.1998  0.2887  0.3360
   75TCq2    C4 1146   0.530   2.544  13.997  0.0188 -0.2328  0.6622
   75TCq2    C5 1147   0.521   2.585  13.865  0.0183  0.0715 -0.8880
   75TCq2    C6 1148   0.626   2.560  13.784 -0.7570 -0.0447  0.6237
   75TCq2    C7 1149   0.730   2.487  13.820 -1.0628 -0.0084 -0.3818
   75TCq2    C8 1150   0.603   2.576  13.643 -0.1062  0.4954  0.0884
   75TCq2    O4 1151   0.657   2.508  13.554  0.1402  0.6371 -0.3240
   75TCq2    C9 1152   0.410   2.565  14.082  0.4991 -0.3661  0.2561
   75TCq2    O5 1153   0.408   2.499  14.187 -0.0431 -0.1484 -0.2255
   75TCq2    O6 1154   0.301   2.588  14.021 -0.1158  0.1992  0.2708
   75TCq2    H2 1155   0.637   2.436  14.144  1.8944  0.8242  0.6141
   75TCq2    H3 1156   0.427   2.629  13.834  0.7475  1.0759 -1.6940
   75TCq2    H4 1157   0.811   2.488  13.748 -0.5797 -1.0842  0.1442
   76MPD2     C 1158   3.915   3.067  11.609 -0.3403 -0.1350 -0.0612
   76MPD2    C1 1159   3.936   3.041  11.476 -0.4068 -0.1869 -0.0680
   76MPD2    C2 1160   3.990   2.921  11.427  0.2067 -0.4359  0.1506
   76MPD2    C3 1161   4.027   2.820  11.521 -0.2175  0.4750 -0.6984
   76MPD2    C4 1162   4.009   2.853  11.655 -0.6162  0.4011  0.3639
   76MPD2    C5 1163   3.953   2.971  11.695  0.0452 -0.6688  0.0579
   76MPD2     H 1164   3.998   2.902  11.321 -0.9508  2.7411 -0.5119
   76MPD2    H1 1165   4.037   2.777  11.727  1.6143  0.9230  0.0626
   76MPD2    H2 1166   3.866   3.160  11.638  1.1454  1.4110 -2.5012
   76MPD2    H3 1167   3.928   2.990  11.799 -1.7574  0.2899 -0.5564
   76MPD2     N 1168   4.065   2.690  11.485  0.7460  0.0980 -0.0150
   76MPD2    H5 1169   4.080   2.621  11.558 -1.0723  1.0809  1.2801
   76MPD2    N1 1170   3.903   3.142  11.386 -0.2190  0.0367 -0.1042
   76MPD2    H7 1171   3.871   3.227  11.432  0.1159 -0.1160  0.4021
   77TCq2    C1 1172   4.066   2.644  11.352  0.0476 -0.5477  0.0858
   77TCq2    O2 1173   4.047   2.707  11.244  0.5457  0.8822 -0.1798
   77TCq2    C2 1174   4.110   2.500  11.350  0.0211  0.1217 -0.3055
   77TCq2    C3 1175   4.028   2.421  11.284  0.7119 -0.0225 -0.1499
   77TCq2    C4 1176   4.041   2.290  11.301  0.3608 -0.0701 -0.1539
   77TCq2    C5 1177   4.125   2.239  11.397  0.1876  0.2998 -0.0858
   77TCq2    C6 1178   4.198   2.326  11.475 -0.4973 -0.0673  0.0720
   77TCq2    C7 1179   4.193   2.459  11.452 -0.9747  0.1229 -0.1298
   77TCq2    C8 1180   4.258   2.269  11.597 -0.1139 -0.9610  0.3203
   77TCq2    O4 1181   4.221   2.158  11.635  0.3928  0.3264 -0.5994
   77TCq2    C9 1182   3.946   2.205  11.240 -0.3750  0.2246 -0.6383
   77TCq2    O5 1183   3.947   2.086  11.274 -0.1123  0.3426  0.0356
   77TCq2    O6 1184   3.843   2.254  11.188 -0.2461  0.4209 -0.1452
   77TCq2    H2 1185   3.953   2.454  11.212  0.0853  2.3343  1.5796
   77TCq2    H3 1186   4.117   2.136  11.432  0.1917 -0.0984 -1.2666
   77TCq2    H4 1187   4.254   2.530  11.506 -1.0219 -0.8063  1.1452
   78MPD1     C 1188   1.879   4.421   2.833  0.1613  0.5468 -0.5609
   78MPD1    C1 1189   1.744   4.433   2.832  0.3115 -0.0161  0.3704
   78MPD1    C2 1190   1.683   4.412   2.706  0.1721  0.2630  0.1124
   78MPD1    C3 1191   1.740   4.343   2.598 -0.0357  0.0048  0.1649
   78MPD1    C4 1192   1.873   4.318   2.611  0.0530  0.2400  0.0392
   78MPD1    C5 1193   1.938   4.353   2.730 -0.6050  0.3056 -0.2350
   78MPD1     H 1194   1.577   4.433   2.700 -0.1481 -0.4955  2.8337
   78MPD1    H1 1195   1.934   4.261   2.542 -0.8802  1.2860 -1.6244
   78MPD1    H2 1196   1.935   4.452   2.920 -1.0533  0.0991  0.3839
   78MPD1    H3 1197   2.046   4.349   2.733 -0.6575 -0.5329  0.5292
   78MPD1     N 1198   1.668   4.320   2.483 -0.0349  0.4712  0.6873
   78MPD1    H5 1199   1.717   4.276   2.405  1.5698  0.0473  1.9455
   78MPD1    N1 1200   1.688   4.519   2.927 -0.3791 -0.0555  0.6344
   78MPD1    H6 1201   1.587   4.513   2.938 -0.5587 -0.1393 -1.0796
   78MPD1    H7 1202   1.727   4.505   3.020 -0.5058  1.7003  0.9398
   79TCq2    C1 1203   1.538   4.349   2.454 -1.0205  0.3140  0.9903
   79TCq2    O2 1204   1.450   4.396   2.527  0.1802 -0.4329 -0.2152
   79TCq2    C2 1205   1.483   4.302   2.326 -0.7402  0.1637 -0.5386
   79TCq2    C3 1206   1.347   4.299   2.297 -0.6039 -0.4981  1.0850
   79TCq2    C4 1207   1.300   4.281   2.171  0.1943  0.1823 -0.6413
   79TCq2    C5 1208   1.384   4.255   2.073  0.9383  0.0979 -0.0268
   79TCq2    C6 1209   1.522   4.240   2.107  0.0947 -0.0935 -0.3702
   79TCq2    C7 1210   1.577   4.273   2.232 -0.2469 -0.1036  0.6224
   79TCq2    C8 1211   1.621   4.209   2.007  0.4638  0.2182  0.1671
   79TCq2    O4 1212   1.739   4.230   2.019  0.0227  0.2025 -0.0056
   79TCq2    C9 1213   1.158   4.316   2.151 -0.1266 -0.1543  0.1991
   79TCq2    O5 1214   1.127   4.308   2.035 -0.0239 -0.0158  0.4520
   79TCq2    O6 1215   1.079   4.321   2.252  0.4894  0.5256  0.3621
   79TCq2    H2 1216   1.277   4.342   2.368 -0.9575 -0.3445  0.6465
   79TCq2    H3 1217   1.345   4.257   1.972  0.6674  0.2372  0.0800
   79TCq2    H4 1218   1.681   4.295   2.250 -0.9575  1.0311  3.3620
   80MPD2     C 1219   3.580   2.339  12.151  0.5881 -0.8268  0.9026
   80MPD2    C1 1220   3.464   2.376  12.081  0.2919 -0.6559  0.9395
   80MPD2    C2 1221   3.366   2.448  12.147  0.0665 -0.1599  0.1064
   80MPD2    C3 1222   3.371   2.477  12.282  0.3707  0.2341  0.0660
   80MPD2    C4 1223   3.490   2.436  12.348  0.7037 -0.1123  0.1451
   80MPD2    C5 1224   3.591   2.367  12.281  0.0019  0.0586  0.4665
   80MPD2     H 1225   3.278   2.466  12.087 -1.5160  0.7923  2.7271
   80MPD2    H1 1226   3.504   2.469  12.451 -0.3582  0.4589  0.1070
   80MPD2    H2 1227   3.661   2.281  12.107  1.6627  1.0216  0.4194
   80MPD2    H3 1228   3.678   2.320  12.325 -0.0914  0.0411  0.6316
   80MPD2     N 1229   3.275   2.542  12.362  0.1580  0.0669  0.0846
   80MPD2    H5 1230   3.311   2.558  12.455 -1.1365  1.4938  0.3454
   80MPD2    N1 1231   3.441   2.350  11.947  0.0264  0.2810  0.6105
   80MPD2    H7 1232   3.351   2.379  11.909 -0.1500  1.1092  1.6827
   81TCq2    C1 1233   3.526   2.287  11.851  0.5079 -0.3181  0.1606
   81TCq2    O2 1234   3.637   2.239  11.851  0.0557  0.0050  0.5765
   81TCq2    C2 1235   3.442   2.246  11.743 -0.4926  0.8390 -0.3741
   81TCq2    C3 1236   3.495   2.261  11.618 -0.2538  0.0920  0.0905
   81TCq2    C4 1237   3.422   2.225  11.514  0.5631 -0.0667  0.1619
   81TCq2    C5 1238   3.289   2.182  11.535 -0.1367  0.3714  0.0219
   81TCq2    C6 1239   3.243   2.168  11.667  0.1409 -0.4467 -0.4863
   81TCq2    C7 1240   3.321   2.189  11.769 -0.3163 -0.2153  0.1764
   81TCq2    C8 1241   3.120   2.085  11.683  0.5053 -0.6752  0.1172
   81TCq2    O4 1242   3.071   2.044  11.578  0.0254  0.3552 -0.4301
   81TCq2    C9 1243   3.472   2.254  11.385  0.2189  0.1537  0.3741
   81TCq2    O5 1244   3.400   2.255  11.281  0.1935  0.6055 -0.3073
   81TCq2    O6 1245   3.599   2.255  11.376  0.6210  0.1087 -0.0359
   81TCq2    H2 1246   3.585   2.322  11.612  0.2675 -0.8662 -2.0787
   81TCq2    H3 1247   3.215   2.178  11.456 -0.1264  2.0496 -0.0675
   81TCq2    H4 1248   3.296   2.175  11.874  0.0389  0.7995  0.3949
   82MPD2     C 1249   0.893   2.372  10.563  0.8158  0.4288  0.1473
   82MPD2    C1 1250   1.001   2.348  10.489 -0.0606  0.3235  1.2588
   82MPD2    C2 1251   1.114   2.296  10.543  0.0054 -0.6141  0.1992
   82MPD2    C3 1252   1.118   2.268  10.679  0.5743  0.5233  0.2464
   82MPD2    C4 1253   1.000   2.286  10.756 -0.2781  0.8050  0.7467
   82MPD2    C5 1254   0.885   2.331  10.690  0.2953  0.0583 -0.3591
   82MPD2     H 1255   1.207   2.278  10.489  0.0168  2.0548 -0.6715
   82MPD2    H1 1256   0.989   2.271  10.862 -0.1946  2.0259  0.9211
   82MPD2    H2 1257   0.807   2.430  10.529 -0.4821  0.7012  3.8399
   82MPD2    H3 1258   0.795   2.332  10.751  0.0885 -0.4784 -0.6577
   82MPD2     N 1259   1.231   2.220  10.747 -0.1616 -0.5416 -0.0249
   82MPD2    H5 1260   1.213   2.191  10.843 -1.1111  1.3588  0.3752
   82MPD2    N1 1261   0.985   2.375  10.349 -0.5772  0.5295 -0.2827
   82MPD2    H7 1262   0.898   2.417  10.318 -0.9363 -0.5304 -0.7137
   83TCq2    C1 1263   1.358   2.220  10.693 -0.1052  0.0521  0.0180
   83TCq2    O2 1264   1.399   2.277  10.589 -0.1509 -0.1605 -0.2114
   83TCq2    C2 1265   1.457   2.153  10.773  0.0771 -0.2178 -0.2437
   83TCq2    C3 1266   1.585   2.199  10.763 -0.2071 -0.2601 -0.0194
   83TCq2    C4 1267   1.677   2.136  10.836 -0.3291 -0.6166 -0.3028
   83TCq2    C5 1268   1.655   2.024  10.913 -0.1447  0.4049 -0.5048
   83TCq2    C6 1269   1.528   1.980  10.915 -0.2575 -0.3136  0.3206
   83TCq2    C7 1270   1.426   2.042  10.852  0.2556 -0.1582 -0.4030
   83TCq2    C8 1271   1.500   1.848  10.974  0.2938 -0.0681 -0.2993
   83TCq2    O4 1272   1.582   1.818  11.057 -0.1957  0.0485  0.3050
   83TCq2    C9 1273   1.815   2.189  10.833  0.2469 -0.3742  0.3360
   83TCq2    O5 1274   1.905   2.132  10.898  0.4266  0.2989  0.6259
   83TCq2    O6 1275   1.834   2.304  10.788  0.0792 -0.2773 -1.0735
   83TCq2    H2 1276   1.617   2.286  10.706 -0.3907 -0.6024 -0.6484
   83TCq2    H3 1277   1.745   1.974  10.946 -1.6911  0.0791  3.2110
   83TCq2    H4 1278   1.330   1.991  10.852 -0.2872  0.9287  2.0111
   84TCq2    C1 1279   2.429   0.050  10.934  0.9237 -0.1139 -0.1039
   84TCq2    O2 1280   2.353   0.001  10.858 -0.3691  0.6985 -0.0505
   84TCq2    C2 1281   2.474   4.692  11.045  0.0638  0.0077 -0.1750
   84TCq2    C3 1282   2.373   4.620  11.101  0.0986  0.2769 -0.6129
   84TCq2    C4 1283   2.371   4.605  11.240 -0.8086  0.0751 -0.6140
   84TCq2    C5 1284   2.475   4.657  11.317 -0.6182  0.2387 -0.3821
   84TCq2    C6 1285   2.578   4.720  11.252 -0.1698 -0.1070  0.3766
   84TCq2    C7 1286   2.581   0.011  11.119  0.5660  0.2778  0.8952
   84TCq2    C8 1287   2.697   0.036  11.324 -0.2906  0.1216  0.0518
   84TCq2    O4 1288   2.780   0.114  11.276  0.1174  0.7415 -0.0628
   84TCq2    C9 1289   2.260   4.530  11.292  0.7673 -0.2902 -0.3984
   84TCq2    O5 1290   2.168   4.491  11.215 -0.0162 -0.5762  0.1243
   84TCq2    O6 1291   2.253   4.500  11.417  0.2052 -0.2498  0.2416
   84TCq2    H2 1292   2.285   4.597  11.042  1.1505 -0.8039 -1.7512
   84TCq2    H3 1293   2.456   4.635  11.422  1.1763  0.3231 -0.0347
   84TCq2    H4 1294   2.674   0.049  11.080 -0.0596  0.1582 -0.7382
   85MPD2     C 1295   3.467   3.823  16.355  0.1193  0.1596  0.5503
   85MPD2    C1 1296   3.382   3.852  16.248 -0.2466  0.0059 -0.7626
   85MPD2    C2 1297   3.403   3.968  16.174  0.0372 -0.1031 -0.1916
   85MPD2    C3 1298   3.493   4.070  16.222 -0.0007  0.3210 -0.0532
   85MPD2    C4 1299   3.579   4.034  16.326 -0.8305 -0.1162 -0.0855
   85MPD2    C5 1300   3.570   3.914  16.388  0.8761  0.1886  0.0897
   85MPD2     H 1301   3.341   3.986  16.088  0.7478 -1.1419 -0.9266
   85MPD2    H1 1302   3.647   4.108  16.367  0.9384 -2.1983  0.7521
   85MPD2    H2 1303   3.450   3.733  16.412  3.1519 -0.6586  0.1366
   85MPD2    H3 1304   3.644   3.882  16.460  3.9047 -1.0429 -3.5372
   85MPD2     N 1305   3.491   4.188  16.155  0.0801 -0.2795  0.2129
   85MPD2    H5 1306   3.417   4.208  16.089 -0.3883  0.1970  0.8803
   85MPD2    N1 1307   3.289   3.758  16.194 -0.3856  0.2287 -0.3231
   85MPD2    H7 1308   3.251   3.770  16.101 -2.4432  0.5171  0.5611
   86TCq2    C1 1309   3.597   4.267  16.143  0.2629 -0.3693  0.1657
   86TCq2    O2 1310   3.710   4.237  16.170  0.4329 -0.3241 -0.3093
   86TCq2    C2 1311   3.567   4.394  16.079  0.3251 -0.7048  0.0888
   86TCq2    C3 1312   3.443   4.443  16.076 -0.1875 -0.7393  0.0774
   86TCq2    C4 1313   3.437   4.576  16.039  0.0167  0.2980 -0.6350
   86TCq2    C5 1314   3.548   4.652  16.015 -0.6472  0.4186 -0.3035
   86TCq2    C6 1315   3.665   4.591  16.007  0.0657 -0.1400  0.9321
   86TCq2    C7 1316   3.676   4.465  16.043  0.3657  0.6198  0.0422
   86TCq2    C8 1317   3.757   4.627  15.894  0.2564 -0.3905  0.3272
   86TCq2    O4 1318   3.871   4.591  15.919  0.1147  0.3805 -0.0933
   86TCq2    C9 1319   3.303   4.636  16.020 -0.0211 -0.1389 -0.5460
   86TCq2    O5 1320   3.204   4.555  16.018  0.0983  0.1735 -0.3717
   86TCq2    O6 1321   3.295   0.041  16.001 -0.4867 -0.0907 -0.1904
   86TCq2    H2 1322   3.358   4.392  16.118 -1.0127  1.5320  1.1631
   86TCq2    H3 1323   3.538   0.035  15.982  0.1615  0.4682 -0.3809
   86TCq2    H4 1324   3.769   4.412  16.026  0.0727 -0.3099  1.3743
   87MPD2     C 1325   0.782   2.734   0.818  0.1169  0.0443  0.0130
   87MPD2    C1 1326   0.778   2.861   0.873 -0.1922  0.7977  0.5673
   87MPD2    C2 1327   0.686   2.950   0.825  0.8933 -0.4174  0.0480
   87MPD2    C3 1328   0.594   2.908   0.727 -0.6326  0.3459 -0.0004
   87MPD2    C4 1329   0.601   2.781   0.672  0.6636  0.3206 -0.2492
   87MPD2    C5 1330   0.692   2.693   0.722  0.4271 -0.2354  0.4673
   87MPD2     H 1331   0.691   3.053   0.858  2.2756 -0.5565  0.2794
   87MPD2    H1 1332   0.529   2.747   0.598 -1.6550  3.0827  0.7368
   87MPD2    H2 1333   0.855   2.659   0.848 -1.2428 -0.8326  1.1801
   87MPD2    H3 1334   0.690   2.588   0.697  1.2855 -0.0405 -0.4076
   87MPD2     N 1335   0.498   2.993   0.667  0.5110 -0.4392  0.5000
   87MPD2    H5 1336   0.441   2.943   0.600  0.0867  2.2240 -1.1075
   87MPD2    N1 1337   0.882   2.890   0.965 -0.4110 -0.3879  0.1070
   87MPD2    H7 1338   0.943   2.812   0.987  0.1646  0.0799  0.1753
   88TCq2    C1 1339   0.902   3.010   1.027  0.2685 -0.0201 -0.1752
   88TCq2    O2 1340   0.839   3.117   1.022  0.1871 -0.4668 -0.4838
   88TCq2    C2 1341   1.029   3.028   1.099  0.0844 -1.1876 -0.1423
   88TCq2    C3 1342   1.043   3.137   1.182  0.2158 -0.3589  0.0893
   88TCq2    C4 1343   1.171   3.186   1.208  0.9848  0.4799  0.1590
   88TCq2    C5 1344   1.280   3.129   1.151 -0.2982 -0.2412  0.3504
   88TCq2    C6 1345   1.264   3.012   1.078 -0.3909  0.0867 -0.4344
   88TCq2    C7 1346   1.139   2.959   1.055  0.6858 -0.2694 -0.2923
   88TCq2    C8 1347   1.376   2.950   1.011 -0.0577 -0.0847  0.6834
   88TCq2    O4 1348   1.343   2.869   0.923  0.1635 -0.2029  0.1436
   88TCq2    C9 1349   1.186   3.302   1.296  0.1923 -0.9216 -0.1318
   88TCq2    O5 1350   1.075   3.360   1.323 -0.2732  0.1492  0.1894
   88TCq2    O6 1351   1.302   3.331   1.336  0.0388  0.0824 -0.0349
   88TCq2    H2 1352   0.960   3.189   1.228 -0.0364 -0.8010  0.1254
   88TCq2    H3 1353   1.378   3.167   1.175 -0.6028  0.8994 -0.2258
   88TCq2    H4 1354   1.142   2.869   0.996  0.6394 -1.3926  1.4206
   89MPD2     C 1355   2.966   0.546   1.422 -0.0368 -0.3828  0.0691
   89MPD2    C1 1356   2.951   0.583   1.556 -0.2962  0.0019  0.9826
   89MPD2    C2 1357   3.053   0.649   1.627 -0.0838 -0.2459  0.8197
   89MPD2    C3 1358   3.160   0.703   1.554  0.1929  0.6342  0.7282
   89MPD2    C4 1359   3.165   0.680   1.416 -0.5488 -0.2327  0.1077
   89MPD2    C5 1360   3.069   0.602   1.354  0.9852  0.1125 -0.0257
   89MPD2     H 1361   3.044   0.657   1.735  1.2262 -2.1052  1.0603
   89MPD2    H1 1362   3.249   0.714   1.357 -0.2117  0.6782  1.0999
   89MPD2    H2 1363   2.895   0.481   1.372  0.3218 -1.0400  0.4023
   89MPD2    H3 1364   3.066   0.580   1.248  0.3239  1.4084 -0.2783
   89MPD2     N 1365   3.255   0.767   1.633 -0.7672 -0.3548  0.1257
   89MPD2    H5 1366   3.237   0.760   1.733 -2.3484 -0.4548 -0.1683
   89MPD2    N1 1367   2.844   0.538   1.631 -0.1499  0.9263  0.1058
   89MPD2    H7 1368   2.845   0.562   1.729 -1.1741  2.6644 -0.3005
   90TCq2    C1 1369   3.376   0.820   1.588 -0.2634  0.6057 -0.4950
   90TCq2    O2 1370   3.406   0.851   1.471  0.2860  0.3625  0.2203
   90TCq2    C2 1371   3.458   0.875   1.693  0.1136 -0.0626  0.2024
   90TCq2    C3 1372   3.434   0.844   1.824 -0.1205 -0.0635  0.7275
   90TCq2    C4 1373   3.496   0.917   1.922  0.0783  0.0824 -0.0148
   90TCq2    C5 1374   3.583   1.018   1.890 -0.0020  0.0846  0.4467
   90TCq2    C6 1375   3.626   1.035   1.767 -0.0296  0.0947 -0.8735
   90TCq2    C7 1376   3.559   0.966   1.664  0.3318 -0.0379  0.2047
   90TCq2    C8 1377   3.703   1.153   1.742 -0.1503 -0.5365 -0.3050
   90TCq2    O4 1378   3.748   1.209   1.839  0.1194  0.4678  0.2946
   90TCq2    C9 1379   3.466   0.889   2.059 -0.0669 -0.9331  0.2024
   90TCq2    O5 1380   3.459   0.993   2.136 -0.1671  0.4652 -0.3722
   90TCq2    O6 1381   3.406   0.781   2.088  0.2263 -0.7140  0.1990
   90TCq2    H2 1382   3.365   0.771   1.866  0.9311 -0.8604  1.0595
   90TCq2    H3 1383   3.631   1.071   1.972  1.2553 -0.5242  0.1121
   90TCq2    H4 1384   3.582   0.983   1.560  0.4322  0.9397  0.3859
   91TMC2    C1 1385   3.780   0.117  16.651 -0.4917  0.1593 -0.1522
   91TMC2    C2 1386   3.818   0.189  16.537  0.9996  0.2021 -0.1790
   91TMC2    C3 1387   3.716   0.218  16.447  0.0070  0.9720 -0.7024
   91TMC2    C4 1388   3.652   0.070  16.663  0.2070  0.2521  0.4460
   91TMC2    C5 1389   3.558   0.103  16.570  0.3962 -0.2496 -0.7361
   91TMC2    C6 1390   3.585   0.182  16.455  0.0231 -0.2169 -0.0087
   91TMC2     C 1391   3.884   0.051  16.733  0.0200 -0.4676 -0.4051
   91TMC2     O 1392   3.849   4.695  16.823 -0.0084  0.1687  0.2312
   91TMC2     H 1393   3.921   0.213  16.517  1.7152 -0.3208  2.9529
   91TMC2    H1 1394   3.634   4.720  16.742 -0.7007 -0.3817 -0.3316
   91TMC2    H2 1395   3.514   0.222  16.384 -1.5959 -2.6256  0.2241
   91TMC2    C7 1396   3.427   0.038  16.586 -0.9458 -0.3542 -0.4880
   91TMC2    C8 1397   3.756   0.296  16.336 -0.2043 -0.4963  1.0609
   91TMC2    O1 1398   3.411   4.705  16.697 -0.6656 -0.6130 -0.0248
   91TMC2    O2 1399   3.782   0.245  16.228  0.1801 -0.0221 -0.5912
   91TMC2    O5 1400   3.828   0.397  16.385 -0.7576 -0.0836  0.1057
   91TMC2    H5 1401   3.780   0.427  16.465  2.7491 -0.8317  2.5402
   92MPD2     C 1402   4.132   4.593  16.766  0.4443  0.0463 -0.3642
   92MPD2    C1 1403   4.135   0.006  16.733  0.1672 -0.2620 -0.0570
   92MPD2    C2 1404   4.259   0.065  16.717 -0.8583 -0.4014 -1.0011
   92MPD2    C3 1405   4.376   4.720  16.746  0.4112 -0.0697 -0.2767
   92MPD2    C4 1406   4.373   4.583  16.770 -0.5315 -0.1724  0.3207
   92MPD2    C5 1407   4.252   4.526  16.789  0.3514  0.5248  0.2666
   92MPD2     H 1408   4.264   0.170  16.690 -0.5291 -0.9978 -3.2305
   92MPD2    H1 1409   4.459   4.518  16.778  1.2904  1.7397 -3.4128
   92MPD2    H2 1410   4.041   4.534  16.764  0.4450  0.0095  0.6324
   92MPD2    H3 1411   4.242   4.419  16.805 -0.2291  0.0660 -2.9938
   92MPD2     N 1412   4.490   0.082  16.728 -0.3797  0.1365 -0.4855
   92MPD2    H5 1413   4.481   0.183  16.728  1.0073  0.2646  0.0831
   92MPD2    N1 1414   4.018   0.082  16.703  0.1406  0.2255  0.0344
   92MPD2    H7 1415   4.031   0.175  16.665  1.2107  0.1029  0.1019
   93MPD2     C 1416   0.695   0.053  14.000  0.1929 -0.1659 -0.3047
   93MPD2    C1 1417   0.654   0.153  13.916 -0.1515 -1.1369  0.1402
   93MPD2    C2 1418   0.533   0.135  13.845 -0.8081  0.2523  0.3134
   93MPD2    C3 1419   0.462   0.013  13.870 -0.0398 -0.1723  0.4019
   93MPD2    C4 1420   0.513   4.635  13.946  0.4101 -0.3801 -0.4281
   93MPD2    C5 1421   0.634   4.652  14.007  0.1785 -0.8584 -0.6489
   93MPD2     H 1422   0.503   0.211  13.773 -0.1670  0.7980  0.6203
   93MPD2    H1 1423   0.471   4.535  13.937  1.5647 -0.6388 -2.8408
   93MPD2    H2 1424   0.787   0.051  14.057  0.2044  2.0116 -0.2487
   93MPD2    H3 1425   0.670   4.568  14.063  1.7860  0.1254 -0.2109
   93MPD2     N 1426   0.335   4.706  13.815  0.3021 -0.1563 -0.1274
   93MPD2    H5 1427   0.285   4.619  13.832 -1.1864  1.1005  2.1476
   93MPD2    N1 1428   0.718   0.274  13.888 -0.0564 -0.2855 -0.2546
   93MPD2    H7 1429   0.679   0.333  13.815 -2.1396 -1.1310  0.1601
   94TCq2    C1 1430   0.831   0.313  13.957 -0.2995  0.1844 -0.5606
   94TCq2    O2 1431   0.906   0.247  14.030 -0.2253 -0.1664  0.2666
   94TCq2    C2 1432   0.872   0.448  13.929  0.2074 -0.8953  0.0610
   94TCq2    C3 1433   0.790   0.532  13.867 -0.5316 -0.0069  0.4493
   94TCq2    C4 1434   0.818   0.662  13.867  0.5504  1.0364 -0.3458
   94TCq2    C5 1435   0.920   0.716  13.937  0.7946  0.0021 -0.2663
   94TCq2    C6 1436   1.006   0.630  13.996  0.7483  0.2971  0.4432
   94TCq2    C7 1437   0.975   0.496  14.000  0.8526 -0.1402 -0.0070
   94TCq2    C8 1438   1.140   0.665  14.032  0.2379  0.4262  0.2627
   94TCq2    O4 1439   1.189   0.591  14.122  0.7577  0.8043  0.3898
   94TCq2    C9 1440   0.744   0.748  13.775  0.8209 -0.5364  0.0609
   94TCq2    O5 1441   0.640   0.708  13.718  0.3710 -0.0882  0.1157
   94TCq2    O6 1442   0.790   0.859  13.740  0.2671 -0.2694 -0.1565
   94TCq2    H2 1443   0.712   0.498  13.799 -1.4340 -0.4069  1.6691
   94TCq2    H3 1444   0.938   0.822  13.924  2.0873 -0.1345  0.3654
   94TCq2    H4 1445   1.042   0.430  14.054  1.3196  0.9305  0.7354
   95TMC2    C1 1446   0.470   1.965  15.955  0.3120  0.3763  0.6519
   95TMC2    C2 1447   0.498   1.842  16.000 -0.2048 -0.4210 -0.0715
   95TMC2    C3 1448   0.397   1.774  16.072 -0.1535  0.0060  0.3023
   95TMC2    C4 1449   0.345   2.018  15.971  0.1498 -0.0380 -0.0268
   95TMC2    C5 1450   0.245   1.945  16.038 -0.7143  0.1880  0.7207
   95TMC2    C6 1451   0.272   1.828  16.096  0.5098  0.3579 -0.3768
   95TMC2     C 1452   0.555   2.019  15.849  0.0634  0.9144  0.2257
   95TMC2     O 1453   0.658   1.958  15.842 -0.0342  0.0043 -0.4990
   95TMC2     H 1454   0.596   1.795  15.992  0.3210  0.6609 -0.0953
   95TMC2    H1 1455   0.317   2.106  15.915  0.2702  0.1798  0.2542
   95TMC2    H2 1456   0.193   1.780  16.152  2.0479  2.0652  3.2547
   95TMC2    C7 1457   0.117   2.008  16.076  0.6386  0.5951 -0.3895
   95TMC2    C8 1458   0.433   1.679  16.167 -0.4811  0.3046  0.7659
   95TMC2    O1 1459   0.084   2.000  16.195  0.5695  0.2323 -0.2317
   95TMC2    O2 1460   0.380   1.682  16.279 -0.1010 -0.3998  0.1574
   95TMC2    O5 1461   0.518   1.587  16.115  0.1799 -0.2997 -0.1002
   95TMC2    H5 1462   0.527   1.590  16.018  0.3001 -1.6200 -0.1403
   96MPD2     C 1463   0.746   2.376  15.539  0.8601 -0.9355 -0.7019
   96MPD2    C1 1464   0.781   2.246  15.565  0.0766  0.7189  0.2921
   96MPD2    C2 1465   0.712   2.177  15.659 -0.3635  0.0218  0.0055
   96MPD2    C3 1466   0.599   2.227  15.717 -1.0425  0.4577  0.6850
   96MPD2    C4 1467   0.562   2.356  15.692 -0.2099 -0.1529 -0.5262
   96MPD2    C5 1468   0.633   2.431  15.601  0.2346 -0.0156 -0.3734
   96MPD2     H 1469   0.733   2.070  15.663 -1.7937 -0.1889  2.0839
   96MPD2    H1 1470   0.478   2.409  15.734  2.9536  3.8830  0.6928
   96MPD2    H2 1471   0.812   2.438  15.478  0.5273  1.2603  1.1568
   96MPD2    H3 1472   0.599   2.532  15.582 -3.5986 -0.7592  2.6608
   96MPD2     N 1473   0.519   2.147  15.804 -0.3955 -0.4268  0.2399
   96MPD2    H5 1474   0.436   2.188  15.846 -0.3808 -0.8771  0.7037
   96MPD2    N1 1475   0.901   2.195  15.509 -0.2863  0.7469  0.5205
   96MPD2    H7 1476   0.960   2.268  15.471 -0.7926  1.0392  0.2896
   97MPD2     C 1477   2.705   4.442   0.597 -0.2546  0.2485 -0.3787
   97MPD2    C1 1478   2.676   4.575   0.613 -0.1396  0.5445  0.4035
   97MPD2    C2 1479   2.583   4.633   0.527  0.3460  0.3409  0.8673
   97MPD2    C3 1480   2.537   4.564   0.413  0.4562 -0.2907 -0.8038
   97MPD2    C4 1481   2.562   4.429   0.410 -0.2153  0.7321  0.3034
   97MPD2    C5 1482   2.648   4.370   0.497  0.0319 -0.7267 -0.6539
   97MPD2     H 1483   2.559   0.018   0.531  0.9954  0.4640  1.4916
   97MPD2    H1 1484   2.530   4.366   0.328 -1.8742 -0.1026  1.6278
   97MPD2    H2 1485   2.769   4.401   0.674  1.0443  1.3367 -0.9019
   97MPD2    H3 1486   2.678   4.267   0.483 -1.1585 -1.1853  0.1035
   97MPD2     N 1487   2.471   4.623   0.305  0.1120  0.7313  0.3136
   97MPD2    H5 1488   2.439   4.574   0.222 -0.4624  0.1151  0.8956
   97MPD2    N1 1489   2.741   4.656   0.717 -0.2708 -0.1838  0.3156
   97MPD2    H7 1490   2.825   4.615   0.756  1.0199 -0.0813 -2.3381
   98TCq2    C1 1491   2.473   0.033   0.277  0.8993 -0.7791  0.2701
   98TCq2    O2 1492   2.506   0.133   0.347 -0.1882  0.5322  0.8597
   98TCq2    C2 1493   2.445   0.060   0.133  0.9037  0.1840  0.4523
   98TCq2    C3 1494   2.335   0.002   0.082 -0.5077 -0.8121  0.2277
   98TCq2    C4 1495   2.278   0.066  17.660 -0.1299  0.1885 -0.3084
   98TCq2    C5 1496   2.334   0.173  17.599 -0.4364  0.4333 -0.5747
   98TCq2    C6 1497   2.450   0.225  17.647 -0.2172  0.3436 -0.4473
   98TCq2    C7 1498   2.507   0.172   0.081 -0.1593  0.0211 -0.3729
   98TCq2    C8 1499   2.476   0.363  17.617 -0.1161 -0.6028  0.1823
   98TCq2    O4 1500   2.393   0.430  17.557 -0.2506 -0.1857 -0.5180
   98TCq2    C9 1501   2.157   0.014  17.600 -0.3850 -0.2494  0.6352
   98TCq2    O5 1502   2.081   0.087  17.529  0.2124 -0.1702  0.1364
   98TCq2    O6 1503   2.128   4.614  17.630  0.4337 -0.3669 -0.7458
   98TCq2    H2 1504   2.283   4.639   0.127  0.5495 -1.7685 -0.3131
   98TCq2    H3 1505   2.289   0.219  17.512  1.3474  0.0350 -1.6896
   98TCq2    H4 1506   2.594   0.204   0.138 -0.8638  2.0742 -0.4672
   99MPD2     C 1507   1.660   2.655   1.798 -0.5246  0.5871  0.0044
   99MPD2    C1 1508   1.624   2.614   1.666  0.4172 -0.1320 -0.5755
   99MPD2    C2 1509   1.725   2.596   1.575 -0.2977 -0.2506 -0.8399
   99MPD2    C3 1510   1.858   2.617   1.612 -0.7424 -0.0625 -0.5470
   99MPD2    C4 1511   1.895   2.655   1.743  0.3925 -0.2980 -0.3856
   99MPD2    C5 1512   1.794   2.663   1.836  1.0165 -0.0634 -0.0112
   99MPD2     H 1513   1.708   2.567   1.472 -0.3614 -0.8164 -0.6700
   99MPD2    H1 1514   1.997   2.677   1.773 -0.3262  0.9433  1.1349
   99MPD2    H2 1515   1.585   2.634   1.873  2.6387  1.8314  3.4679
   99MPD2    H3 1516   1.826   2.682   1.938 -1.2885  0.2453  0.6710
   99MPD2     N 1517   1.955   2.605   1.509  0.3586 -0.7717  0.4386
   99MPD2    H5 1518   1.924   2.582   1.415 -1.4643  1.3429  0.5216
   99MPD2    N1 1519   1.488   2.593   1.629  0.4107 -0.2996  0.2390
   99MPD2    H7 1520   1.473   2.533   1.548  0.8410 -0.9068  0.6050
  100TCq2    C1 1521   1.370   2.627   1.694  0.0240 -0.5801  0.2164
  100TCq2    O2 1522   1.354   2.701   1.789 -0.0146 -0.2208 -0.5370
  100TCq2    C2 1523   1.263   2.536   1.652 -0.2112  1.4697  0.3366
  100TCq2    C3 1524   1.298   2.404   1.627  0.9088  0.2663  1.2265
  100TCq2    C4 1525   1.198   2.307   1.643 -0.2353  1.0821 -0.2435
  100TCq2    C5 1526   1.067   2.347   1.655  0.0310 -0.1103 -0.2302
  100TCq2    C6 1527   1.038   2.478   1.662  0.3531  0.1637 -0.0869
  100TCq2    C7 1528   1.132   2.576   1.666  0.3578  0.7198 -0.4802
  100TCq2    C8 1529   0.902   2.512   1.657  0.5166  0.0837  0.1809
  100TCq2    O4 1530   0.875   2.631   1.682 -0.0531  0.3373  0.3926
  100TCq2    C9 1531   1.239   2.168   1.638  0.2476  0.0176  0.1829
  100TCq2    O5 1532   1.362   2.144   1.650 -0.3438  0.1212  0.3155
  100TCq2    O6 1533   1.149   2.082   1.657  0.2844  0.3999  0.3918
  100TCq2    H2 1534   1.400   2.372   1.610  0.4726 -0.1795 -0.5718
  100TCq2    H3 1535   0.998   2.264   1.662  1.5097 -1.4136 -1.1467
  100TCq2    H4 1536   1.103   2.677   1.694 -0.0556  0.9573 -1.7816
  101MPD2     C 1537   2.321   2.724  12.826 -0.3509  0.0646  0.0990
  101MPD2    C1 1538   2.194   2.772  12.822 -0.0650  0.3304 -0.6045
  101MPD2    C2 1539   2.108   2.760  12.927  0.0624  0.0600  0.4132
  101MPD2    C3 1540   2.147   2.687  13.037  0.1832  0.4227 -0.0943
  101MPD2    C4 1541   2.271   2.629  13.038  0.3817  0.4307 -0.0813
  101MPD2    C5 1542   2.357   2.634  12.933 -0.1044 -0.1619 -0.0810
  101MPD2     H 1543   2.015   2.815  12.929 -1.4777 -2.5620  0.9398
  101MPD2    H1 1544   2.300   2.563  13.119 -1.4255  0.5771  0.6924
  101MPD2    H2 1545   2.393   2.723  12.745  0.3168  1.4937  0.6754
  101MPD2    H3 1546   2.452   2.582  12.932  0.5417  1.0227 -0.9935
  101MPD2     N 1547   2.055   2.685  13.151  0.0593 -0.3480 -0.6664
  101MPD2    H5 1548   1.961   2.713  13.128  0.1846  0.4204 -0.2151
  101MPD2    N1 1549   2.171   2.843  12.702  0.0782 -0.3621  0.2784
  101MPD2    H7 1550   2.245   2.854  12.634  0.9472 -0.8409  1.1424
  102TCq2    C1 1551   2.278   3.093  12.287 -0.6493 -0.3030  0.2238
  102TCq2    O2 1552   2.381   3.046  12.331 -0.0499  0.0420  0.2579
  102TCq2    C2 1553   2.161   3.077  12.368  0.3513  0.2482  0.3968
  102TCq2    C3 1554   2.065   3.174  12.352 -0.0154  0.0588 -0.3475
  102TCq2    C4 1555   1.963   3.170  12.437 -0.0084 -0.5420  0.9464
  102TCq2    C5 1556   1.960   3.080  12.539  0.0287 -0.2301 -0.1337
  102TCq2    C6 1557   2.062   2.986  12.558  0.9298 -1.2758 -0.4947
  102TCq2    C7 1558   2.169   2.985  12.471  0.2133 -0.7230  0.2144
  102TCq2    C8 1559   2.054   2.906  12.682 -0.2926  0.5610  0.2636
  102TCq2    O4 1560   1.966   2.940  12.765  0.0298  0.4002 -0.2398
  102TCq2    C9 1561   1.858   3.268  12.434 -0.1420  0.1443 -0.4335
  102TCq2    O5 1562   1.764   3.253  12.514 -0.1328  0.2908  0.3256
  102TCq2    O6 1563   1.877   3.376  12.376  0.2574  0.8910 -0.1963
  102TCq2    H2 1564   2.058   3.255  12.281  1.0001 -0.0467 -0.5688
  102TCq2    H3 1565   1.878   3.085  12.609 -1.0918  1.0312 -1.5369
  102TCq2    H4 1566   2.251   2.917  12.486 -0.2136 -0.8634  1.9514
  103TMC2    C1 1567   4.568   2.836  12.039  0.3708  0.6730  0.1165
  103TMC2    C2 1568   4.614   2.958  11.993  0.4064 -0.6927  0.3283
  103TMC2    C3 1569   4.610   3.066  12.082  0.2406  1.1023  0.7354
  103TMC2    C4 1570   4.507   2.814  12.155  0.1226  0.2950 -0.5126
  103TMC2    C5 1571   4.475   2.923  12.226  0.2065 -0.4058 -0.1287
  103TMC2    C6 1572   4.535   3.049  12.200  0.7413 -0.0673 -0.3978
  103TMC2     C 1573   4.572   2.729  11.948 -0.1433 -0.2544  0.3793
  103TMC2     O 1574   4.564   2.755  11.827  0.5804 -0.3806  1.1755
  103TMC2     H 1575   4.662   2.955  11.896  0.0215 -0.1985  0.1268
  103TMC2    H1 1576   4.481   2.718  12.199 -1.8802  0.4470 -1.3724
  103TMC2    H2 1577   4.505   3.124  12.272 -2.3077 -1.5969 -0.0387
  103TMC2    C7 1578   4.433   2.899  12.361 -0.1370 -0.2854 -0.0064
  103TMC2    C8 1579   4.660   3.190  12.033 -0.3363  0.7608 -0.0020
  103TMC2    O1 1580   4.467   2.980  12.448  0.0332  0.4032  0.0189
  103TMC2    O2 1581   4.702   3.215  11.919  0.2057  0.2076  0.1299
  103TMC2    O5 1582   4.658   3.276  12.138  0.2434 -0.1365  0.3518
  103TMC2    H5 1583   4.656   3.236  12.227 -1.3083  0.4499  0.5905
  104MPD2     C 1584   4.496   2.379  12.035 -0.5167 -0.7061 -0.1873
  104MPD2    C1 1585   4.490   2.495  11.959  0.3348  0.5049  0.5115
  104MPD2    C2 1586   4.446   2.476  11.832 -0.2550 -0.2585 -0.9668
  104MPD2    C3 1587   4.393   2.359  11.786 -0.5443 -0.3573  0.3761
  104MPD2    C4 1588   4.386   2.252  11.871  0.1663  1.0311  0.2842
  104MPD2    C5 1589   4.444   2.263  11.993 -0.4955 -0.3482 -0.0661
  104MPD2     H 1590   4.446   2.560  11.763  0.6474  0.0634 -0.5714
  104MPD2    H1 1591   4.345   2.156  11.841  0.8657 -0.2851  3.5064
  104MPD2    H2 1592   4.551   2.382  12.129  1.8477  2.3838 -1.6585
  104MPD2    H3 1593   4.450   2.182  12.065 -0.8181  0.0857  0.4551
  104MPD2     N 1594   4.341   2.363  11.658  0.1177 -0.2979 -0.6863
  104MPD2    H5 1595   4.363   2.443  11.600 -1.2233 -0.8870 -2.0257
  104MPD2    N1 1596   4.547   2.607  12.010 -0.4633  0.7690  0.5197
  104MPD2    H7 1597   4.579   2.600  12.106 -1.1366  4.0285  0.9581
  105MPD2     C 1598   2.186   2.248  17.545 -0.8146  0.2615  0.2907
  105MPD2    C1 1599   2.057   2.286  17.548 -0.1200  0.2425 -0.4436
  105MPD2    C2 1600   2.005   2.308  17.671  0.4734 -0.2436  0.3334
  105MPD2    C3 1601   2.079   2.311   0.100 -0.1572 -0.2117  0.5490
  105MPD2    C4 1602   2.210   2.278   0.096 -0.1142 -0.2557  0.2364
  105MPD2    C5 1603   2.262   2.246  17.661  0.0466  0.6117  0.2328
  105MPD2     H 1604   1.904   2.346   0.000  0.5862 -0.5607  1.9615
  105MPD2    H1 1605   2.276   2.277   0.182  0.3403  1.4975 -0.0944
  105MPD2    H2 1606   2.252   2.238  17.460 -1.8288 -1.2160 -0.3101
  105MPD2    H3 1607   2.367   2.229  17.639  0.4597 -1.1425  3.4423
  105MPD2     N 1608   2.006   2.346   0.216 -0.1115  0.2465 -0.3776
  105MPD2    H5 1609   1.908   2.367   0.201 -1.0977 -4.2251  0.0172
  105MPD2    N1 1610   1.978   2.301  17.431 -0.1589  0.0716 -0.1670
  105MPD2    H7 1611   1.883   2.338  17.434  0.1875  1.0291 -0.8958
  106TCq2    C1 1612   2.064   2.390   0.335  0.4269 -0.8031  0.4340
  106TCq2    O2 1613   2.177   2.437   0.354  0.0569  0.1891  0.4526
  106TCq2    C2 1614   1.956   2.426   0.423 -0.0476  0.3588 -0.5611
  106TCq2    C3 1615   1.842   2.357   0.417  0.5544  0.6703 -0.4535
  106TCq2    C4 1616   1.749   2.387   0.513 -0.4591  0.3369  0.8603
  106TCq2    C5 1617   1.765   2.503   0.584 -0.1067  0.0065 -0.3497
  106TCq2    C6 1618   1.875   2.581   0.577 -0.9499  0.0820  0.3921
  106TCq2    C7 1619   1.980   2.536   0.508 -0.3247  0.0923 -0.0077
  106TCq2    C8 1620   1.899   2.702   0.662  0.7034 -0.3707 -0.0883
  106TCq2    O4 1621   2.010   2.753   0.658 -0.4232  0.4053  0.7977
  106TCq2    C9 1622   1.630   2.307   0.531 -0.5898 -0.0968  0.1722
  106TCq2    O5 1623   1.599   2.221   0.446  0.2575 -0.0301 -0.7840
  106TCq2    O6 1624   1.545   2.359   0.607 -0.1451 -0.3196 -0.1277
  106TCq2    H2 1625   1.816   2.273   0.353  1.9422  0.5734 -0.8920
  106TCq2    H3 1626   1.691   2.530   0.660 -0.3724 -3.6737  0.7450
  106TCq2    H4 1627   2.067   2.600   0.506  0.2045 -0.6195  0.1776
  107TMC2    C1 1628   2.852   0.801  11.825 -0.5201  0.0842  0.0486
  107TMC2    C2 1629   2.903   0.843  11.702  0.3112 -0.0874  0.6193
  107TMC2    C3 1630   2.947   0.742  11.618  0.4769 -0.1943  0.9006
  107TMC2    C4 1631   2.850   0.664  11.860 -0.0158 -0.4150 -0.3075
  107TMC2    C5 1632   2.895   0.570  11.769  0.9851  0.2409  0.5858
  107TMC2    C6 1633   2.932   0.605  11.639  0.6851 -0.4425  0.3002
  107TMC2     C 1634   2.780   0.899  11.896  0.2605 -0.6914 -0.1823
  107TMC2     O 1635   2.697   0.848  11.970 -0.4888  0.3816  0.5517
  107TMC2     H 1636   2.920   0.948  11.680  0.8451 -0.0135  1.3810
  107TMC2    H1 1637   2.801   0.632  11.951  1.5489  0.2467  0.7686
  107TMC2    H2 1638   2.960   0.531  11.565 -2.0996 -0.9810 -0.2350
  107TMC2    C7 1639   2.886   0.433  11.801 -0.8128  0.5310  0.6952
  107TMC2    C8 1640   2.989   0.787  11.492  0.0813  0.2769 -0.5393
  107TMC2    O1 1641   2.877   0.404  11.918  0.1242  0.5982  0.1907
  107TMC2    O2 1642   2.962   0.891  11.436 -0.7819 -0.5397 -0.1904
  107TMC2    O5 1643   3.113   0.723  11.479  0.5599 -0.7892  0.5890
  107TMC2    H5 1644   3.130   0.666  11.557  0.5275 -1.9248 -0.2283
  108MPD2     C 1645   2.672   1.236  11.780  0.4678  0.3677 -0.9989
  108MPD2    C1 1646   2.672   1.125  11.866 -0.0580 -0.2493  1.3257
  108MPD2    C2 1647   2.575   1.111  11.965 -1.0271 -0.4505  0.5982
  108MPD2    C3 1648   2.467   1.202  11.973 -0.4505  0.0485  0.2893
  108MPD2    C4 1649   2.473   1.305  11.885  0.2985  0.1925  0.2109
  108MPD2    C5 1650   2.572   1.324  11.789 -0.1064 -0.4179  0.4562
  108MPD2     H 1651   2.585   1.033  12.040  0.2384  0.3636  1.2963
  108MPD2    H1 1652   2.398   1.384  11.881 -1.2342 -1.1480  2.2920
  108MPD2    H2 1653   2.747   1.253  11.704 -0.3867 -0.1911 -1.9488
  108MPD2    H3 1654   2.573   1.403  11.714 -1.1884 -0.4535  0.3944
  108MPD2     N 1655   2.361   1.201  12.070 -0.5302 -0.0912  0.4044
  108MPD2    H5 1656   2.296   1.279  12.066 -0.4254  0.1337  3.2504
  108MPD2    N1 1657   2.767   1.027  11.841 -0.5641 -0.3860 -0.3242
  108MPD2    H7 1658   2.826   1.053  11.762 -1.0593  0.1517 -0.5161
  109MPD2     C 1659   2.735   3.903   1.956 -0.1955 -0.3547  0.3608
  109MPD2    C1 1660   2.723   3.923   1.816  0.0292 -0.0023 -0.0642
  109MPD2    C2 1661   2.837   3.927   1.744 -0.2335  0.1328 -0.1879
  109MPD2    C3 1662   2.961   3.909   1.799  0.5367  0.4379  0.0939
  109MPD2    C4 1663   2.973   3.883   1.931 -0.4636  0.6815 -0.1046
  109MPD2    C5 1664   2.860   3.890   2.007  0.6000 -1.1750 -0.5211
  109MPD2     H 1665   2.828   3.970   1.644  0.1355  0.4775 -0.0740
  109MPD2    H1 1666   3.064   3.859   1.985 -0.8243 -1.7692 -0.5827
  109MPD2    H2 1667   2.655   3.922   2.026  0.5329 -0.2634  1.1693
  109MPD2    H3 1668   2.865   3.886   2.116  1.6151 -3.7264 -0.6588
  109MPD2     N 1669   3.067   3.931   1.710  0.0474 -0.9247 -0.1410
  109MPD2    H5 1670   3.043   3.970   1.620 -1.5125  2.0418  1.5499
  109MPD2    N1 1671   2.606   3.955   1.747 -0.1914  0.6381  0.4141
  109MPD2    H7 1672   2.612   3.955   1.646  2.4306 -1.7003  0.5576
  110TCq2    C1 1673   3.202   3.935   1.742  0.1789  0.0675  0.1428
  110TCq2    O2 1674   3.259   3.892   1.839  0.3668  0.1156  0.1259
  110TCq2    C2 1675   3.275   3.995   1.633  0.1454  0.0462 -0.1064
  110TCq2    C3 1676   3.401   3.949   1.618 -0.0151  0.1368 -0.0698
  110TCq2    C4 1677   3.483   4.034   1.548  0.1101 -0.0235  0.1790
  110TCq2    C5 1678   3.439   4.139   1.470 -0.1627 -0.4558 -0.0072
  110TCq2    C6 1679   3.311   4.170   1.474  0.6940  0.2463 -0.4264
  110TCq2    C7 1680   3.218   4.101   1.554 -0.2994 -0.4570 -0.1306
  110TCq2    C8 1681   3.267   4.288   1.409  0.8733  0.0942  0.1430
  110TCq2    O4 1682   3.147   4.294   1.382  0.8568  0.6365 -0.2689
  110TCq2    C9 1683   3.622   3.995   1.553 -0.5254 -0.3180 -0.6728
  110TCq2    O5 1684   3.707   4.086   1.538 -0.4025 -0.4567 -0.0915
  110TCq2    O6 1685   3.649   3.885   1.607  0.0272 -0.3572  0.5231
  110TCq2    H2 1686   3.434   3.869   1.683 -0.2672  0.7346  0.8092
  110TCq2    H3 1687   3.507   4.182   1.397  0.0356 -0.5616  0.1129
  110TCq2    H4 1688   3.116   4.138   1.563 -0.0750  0.4434 -1.1376
  111TMC2    C1 1689   3.201   3.318  10.928  0.1461 -0.1072  0.4481
  111TMC2    C2 1690   3.272   3.337  10.812 -0.2744  0.0604  0.3887
  111TMC2    C3 1691   3.403   3.311  10.831 -0.5603 -0.1091 -0.3850
  111TMC2    C4 1692   3.246   3.273  11.054  0.5317 -0.3116  0.0593
  111TMC2    C5 1693   3.378   3.248  11.062  0.3036 -0.2688 -0.1201
  111TMC2    C6 1694   3.457   3.263  10.952  0.0917  0.0544  0.1264
  111TMC2     C 1695   3.075   3.380  10.932  0.2288 -0.0479  0.5167
  111TMC2     O 1696   3.055   3.457  10.838 -0.3067  0.4249  0.0277
  111TMC2     H 1697   3.237   3.383  10.720  0.2220  0.9109  0.6292
  111TMC2    H1 1698   3.184   3.275  11.142  0.6767  2.1175  0.1220
  111TMC2    H2 1699   3.563   3.243  10.959  0.3222  1.4505  0.6060
  111TMC2    C7 1700   3.434   3.180  11.171 -0.3458  0.4779 -0.5484
  111TMC2    C8 1701   3.497   3.314  10.713 -0.6071  0.5392  0.0387
  111TMC2    O1 1702   3.535   3.117  11.147 -0.4665  0.4514  0.1402
  111TMC2    O2 1703   3.619   3.336  10.720  0.4827  0.2776 -0.0269
  111TMC2    O5 1704   3.436   3.253  10.611 -0.4015  0.0429  0.2882
  111TMC2    H5 1705   3.347   3.221  10.637  0.4137 -2.2142  0.2262
  112MPD2     C 1706   2.578   3.353  11.040 -0.4260 -0.6449 -0.5959
  112MPD2    C1 1707   2.650   3.466  11.005 -0.3852  0.4042  0.5809
  112MPD2    C2 1708   2.788   3.456  11.001 -0.5880  0.6541 -0.9497
  112MPD2    C3 1709   2.849   3.335  11.021 -0.4088  0.6847 -0.5678
  112MPD2    C4 1710   2.779   3.226  11.064 -0.0136 -0.3732 -0.3974
  112MPD2    C5 1711   2.647   3.236  11.078  0.3292 -0.0192 -0.0294
  112MPD2     H 1712   2.852   3.537  10.969 -2.1161  2.0246 -0.5222
  112MPD2    H1 1713   2.820   3.128  11.088  2.8761  1.3300  1.6260
  112MPD2    H2 1714   2.471   3.366  11.036 -0.3543  0.1206  0.0791
  112MPD2    H3 1715   2.593   3.145  11.101  1.0116 -0.8604 -1.7881
  112MPD2     N 1716   2.991   3.309  11.011 -0.3197  0.1255  0.0176
  112MPD2    H5 1717   3.026   3.220  11.045 -0.8986 -0.3160 -0.5502
  112MPD2    N1 1718   2.587   3.584  10.966 -0.7273  0.4598  0.3413
  112MPD2    H7 1719   2.647   3.653  10.922 -2.1833  2.0923  0.9302
  113MPD2     C 1720   0.858   1.992   1.398  0.4871 -0.5604 -0.2444
  113MPD2    C1 1721   0.789   2.028   1.286 -0.1114  0.1755  0.1274
  113MPD2    C2 1722   0.715   1.936   1.224 -0.4962  0.6160  0.8864
  113MPD2    C3 1723   0.711   1.804   1.265 -0.4979 -0.5518 -0.0587
  113MPD2    C4 1724   0.800   1.763   1.362  0.5376 -0.3365 -0.2970
  113MPD2    C5 1725   0.869   1.859   1.431 -0.1749 -0.1113  0.5853
  113MPD2     H 1726   0.650   1.967   1.143 -0.1141  0.4215  0.5036
  113MPD2    H1 1727   0.806   1.663   1.401 -1.4568  0.2334  1.4477
  113MPD2    H2 1728   0.917   2.060   1.459 -0.9541  2.1102 -1.8118
  113MPD2    H3 1729   0.943   1.828   1.504  0.8847  1.3208  0.1277
  113MPD2     N 1730   0.633   1.706   1.198 -0.0209  0.0127 -0.8376
  113MPD2    H5 1731   0.648   1.609   1.223  1.8271  0.5916  0.2977
  113MPD2    N1 1732   0.771   2.165   1.243  0.1584  0.5259 -0.2127
  113MPD2    H7 1733   0.703   2.190   1.172  1.3824 -1.8533 -2.2177
  114TCq2    C1 1734   0.537   1.741   1.103  0.1692  0.2846  0.4754
  114TCq2    O2 1735   0.515   1.845   1.039 -0.2020  0.0085 -0.1083
  114TCq2    C2 1736   0.460   1.627   1.058 -0.0386 -0.8555 -0.3234
  114TCq2    C3 1737   0.351   1.647   0.976 -0.3220  0.5468  0.5558
  114TCq2    C4 1738   0.277   1.546   0.927 -0.4213  0.6492 -0.5019
  114TCq2    C5 1739   0.302   1.420   0.968  0.0504  0.3967  0.5989
  114TCq2    C6 1740   0.415   1.400   1.047 -0.1177 -0.4152  0.5724
  114TCq2    C7 1741   0.494   1.500   1.095  0.2866  0.0192  0.2135
  114TCq2    C8 1742   0.469   1.266   1.064 -1.1178  0.4869  0.2965
  114TCq2    O4 1743   0.441   1.183   0.981 -0.6303 -0.6806 -0.1087
  114TCq2    C9 1744   0.160   1.586   0.854  0.3813  0.6137 -0.3180
  114TCq2    O5 1745   0.179   1.681   0.774  0.2187 -0.4477  0.1693
  114TCq2    O6 1746   0.053   1.540   0.897 -0.1546 -0.1177 -0.4505
  114TCq2    H2 1747   0.327   1.748   0.946 -2.3245 -0.4324 -1.1300
  114TCq2    H3 1748   0.251   1.337   0.921 -0.3006  0.0269  1.6369
  114TCq2    H4 1749   0.586   1.466   1.141  0.2845 -0.5724 -0.2155
  115TMC2    C1 1750   1.197   4.350   0.033 -0.9783  0.4772  0.0107
  115TMC2    C2 1751   1.267   4.375   0.146  0.3643 -0.1846  0.6944
  115TMC2    C3 1752   1.323   4.500   0.167  0.0611  0.2358 -0.3172
  115TMC2    C4 1753   1.186   4.459  17.626 -0.2460  0.1655  0.2507
  115TMC2    C5 1754   1.245   4.575  17.645 -0.5723  0.5387  0.0435
  115TMC2    C6 1755   1.322   4.605   0.072  0.2131  0.2063  0.5104
  115TMC2     C 1756   1.212   4.218  17.663  0.4926  0.3187 -0.3985
  115TMC2     O 1757   1.136   4.185  17.574 -0.9727  0.3417 -0.2903
  115TMC2     H 1758   1.283   4.297   0.219  1.1911  0.4731  1.2310
  115TMC2    H1 1759   1.141   4.439  17.529  0.7505  1.9748 -0.5656
  115TMC2    H2 1760   1.360   4.704   0.096  2.2313 -0.2798 -0.7241
  115TMC2    C7 1761   1.203   4.686  17.563 -0.3560 -0.3220  0.2128
  115TMC2    C8 1762   1.358   4.517   0.308 -0.5997 -0.8496 -0.1462
  115TMC2    O1 1763   1.087   4.693  17.522 -0.1847  0.5903 -0.1829
  115TMC2    O2 1764   1.317   4.436   0.390 -0.4881 -0.1264  0.5651
  115TMC2    O5 1765   1.473   4.585   0.312 -0.2169 -0.3234  0.5373
  115TMC2    H5 1766   1.505   4.633   0.232  0.0378  0.6009  1.1932
  116MPD2     C 1767   1.430   3.769  17.588  0.0610  0.3639 -0.5770
  116MPD2    C1 1768   1.320   3.829  17.532 -0.4104  0.3788 -0.2492
  116MPD2    C2 1769   1.287   3.953  17.575  0.0417 -0.5419 -0.6062
  116MPD2    C3 1770   1.351   4.018  17.675 -0.3331 -0.5362 -0.3845
  116MPD2    C4 1771   1.464   3.961   0.043  0.0676 -1.0225 -0.0335
  116MPD2    C5 1772   1.505   3.838  17.677  0.1580 -0.3964  0.3208
  116MPD2     H 1773   1.196   3.993  17.533  1.3435 -0.3929 -3.2974
  116MPD2    H1 1774   1.518   4.003   0.127 -1.0869 -1.2396  0.8147
  116MPD2    H2 1775   1.459   3.671  17.552 -0.5354  0.5028 -1.4319
  116MPD2    H3 1776   1.587   3.785   0.039  0.0090 -0.1534  0.8484
  116MPD2     N 1777   1.318   4.152   0.031 -0.3029 -0.2605  0.2794
  116MPD2    H5 1778   1.368   4.183   0.113 -0.8811 -0.1981  0.6044
  116MPD2    N1 1779   1.252   3.752  17.434 -0.4298 -0.1648  0.1442
  116MPD2    H7 1780   1.300   3.663  17.427 -1.2333 -0.7780  2.2622
  117TMC2    C1 1781   4.515   0.480  13.886  0.0366  0.5079  0.1321
  117TMC2    C2 1782   4.575   0.357  13.912  0.3830  0.0978 -0.0240
  117TMC2    C3 1783   4.704   0.363  13.958  0.0675  0.5174 -0.2823
  117TMC2    C4 1784   4.578   0.598  13.924  0.5297 -0.2792  0.1967
  117TMC2    C5 1785   4.710   0.592  13.979  0.1572 -0.1123 -0.6581
  117TMC2    C6 1786   0.050   0.474  14.001  0.0885  0.0250 -0.3049
  117TMC2     C 1787   4.374   0.474  13.858  0.2607 -0.5689  0.6572
  117TMC2     O 1788   4.335   0.359  13.842  0.5304 -0.3441 -0.3226
  117TMC2     H 1789   4.537   0.259  13.884  0.6292 -0.0470  0.1500
  117TMC2    H1 1790   4.532   0.696  13.927  0.3244 -0.3440 -0.8583
  117TMC2    H2 1791   0.133   0.472  14.070  0.8718 -0.8471 -1.2802
  117TMC2    C7 1792   0.014   0.688  14.083  0.1767 -0.5461 -0.4402
  117TMC2    C8 1793   0.042   0.235  13.995  0.8501  0.2227  0.0028
  117TMC2    O1 1794   0.056   0.639  14.190 -0.0846  0.3011  0.1572
  117TMC2    O2 1795   4.704   0.137  14.036  0.5998  0.9034  0.5698
  117TMC2    O5 1796   0.176   0.253  14.007  0.4056  0.5853 -0.1914
  117TMC2    H5 1797   0.216   0.305  13.934 -0.5121 -1.0456 -1.8854
  118MPD2     C 1798   0.120   0.926  14.208  0.6881 -0.5250  0.1428
  118MPD2    C1 1799   0.057   0.922  14.089 -0.0936  0.5211  0.3043
  118MPD2    C2 1800   0.061   1.033  14.005  0.0619  0.3368 -0.1932
  118MPD2    C3 1801   0.123   1.151  14.049 -0.3558 -0.2757 -0.0283
  118MPD2    C4 1802   0.207   1.137  14.159 -0.4184  0.4731 -0.3186
  118MPD2    C5 1803   0.199   1.026  14.240  0.5965  0.2174  0.4677
  118MPD2     H 1804   0.007   1.039  13.911 -0.4704 -0.5248  0.0627
  118MPD2    H1 1805   0.247   1.231  14.196  0.9283 -0.6200  1.0362
  118MPD2    H2 1806   0.131   0.838  14.270 -0.6198 -1.1990 -0.5644
  118MPD2    H3 1807   0.255   1.026  14.333 -0.9158  0.0790  1.3805
  118MPD2     N 1808   0.128   1.268  13.975  0.6603 -0.0284  0.1531
  118MPD2    H5 1809   0.194   1.332  14.018  0.7193 -0.6557  0.9901
  118MPD2    N1 1810   0.001   0.809  14.029  0.2203 -0.3781 -0.4290
  118MPD2    H7 1811   4.689   0.819  13.933 -1.2473 -0.0729  0.1060
  119MPD2     C 1812   2.741   2.235  13.359  0.1731 -0.1733  0.2029
  119MPD2    C1 1813   2.669   2.131  13.406 -0.2949 -1.0462 -0.1094
  119MPD2    C2 1814   2.542   2.115  13.357 -0.6922 -0.4701  0.0980
  119MPD2    C3 1815   2.497   2.194  13.257 -0.1111  1.1014 -0.5845
  119MPD2    C4 1816   2.560   2.310  13.215  0.1279  1.0411 -0.0635
  119MPD2    C5 1817   2.683   2.325  13.274  0.0092  0.0157 -0.7026
  119MPD2     H 1818   2.483   2.031  13.391  0.5463 -1.4352 -0.1595
  119MPD2    H1 1819   2.518   2.387  13.150  0.0103  0.1836 -1.0086
  119MPD2    H2 1820   2.841   2.259  13.393  0.6646 -2.3589  0.3297
  119MPD2    H3 1821   2.738   2.413  13.242  1.7485 -1.0314 -0.6096
  119MPD2     N 1822   2.370   2.153  13.211  0.3116  0.7701  0.1815
  119MPD2    H5 1823   2.323   2.077  13.258  0.4154  0.0488 -0.8838
  119MPD2    N1 1824   2.719   2.036  13.495  0.2378 -0.6535  0.1964
  119MPD2    H7 1825   2.654   1.960  13.516  0.5226 -1.2729 -1.1809
  120TCq2    C1 1826   2.298   2.207  13.109  0.8249 -0.5792  0.1864
  120TCq2    O2 1827   2.335   2.282  13.020 -0.5164  0.6477 -0.1309
  120TCq2    C2 1828   2.177   2.134  13.083 -0.7622 -0.3672 -0.6247
  120TCq2    C3 1829   2.171   2.084  12.954 -0.9525  0.6651 -0.4401
  120TCq2    C4 1830   2.084   1.979  12.928 -1.4473  0.2471 -0.4979
  120TCq2    C5 1831   1.991   1.937  13.019 -0.4906 -0.4047  0.3286
  120TCq2    C6 1832   2.012   1.983  13.147 -0.0452 -0.3647  0.2830
  120TCq2    C7 1833   2.102   2.080  13.185 -0.4870  0.4373 -0.0703
  120TCq2    C8 1834   1.922   1.922  13.245 -0.4053  0.4662 -0.9844
  120TCq2    O4 1835   1.818   1.868  13.200 -0.3272 -0.0119  0.4053
  120TCq2    C9 1836   2.072   1.934  12.789 -0.8230 -0.5652 -0.5127
  120TCq2    O5 1837   2.159   1.968  12.706  0.3720 -0.2988  0.6585
  120TCq2    O6 1838   2.001   1.832  12.782 -0.1500 -0.0117  0.0045
  120TCq2    H2 1839   2.238   2.118  12.875  0.4410 -1.8830 -0.3500
  120TCq2    H3 1840   1.918   1.860  13.000 -1.4301  0.7031 -0.5124
  120TCq2    H4 1841   2.104   2.139  13.276 -1.2778 -1.5026  1.2145
  121TMC2    C1 1842   4.261   3.686  13.753 -0.1781  0.7393  0.1630
  121TMC2    C2 1843   4.167   3.659  13.848  0.3158  0.4228 -0.1339
  121TMC2    C3 1844   4.046   3.708  13.833  0.0510  0.6504 -0.1677
  121TMC2    C4 1845   4.229   3.769  13.652 -0.0571  0.7065  0.1566
  121TMC2    C5 1846   4.098   3.807  13.635  0.3829  0.0738 -0.9353
  121TMC2    C6 1847   4.003   3.782  13.726  0.0445  0.8736  0.6950
  121TMC2     C 1848   4.396   3.643  13.777  0.5372 -0.1354  0.1151
  121TMC2     O 1849   4.396   3.563  13.866 -0.5475 -0.3618 -1.0085
  121TMC2     H 1850   4.191   3.605  13.940  0.8097  0.0621 -0.4732
  121TMC2    H1 1851   4.301   3.812  13.582  0.3487  0.8819  0.6787
  121TMC2    H2 1852   3.902   3.820  13.734  0.1832  1.3293  0.2542
  121TMC2    C7 1853   4.069   3.884  13.519  0.2795  0.4375  0.3553
  121TMC2    C8 1854   3.943   3.665  13.928 -0.2883 -0.0405  0.0111
  121TMC2    O1 1855   4.141   3.972  13.477 -0.0199  0.2815  0.1502
  121TMC2    O2 1856   3.977   3.616  14.034  0.2104 -0.7327 -0.4374
  121TMC2    O5 1857   3.828   3.649  13.869  0.3329 -0.3859  0.4799
  121TMC2    H5 1858   3.767   3.593  13.922  0.1726  1.9724  2.7915
  122MPD2     C 1859   4.670   3.547  13.798 -0.3396 -0.7062 -0.6748
  122MPD2    C1 1860   4.627   3.658  13.721  0.2301 -0.4240  0.1708
  122MPD2    C2 1861   0.006   3.743  13.666  0.0858 -0.8795  1.0735
  122MPD2    C3 1862   0.138   3.722  13.707  0.4167 -0.2380  0.1519
  122MPD2    C4 1863   0.173   3.603  13.764  0.6290 -0.2010  0.2966
  122MPD2    C5 1864   0.079   3.518  13.816 -0.3888 -0.1013  0.0409
  122MPD2     H 1865   4.707   3.827  13.602 -1.6537 -1.9845  0.1733
  122MPD2    H1 1866   0.277   3.580  13.781  1.0021  0.7589 -0.6396
  122MPD2    H2 1867   4.600   3.470  13.828  0.1121 -2.4136 -3.9908
  122MPD2    H3 1868   0.106   3.426  13.865 -1.2943  0.4651  1.5930
  122MPD2     N 1869   0.240   3.817  13.681  0.0654  0.1205  0.1320
  122MPD2    H5 1870   0.333   3.782  13.703 -0.2215  0.4725  1.9444
  122MPD2    N1 1871   4.495   3.693  13.699 -0.5049 -0.4641  0.2400
  122MPD2    H7 1872   4.475   3.775  13.642  0.0383 -1.1012 -0.8541
  123MPD2     C 1873   2.915   1.159  10.108  0.3564 -0.5469 -0.3818
  123MPD2    C1 1874   2.884   1.270  10.035 -0.1292  0.3616 -0.3121
  123MPD2    C2 1875   2.987   1.359   9.997 -0.0196  0.8160 -0.3062
  123MPD2    C3 1876   3.118   1.323  10.019 -0.6642 -0.5559  0.7060
  123MPD2    C4 1877   3.148   1.207  10.087 -0.3219  0.4493 -0.4124
  123MPD2    C5 1878   3.045   1.124  10.130 -0.0158  0.2708  0.3571
  123MPD2     H 1879   2.976   1.450   9.940 -2.3087  1.0976  0.5563
  123MPD2    H1 1880   3.249   1.189  10.121  0.0895 -0.2275 -1.9689
  123MPD2    H2 1881   2.842   1.091  10.151  1.2356  0.9103  3.3797
  123MPD2    H3 1882   3.070   1.046  10.201 -0.7346  1.0094  1.4123
  123MPD2     N 1883   3.205   1.426   9.994  0.4745 -0.3982  0.2584
  123MPD2    H5 1884   3.167   1.510   9.952  0.8366 -1.3081 -1.9022
  123MPD2    N1 1885   2.741   1.295  10.024  0.4212  0.1178  0.1144
  123MPD2    H7 1886   2.683   1.216  10.048 -0.2401  0.7023  0.4406
  124TCq2    C1 1887   3.337   1.434  10.024  0.0058  0.2728  0.4350
  124TCq2    O2 1888   3.398   1.370  10.110  0.3062 -0.1065 -0.3587
  124TCq2    C2 1889   3.394   1.561   9.972 -0.3499  0.8847 -0.9213
  124TCq2    C3 1890   3.496   1.615  10.046  0.2843  0.6253 -0.1674
  124TCq2    C4 1891   3.531   1.749  10.021 -0.2220 -0.5027  0.4953
  124TCq2    C5 1892   3.476   1.814   9.911  0.1583  0.3684 -0.0371
  124TCq2    C6 1893   3.382   1.754   9.837 -0.1309  0.8054 -0.2157
  124TCq2    C7 1894   3.340   1.627   9.863 -0.5655 -0.1512  0.4961
  124TCq2    C8 1895   3.298   1.832   9.753  0.3433  0.1785  0.7780
  124TCq2    O4 1896   3.250   1.773   9.656  0.4098  0.8482  0.5279
  124TCq2    C9 1897   3.636   1.807  10.092  0.2496  0.4779 -0.0626
  124TCq2    O5 1898   3.695   1.743  10.183  0.5200  0.4838 -0.2438
  124TCq2    O6 1899   3.669   1.923  10.053 -0.3724 -0.0799 -0.3015
  124TCq2    H2 1900   3.547   1.557  10.122 -0.9318 -2.1212 -1.4582
  124TCq2    H3 1901   3.500   1.918   9.889  2.2904  0.0400  0.7116
  124TCq2    H4 1902   3.271   1.571   9.800 -0.4692  0.7556 -0.4024
  125TMC2    C1 1903   4.461   0.129   8.457 -0.6584  1.2767 -0.1576
  125TMC2    C2 1904   4.470   0.027   8.366 -0.4545 -0.2298  0.3564
  125TMC2    C3 1905   4.515   4.626   8.407  0.0726  0.5751 -0.4282
  125TMC2    C4 1906   4.493   0.107   8.587 -0.5702  0.3394  0.2241
  125TMC2    C5 1907   4.525   4.706   8.625  0.4529  0.5258 -0.4570
  125TMC2    C6 1908   4.538   4.605   8.541  0.2215 -0.2104  0.0602
  125TMC2     C 1909   4.367   0.234   8.442  0.1721  0.2060  0.3321
  125TMC2     O 1910   4.306   0.274   8.541 -0.2373 -0.4555  0.8100
  125TMC2     H 1911   4.420   0.042   8.270  0.9631 -1.6661 -0.6096
  125TMC2    H1 1912   4.483   0.182   8.665 -1.3648  1.5202 -1.0244
  125TMC2    H2 1913   4.560   4.503   8.571 -3.9314 -1.8454 -2.4197
  125TMC2    C7 1914   4.546   4.678   8.770  0.2008  0.0837  0.3058
  125TMC2    C8 1915   4.483   4.510   8.323 -0.1958 -0.3519 -0.4304
  125TMC2    O1 1916   4.487   0.025   8.854  0.1162  1.0531  0.5480
  125TMC2    O2 1917   4.395   4.527   8.241 -0.5329  0.4662 -0.3708
  125TMC2    O5 1918   4.577   4.424   8.315  0.1875  0.1123 -0.1433
  125TMC2    H5 1919   4.647   4.445   8.381 -1.0976  4.1374 -0.0603
  126MPD1     C 1920   4.136   0.592   8.152  0.1477 -0.6875  0.0247
  126MPD1    C1 1921   4.237   0.537   8.077 -0.1611  0.0298 -0.0608
  126MPD1    C2 1922   4.314   0.437   8.128  0.1026  0.8650 -0.3826
  126MPD1    C3 1923   4.288   0.381   8.253 -0.3395 -0.7391 -0.4860
  126MPD1    C4 1924   4.193   0.445   8.330  0.7648  0.5552 -0.3726
  126MPD1    C5 1925   4.117   0.548   8.279  1.0934  0.1200 -0.1250
  126MPD1     H 1926   4.397   0.393   8.074  0.1541  1.5507 -0.8632
  126MPD1    H1 1927   4.174   0.429   8.435 -0.1175 -2.1873 -0.9426
  126MPD1    H2 1928   4.066   0.661   8.107 -0.8890 -1.0916  1.0271
  126MPD1    H3 1929   4.038   0.597   8.334  0.5770  0.2234 -0.9755
  126MPD1     N 1930   4.373   0.278   8.311  0.2831 -0.3530  0.1443
  126MPD1    H5 1931   4.454   0.246   8.258  2.6510  4.2299  1.0274
  126MPD1    N1 1932   4.253   0.567   7.942 -0.4057 -0.0124 -0.3114
  126MPD1    H6 1933   4.347   0.548   7.909  0.0311 -0.9296  1.4915
  126MPD1    H7 1934   4.237   0.668   7.940  0.6854  0.1600 -0.3312
  127MPD2     C 1935   0.544   2.773   9.562  0.4149 -0.2176  0.5491
  127MPD2    C1 1936   0.458   2.878   9.576  0.2604 -0.0823 -0.5776
  127MPD2    C2 1937   0.504   2.995   9.632  0.0548  0.0233  0.0474
  127MPD2    C3 1938   0.623   2.991   9.700 -0.0515 -0.0214  0.3290
  127MPD2    C4 1939   0.695   2.871   9.711 -0.5939  0.0629 -0.4562
  127MPD2    C5 1940   0.665   2.769   9.624 -0.4962 -0.1805 -0.3989
  127MPD2     H 1941   0.440   3.083   9.636  0.6514  0.4223  0.8303
  127MPD2    H1 1942   0.786   2.873   9.770 -0.5106 -0.5096 -0.5725
  127MPD2    H2 1943   0.504   2.694   9.500  0.4808 -0.6890  1.1111
  127MPD2    H3 1944   0.729   2.682   9.624  0.5696  0.6025  0.1304
  127MPD2     N 1945   0.673   3.101   9.774 -0.1344  0.0447 -0.1650
  127MPD2    H5 1946   0.754   3.081   9.830  0.7790  0.6286 -1.2770
  127MPD2    N1 1947   0.333   2.867   9.512 -0.4683  0.2045 -0.3421
  127MPD2    H7 1948   0.308   2.787   9.455  0.8339  0.0800 -0.7491
  128TCq2    C1 1949   0.230   2.956   9.531  0.5357  0.4819 -0.2285
  128TCq2    O2 1950   0.210   3.047   9.609  0.1241  0.7785  0.8163
  128TCq2    C2 1951   0.126   2.914   9.443 -0.4347  0.3216 -0.1437
  128TCq2    C3 1952   0.161   2.848   9.328  0.4095  0.2652 -0.3908
  128TCq2    C4 1953   0.075   2.764   9.274  0.3870  0.1563 -0.3078
  128TCq2    C5 1954   4.679   2.728   9.338 -0.6999  0.0715  0.1743
  128TCq2    C6 1955   4.661   2.778   9.464 -0.0674 -0.2616 -0.1326
  128TCq2    C7 1956   0.023   2.874   9.520 -0.2149 -0.4569 -0.1514
  128TCq2    C8 1957   4.530   2.747   9.532 -0.1878  0.2877 -0.5351
  128TCq2    O4 1958   4.524   2.754   9.657 -0.1031  0.2847  0.4940
  128TCq2    C9 1959   0.097   2.710   9.138 -0.0962  0.1320  0.5412
  128TCq2    O5 1960   0.216   2.710   9.090  0.0725  0.1284 -0.3591
  128TCq2    O6 1961   4.711   2.662   9.087  0.2669  0.4943 -0.2751
  128TCq2    H2 1962   0.242   2.886   9.267  0.5888 -0.3069 -0.5095
  128TCq2    H3 1963   4.629   2.639   9.302 -1.1148  0.4572 -0.2059
  128TCq2    H4 1964   4.719   2.912   9.618 -1.1926 -1.4038 -0.0243
  129MPD2     C 1965   3.346   3.921   1.118 -0.0182 -0.0159 -0.1148
  129MPD2    C1 1966   3.442   3.876   1.210  0.4979 -0.0256  0.7918
  129MPD2    C2 1967   3.570   3.917   1.204  0.9958 -0.1184  0.1990
  129MPD2    C3 1968   3.607   4.021   1.114  0.3807 -0.2203  0.1001
  129MPD2    C4 1969   3.504   4.071   1.031 -0.5558  0.6388  0.4612
  129MPD2    C5 1970   3.376   4.020   1.032  0.1669 -0.2693  0.1438
  129MPD2     H 1971   3.645   3.866   1.263 -0.7538 -1.2273  1.4384
  129MPD2    H1 1972   3.508   4.155   0.963 -0.1322 -0.9057 -1.4232
  129MPD2    H2 1973   3.251   3.870   1.110 -0.0059 -0.1207  0.4475
  129MPD2    H3 1974   3.303   4.061   0.963 -0.6446 -0.5852  0.8100
  129MPD2     N 1975   3.745   4.068   1.102  0.2362 -0.4304 -0.5402
  129MPD2    H5 1976   3.814   4.034   1.168  3.2807  0.7380 -3.1424
  129MPD2    N1 1977   3.406   3.778   1.311 -0.1233  0.6188  0.8153
  129MPD2    H7 1978   3.476   3.752   1.380 -0.4606 -2.1018  0.1246
  130TCq2    C1 1979   3.274   3.741   1.346 -0.3023  0.1153 -0.3445
  130TCq2    O2 1980   3.161   3.763   1.296 -0.9041  0.3830 -0.0762
  130TCq2    C2 1981   3.274   3.652   1.452  0.5123  0.2123  0.0607
  130TCq2    C3 1982   3.378   3.574   1.480  0.0425  0.3714 -0.0974
  130TCq2    C4 1983   3.380   3.495   1.588  0.2408 -0.0408 -0.2264
  130TCq2    C5 1984   3.273   3.486   1.675 -0.2171 -0.5115  0.1086
  130TCq2    C6 1985   3.160   3.554   1.637 -0.5484  0.2585 -0.0838
  130TCq2    C7 1986   3.160   3.641   1.531  0.4538  0.2568  0.6961
  130TCq2    C8 1987   3.053   3.557   1.723 -0.1339  0.2358 -0.3910
  130TCq2    O4 1988   2.946   3.583   1.675 -0.2198 -0.1075  0.1753
  130TCq2    C9 1989   3.498   3.426   1.623 -0.0088 -0.1978  0.9094
  130TCq2    O5 1990   3.510   3.370   1.737 -0.2228 -0.8999 -0.5410
  130TCq2    O6 1991   3.604   3.472   1.565  0.6694  0.2419 -0.3255
  130TCq2    H2 1992   3.452   3.562   1.402 -0.0494 -2.8435  0.3405
  130TCq2    H3 1993   3.279   3.420   1.761  0.3261  1.7964  1.8358
  130TCq2    H4 1994   3.071   3.701   1.516  1.4461  0.8835 -2.5637
  131MPD2     C 1995   2.111   1.954   9.567 -0.3227  0.2494 -0.2082
  131MPD2    C1 1996   2.245   1.975   9.601 -0.2934 -1.1388 -0.3773
  131MPD2    C2 1997   2.316   1.885   9.675  0.1100 -0.6248 -0.1759
  131MPD2    C3 1998   2.255   1.775   9.725  0.0562 -0.3262 -0.1686
  131MPD2    C4 1999   2.117   1.755   9.694 -0.0735 -0.2836  0.7857
  131MPD2    C5 2000   2.049   1.839   9.610  0.4130  0.4483  0.2642
  131MPD2     H 2001   2.419   1.898   9.704 -0.3463 -3.7404  2.8755
  131MPD2    H1 2002   2.063   1.664   9.718 -0.7013 -0.5679 -1.6946
  131MPD2    H2 2003   2.051   2.019   9.504  1.6962  0.1189 -2.2498
  131MPD2    H3 2004   1.947   1.816   9.582  0.0805  2.0239  0.2177
  131MPD2     N 2005   2.323   1.690   9.816 -0.2788 -0.4054 -0.5361
  131MPD2    H5 2006   2.420   1.716   9.835 -0.1946 -1.3942  0.3490
  131MPD2    N1 2007   2.297   2.093   9.556  0.4754 -0.1412 -0.3102
  131MPD2    H7 2008   2.233   2.157   9.511 -0.4806 -1.1331 -0.3596
  132TCq2    C1 2009   2.383   2.596   9.661 -0.4774  0.5713 -0.2572
  132TCq2    O2 2010   2.291   2.579   9.733 -0.5075  0.7818  0.5657
  132TCq2    C2 2011   2.444   2.489   9.585 -0.1723 -1.2966 -0.1325
  132TCq2    C3 2012   2.576   2.503   9.546 -0.3722 -0.1194  0.7195
  132TCq2    C4 2013   2.636   2.397   9.486 -0.6103 -0.4794 -0.1084
  132TCq2    C5 2014   2.573   2.282   9.472  0.9154 -0.1568  0.4543
  132TCq2    C6 2015   2.457   2.270   9.532 -0.1905 -0.1249 -0.0991
  132TCq2    C7 2016   2.386   2.371   9.595  0.3003  0.1777  0.3038
  132TCq2    C8 2017   2.432   2.137   9.577 -0.2077 -0.9986  0.3003
  132TCq2    O4 2018   2.533   2.076   9.615  0.1265  0.5115 -0.2280
  132TCq2    C9 2019   2.761   2.408   9.417  0.7302  0.5752 -0.1779
  132TCq2    O5 2020   2.806   2.301   9.365  0.3442  0.1601  0.8054
  132TCq2    O6 2021   2.814   2.522   9.409 -0.1896  0.2774  0.0965
  132TCq2    H2 2022   2.632   2.596   9.556  0.1176 -0.2122 -1.2781
  132TCq2    H3 2023   2.610   2.197   9.416 -1.0678 -1.2482  0.7771
  132TCq2    H4 2024   2.286   2.360   9.636 -0.0148 -1.4199 -0.8703
  133MPD2     C 2025   1.897   3.599   8.587 -0.2792 -0.0317  0.1053
  133MPD2    C1 2026   1.984   3.536   8.667  0.9870  0.3910 -0.1903
  133MPD2    C2 2027   1.999   3.397   8.651  0.9802  0.2800  0.0653
  133MPD2    C3 2028   1.923   3.329   8.551 -0.5165  0.2218 -0.1853
  133MPD2    C4 2029   1.836   3.402   8.472  0.0776  0.4236  0.5223
  133MPD2    C5 2030   1.826   3.536   8.496 -0.1106  0.3217  0.1659
  133MPD2     H 2031   2.058   3.338   8.720  1.3825  0.9420  0.2843
  133MPD2    H1 2032   1.771   3.351   8.402 -1.1500  0.0469  1.9217
  133MPD2    H2 2033   1.877   3.704   8.605 -0.8305  0.2033 -1.8914
  133MPD2    H3 2034   1.758   3.588   8.430 -0.6167 -0.5155  0.0271
  133MPD2     N 2035   1.925   3.187   8.535 -1.3265  0.5833 -0.2805
  133MPD2    H5 2036   1.854   3.140   8.480 -0.5027  0.5746 -1.3444
  133MPD2    N1 2037   2.068   3.619   8.750 -0.7642  0.3165 -0.0732
  133MPD2    H7 2038   2.040   3.716   8.756  0.8373  0.7429  0.5568
  134TCq2    C1 2039   2.165   3.573   8.836 -0.1066  0.2049  0.0471
  134TCq2    O2 2040   2.203   3.460   8.860  0.0589 -0.3382  0.2906
  134TCq2    C2 2041   2.232   3.683   8.908  0.4696 -0.0994 -0.1249
  134TCq2    C3 2042   2.266   3.665   9.037  0.9477  0.6991 -0.0215
  134TCq2    C4 2043   2.322   3.768   9.106  0.1181  0.3514 -0.3200
  134TCq2    C5 2044   2.341   3.895   9.045 -0.0458  0.1350  0.5471
  134TCq2    C6 2045   2.311   3.899   8.912  0.3771 -0.8956  0.6458
  134TCq2    C7 2046   2.249   3.804   8.844 -0.4792  0.0854  0.6592
  134TCq2    C8 2047   2.348   4.023   8.838 -0.9689 -0.3288 -0.4225
  134TCq2    O4 2048   2.434   4.094   8.886  0.0496 -0.4934  0.0812
  134TCq2    C9 2049   2.351   3.745   9.251  0.1267  0.1090 -0.8438
  134TCq2    O5 2050   2.354   3.849   9.325 -0.3327 -0.3070  0.1310
  134TCq2    O6 2051   2.362   3.620   9.283 -0.2965  0.8390 -0.0050
  134TCq2    H2 2052   2.262   3.561   9.066  1.3034  1.0352  1.2520
  134TCq2    H3 2053   2.392   3.978   9.091  1.5300 -0.8567  0.6195
  134TCq2    H4 2054   2.253   3.801   8.735  0.5429  1.6305  0.6517
  135MPD2     C 2055   4.401   0.154   9.412 -0.0291  0.0165 -0.1603
  135MPD2    C1 2056   4.469   0.041   9.451  0.4614  0.4859  1.1418
  135MPD2    C2 2057   4.584   0.003   9.385 -0.1846 -0.5972  0.1815
  135MPD2    C3 2058   4.642   0.088   9.292 -1.0117 -0.1174  0.2626
  135MPD2    C4 2059   4.579   0.207   9.267  0.1873 -0.3225  0.7061
  135MPD2    C5 2060   4.457   0.242   9.322  0.2182 -0.5057  0.6136
  135MPD2     H 2061   4.646   4.638   9.411  0.6194  0.4435  1.6751
  135MPD2    H1 2062   4.626   0.276   9.199 -0.8839  1.9479  2.2769
  135MPD2    H2 2063   4.311   0.189   9.461 -0.2251  0.6239 -0.9472
  135MPD2    H3 2064   4.410   0.339   9.312 -0.6879 -1.1796 -1.5974
  135MPD2     N 2065   0.042   0.059   9.224 -0.1538  0.7800  0.4339
  135MPD2    H5 2066   0.057   0.111   9.139 -1.3513 -0.8792 -0.7737
  135MPD2    N1 2067   4.418   4.670   9.550  0.1768  0.4939 -0.6275
  135MPD2    H7 2068   4.466   4.581   9.559  1.7396  1.2182 -1.6603
  136TCq2    C1 2069   4.329   4.711   9.649  0.1904  0.0654 -0.4621
  136TCq2    O2 2070   4.257   0.090   9.661 -0.6055 -0.1878  0.1504
  136TCq2    C2 2071   4.294   4.592   9.725 -0.2152 -0.2879  0.1922
  136TCq2    C3 2072   4.314   4.465   9.669  1.0211 -0.0031  0.1520
  136TCq2    C4 2073   4.233   4.360   9.710  0.3799  0.4585 -0.3839
  136TCq2    C5 2074   4.148   4.386   9.818 -0.2700 -0.1911 -0.3403
  136TCq2    C6 2075   4.139   4.503   9.878  0.2084 -0.5165 -0.1404
  136TCq2    C7 2076   4.202   4.610   9.830 -0.7669 -0.2812  0.4968
  136TCq2    C8 2077   4.027   4.527   9.964  0.1758 -0.5400 -0.0207
  136TCq2    O4 2078   4.030   4.634  10.024 -0.7354 -0.9598 -0.0136
  136TCq2    C9 2079   4.223   4.233   9.636  0.2657  0.2896 -0.0684
  136TCq2    O5 2080   4.294   4.211   9.529 -0.4450  0.3527 -0.1297
  136TCq2    O6 2081   4.147   4.143   9.691  0.0989 -0.2364 -0.2864
  136TCq2    H2 2082   4.366   4.446   9.575 -0.1270  0.3034 -0.5397
  136TCq2    H3 2083   4.103   4.295   9.856 -0.8425 -0.3669 -1.4175
  136TCq2    H4 2084   4.193   4.709   9.873 -0.6795  0.5282 -1.3555
  137MPD2     C 2085   3.689   3.162   9.206 -0.7691  0.5291  0.1870
  137MPD2    C1 2086   3.738   3.279   9.156 -0.2242 -0.3095  0.0880
  137MPD2    C2 2087   3.847   3.332   9.220  0.3971 -0.5436  0.6088
  137MPD2    C3 2088   3.913   3.275   9.327 -0.2496  0.5303  1.0336
  137MPD2    C4 2089   3.864   3.150   9.370  0.4651 -0.3512  0.1558
  137MPD2    C5 2090   3.753   3.100   9.309 -0.3363  0.7166  0.4695
  137MPD2     H 2091   3.884   3.428   9.185  1.0835 -0.0636  2.6449
  137MPD2    H1 2092   3.917   3.082   9.436 -0.6136 -1.3160  0.0265
  137MPD2    H2 2093   3.602   3.112   9.164 -0.8754 -2.1121  3.5110
  137MPD2    H3 2094   3.719   3.006   9.352 -2.6664 -0.9055 -4.9066
  137MPD2     N 2095   4.029   3.335   9.375 -0.1014  0.5039 -0.0476
  137MPD2    H5 2096   4.060   3.423   9.335  1.1553 -0.0585 -0.2849
  137MPD2    N1 2097   3.680   3.338   9.042 -0.0100 -0.0145  0.1125
  137MPD2    H7 2098   3.604   3.286   8.999  1.4857 -1.4451 -0.8200
  138TCq2    C1 2099   3.732   3.447   8.969  0.2444  0.1423 -0.5019
  138TCq2    O2 2100   3.831   3.517   8.983  0.4333 -0.8160 -0.3095
  138TCq2    C2 2101   3.652   3.482   8.847  0.2227  0.0505 -0.3601
  138TCq2    C3 2102   3.712   3.553   8.741 -0.0898  0.1711  0.8259
  138TCq2    C4 2103   3.645   3.565   8.628  0.3756  0.2669  0.3214
  138TCq2    C5 2104   3.520   3.525   8.612 -0.0610  0.0537  0.8007
  138TCq2    C6 2105   3.456   3.471   8.718  0.1032  0.4525  0.1563
  138TCq2    C7 2106   3.517   3.452   8.839 -0.5259  0.1433  0.9352
  138TCq2    C8 2107   3.320   3.424   8.705  0.3018 -0.0847 -0.9537
  138TCq2    O4 2108   3.289   3.366   8.600  0.7756 -0.8660 -0.6011
  138TCq2    C9 2109   3.711   3.602   8.503  0.3888 -0.1312  0.0252
  138TCq2    O5 2110   3.836   3.608   8.512  0.0537 -0.2102  0.1357
  138TCq2    O6 2111   3.649   3.609   8.395  0.4176  0.3317 -0.7867
  138TCq2    H2 2112   3.816   3.584   8.743  0.1449 -0.6518  2.0740
  138TCq2    H3 2113   3.479   3.520   8.511 -1.8167 -1.0998  1.5792
  138TCq2    H4 2114   3.460   3.411   8.922 -1.1729  1.7383  1.2848
  139TMC2    C1 2115   3.866   1.680  13.358  0.1596  0.1368 -0.0644
  139TMC2    C2 2116   3.965   1.764  13.389 -0.1191 -0.1821  0.6533
  139TMC2    C3 2117   3.936   1.890  13.429  0.3218  0.2873 -0.1547
  139TMC2    C4 2118   3.735   1.713  13.353  0.2345  0.3750  0.7723
  139TMC2    C5 2119   3.709   1.841  13.408  0.2966  0.3760 -0.3950
  139TMC2    C6 2120   3.809   1.929  13.447 -0.0184 -0.0685 -0.4907
  139TMC2     C 2121   3.897   1.538  13.369  0.9641 -0.5246 -0.3354
  139TMC2     O 2122   3.992   1.507  13.442 -0.3101  0.7100  0.0975
  139TMC2     H 2123   4.067   1.728  13.374 -0.7414 -1.7964  0.3645
  139TMC2    H1 2124   3.654   1.643  13.339  0.0722  0.7761 -0.3114
  139TMC2    H2 2125   3.787   2.020  13.502  0.3446  0.7123 -1.6215
  139TMC2    C7 2126   3.575   1.896  13.425  0.6961 -0.0369  0.6436
  139TMC2    C8 2127   4.046   1.985  13.447 -0.4404  0.4849 -0.0957
  139TMC2    O1 2128   3.569   2.005  13.471  0.0562 -0.8000 -0.9161
  139TMC2    O2 2129   4.165   1.948  13.448 -0.4603  0.2731 -0.0807
  139TMC2    O5 2130   3.996   2.100  13.400  0.0893  0.3962  0.2692
  139TMC2    H5 2131   3.900   2.107  13.385 -0.1566 -0.8143  1.3069
  140MPD2     C 2132   3.706   1.247  13.235 -0.0657 -0.0987 -0.4101
  140MPD2    C1 2133   3.815   1.318  13.285  0.1174 -0.4937  0.8197
  140MPD2    C2 2134   3.914   1.241  13.346  0.1031  0.6215 -0.2997
  140MPD2    C3 2135   3.909   1.107  13.354  0.5398  0.2229  0.0520
  140MPD2    C4 2136   3.799   1.036  13.312  0.2330 -0.1954 -0.2777
  140MPD2    C5 2137   3.691   1.113  13.262 -0.4280  0.2452  0.4297
  140MPD2     H 2138   4.002   1.281  13.394 -0.2892 -1.3304  2.0061
  140MPD2    H1 2139   3.787   0.928  13.313 -0.6490 -0.0846  0.3506
  140MPD2    H2 2140   3.626   1.300  13.183 -1.1964  0.6260  2.0724
  140MPD2    H3 2141   3.604   1.057  13.231 -0.5300 -0.5972  2.2264
  140MPD2     N 2142   4.020   1.044  13.419 -0.0170  0.2444 -0.7703
  140MPD2    H5 2143   4.106   1.097  13.427 -0.5216  0.9052  0.2568
  140MPD2    N1 2144   3.816   1.457  13.289  0.1137  0.1806  0.7117
  140MPD2    H7 2145   3.744   1.505  13.236  1.0570 -1.5958 -2.1270
  141TCq2    C1 2146   4.555   2.945  13.902 -0.0270  0.1563 -0.2959
  141TCq2    O2 2147   4.558   3.029  13.812 -0.5057 -0.4020 -0.5452
  141TCq2    C2 2148   4.664   2.940  14.000 -0.0830 -0.2918 -0.0856
  141TCq2    C3 2149   4.657   2.846  14.096 -0.4535 -0.3029 -0.1658
  141TCq2    C4 2150   4.720   2.875  14.210  0.0432 -0.3972  0.8998
  141TCq2    C5 2151   0.070   2.992  14.230 -0.0427 -0.2337  0.5191
  141TCq2    C6 2152   0.070   3.081  14.137 -0.1604  0.7963  0.4454
  141TCq2    C7 2153   0.012   3.054  14.017 -0.0089  0.0793  0.1774
  141TCq2    C8 2154   0.186   3.170  14.130  0.5039  0.4813 -0.1023
  141TCq2    O4 2155   0.252   3.187  14.230  0.0650  0.4026  0.2839
  141TCq2    C9 2156   0.007   2.760  14.303  0.6583  0.0044  0.4099
  141TCq2    O5 2157   0.063   2.792  14.408  0.3707 -0.0035  0.1021
  141TCq2    O6 2158   0.006   2.640  14.265 -0.8284  0.0231 -0.0764
  141TCq2    H2 2159   4.615   2.746  14.089 -0.1762 -0.4642  0.5713
  141TCq2    H3 2160   0.125   3.003  14.322 -0.9850 -0.7220  1.1355
  141TCq2    H4 2161   0.002   3.133  13.943 -1.7776 -1.1302 -0.8627
  142MPD2     C 2162   2.504   1.214   9.650  0.3670 -0.9490  0.0332
  142MPD2    C1 2163   2.401   1.306   9.625 -0.1121 -0.2736  0.8234
  142MPD2    C2 2164   2.425   1.428   9.564  0.7404  0.1268 -0.3873
  142MPD2    C3 2165   2.555   1.449   9.518  0.4504 -0.0526  0.6452
  142MPD2    C4 2166   2.657   1.357   9.547 -0.2644 -0.0652 -0.4144
  142MPD2    C5 2167   2.630   1.242   9.613 -0.4169  0.4029  0.0408
  142MPD2     H 2168   2.347   1.502   9.558  1.3651  0.8775  1.0061
  142MPD2    H1 2169   2.757   1.381   9.514  1.2457 -2.7467  2.1275
  142MPD2    H2 2170   2.491   1.123   9.707  0.8947 -0.6791  0.5750
  142MPD2    H3 2171   2.712   1.178   9.641 -1.8451 -2.6567 -2.8345
  142MPD2     N 2172   2.591   1.573   9.460  0.0386 -0.1700  0.2545
  142MPD2    H5 2173   2.689   1.590   9.440 -0.0157 -1.7309 -1.3757
  142MPD2    N1 2174   2.277   1.284   9.690  0.6293 -0.6324 -0.8679
  142MPD2    H7 2175   2.278   1.212   9.762  2.5866  0.4058  0.1293
  143TCq2    C1 2176   2.499   1.663   9.413  0.4756  0.0595  0.3280
  143TCq2    O2 2177   2.376   1.657   9.409  0.2855  0.0719 -0.1943
  143TCq2    C2 2178   2.566   1.793   9.388 -0.5697  0.0511 -0.4469
  143TCq2    C3 2179   2.516   1.859   9.288 -0.1235 -0.5488  0.4816
  143TCq2    C4 2180   2.571   1.972   9.244 -0.7653 -0.2789 -0.2384
  143TCq2    C5 2181   2.699   1.999   9.289 -0.1172  0.0753 -0.2911
  143TCq2    C6 2182   2.761   1.918   9.383  0.4705  0.2304  0.0127
  143TCq2    C7 2183   2.691   1.818   9.443 -0.6136 -0.2429  0.0892
  143TCq2    C8 2184   2.897   1.941   9.425 -0.1314  0.5071 -0.0530
  143TCq2    O4 2185   2.947   1.835   9.459  0.4751  0.0087 -0.4652
  143TCq2    C9 2186   2.509   2.055   9.144  0.1011 -0.3085  0.9974
  143TCq2    O5 2187   2.420   2.005   9.065 -0.0181  0.5110  0.2712
  143TCq2    O6 2188   2.567   2.163   9.118 -0.3672 -0.0510 -0.1343
  143TCq2    H2 2189   2.421   1.832   9.242  0.0262 -0.5699  0.1856
  143TCq2    H3 2190   2.766   2.072   9.244 -1.6769  1.5568 -0.2264
  143TCq2    H4 2191   2.738   1.759   9.520  0.1405  1.2512  0.7712
  144MPD2     C 2192   0.572   1.501   0.643 -0.0179 -0.5080  0.2958
  144MPD2    C1 2193   0.554   1.366   0.664  0.3575 -0.1839  0.6264
  144MPD2    C2 2194   0.650   1.301   0.743  0.1686  0.6859  0.6228
  144MPD2    C3 2195   0.760   1.368   0.792 -1.0358  0.3056 -0.7328
  144MPD2    C4 2196   0.767   1.503   0.785  0.5607  0.0394 -0.8414
  144MPD2    C5 2197   0.668   1.564   0.709  0.6406 -0.0349  0.0081
  144MPD2     H 2198   0.633   1.195   0.756  1.4248  0.3852 -0.1678
  144MPD2    H1 2199   0.843   1.556   0.841 -1.2227 -0.5462  2.1554
  144MPD2    H2 2200   0.491   1.560   0.602  1.1519 -1.6235 -3.5919
  144MPD2    H3 2201   0.669   1.672   0.709 -0.4353 -0.0290  2.5779
  144MPD2     N 2202   0.848   1.292   0.870  0.0919  0.0845 -0.2723
  144MPD2    H5 2203   0.923   1.341   0.918 -0.3181  0.5403 -0.0887
  144MPD2    N1 2204   0.447   1.293   0.611 -0.3808  0.0959  0.4441
  144MPD2    H7 2205   0.447   1.193   0.627  2.2023  0.0900  0.4892
  145TCq2    C1 2206   0.864   1.156   0.868  1.0897  0.1709  0.5310
  145TCq2    O2 2207   0.855   1.080   0.771  0.1748  0.3171 -0.3772
  145TCq2    C2 2208   0.963   1.119   0.970  0.5549  0.1935 -0.4477
  145TCq2    C3 2209   1.072   1.040   0.934  0.8614  0.7272  0.1334
  145TCq2    C4 2210   1.151   0.988   1.035 -0.2881  0.4397  0.7373
  145TCq2    C5 2211   1.128   1.011   1.171  0.8327  0.1422 -0.3465
  145TCq2    C6 2212   1.017   1.097   1.201 -0.2956  0.2740 -0.0094
  145TCq2    C7 2213   0.941   1.153   1.098  0.5519  0.1393  0.6000
  145TCq2    C8 2214   1.015   1.156   1.334  0.0770  0.7885 -0.3065
  145TCq2    O4 2215   1.114   1.131   1.404  0.1902 -0.2121  0.1291
  145TCq2    C9 2216   1.270   0.912   0.993 -0.2759 -0.6521  0.2246
  145TCq2    O5 2217   1.273   0.863   0.875 -0.6904  0.6199 -0.3839
  145TCq2    O6 2218   1.372   0.900   1.074  0.0389 -0.4870  0.3435
  145TCq2    H2 2219   1.095   1.012   0.832  0.1066 -1.2805  0.5305
  145TCq2    H3 2220   1.185   0.961   1.248 -1.2795 -1.9120 -0.1147
  145TCq2    H4 2221   0.854   1.216   1.117  1.0655  0.8561  0.5767
  146TMC2    C1 2222   1.485   3.617  12.022  0.1375  0.4921 -0.8812
  146TMC2    C2 2223   1.381   3.590  11.942 -0.5294  0.0454  0.3668
  146TMC2    C3 2224   1.394   3.564  11.807 -0.5502  0.0607  0.4167
  146TMC2    C4 2225   1.610   3.631  11.961  0.2441  0.1021 -0.4976
  146TMC2    C5 2226   1.627   3.600  11.831  0.2081 -0.0814 -0.6655
  146TMC2    C6 2227   1.519   3.571  11.749  1.1163  0.1875  0.3390
  146TMC2     C 2228   1.461   3.685  12.145 -0.1221  0.0425 -0.9005
  146TMC2     O 2229   1.348   3.714  12.173  0.0397 -0.1168  0.3461
  146TMC2     H 2230   1.283   3.594  11.986 -0.2046  0.9035  1.0231
  146TMC2    H1 2231   1.687   3.695  12.001 -1.1677  1.8469 -0.5785
  146TMC2    H2 2232   1.523   3.565  11.641  3.5754 -0.0310  0.4402
  146TMC2    C7 2233   1.761   3.589  11.776 -0.4819 -0.0701 -0.0987
  146TMC2    C8 2234   1.286   3.530  11.723  0.4764  0.0978  0.0161
  146TMC2    O1 2235   1.773   3.577  11.653  0.0449  0.1565 -0.1551
  146TMC2    O2 2236   1.194   3.453  11.748 -0.1568 -0.2070 -0.2354
  146TMC2    O5 2237   1.294   3.611  11.615  0.5915  0.5151  1.0621
  146TMC2    H5 2238   1.372   3.671  11.612  0.3926  0.7489  0.5920
  147MPD2     C 2239   2.270   3.629  11.841 -0.1047 -0.5059  1.1122
  147MPD2    C1 2240   2.217   3.601  11.962 -0.2058 -0.0233  0.0499
  147MPD2    C2 2241   2.079   3.590  11.975 -0.0900 -0.5337  0.1494
  147MPD2    C3 2242   1.996   3.586  11.869 -0.4375  0.1190 -0.1529
  147MPD2    C4 2243   2.054   3.596  11.747 -0.2971 -0.0161 -0.3134
  147MPD2    C5 2244   2.193   3.612  11.729  0.0319 -0.0934  0.6799
  147MPD2     H 2245   2.033   3.586  12.073 -0.0163  4.7847  0.4089
  147MPD2    H1 2246   2.002   3.601  11.652  1.6905 -1.0430 -1.4579
  147MPD2    H2 2247   2.379   3.625  11.841 -0.0318  2.3398 -0.6396
  147MPD2    H3 2248   2.234   3.625  11.630 -0.3605 -0.1301  0.5150
  147MPD2     N 2249   1.853   3.580  11.880 -0.3651  0.3343  0.0229
  147MPD2    H5 2250   1.822   3.593  11.976 -0.5547  0.2337 -0.0237
  147MPD2    N1 2251   2.296   3.598  12.073 -0.1533  0.0702 -0.2884
  147MPD2    H7 2252   2.392   3.632  12.072  0.8857 -2.9185 -2.0000
  148MPD2     C 2253   2.306   2.911  10.243 -0.2575  0.7365 -0.6504
  148MPD2    C1 2254   2.333   2.773  10.248  0.1337  0.2661 -0.1128
  148MPD2    C2 2255   2.242   2.685  10.187  0.3782  0.2673 -0.1688
  148MPD2    C3 2256   2.126   2.727  10.132 -0.0893  0.2521  0.1097
  148MPD2    C4 2257   2.096   2.860  10.130 -0.2194  0.0854 -0.4711
  148MPD2    C5 2258   2.177   2.943  10.200  0.4903 -0.0931  0.0759
  148MPD2     H 2259   2.270   2.580  10.183  1.1747  0.4479  0.7936
  148MPD2    H1 2260   2.004   2.900  10.089  0.1757  0.7216 -0.7289
  148MPD2    H2 2261   2.379   2.987  10.269 -3.3590  3.7786 -0.7975
  148MPD2    H3 2262   2.144   3.046  10.195 -1.1375 -0.6141  0.2333
  148MPD2     N 2263   2.032   2.641  10.069  0.5106 -0.0717 -0.5140
  148MPD2    H5 2264   1.961   2.683  10.010  1.5919  3.8025  0.9410
  148MPD2    N1 2265   2.457   2.718  10.296 -0.7610  0.2015  0.5486
  148MPD2    H7 2266   2.478   2.621  10.277  1.1212  0.6254  0.4464
  149TCq2    C1 2267   2.556   2.791  10.350  0.8669  0.1873  0.9650
  149TCq2    O2 2268   2.567   2.914  10.362  0.2164  0.0334  1.1686
  149TCq2    C2 2269   2.670   2.710  10.408 -0.6437 -0.0197 -0.7813
  149TCq2    C3 2270   2.793   2.773  10.416  0.0613 -0.6434  0.0136
  149TCq2    C4 2271   2.906   2.699  10.439  0.1118 -0.1686  0.5652
  149TCq2    C5 2272   2.899   2.567  10.421  0.2498 -0.3572 -0.0256
  149TCq2    C6 2273   2.776   2.500  10.405 -0.3072 -0.1761  0.2057
  149TCq2    C7 2274   2.660   2.571  10.419 -0.4132  0.1459  0.0550
  149TCq2    C8 2275   2.772   2.361  10.377 -0.1797  0.0260  0.5334
  149TCq2    O4 2276   2.671   2.308  10.416 -0.1867  0.0223 -0.2798
  149TCq2    C9 2277   3.036   2.760  10.440 -0.0859  0.4318 -0.2475
  149TCq2    O5 2278   3.134   2.697  10.488 -0.4173  0.5273 -0.4802
  149TCq2    O6 2279   3.038   2.874  10.387  1.0559 -0.3674 -0.7193
  149TCq2    H2 2280   2.788   2.881  10.424 -0.2256 -0.6737  0.2262
  149TCq2    H3 2281   2.996   2.518  10.424 -0.7721 -2.3281  0.1895
  149TCq2    H4 2282   2.563   2.524  10.429 -0.3892  0.3336  1.1632
  150MPD2     C 2283   3.422   2.023  12.296  0.1229 -0.2401  0.2849
  150MPD2    C1 2284   3.484   1.976  12.182  0.1034  0.0395  1.2160
  150MPD2    C2 2285   3.623   1.986  12.175 -0.6732  0.1419  0.1220
  150MPD2    C3 2286   3.699   2.033  12.283 -0.3098 -0.9116 -0.5470
  150MPD2    C4 2287   3.636   2.071  12.395 -0.9234  0.7371 -0.9808
  150MPD2    C5 2288   3.496   2.071  12.394 -0.0859  0.4006 -0.6681
  150MPD2     H 2289   3.687   1.947  12.096  0.4178 -0.5234  1.3185
  150MPD2    H1 2290   3.687   2.099  12.487 -1.8737  1.6609 -0.7361
  150MPD2    H2 2291   3.314   2.017  12.309 -0.0017 -0.8624 -1.0566
  150MPD2    H3 2292   3.443   2.109  12.480 -0.4673 -0.5042 -0.4974
  150MPD2     N 2293   3.842   2.034  12.279 -0.5061 -0.3828  0.2398
  150MPD2    H5 2294   3.874   2.001  12.189 -3.3504 -0.1186 -0.8664
  150MPD2    N1 2295   3.404   1.915  12.079  0.2584 -0.5787 -0.4172
  150MPD2    H7 2296   3.308   1.898  12.105 -1.0035  1.8966 -3.4950
  151TCq2    C1 2297   3.934   2.088  12.363  0.3241  0.1548 -0.1312
  151TCq2    O2 2298   3.921   2.161  12.460 -0.7075 -0.0909  0.4454
  151TCq2    C2 2299   4.069   2.033  12.332  0.7857  0.2120 -0.2002
  151TCq2    C3 2300   4.081   1.908  12.267  0.1254  0.5768  0.2083
  151TCq2    C4 2301   4.207   1.856  12.265  0.3562 -1.0218 -0.2575
  151TCq2    C5 2302   4.313   1.918  12.309 -0.0506  0.2203 -0.2776
  151TCq2    C6 2303   4.292   2.041  12.371  0.4665  0.0612 -0.1996
  151TCq2    C7 2304   4.171   2.101  12.380  0.6468  0.1112 -0.1222
  151TCq2    C8 2305   4.409   2.119  12.409  0.5838  0.5052  0.2557
  151TCq2    O4 2306   4.395   2.232  12.369  0.4593  0.5482 -0.3566
  151TCq2    C9 2307   4.229   1.727  12.208 -0.4896  0.2302  1.2098
  151TCq2    O5 2308   4.125   1.661  12.181 -0.2138 -0.4580 -0.6663
  151TCq2    O6 2309   4.348   1.682  12.195 -0.0708 -0.1583  0.4815
  151TCq2    H2 2310   3.996   1.850  12.232  1.9225 -2.4217  0.7980
  151TCq2    H3 2311   4.410   1.873  12.287 -0.4545 -1.3650  1.1581
  151TCq2    H4 2312   4.160   2.196  12.431 -2.4865 -0.3021 -0.0221
  152MPD2     C 2313   3.590   1.379  12.815 -0.2616 -0.2467  0.3613
  152MPD2    C1 2314   3.598   1.498  12.737 -0.3955  0.1627 -0.4420
  152MPD2    C2 2315   3.484   1.549  12.677 -0.3392 -0.3822  0.1548
  152MPD2    C3 2316   3.366   1.478  12.686  0.2371  0.0977  0.2828
  152MPD2    C4 2317   3.360   1.367  12.769 -0.2763 -0.1925  0.3699
  152MPD2    C5 2318   3.475   1.312  12.819 -0.1619  0.4163  0.2732
  152MPD2     H 2319   3.480   1.628  12.604  1.4925  0.0310  0.5149
  152MPD2    H1 2320   3.265   1.318  12.786 -1.6778  2.6415  0.7709
  152MPD2    H2 2321   3.670   1.331  12.870 -0.7126 -2.5392 -0.9742
  152MPD2    H3 2322   3.474   1.221  12.877  0.7583  0.3201  0.1452
  152MPD2     N 2323   3.257   1.538  12.612  0.1889 -0.1169  0.0598
  152MPD2    H5 2324   3.275   1.628  12.567  3.6704  0.1444  1.9138
  152MPD2    N1 2325   3.724   1.556  12.728 -0.2195 -0.4496 -0.1226
  152MPD2    H7 2326   3.809   1.516  12.766  0.7339 -1.1484 -2.9714
  153TCq2    C1 2327   3.737   1.688  12.685  0.6526 -0.4776 -0.1902
  153TCq2    O2 2328   3.651   1.769  12.661  0.1086  0.1651 -0.0062
  153TCq2    C2 2329   3.873   1.727  12.668 -0.4385 -0.3227  0.3542
  153TCq2    C3 2330   3.958   1.636  12.610  0.2298  0.0418  0.5956
  153TCq2    C4 2331   4.091   1.677  12.606 -0.1180  0.3590  0.2273
  153TCq2    C5 2332   4.138   1.792  12.664  0.4471  0.4494 -0.1820
  153TCq2    C6 2333   4.053   1.878  12.717 -0.6128  0.6881 -0.0489
  153TCq2    C7 2334   3.919   1.845  12.722  0.2797  0.2669  0.0668
  153TCq2    C8 2335   4.091   2.010  12.756  0.0742 -0.3113 -0.2335
  153TCq2    O4 2336   3.999   2.079  12.799 -0.1592 -0.3979  0.1824
  153TCq2    C9 2337   4.185   1.577  12.551 -0.4266  0.1970 -0.2250
  153TCq2    O5 2338   4.314   1.594  12.562  0.2811 -0.9038  0.4706
  153TCq2    O6 2339   4.134   1.467  12.518  0.1610 -0.3377  0.1081
  153TCq2    H2 2340   3.918   1.548  12.561 -1.2606  0.7246  0.5606
  153TCq2    H3 2341   4.246   1.795  12.677  0.1599  2.3174  1.6962
  153TCq2    H4 2342   3.855   1.923  12.760 -0.1339  0.4011 -0.9220
  154MPD2     C 2343   0.727   1.884   0.352 -0.2527  0.0951  0.2057
  154MPD2    C1 2344   0.666   1.982   0.286  0.2703 -0.6191 -0.0977
  154MPD2    C2 2345   0.534   2.010   0.305 -0.2962 -0.4410 -0.2859
  154MPD2    C3 2346   0.452   1.934   0.390  0.2527 -0.4342 -0.4810
  154MPD2    C4 2347   0.519   1.831   0.459 -0.4935 -0.0763  0.8664
  154MPD2    C5 2348   0.658   1.818   0.445  0.2313 -0.6176 -0.3890
  154MPD2     H 2349   0.493   2.089   0.243 -0.4588 -1.1335 -1.0611
  154MPD2    H1 2350   0.472   1.766   0.532  0.2752  0.0217  1.4524
  154MPD2    H2 2351   0.832   1.858   0.349 -0.1163  0.7403 -0.6475
  154MPD2    H3 2352   0.712   1.736   0.492 -1.7083 -2.2382 -0.9605
  154MPD2     N 2353   0.319   1.953   0.426  0.2788 -0.2123 -0.3099
  154MPD2    H5 2354   0.291   1.889   0.499  1.3615  0.2614  0.5268
  154MPD2    N1 2355   0.748   2.062   0.207 -0.3697  0.5307 -0.0313
  154MPD2    H7 2356   0.845   2.032   0.213 -0.7780 -0.7028  0.3635
  155TCq2    C1 2357   0.722   2.182   0.145 -0.1355 -0.3821  0.4284
  155TCq2    O2 2358   0.623   2.254   0.164  0.2528 -0.5421  0.0020
  155TCq2    C2 2359   0.850   2.232   0.102  0.6426 -0.1659  0.0173
  155TCq2    C3 2360   0.967   2.152   0.093 -0.2701  0.2282 -0.9586
  155TCq2    C4 2361   1.082   2.218   0.049 -0.5274  0.0263 -0.5384
  155TCq2    C5 2362   1.083   2.348   0.017 -0.0908 -0.2137  0.0774
  155TCq2    C6 2363   0.971   2.417   0.028  0.2895 -0.6397 -0.0448
  155TCq2    C7 2364   0.858   2.365   0.086  0.7876 -0.4964  0.7519
  155TCq2    C8 2365   0.972   2.557   0.005 -0.2959 -0.3708 -0.1255
  155TCq2    O4 2366   0.870   2.614  17.662 -0.6699  0.3695 -0.3232
  155TCq2    C9 2367   1.209   2.148   0.061  0.2868  0.9874 -0.3312
  155TCq2    O5 2368   1.198   2.031   0.107 -0.4046 -0.4345  0.6304
  155TCq2    O6 2369   1.311   2.212   0.046  0.2104  0.1054 -0.3264
  155TCq2    H2 2370   0.972   2.046   0.113 -0.6977  0.2297 -0.8539
  155TCq2    H3 2371   1.177   2.382  17.660 -1.1920 -0.3091 -2.5164
  155TCq2    H4 2372   0.771   2.429   0.095  1.6972  0.8810 -0.3203
  156MPD2     C 2373   0.026   3.773  11.661  0.0224 -0.6933 -0.3750
  156MPD2    C1 2374   4.638   3.835  11.607  0.4013 -0.0792  0.1285
  156MPD2    C2 2375   4.554   3.910  11.687  0.3441  0.0750 -0.7142
  156MPD2    C3 2376   4.583   3.928  11.822 -0.2410 -0.4482  0.4435
  156MPD2    C4 2377   4.691   3.860  11.873  0.1033  0.5653 -0.0674
  156MPD2    C5 2378   0.055   3.788  11.791  0.0195  0.3662  0.2949
  156MPD2     H 2379   4.474   3.969  11.644  0.0013  0.9341  1.1228
  156MPD2    H1 2380   4.720   3.877  11.975 -2.3233 -2.1811  1.1041
  156MPD2    H2 2381   0.088   3.709  11.599 -0.3965 -0.7596 -0.7223
  156MPD2    H3 2382   0.145   3.743  11.833  1.5471  4.8137  1.7872
  156MPD2     N 2383   4.493   4.002  11.893  0.0318 -0.1677 -0.6751
  156MPD2    H5 2384   4.418   4.048  11.842 -0.2430  0.1412  0.0132
  156MPD2    N1 2385   4.614   3.806  11.471  0.1062 -0.5007  0.4501
  156MPD2    H7 2386   4.678   3.740  11.427  1.0262  0.3805  0.4632
  157TCq2    C1 2387   4.536   3.881  11.386 -0.3126 -0.1838 -0.5357
  157TCq2    O2 2388   4.451   3.964  11.418 -0.4651 -0.3675  0.0587
  157TCq2    C2 2389   4.534   3.841  11.254 -0.6204  0.4051 -0.6972
  157TCq2    C3 2390   4.484   3.717  11.238 -0.0939  0.1893  0.8142
  157TCq2    C4 2391   4.368   3.699  11.167  0.6030  0.0294  0.0903
  157TCq2    C5 2392   4.303   3.808  11.113 -0.7830  0.3366 -0.2220
  157TCq2    C6 2393   4.363   3.931  11.126 -0.3287 -0.8385  0.2309
  157TCq2    C7 2394   4.488   3.949  11.181 -0.4511  0.3021  0.2391
  157TCq2    C8 2395   4.284   4.056  11.110 -1.5912  0.2325  0.1409
  157TCq2    O4 2396   4.338   4.167  11.130 -0.0989 -0.0333  0.1695
  157TCq2    C9 2397   4.311   3.569  11.149 -0.7275 -0.6138 -0.5883
  157TCq2    O5 2398   4.193   3.572  11.095 -0.2682 -0.4066  0.3186
  157TCq2    O6 2399   4.370   3.465  11.197  0.4399  0.1199 -0.0676
  157TCq2    H2 2400   4.540   3.632  11.276  1.3783  1.0131  0.4856
  157TCq2    H3 2401   4.218   3.793  11.048  0.8433  1.9529 -2.6810
  157TCq2    H4 2402   4.536   4.044  11.197 -1.0682  0.7586 -0.5737
  158TMC2    C1 2403   3.583   3.331  12.866  0.1215  0.8502 -0.1050
  158TMC2    C2 2404   3.559   3.426  12.769 -0.8288 -0.5100  0.5297
  158TMC2    C3 2405   3.436   3.480  12.760 -0.0719  0.0382  0.3227
  158TMC2    C4 2406   3.480   3.283  12.944 -0.1490  1.0544  0.1641
  158TMC2    C5 2407   3.359   3.349  12.929 -0.6533  0.2310  1.3780
  158TMC2    C6 2408   3.333   3.455  12.841  0.0568 -0.2026 -0.0180
  158TMC2     C 2409   3.722   3.303  12.900 -0.4998  0.2431  1.0788
  158TMC2     O 2410   3.804   3.312  12.808 -0.1361  0.1643 -0.1612
  158TMC2     H 2411   3.641   3.462  12.708 -1.6876  1.7057  0.6907
  158TMC2    H1 2412   3.485   3.187  12.993  0.3774  0.9479 -0.1033
  158TMC2    H2 2413   3.235   3.498  12.827  0.5385  1.0391  0.3853
  158TMC2    C7 2414   3.231   3.294  12.980  0.5428 -0.4791 -0.2165
  158TMC2    C8 2415   3.408   3.554  12.639  0.3985  0.0611 -0.4972
  158TMC2    O1 2416   3.130   3.350  12.938  0.0108 -0.4798 -0.2825
  158TMC2    O2 2417   3.313   3.632  12.630  0.2509  0.2538  0.2353
  158TMC2    O5 2418   3.462   3.488  12.536 -0.0427 -0.1677 -0.0335
  158TMC2    H5 2419   3.503   3.406  12.571 -1.1165 -1.1222 -0.9952
  159MPD2     C 2420   4.076   3.235  13.275  0.7163 -0.7752 -0.0895
  159MPD2    C1 2421   3.952   3.201  13.326 -0.0122 -0.2782 -0.0327
  159MPD2    C2 2422   3.841   3.213  13.244 -0.0883 -0.5043 -0.5462
  159MPD2    C3 2423   3.855   3.252  13.109  0.2758  0.3272 -0.4264
  159MPD2    C4 2424   3.980   3.283  13.062 -0.1193 -0.1843 -0.3852
  159MPD2    C5 2425   4.086   3.278  13.151  0.0559  0.4668  0.6168
  159MPD2     H 2426   3.739   3.195  13.276 -0.3146  1.0942 -0.3662
  159MPD2    H1 2427   4.001   3.295  12.956  1.3831  0.0384 -0.0609
  159MPD2    H2 2428   4.159   3.236  13.344  0.8916  1.0752 -0.3076
  159MPD2    H3 2429   4.179   3.291  13.097 -1.8565  1.2347 -2.5101
  159MPD2     N 2430   3.730   3.267  13.031 -0.1268 -0.1767  0.0787
  159MPD2    H5 2431   3.641   3.255  13.079 -0.1151  0.3051  0.2154
  159MPD2    N1 2432   3.960   3.159  13.459  0.0987 -0.2083 -0.1027
  159MPD2    H7 2433   4.048   3.173  13.508  1.0472  0.1464 -1.8741
  160TMC2    C1 2434   0.187   1.287   1.512  0.4295 -0.1016  0.0608
  160TMC2    C2 2435   0.250   1.193   1.593 -0.1799  0.5386  0.1832
  160TMC2    C3 2436   0.230   1.063   1.559 -0.4697  0.4823 -0.0986
  160TMC2    C4 2437   0.133   1.253   1.386 -0.3279 -1.0623 -0.0575
  160TMC2    C5 2438   0.141   1.118   1.356  0.4739  0.2762 -0.4103
  160TMC2    C6 2439   0.181   1.028   1.445 -0.8760 -0.0067 -0.4107
  160TMC2     C 2440   0.167   1.422   1.569 -0.7229 -0.1976  0.9788
  160TMC2     O 2441   0.220   1.446   1.680 -0.1984  0.0377 -0.0981
  160TMC2     H 2442   0.294   1.209   1.691  0.0501 -0.5298  0.2529
  160TMC2    H1 2443   0.082   1.318   1.316  3.4335 -0.7453 -2.5062
  160TMC2    H2 2444   0.176   0.922   1.419  4.3066 -0.6659  1.3050
  160TMC2    C7 2445   0.096   1.063   1.227  0.1971  0.0102  0.5495
  160TMC2    C8 2446   0.248   0.965   1.670 -0.0962 -0.0771  0.0661
  160TMC2    O1 2447   0.112   0.942   1.212  0.2832  0.0788 -0.0920
  160TMC2    O2 2448   0.321   0.989   1.765 -0.0017 -0.4556 -0.2342
  160TMC2    O5 2449   0.163   0.859   1.659  0.2199  0.4619  0.1395
  160TMC2    H5 2450   0.106   0.857   1.579  1.4998  0.2836 -0.7669
  161MPD2     C 2451   0.063   1.690   1.672  0.3366  0.3731  0.2974
  161MPD2    C1 2452   0.010   1.618   1.563  0.8455  0.0346 -0.0680
  161MPD2    C2 2453   4.623   1.661   1.488 -0.3356  0.3987 -0.0840
  161MPD2    C3 2454   4.569   1.787   1.511 -0.6933 -0.4636  0.5696
  161MPD2    C4 2455   4.626   1.859   1.606 -0.1026 -0.0333  0.4301
  161MPD2    C5 2456   0.012   1.816   1.681  0.8308  0.4130  0.3651
  161MPD2     H 2457   4.573   1.586   1.428 -0.3643  0.6614 -0.3854
  161MPD2    H1 2458   4.588   1.958   1.632  1.0766  0.7783 -0.9394
  161MPD2    H2 2459   0.148   1.656   1.729  0.1989  1.8508  1.3612
  161MPD2    H3 2460   0.052   1.890   1.749  2.9659  2.0760 -2.7259
  161MPD2     N 2461   4.465   1.849   1.434  0.1638  0.2476 -0.1956
  161MPD2    H5 2462   4.438   1.941   1.467 -0.8025 -1.2601  3.2451
  161MPD2    N1 2463   0.063   1.494   1.521  0.2874 -0.1262 -0.5279
  161MPD2    H7 2464   0.003   1.439   1.461  0.3861 -0.6211 -0.1721
  162TMC2    C1 2465   2.223   3.641   0.934  0.3681 -0.5698 -0.2593
  162TMC2    C2 2466   2.167   3.686   0.815 -0.3038  1.1953  0.4548
  162TMC2    C3 2467   2.073   3.786   0.814 -0.7789 -0.1851 -0.2197
  162TMC2    C4 2468   2.173   3.688   1.053 -0.0535  0.5819  0.4202
  162TMC2    C5 2469   2.080   3.788   1.054  0.0102  0.1804  0.4448
  162TMC2    C6 2470   2.024   3.835   0.934  0.7480  0.1733 -0.1405
  162TMC2     C 2471   2.318   3.532   0.932  0.0568  0.7120 -0.1772
  162TMC2     O 2472   2.322   3.463   0.835 -0.3877 -0.5473 -0.0225
  162TMC2     H 2473   2.214   3.654   0.723  0.1600 -2.3763  1.9388
  162TMC2    H1 2474   2.201   3.646   1.148  0.7187 -1.8763 -0.8968
  162TMC2    H2 2475   1.952   3.916   0.931  0.3277 -0.2153 -0.5444
  162TMC2    C7 2476   2.010   3.821   1.175 -0.1055  0.1006  0.2859
  162TMC2    C8 2477   1.956   3.788   0.719  0.1426 -0.0714 -0.2085
  162TMC2    O1 2478   1.899   3.870   1.155  0.1963 -0.2775 -0.0398
  162TMC2    O2 2479   1.841   3.765   0.750 -0.2202  0.2986  0.2584
  162TMC2    O5 2480   2.018   3.772   0.606 -0.4100 -0.0335  0.2523
  162TMC2    H5 2481   2.114   3.791   0.613 -0.1070 -1.1629 -0.6707
  163MPD2     C 2482   2.725   3.262   1.094 -0.1297  0.1000  0.4423
  163MPD2    C1 2483   2.651   3.256   0.981  0.3346 -0.0803  0.6042
  163MPD2    C2 2484   2.543   3.336   0.966  0.4650 -0.5631  0.2764
  163MPD2    C3 2485   2.506   3.428   1.063  0.4336  0.2533  0.0392
  163MPD2    C4 2486   2.585   3.435   1.180  0.4989 -0.1619  0.4150
  163MPD2    C5 2487   2.701   3.358   1.189  0.4300 -0.2884  0.3825
  163MPD2     H 2488   2.493   3.347   0.870  2.4245  1.4422 -0.5299
  163MPD2    H1 2489   2.570   3.507   1.260  0.0691 -0.5880  0.7186
  163MPD2    H2 2490   2.809   3.196   1.112 -1.0482 -1.7587 -2.1675
  163MPD2    H3 2491   2.773   3.367   1.269  2.0760  2.2958 -1.3822
  163MPD2     N 2492   2.393   3.516   1.048 -0.6805  0.4522 -0.1622
  163MPD2    H5 2493   2.373   3.576   1.127  0.2458 -0.4870  0.7786
  163MPD2    N1 2494   2.693   3.166   0.876  0.1518 -0.5237 -0.1943
  163MPD2    H7 2495   2.775   3.108   0.890  0.7373  0.3577  0.0491
  164TCq2    C1 2496   2.891   2.658  10.851 -0.1874  0.5678  0.2312
  164TCq2    O2 2497   2.805   2.633  10.937  0.4571  0.4397 -0.5936
  164TCq2    C2 2498   2.914   2.790  10.796 -0.6426 -0.2789  0.4133
  164TCq2    C3 2499   3.040   2.827  10.761 -0.1735 -0.3851 -0.8825
  164TCq2    C4 2500   3.064   2.961  10.738 -0.0184  0.1437 -0.2248
  164TCq2    C5 2501   2.966   3.054  10.735  0.1010 -0.3964  0.4484
  164TCq2    C6 2502   2.835   3.007  10.760  0.0013  0.0345 -0.5073
  164TCq2    C7 2503   2.812   2.882  10.806 -0.2734 -0.2278 -0.1487
  164TCq2    C8 2504   2.722   3.091  10.723  0.4397 -0.0781 -0.4734
  164TCq2    O4 2505   2.614   3.042  10.748 -0.0956 -0.1971 -0.1235
  164TCq2    C9 2506   3.197   2.999  10.700  0.1948  0.0061 -0.7550
  164TCq2    O5 2507   3.285   2.911  10.680  0.0130 -0.5561  0.6095
  164TCq2    O6 2508   3.204   3.111  10.644  0.0548 -0.0955  0.0535
  164TCq2    H2 2509   3.124   2.759  10.756 -0.6859 -1.2175  1.9369
  164TCq2    H3 2510   2.991   3.158  10.718  3.3301 -1.6818 -2.6830
  164TCq2    H4 2511   2.712   2.844  10.819 -0.7203  0.5710 -1.2252
  165MPD2     C 2512   3.799   0.784   1.909 -0.1774  0.8500 -0.1963
  165MPD2    C1 2513   3.853   0.766   1.781  0.9901 -0.4968 -0.0870
  165MPD2    C2 2514   3.965   0.836   1.750  0.1840 -0.4273 -0.0099
  165MPD2    C3 2515   4.027   0.922   1.843  0.6804 -0.3989  0.0231
  165MPD2    C4 2516   3.974   0.944   1.965 -0.2714  0.6385 -1.0195
  165MPD2    C5 2517   3.858   0.878   1.996 -0.7980  0.8105 -0.4869
  165MPD2     H 2518   3.996   0.831   1.646 -1.5553 -2.6721 -0.4081
  165MPD2    H1 2519   4.010   1.014   2.039  1.5899 -1.2735 -0.0962
  165MPD2    H2 2520   3.715   0.727   1.946  0.3688  0.1172 -0.0887
  165MPD2    H3 2521   3.810   0.903   2.090 -0.4086  2.2096 -0.6716
  165MPD2     N 2522   4.144   0.995   1.807  0.0890  0.2967  0.2849
  165MPD2    H5 2523   4.180   1.046   1.887 -0.6537  1.7887 -0.3360
  165MPD2    N1 2524   3.787   0.670   1.695 -0.1777 -0.1577 -0.7861
  165MPD2    H7 2525   3.716   0.613   1.740  2.2273 -1.9182  0.8355
  166TCq2    C1 2526   4.209   0.996   1.686  0.4551  0.5312  0.0587
  166TCq2    O2 2527   4.183   0.931   1.587 -0.3069 -0.3475  0.6360
  166TCq2    C2 2528   4.309   1.096   1.682  0.1602 -0.1410  0.1980
  166TCq2    C3 2529   4.325   1.176   1.569  0.3013 -0.6292  0.3216
  166TCq2    C4 2530   4.443   1.235   1.548  0.6611 -0.5420 -0.4340
  166TCq2    C5 2531   4.544   1.225   1.636  0.0567 -0.2521  0.4257
  166TCq2    C6 2532   4.524   1.158   1.754  0.4015 -0.0305 -0.2242
  166TCq2    C7 2533   4.408   1.091   1.782 -0.1593 -0.1437 -0.0809
  166TCq2    C8 2534   4.629   1.160   1.854  0.1336 -0.8076  0.0034
  166TCq2    O4 2535   0.012   1.222   1.827  0.2053 -0.2226  0.4324
  166TCq2    C9 2536   4.466   1.309   1.427 -0.1686  0.3168  0.4946
  166TCq2    O5 2537   4.365   1.338   1.365 -0.8544  0.0300 -0.2444
  166TCq2    O6 2538   4.584   1.346   1.404 -0.3690  0.0538  0.6677
  166TCq2    H2 2539   4.246   1.185   1.495  1.3530 -0.2771 -0.7537
  166TCq2    H3 2540   4.638   1.277   1.618 -0.6093  0.8737  0.2248
  166TCq2    H4 2541   4.395   1.021   1.864 -3.0358 -0.9922 -1.2720
  167TMC2    C1 2542   1.509   3.231  12.348  0.2051  0.7287  0.0974
  167TMC2    C2 2543   1.486   3.351  12.412  0.3901 -0.0450  0.1465
  167TMC2    C3 2544   1.476   3.345  12.548  0.6565  0.3724  0.5574
  167TMC2    C4 2545   1.523   3.111  12.411 -0.5171 -0.1190  0.9428
  167TMC2    C5 2546   1.508   3.108  12.547  0.1006  0.2808 -0.4980
  167TMC2    C6 2547   1.496   3.230  12.620  0.1885  0.7583  0.6294
  167TMC2     C 2548   1.528   3.243  12.204  0.1125 -0.2225  0.6251
  167TMC2     O 2549   1.482   3.345  12.154 -0.1063  0.5061  0.1353
  167TMC2     H 2550   1.492   3.444  12.357  0.0099  0.4043  0.8549
  167TMC2    H1 2551   1.537   3.019  12.355  0.5949  0.1512  0.7668
  167TMC2    H2 2552   1.504   3.234  12.728 -2.0653  1.2737  0.7710
  167TMC2    C7 2553   1.557   3.000  12.622 -0.6228  0.0066 -0.7961
  167TMC2    C8 2554   1.539   3.465  12.612 -0.0439 -0.3562 -0.4944
  167TMC2    O1 2555   1.515   2.994  12.738 -0.3746  0.2263 -0.3464
  167TMC2    O2 2556   1.480   3.567  12.647  0.2685 -0.4875 -0.0382
  167TMC2    O5 2557   1.667   3.439  12.650 -0.4331  0.3576 -0.2063
  167TMC2    H5 2558   1.706   3.369  12.593  0.7368  0.6197  0.2902
  168MPD2     C 2559   1.634   3.252  11.937 -0.0724 -1.0809  0.3859
  168MPD2    C1 2560   1.635   3.142  12.013  0.5978 -0.4085  0.1556
  168MPD2    C2 2561   1.682   3.023  11.960  0.5946 -0.1615  0.6376
  168MPD2    C3 2562   1.716   3.007  11.829 -0.6292 -0.6985  0.0151
  168MPD2    C4 2563   1.712   3.113  11.745  0.4848  0.0753 -0.0627
  168MPD2    C5 2564   1.668   3.230  11.802 -0.4254 -0.0967 -0.2479
  168MPD2     H 2565   1.695   2.929  12.013  1.0462 -0.4724 -0.0350
  168MPD2    H1 2566   1.735   3.100  11.640  2.1910 -1.7004  0.5258
  168MPD2    H2 2567   1.610   3.352  11.972  0.2307 -1.9129  2.9660
  168MPD2    H3 2568   1.673   3.316  11.737 -3.2697  0.1681 -0.1408
  168MPD2     N 2569   1.740   2.877  11.784 -0.0176  0.0935 -0.1048
  168MPD2    H5 2570   1.751   2.798  11.845  1.2955 -1.0040 -1.7573
  168MPD2    N1 2571   1.583   3.140  12.142 -0.6815  0.3393  0.0049
  168MPD2    H7 2572   1.594   3.057  12.200  0.8274  0.4236 -0.1587
  169MPD1     C 2573   3.567   2.569   9.377  0.8603  0.0814 -0.0219
  169MPD1    C1 2574   3.688   2.576   9.303 -0.4607 -0.4362  0.1712
  169MPD1    C2 2575   3.766   2.463   9.300  0.5549 -0.5451 -0.4760
  169MPD1    C3 2576   3.725   2.345   9.359 -0.2783 -1.0579  0.4426
  169MPD1    C4 2577   3.607   2.341   9.434  0.3330 -0.1543  0.2519
  169MPD1    C5 2578   3.532   2.454   9.439 -0.4505  0.8999 -0.3169
  169MPD1     H 2579   3.863   2.467   9.253  0.6222 -2.4324 -0.5123
  169MPD1    H1 2580   3.585   2.254   9.495  0.6565  0.4604  1.2564
  169MPD1    H2 2581   3.509   2.658   9.395  1.0783  0.4292 -1.0247
  169MPD1    H3 2582   3.441   2.445   9.498 -1.0799  2.6959 -1.0124
  169MPD1     N 2583   3.825   2.241   9.373  0.1519 -0.5098  0.2036
  169MPD1    H5 2584   3.918   2.268   9.341 -0.2474 -0.7810 -1.1881
  169MPD1    N1 2585   3.734   2.696   9.257  0.0746 -0.5300  0.1419
  169MPD1    H6 2586   3.805   2.690   9.183 -0.2247  1.4137 -0.2957
  169MPD1    H7 2587   3.661   2.756   9.219 -2.0341 -0.6540  4.0276
  170MPD1     C 2588   3.507   0.695  13.190 -0.0453  1.3073  0.3752
  170MPD1    C1 2589   3.566   0.581  13.237  0.1019  0.0169  0.2955
  170MPD1    C2 2590   3.539   0.462  13.175  0.1771  1.2395  0.5603
  170MPD1    C3 2591   3.447   0.451  13.074  0.8573 -0.5199  0.0482
  170MPD1    C4 2592   3.389   0.568  13.032  0.7260 -0.4782  0.1716
  170MPD1    C5 2593   3.436   0.691  13.080  0.7384  0.3859 -0.0368
  170MPD1     H 2594   3.580   0.369  13.213 -1.3425  0.6706  0.8330
  170MPD1    H1 2595   3.308   0.564  12.960 -0.4556 -0.7291  1.5366
  170MPD1    H2 2596   3.534   0.791  13.233 -0.3433  1.1759  0.8532
  170MPD1    H3 2597   3.395   0.780  13.035 -0.5331  0.2227  0.8008
  170MPD1     N 2598   3.406   0.319  13.038  0.5798 -0.2557  0.4535
  170MPD1    H5 2599   3.468   0.245  13.070  0.6299 -0.3277  0.1852
  170MPD1    N1 2600   3.658   0.591  13.343 -0.0934 -0.6258  0.0760
  170MPD1    H6 2601   3.667   0.510  13.404 -1.2671 -1.6966 -1.1684
  170MPD1    H7 2602   3.636   0.670  13.403 -1.2570 -0.2252 -0.8858
  171MPD1     C 2603   1.218   1.220  15.360 -0.4139 -0.4631  0.3731
  171MPD1    C1 2604   1.223   1.085  15.369  0.4953  0.0468  0.3127
  171MPD1    C2 2605   1.324   1.033  15.457  0.2264 -0.1125  0.0380
  171MPD1    C3 2606   1.428   1.107  15.510  0.6729  0.1541 -0.4655
  171MPD1    C4 2607   1.413   1.245  15.484  0.5463 -0.0232  0.3967
  171MPD1    C5 2608   1.305   1.302  15.419 -0.7474  0.1287 -0.7113
  171MPD1     H 2609   1.334   0.926  15.468  0.9826 -0.0845 -0.3034
  171MPD1    H1 2610   1.482   1.317  15.527 -1.2072  0.3698  2.5756
  171MPD1    H2 2611   1.149   1.269  15.292  1.4926  0.2795 -1.0476
  171MPD1    H3 2612   1.304   1.409  15.405  0.4754  0.0813 -1.1551
  171MPD1     N 2613   1.547   1.058  15.567  0.4162 -0.0189 -0.2047
  171MPD1    H5 2614   1.610   1.131  15.598  1.4353 -1.0448  0.1096
  171MPD1    N1 2615   1.135   1.004  15.300  0.0510  0.1031 -0.2926
  171MPD1    H6 2616   1.179   0.929  15.247 -2.0595 -0.7139 -0.8521
  171MPD1    H7 2617   1.086   1.061  15.231  0.6612  1.5353  0.4580
  172MPD1     C 2618   0.538   0.656   0.494 -0.0010 -0.1463  0.2046
  172MPD1    C1 2619   0.516   0.749   0.399  0.2988 -0.2885  0.0289
  172MPD1    C2 2620   0.608   0.858   0.387  0.2283 -0.0430  0.1852
  172MPD1    C3 2621   0.693   0.881   0.498  0.2434  0.4697 -0.1229
  172MPD1    C4 2622   0.706   0.785   0.598 -0.6929  0.1525  0.0344
  172MPD1    C5 2623   0.633   0.670   0.591  0.4068 -0.3249 -0.1073
  172MPD1     H 2624   0.600   0.920   0.299 -0.0343 -3.6144 -2.2870
  172MPD1    H1 2625   0.790   0.792   0.666 -0.1176 -0.3689 -0.6227
  172MPD1    H2 2626   0.476   0.566   0.498  1.0847 -1.0133 -2.4623
  172MPD1    H3 2627   0.640   0.599   0.673  0.4848  0.0092  0.1723
  172MPD1     N 2628   0.776   0.998   0.517 -0.2488 -0.3051  1.1641
  172MPD1    H5 2629   0.818   1.006   0.609  0.2250 -0.2302  0.9388
  172MPD1    N1 2630   0.441   0.705   0.287 -0.0461 -0.3810 -0.3852
  172MPD1    H6 2631   0.369   0.640   0.318  0.8652 -2.0516 -1.7898
  172MPD1    H7 2632   0.399   0.781   0.235  1.3438  0.6981  0.0707
  173MPD1     C 2633   2.686   1.012  14.267 -0.4181  0.2098  0.4652
  173MPD1    C1 2634   2.738   0.889  14.235 -0.6481  0.6432  0.1968
  173MPD1    C2 2635   2.681   0.777  14.286  0.4836 -0.2384 -0.4055
  173MPD1    C3 2636   2.567   0.785  14.359  0.7385  0.2080 -0.0243
  173MPD1    C4 2637   2.517   0.910  14.386 -0.3376 -0.3799  0.3416
  173MPD1    C5 2638   2.574   1.022  14.341  0.2590 -0.2626 -0.0996
  173MPD1     H 2639   2.725   0.682  14.257 -0.8825 -0.8961 -0.3346
  173MPD1    H1 2640   2.441   0.936  14.458 -1.7261  0.4031 -1.4062
  173MPD1    H2 2641   2.719   1.106  14.224  0.2037  0.5767  1.7284
  173MPD1    H3 2642   2.527   1.118  14.358 -2.0415 -1.5177  0.5553
  173MPD1     N 2643   2.499   0.670  14.393 -0.4929 -0.1598  0.0193
  173MPD1    H5 2644   2.546   0.583  14.374 -0.9990 -0.8436  1.8877
  173MPD1    N1 2645   2.830   0.889  14.130  0.2714  0.3184 -0.1382
  173MPD1    H6 2646   2.921   0.930  14.150 -0.4424  1.8042  0.0329
  173MPD1    H7 2647   2.843   0.797  14.088  1.6056 -0.9777  3.1737
  174MPD1     C 2648   2.193   4.528  14.052 -0.8225 -0.0394  0.6190
  174MPD1    C1 2649   2.305   4.605  14.040  0.2925  1.0324 -0.1865
  174MPD1    C2 2650   2.327   4.703  14.134  0.1758 -0.7071 -0.5125
  174MPD1    C3 2651   2.257   4.706  14.251  0.1131  1.0405 -0.5720
  174MPD1    C4 2652   2.153   4.618  14.265  0.0773 -0.8965  0.7183
  174MPD1    C5 2653   2.119   4.530  14.168  0.5022 -0.5794 -0.1388
  174MPD1     H 2654   2.409   0.051  14.121 -0.0122  0.2476  3.2283
  174MPD1    H1 2655   2.096   4.607  14.357  1.4215  1.9829  1.9023
  174MPD1    H2 2656   2.148   4.462  13.978 -0.0557 -1.3355  1.3110
  174MPD1    H3 2657   2.025   4.476  14.168 -2.2034  4.0094 -1.1629
  174MPD1     N 2658   2.265   0.092  14.348  0.0111  0.5860 -0.3447
  174MPD1    H5 2659   2.206   0.084  14.429  0.3841 -0.0992 -0.1336
  174MPD1    N1 2660   2.360   4.626  13.912  0.6817  0.2324 -0.1196
  174MPD1    H6 2661   2.457   4.656  13.913  0.6967  0.2158 -0.8098
  174MPD1    H7 2662   2.355   4.536  13.864 -0.5024 -0.3913  1.2006
  175MPD1     C 2663   0.740   1.236  15.417  0.4251  0.4685  0.6020
  175MPD1    C1 2664   0.605   1.198  15.427 -0.8979  0.3886  0.4617
  175MPD1    C2 2665   0.545   1.197  15.550 -0.4305  0.1208  0.0442
  175MPD1    C3 2666   0.618   1.213  15.667 -0.6655  0.4643  0.5895
  175MPD1    C4 2667   0.755   1.235  15.658  0.1625 -0.1069 -0.0484
  175MPD1    C5 2668   0.816   1.234  15.532 -0.7081 -0.2986  0.3435
  175MPD1     H 2669   0.436   1.196  15.552 -0.4541 -0.2144 -2.0508
  175MPD1    H1 2670   0.819   1.232  15.745 -0.8999 -2.7029  0.6679
  175MPD1    H2 2671   0.777   1.253  15.317  0.2687 -2.5048  0.0379
  175MPD1    H3 2672   0.923   1.246  15.521 -0.9270  0.3544 -1.0875
  175MPD1     N 2673   0.560   1.212  15.799 -0.2812  0.2027 -0.2180
  175MPD1    H5 2674   0.621   1.249  15.871  2.0329  0.1263 -2.1059
  175MPD1    N1 2675   0.526   1.217  15.312 -0.0403 -0.7357  0.4195
  175MPD1    H6 2676   0.444   1.156  15.309  0.3436 -1.3327  1.8741
  175MPD1    H7 2677   0.586   1.205  15.231  0.1161  0.7640  0.3142
  176MPD1     C 2678   2.381   2.908  17.152  0.4907  0.3386  0.9656
  176MPD1    C1 2679   2.363   2.956  17.280  0.0431  0.1161 -0.3353
  176MPD1    C2 2680   2.345   3.094  17.293 -0.1234  0.0454 -0.4025
  176MPD1    C3 2681   2.371   3.178  17.190 -0.1723 -0.0918 -0.1085
  176MPD1    C4 2682   2.410   3.124  17.069 -0.7667 -0.2498  0.1593
  176MPD1    C5 2683   2.418   2.993  17.044  0.3330 -0.6600 -0.0877
  176MPD1     H 2684   2.325   3.141  17.389  4.1720 -1.3810  1.2030
  176MPD1    H1 2685   2.434   3.187  16.984  0.1003  0.4508  0.9212
  176MPD1    H2 2686   2.363   2.804  17.127  0.0980  0.9431 -1.2922
  176MPD1    H3 2687   2.418   2.957  16.941 -1.6686  1.9567 -1.0165
  176MPD1     N 2688   2.357   3.319  17.209  0.1127 -0.2213  0.1130
  176MPD1    H5 2689   2.329   3.355  17.300  0.6987  1.9915 -0.5852
  176MPD1    N1 2690   2.332   2.872  17.389  0.3730 -0.6624 -0.1163
  176MPD1    H6 2691   2.347   2.904  17.484  0.6041 -0.4321 -0.2314
  176MPD1    H7 2692   2.372   2.779  17.383  2.3279  0.1746  0.1395
  177MPD1     C 2693   1.143   2.974  10.476  0.1847 -0.2581 -0.2467
  177MPD1    C1 2694   1.140   2.925  10.348  0.4689 -0.3601  0.7690
  177MPD1    C2 2695   1.099   3.004  10.241 -0.1711  0.2315  0.4570
  177MPD1    C3 2696   1.031   3.123  10.274  0.1425  0.2973  0.6517
  177MPD1    C4 2697   1.020   3.166  10.405 -0.2892  0.0039 -0.1884
  177MPD1    C5 2698   1.080   3.090  10.502 -0.0234  0.3979  0.3234
  177MPD1     H 2699   1.100   2.967  10.139 -1.6493  1.8090 -0.1397
  177MPD1    H1 2700   0.956   3.248  10.432 -0.9614 -1.4967  2.7534
  177MPD1    H2 2701   1.188   2.918  10.558 -1.6763  0.1171  1.0225
  177MPD1    H3 2702   1.071   3.120  10.606  1.9588  0.6436  0.4301
  177MPD1     N 2703   0.983   3.190  10.162 -0.2264  0.0075 -0.4391
  177MPD1    H5 2704   0.980   3.146  10.070  1.8079 -1.8679  0.3940
  177MPD1    N1 2705   1.206   2.806  10.325 -0.4248  0.4721  0.7042
  177MPD1    H6 2706   1.189   2.739  10.400  0.7182  0.6704  1.1409
  177MPD1    H7 2707   1.167   2.771  10.238 -0.4613  1.2593  0.4037
  178MPD1     C 2708   2.606   0.092  17.182 -0.4353  0.3650  0.4273
  178MPD1    C1 2709   2.679   0.081  17.298  0.8514  0.3359  0.2246
  178MPD1    C2 2710   2.742   4.685  17.320 -0.8225  0.2639  0.1427
  178MPD1    C3 2711   2.749   4.588  17.220  0.2856  0.2649  1.1378
  178MPD1    C4 2712   2.682   4.606  17.103  0.9611  0.1231 -0.2902
  178MPD1    C5 2713   2.605   4.715  17.084  0.2847  0.5193 -0.0830
  178MPD1     H 2714   2.801   4.678  17.410 -1.3264  2.0841  0.6132
  178MPD1    H1 2715   2.690   4.539  17.018 -0.5661  0.4056 -0.6683
  178MPD1    H2 2716   2.540   0.177  17.166  0.0077  0.5857 -0.2407
  178MPD1    H3 2717   2.551   0.005  16.990  0.3290  1.0629 -0.0442
  178MPD1     N 2718   2.812   4.457  17.243  0.0080  0.0465  0.3902
  178MPD1    H5 2719   2.804   4.388  17.169  2.7846 -0.4073  0.5295
  178MPD1    N1 2720   2.651   0.172  17.395  0.0526  0.5973 -0.0969
  178MPD1    H6 2721   2.644   0.264  17.353 -0.9047  1.6622  2.3883
  178MPD1    H7 2722   2.718   0.174  17.472  0.9640  0.0304 -0.8759
  179MPD1     C 2723   2.019   2.541  16.613 -0.2273  0.9113 -0.4043
  179MPD1    C1 2724   1.938   2.498  16.504  1.0513  0.0795  0.8513
  179MPD1    C2 2725   1.981   2.396  16.420 -0.5429  0.5716 -0.6376
  179MPD1    C3 2726   2.098   2.335  16.448 -0.0737 -0.4835  0.6457
  179MPD1    C4 2727   2.170   2.379  16.554 -0.8199  0.2340  0.6019
  179MPD1    C5 2728   2.132   2.470  16.642 -0.2922  0.0525 -0.0162
  179MPD1     H 2729   1.921   2.363  16.336 -0.4595 -3.3068  0.8270
  179MPD1    H1 2730   2.263   2.327  16.573 -0.5490  0.6149  0.3039
  179MPD1    H2 2731   2.003   2.634  16.667  0.1255  0.9801 -0.4193
  179MPD1    H3 2732   2.187   2.475  16.735 -1.8814  1.5450  0.8333
  179MPD1     N 2733   2.160   2.245  16.368 -0.2728  0.5568 -0.4397
  179MPD1    H5 2734   2.240   2.196  16.406  0.1247  1.1454 -0.5263
  179MPD1    N1 2735   1.836   2.585  16.468 -0.1031 -0.4045  0.4164
  179MPD1    H6 2736   1.762   2.531  16.423  0.5519 -0.2102 -0.9047
  179MPD1    H7 2737   1.807   2.636  16.551  1.8744  2.0627 -0.4203
  180MPD1     C 2738   1.717   3.857  15.062 -0.1976 -0.4382  0.0906
  180MPD1    C1 2739   1.805   3.951  15.005 -0.8969 -0.1799 -0.4006
  180MPD1    C2 2740   1.824   3.955  14.865 -0.0439  0.1191  0.5440
  180MPD1    C3 2741   1.762   3.860  14.785  0.1606  0.4695 -0.5428
  180MPD1    C4 2742   1.689   3.755  14.844  0.4399 -0.4376  0.3730
  180MPD1    C5 2743   1.656   3.771  14.977 -0.2411  0.7498  0.1956
  180MPD1     H 2744   1.883   4.031  14.816  0.6795 -1.6439 -1.3316
  180MPD1    H1 2745   1.643   3.685  14.776 -0.0645  1.0142 -0.7825
  180MPD1    H2 2746   1.692   3.843  15.167  1.7801  0.2284  0.6487
  180MPD1    H3 2747   1.593   3.693  15.020  1.8095 -0.4737  0.9856
  180MPD1     N 2748   1.796   3.866  14.646 -0.6966  0.4224  0.7558
  180MPD1    H5 2749   1.862   3.939  14.620  1.0461 -1.7754 -1.0098
  180MPD1    N1 2750   1.860   4.056  15.076 -0.2413 -0.1957  0.6085
  180MPD1    H6 2751   1.944   4.101  15.042  0.5154  0.9727  3.9738
  180MPD1    H7 2752   1.860   4.043  15.177 -1.5114 -0.1243  0.6193
  181MPD1     C 2753   3.827   0.959  10.566  0.2889 -0.4836 -0.3685
  181MPD1    C1 2754   3.950   0.943  10.626  0.4296  0.4168  0.5814
  181MPD1    C2 2755   4.061   0.941  10.546 -0.2776  0.2166  0.3011
  181MPD1    C3 2756   4.058   0.977  10.415  0.7360 -0.9038  1.0303
  181MPD1    C4 2757   3.936   1.010  10.357  0.5672  0.3796  0.4375
  181MPD1    C5 2758   3.820   0.992  10.435 -0.6230 -0.0771 -0.3064
  181MPD1     H 2759   4.154   0.919  10.598  0.6889  0.9760 -1.1020
  181MPD1    H1 2760   3.910   1.032  10.254  0.4006 -0.6697  0.2571
  181MPD1    H2 2761   3.743   0.949  10.633  1.0715 -2.0255  0.3823
  181MPD1    H3 2762   3.722   1.019  10.398 -1.4249  0.3031  2.0757
  181MPD1     N 2763   4.167   0.973  10.326  0.2120  0.1251  0.4999
  181MPD1    H5 2764   4.149   0.995  10.229 -1.0506  2.9912  1.3854
  181MPD1    N1 2765   3.954   0.892  10.760  0.2922 -0.0694 -0.2682
  181MPD1    H6 2766   3.874   0.916  10.818  0.4227 -1.7037  0.5934
  181MPD1    H7 2767   4.037   0.927  10.806  0.6727 -0.2809 -0.7883
  182MPD1     C 2768   1.467   0.100   1.748  0.2720 -0.0805  0.2486
  182MPD1    C1 2769   1.488   0.075   1.613  0.0654  0.6383 -0.6511
  182MPD1    C2 2770   1.384   0.092   1.526  0.4279  0.3689 -0.2014
  182MPD1    C3 2771   1.272   0.164   1.561  0.7745 -0.4447 -0.5446
  182MPD1    C4 2772   1.258   0.194   1.696  0.1231 -0.1942 -0.6388
  182MPD1    C5 2773   1.356   0.167   1.787 -0.0574  0.1873 -0.3595
  182MPD1     H 2774   1.407   0.062   1.425 -0.7409  0.3075 -0.4547
  182MPD1    H1 2775   1.160   0.231   1.725  0.1966  0.9643 -1.8879
  182MPD1    H2 2776   1.539   0.063   1.820  0.4444  0.2263  0.2361
  182MPD1    H3 2777   1.342   0.179   1.893  1.4747 -0.0947 -0.1213
  182MPD1     N 2778   1.179   0.222   1.479  0.1120 -0.3102  0.0119
  182MPD1    H5 2779   1.098   0.270   1.517 -2.1992 -2.6901 -1.8981
  182MPD1    N1 2780   1.607   0.003   1.578  0.0979 -0.3068  0.3761
  182MPD1    H6 2781   1.670   0.044   1.646 -0.4661 -1.9231  1.8802
  182MPD1    H7 2782   1.641   0.011   1.483 -0.5785  0.7217  0.2211
  183MPD1     C 2783   1.187   0.006   8.825 -0.8044 -0.0012  0.8898
  183MPD1    C1 2784   1.177   4.707   8.962 -0.5171 -0.2886  0.5349
  183MPD1    C2 2785   1.096   0.079   9.029 -0.0852 -0.1359  0.3632
  183MPD1    C3 2786   1.024   0.177   8.973  1.2896  1.2842  0.0443
  183MPD1    C4 2787   1.020   0.178   8.834  0.0437  0.0613  0.6137
  183MPD1    C5 2788   1.106   0.096   8.764  0.2108  0.1426 -0.3830
  183MPD1     H 2789   1.092   0.076   9.138  0.0861  0.2470  0.3779
  183MPD1    H1 2790   0.964   0.247   8.772  1.8379 -0.5033 -1.6358
  183MPD1    H2 2791   1.251   4.664   8.764 -0.7733  0.3118  0.5999
  183MPD1    H3 2792   1.118   0.100   8.657  0.4819 -0.5505 -0.3822
  183MPD1     N 2793   0.953   0.261   9.060 -0.5465 -0.0973 -0.0376
  183MPD1    H5 2794   0.959   0.238   9.158  0.1988  1.7203  0.3550
  183MPD1    N1 2795   1.263   4.620   9.022  0.1294  0.0816 -0.2489
  183MPD1    H6 2796   1.309   4.553   8.961  0.8469  1.4506 -1.2178
  183MPD1    H7 2797   1.213   4.562   9.089  0.9064 -0.0201  0.2462
  184MPD1     C 2798   4.238   2.786  10.182  0.5461  0.5540  0.2608
  184MPD1    C1 2799   4.282   2.914  10.211  0.6210 -0.0501  0.0659
  184MPD1    C2 2800   4.372   2.975  10.115 -0.1669  0.1193  0.6342
  184MPD1    C3 2801   4.392   2.919   9.986 -0.7691 -0.7144 -0.2990
  184MPD1    C4 2802   4.327   2.801   9.955  0.1002 -0.4011  0.2015
  184MPD1    C5 2803   4.263   2.731  10.061 -0.3205  0.1369  0.9381
  184MPD1     H 2804   4.413   3.072  10.137  0.8283  0.1917 -1.6100
  184MPD1    H1 2805   4.332   2.758   9.856 -1.1600  1.0429 -0.4876
  184MPD1    H2 2806   4.155   2.748  10.241  0.0385  1.8542  0.3823
  184MPD1    H3 2807   4.219   2.635  10.038 -2.3775  1.2494  0.2555
  184MPD1     N 2808   4.461   2.986   9.880 -0.1529  0.7675  0.1788
  184MPD1    H5 2809   4.477   2.939   9.791  1.9971  2.9178 -0.5590
  184MPD1    N1 2810   4.254   2.972  10.336  0.2482 -0.2285  0.3650
  184MPD1    H6 2811   4.155   2.962  10.357  0.8213 -1.3809  2.4899
  184MPD1    H7 2812   4.285   3.067  10.353 -0.3573  0.1264 -0.5281
  185MPD1     C 2813   4.157   2.930   9.106 -0.1699 -0.2323 -0.9841
  185MPD1    C1 2814   4.282   2.981   9.072  0.4462 -0.3701  0.1162
  185MPD1    C2 2815   4.365   3.019   9.177  0.2387 -0.3147  0.0559
  185MPD1    C3 2816   4.320   3.017   9.310 -0.6075 -0.2270  0.0600
  185MPD1    C4 2817   4.197   2.959   9.337  0.1229 -0.3352  0.2358
  185MPD1    C5 2818   4.114   2.921   9.237  0.6145 -0.4219 -0.7136
  185MPD1     H 2819   4.462   3.066   9.161  0.4361 -1.4564 -1.9867
  185MPD1    H1 2820   4.164   2.947   9.439  0.0656  0.9867  0.3709
  185MPD1    H2 2821   4.096   2.892   9.024 -1.6926  0.3696 -0.1365
  185MPD1    H3 2822   4.022   2.872   9.268 -0.3161  2.1139  0.4623
  185MPD1     N 2823   4.393   3.059   9.423  0.3799 -0.0380  0.0409
  185MPD1    H5 2824   4.350   3.051   9.515 -2.1411  1.3185 -1.0185
  185MPD1    N1 2825   4.334   2.990   8.943 -0.3343 -0.6765 -0.0777
  185MPD1    H6 2826   4.260   2.990   8.874  0.2210  1.8633 -0.6619
  185MPD1    H7 2827   4.397   3.067   8.924 -1.4074  0.4695  1.0271
  186MPD1     C 2828   3.419   1.985  15.880  0.0712  0.1282 -0.1643
  186MPD1    C1 2829   3.465   2.102  15.823 -0.6100  0.5647 -0.4136
  186MPD1    C2 2830   3.426   2.226  15.882  0.3028 -0.3016  0.3240
  186MPD1    C3 2831   3.335   2.225  15.992 -0.2971  0.1035  1.0065
  186MPD1    C4 2832   3.279   2.103  16.033  0.1010  0.1259 -0.2338
  186MPD1    C5 2833   3.317   1.986  15.970 -0.6705  0.6280  0.1807
  186MPD1     H 2834   3.474   2.316  15.845 -1.0235  0.1332 -0.3425
  186MPD1    H1 2835   3.202   2.114  16.109  1.8940 -1.2475  1.7911
  186MPD1    H2 2836   3.446   1.889  15.839  0.7511 -0.5189  1.8254
  186MPD1    H3 2837   3.267   1.892  15.991 -2.2628  1.5052  0.3317
  186MPD1     N 2838   3.294   2.351  16.059  0.3848 -0.2674 -0.3350
  186MPD1    H5 2839   3.221   2.338  16.129  2.0657 -1.8960  1.1185
  186MPD1    N1 2840   3.572   2.096  15.730 -0.0733  0.2975 -0.3343
  186MPD1    H6 2841   3.570   2.185  15.680 -0.8384  1.2326  1.3553
  186MPD1    H7 2842   3.560   2.019  15.664  1.6310 -0.4837  0.2700
  187MPD1     C 2843   2.715   4.414   0.070 -0.2689 -0.3057  0.3781
  187MPD1    C1 2844   2.621   4.337   0.009 -0.8575 -0.3055 -0.6115
  187MPD1    C2 2845   2.531   4.395  17.602 -0.0025 -0.4977  0.0734
  187MPD1    C3 2846   2.543   4.519  17.554  0.0385 -0.4577  0.6156
  187MPD1    C4 2847   2.638   4.595  17.622 -0.2166  0.3112 -0.6882
  187MPD1    C5 2848   2.729   4.537   0.023  0.2573  0.0255  0.2125
  187MPD1     H 2849   2.443   4.345  17.563 -0.1471  0.4676 -0.8156
  187MPD1    H1 2850   2.660   4.700  17.605  0.3494  0.6581  2.2812
  187MPD1    H2 2851   2.781   4.381   0.149  1.0124  1.3616  0.0147
  187MPD1    H3 2852   2.807   4.589   0.078 -0.5441  1.8820 -0.4041
  187MPD1     N 2853   2.455   4.586  17.459  0.3828  0.5218  0.4649
  187MPD1    H5 2854   2.463   4.686  17.443  0.1042  0.6834  1.2948
  187MPD1    N1 2855   2.605   4.206   0.058  0.6889  0.0282 -0.1806
  187MPD1    H6 2856   2.670   4.175   0.131 -2.4069 -1.9206  1.7251
  187MPD1    H7 2857   2.596   4.142  17.664 -0.8546  0.7365 -0.5580
  188MPD1     C 2858   1.690   4.582   9.707 -0.2376 -0.2389  0.3612
  188MPD1    C1 2859   1.683   4.533   9.582  0.2271 -0.0462  0.5083
  188MPD1    C2 2860   1.726   4.404   9.553  0.7972 -0.4808 -0.1260
  188MPD1    C3 2861   1.744   4.313   9.659 -0.4393  0.3497 -0.4301
  188MPD1    C4 2862   1.728   4.361   9.788  0.2278 -0.1210  0.2754
  188MPD1    C5 2863   1.713   4.497   9.805  1.0404 -0.2622 -0.2663
  188MPD1     H 2864   1.734   4.377   9.448  0.2754  2.9133 -1.0503
  188MPD1    H1 2865   1.752   4.304   9.878 -0.9269 -1.4217 -0.2380
  188MPD1    H2 2866   1.684   4.687   9.734  0.3812 -0.6174  2.0019
  188MPD1    H3 2867   1.721   4.534   9.906  1.5370 -0.3161 -0.2828
  188MPD1     N 2868   1.797   4.182   9.640  0.0460  0.3384  0.8940
  188MPD1    H5 2869   1.828   4.123   9.716 -0.7396 -1.8713 -0.4792
  188MPD1    N1 2870   1.659   4.616   9.480  0.0289  0.2181 -0.8525
  188MPD1    H6 2871   1.592   4.690   9.497 -2.1111 -2.1253  0.9817
  188MPD1    H7 2872   1.626   4.560   9.401 -0.7368  1.6028 -1.5023
  189MPD1     C 2873   3.488   4.541   0.401 -0.4973  0.4065 -0.0894
  189MPD1    C1 2874   3.429   4.590   0.285 -0.1288 -0.3236  0.6037
  189MPD1    C2 2875   3.365   4.712   0.286 -0.4050  0.2986  0.4892
  189MPD1    C3 2876   3.403   0.085   0.374 -0.5855 -0.1535 -0.2850
  189MPD1    C4 2877   3.479   0.041   0.481 -1.0518  0.2016  0.1639
  189MPD1    C5 2878   3.516   4.628   0.500 -0.2171  0.5024 -0.4621
  189MPD1     H 2879   3.299   0.007   0.201 -0.4768 -0.8389  0.3265
  189MPD1    H1 2880   3.515   0.108   0.559 -2.7639 -0.1118  1.2426
  189MPD1    H2 2881   3.520   4.437   0.408 -0.0770  0.4063 -2.0389
  189MPD1    H3 2882   3.568   4.590   0.586  0.5156  1.9933 -0.2471
  189MPD1     N 2883   3.359   0.215   0.366 -0.1253  0.1996  0.1986
  189MPD1    H5 2884   3.296   0.231   0.287  0.8429 -1.5059 -0.9174
  189MPD1    N1 2885   3.393   4.496   0.183  0.6834 -0.8962 -0.3580
  189MPD1    H6 2886   3.389   4.545   0.094 -3.0053 -1.9537 -0.7484
  189MPD1    H7 2887   3.466   4.425   0.183  2.2607  0.7046  3.5774
  190MPD1     C 2888   2.591   3.813  15.037  0.0453  0.6864  0.7341
  190MPD1    C1 2889   2.725   3.833  15.014 -0.3557 -0.1044  0.6120
  190MPD1    C2 2890   2.812   3.870  15.112  0.0881 -0.3006 -0.7684
  190MPD1    C3 2891   2.768   3.883  15.238  0.5233 -0.9531 -0.2167
  190MPD1    C4 2892   2.639   3.857  15.264  0.3079  0.2341 -0.3627
  190MPD1    C5 2893   2.546   3.827  15.164 -0.1076 -0.4894 -0.1405
  190MPD1     H 2894   2.913   3.895  15.082 -0.1029  0.4527 -0.7785
  190MPD1    H1 2895   2.601   3.830  15.362 -0.5195  1.6387 -0.2923
  190MPD1    H2 2896   2.511   3.806  14.964  1.6817 -3.5293 -0.6347
  190MPD1    H3 2897   2.450   3.783  15.191 -0.6692  1.2666  0.6679
  190MPD1     N 2898   2.861   3.904  15.337 -0.0672  0.3915 -0.2669
  190MPD1    H5 2899   2.956   3.916  15.306 -0.3788  0.9701 -0.9968
  190MPD1    N1 2900   2.752   3.843  14.878 -0.3002 -0.4299  0.3967
  190MPD1    H6 2901   2.851   3.831  14.855  0.0071 -0.7369  1.8808
  190MPD1    H7 2902   2.707   3.770  14.824  1.3930  0.0861 -1.7317
  191MPD1     C 2903   1.961   0.140  12.853  1.2625  0.1554 -0.1366
  191MPD1    C1 2904   1.993   0.145  12.721  1.0353  0.5649  0.0841
  191MPD1    C2 2905   1.922   0.235  12.642  0.4581 -0.2935 -0.1235
  191MPD1    C3 2906   1.819   0.308  12.694 -0.6780 -0.1044 -0.6136
  191MPD1    C4 2907   1.783   0.295  12.825 -0.5723  0.3674  0.1059
  191MPD1    C5 2908   1.856   0.208  12.906 -0.4578  0.1896 -0.3817
  191MPD1     H 2909   1.954   0.246  12.539 -0.0193  0.4764 -0.1892
  191MPD1    H1 2910   1.710   0.362  12.869 -2.2005  0.5612 -2.9067
  191MPD1    H2 2911   2.012   0.071  12.920 -1.0689 -1.7457 -0.3364
  191MPD1    H3 2912   1.831   0.209  13.011 -0.3156 -0.3347 -0.3426
  191MPD1     N 2913   1.756   0.405  12.609 -0.3775  0.4461 -0.3514
  191MPD1    H5 2914   1.805   0.424  12.522  0.0018  1.1387  0.0113
  191MPD1    N1 2915   2.110   0.078  12.681  0.0477  0.9042  0.3485
  191MPD1    H6 2916   2.130   4.713  12.732  1.5691  1.0626 -0.0024
  191MPD1    H7 2917   2.120   0.061  12.581  0.2174  0.4788  0.4381
  192MPD1     C 2918   1.224   1.210  12.777  0.2290  0.5841  0.3556
  192MPD1    C1 2919   1.172   1.167  12.656  0.2684 -0.3074  0.4098
  192MPD1    C2 2920   1.240   1.064  12.599  0.1222  0.4410  0.0095
  192MPD1    C3 2921   1.352   1.005  12.663 -0.2646 -0.1485  0.3195
  192MPD1    C4 2922   1.376   1.025  12.793 -0.5436 -0.1503 -0.6337
  192MPD1    C5 2923   1.308   1.132  12.850 -0.2590  0.3476 -0.6717
  192MPD1     H 2924   1.226   1.042  12.493  1.6254 -2.8676  0.4996
  192MPD1    H1 2925   1.443   0.956  12.844  1.2533  3.2258  1.5772
  192MPD1    H2 2926   1.170   1.294  12.819  0.1924  1.5110 -1.5695
  192MPD1    H3 2927   1.318   1.156  12.956 -1.3021  2.7553 -1.1223
  192MPD1     N 2928   1.422   0.897  12.594 -0.1761 -0.0488  0.0114
  192MPD1    H5 2929   1.503   0.869  12.648 -0.8247  0.8608  1.4395
  192MPD1    N1 2930   1.088   1.257  12.582 -0.1471  0.5848 -0.2221
  192MPD1    H6 2931   1.027   1.207  12.518 -2.0118  2.9545 -0.3167
  192MPD1    H7 2932   1.025   1.319  12.633 -1.0365 -2.7228  2.6466
  193MPD1     C 2933   1.501   0.840  15.951 -1.2348 -0.6483 -0.0417
  193MPD1    C1 2934   1.466   0.962  15.991 -0.0082 -0.0885  0.0598
  193MPD1    C2 2935   1.512   1.004  16.114  1.1913 -0.3151 -0.4926
  193MPD1    C3 2936   1.591   0.926  16.197 -0.2371 -0.3190  0.7173
  193MPD1    C4 2937   1.631   0.805  16.152 -0.0521 -0.5107 -0.1807
  193MPD1    C5 2938   1.589   0.768  16.032  0.7316 -0.0779 -0.0990
  193MPD1     H 2939   1.486   1.102  16.154  0.0202 -0.1833 -1.5783
  193MPD1    H1 2940   1.685   0.740  16.221 -0.4500  1.4488  2.0046
  193MPD1    H2 2941   1.471   0.798  15.856 -3.3383  0.7757 -0.0125
  193MPD1    H3 2942   1.614   0.668  15.997  1.3005 -0.7404  2.1667
  193MPD1     N 2943   1.622   0.964  16.327  0.1095  0.0727 -1.2744
  193MPD1    H5 2944   1.653   0.885  16.384  2.9324  0.5709 -2.1218
  193MPD1    N1 2945   1.373   1.040  15.917  0.6658 -0.1504 -0.0821
  193MPD1    H6 2946   1.353   0.989  15.831  1.1871 -0.6604  0.0994
  193MPD1    H7 2947   1.280   1.048  15.958  1.3821  3.2756  0.8808
  194MPD1     C 2948   4.285   3.441  16.953  0.4415 -0.2142 -0.5683
  194MPD1    C1 2949   4.189   3.387  16.865 -0.5566  0.2712  0.1983
  194MPD1    C2 2950   4.237   3.313  16.757 -0.5683  0.1334 -0.4215
  194MPD1    C3 2951   4.377   3.306  16.738 -0.1241  0.2514  0.0743
  194MPD1    C4 2952   4.462   3.383  16.816 -0.1987 -0.2676  0.2415
  194MPD1    C5 2953   4.419   3.444  16.932 -0.8720  0.6995 -0.2237
  194MPD1     H 2954   4.166   3.259  16.696 -2.4131  0.5027  1.4116
  194MPD1    H1 2955   4.569   3.390  16.798 -0.5343  1.0186 -1.2866
  194MPD1    H2 2956   4.257   3.493  17.044 -2.3389 -3.0027  0.1609
  194MPD1    H3 2957   4.478   3.496  17.006 -0.6169  0.1847 -0.0645
  194MPD1     N 2958   4.441   3.228  16.638  0.4246  0.1912  0.0134
  194MPD1    H5 2959   4.540   3.251  16.634  0.6893 -1.1497 -1.1365
  194MPD1    N1 2960   4.056   3.380  16.903 -0.0836  0.0188  0.1177
  194MPD1    H6 2961   3.997   3.365  16.821  0.8111  0.8051 -0.6685
  194MPD1    H7 2962   4.032   3.471  16.943 -0.0225  0.5499 -1.0435
  195MPD1     C 2963   1.997   3.424   1.234 -0.0492 -0.3246  0.1782
  195MPD1    C1 2964   1.870   3.437   1.174  0.0889  0.3211  0.6856
  195MPD1    C2 2965   1.858   3.415   1.038  0.3888 -0.1415 -0.2655
  195MPD1    C3 2966   1.971   3.367   0.962  0.6241  0.6338  0.8635
  195MPD1    C4 2967   2.088   3.341   1.028 -0.0189  0.2624 -0.7192
  195MPD1    C5 2968   2.100   3.370   1.166 -0.6862  0.1672 -0.1086
  195MPD1     H 2969   1.761   3.427   0.991  1.4542  1.5892 -2.0274
  195MPD1    H1 2970   2.171   3.291   0.981  1.4609  1.6046  0.4600
  195MPD1    H2 2971   2.015   3.440   1.340  1.0393 -2.3709  0.2970
  195MPD1    H3 2972   2.189   3.346   1.222 -0.2994 -1.9408 -1.6355
  195MPD1     N 2973   1.960   3.347   0.822 -0.4306  0.1614 -0.1516
  195MPD1    H5 2974   2.046   3.332   0.769 -0.3150 -3.7174  1.1516
  195MPD1    N1 2975   1.767   3.495   1.242  0.5832 -0.4067  0.8055
  195MPD1    H6 2976   1.764   3.469   1.340  1.7460 -0.9362  0.6973
  195MPD1    H7 2977   1.677   3.474   1.199  1.8519 -0.3039 -1.8953
  196MPD1     C 2978   2.976   3.963   0.563  0.0439 -0.2384  0.7690
  196MPD1    C1 2979   2.847   3.916   0.541  0.0630 -0.2179  0.7669
  196MPD1    C2 2980   2.744   3.980   0.603  0.6116 -0.0531  0.7523
  196MPD1    C3 2981   2.774   4.080   0.698  0.2003  0.1964 -0.3041
  196MPD1    C4 2982   2.903   4.111   0.734  0.0256  0.1536  0.5321
  196MPD1    C5 2983   3.004   4.058   0.658 -0.0348  0.4717 -1.1971
  196MPD1     H 2984   2.644   3.938   0.598  0.0719  1.1568  1.4683
  196MPD1    H1 2985   2.917   4.195   0.801  0.1409  0.8010 -0.3082
  196MPD1    H2 2986   3.053   3.921   0.499  0.2560 -0.4552  1.1687
  196MPD1    H3 2987   3.106   4.089   0.676 -0.3361  0.7027  0.0669
  196MPD1     N 2988   2.677   4.154   0.774 -0.2131  0.9193  0.0111
  196MPD1    H5 2989   2.714   4.215   0.847 -1.3397  0.7868  0.6817
  196MPD1    N1 2990   2.820   3.821   0.435 -0.2186 -0.4875  0.2642
  196MPD1    H6 2991   2.894   3.750   0.428 -0.4170 -0.5195 -1.3838
  196MPD1    H7 2992   2.730   3.773   0.437 -0.0988 -0.7587 -0.9233
  197MPD1     C 2993   1.132   2.252  17.345 -0.3847 -0.4076  0.0163
  197MPD1    C1 2994   1.045   2.357  17.306 -0.3739 -0.7559  0.1421
  197MPD1    C2 2995   0.926   2.319  17.253  0.6232 -0.2979 -1.1166
  197MPD1    C3 2996   0.876   2.188  17.272  0.1630 -0.1320 -0.6473
  197MPD1    C4 2997   0.953   2.099  17.345  0.4442 -0.1153 -0.5956
  197MPD1    C5 2998   1.083   2.132  17.372 -0.4414 -0.2849 -0.2243
  197MPD1     H 2999   0.870   2.396  17.201 -2.7777 -0.1200  2.7986
  197MPD1    H1 3000   0.915   2.003  17.377 -3.6248  1.2601 -1.3546
  197MPD1    H2 3001   1.233   2.272  17.380  0.0775  0.3487 -1.7533
  197MPD1    H3 3002   1.147   2.058  17.419 -0.0146  0.8416  0.9678
  197MPD1     N 3003   0.751   2.141  17.218 -0.1042  0.2325 -0.5580
  197MPD1    H5 3004   0.722   2.046  17.236  1.4521  0.3587  2.5359
  197MPD1    N1 3005   1.093   2.490  17.291 -0.7690 -0.5492 -0.1867
  197MPD1    H6 3006   1.017   2.556  17.308 -0.4053 -0.1065 -0.2830
  197MPD1    H7 3007   1.162   2.528  17.355 -3.3849 -0.4120  2.5510
  198MPD1     C 3008   2.158   0.113  15.598  0.2669  0.5605  0.1778
  198MPD1    C1 3009   2.277   0.168  15.565 -0.5339  0.0299 -0.8564
  198MPD1    C2 3010   2.391   0.103  15.603 -0.1319  0.0953 -0.7262
  198MPD1    C3 3011   2.382   4.707  15.683  0.5948  0.0033  0.2670
  198MPD1    C4 3012   2.253   4.658  15.718  0.3248  0.2845  0.2916
  198MPD1    C5 3013   2.142   4.716  15.668  0.0398 -0.9156 -0.2781
  198MPD1     H 3014   2.491   0.128  15.571  0.0288  0.7365  0.2694
  198MPD1    H1 3015   2.244   4.585  15.799 -1.5024 -0.0001 -0.1735
  198MPD1    H2 3016   2.066   0.165  15.571 -0.2548 -0.2320  0.4286
  198MPD1    H3 3017   2.039   4.687  15.685 -0.1123  0.1291  0.6108
  198MPD1     N 3018   2.506   4.649  15.732 -0.5546 -0.3260  0.6771
  198MPD1    H5 3019   2.588   4.698  15.699 -1.1743 -0.4718 -1.0521
  198MPD1    N1 3020   2.282   0.289  15.496  0.0529  0.3870  0.3688
  198MPD1    H6 3021   2.368   0.294  15.442 -0.5407  0.6506 -0.5426
  198MPD1    H7 3022   2.196   0.312  15.446  0.3030 -2.0471 -1.1513
  199MPD1     C 3023   0.573   0.777   9.515 -0.6978 -0.2302  0.2635
  199MPD1    C1 3024   0.513   0.861   9.424 -0.3136 -0.2100 -0.6735
  199MPD1    C2 3025   0.373   0.891   9.433 -0.4299 -0.4532  0.0314
  199MPD1    C3 3026   0.298   0.822   9.525 -0.3994 -0.0011 -0.7843
  199MPD1    C4 3027   0.358   0.732   9.616 -0.4944  0.4889 -0.0026
  199MPD1    C5 3028   0.497   0.713   9.608 -0.4194  0.2971  0.3165
  199MPD1     H 3029   0.318   0.949   9.361 -2.4380 -0.5060  1.5367
  199MPD1    H1 3030   0.310   0.671   9.692  0.1541 -1.5466 -1.2315
  199MPD1    H2 3031   0.680   0.760   9.513 -0.8882 -1.2385 -0.6423
  199MPD1    H3 3032   0.545   0.641   9.674  2.2193  0.7771 -1.0943
  199MPD1     N 3033   0.159   0.847   9.539 -0.5271  0.2465  0.1919
  199MPD1    H5 3034   0.098   0.791   9.598  1.2473 -1.5653  0.3085
  199MPD1    N1 3035   0.598   0.930   9.336 -0.8825 -0.4289 -0.0366
  199MPD1    H6 3036   0.656   0.855   9.299 -1.5816  0.2549 -2.5156
  199MPD1    H7 3037   0.545   0.976   9.262 -1.2939 -0.9046 -0.0349
  200MPD1     C 3038   3.798   1.173  14.996  0.1279  0.5215 -0.2492
  200MPD1    C1 3039   3.872   1.286  14.981  0.0877 -0.8818 -0.3535
  200MPD1    C2 3040   3.874   1.349  14.858  0.1880  0.5360  0.0084
  200MPD1    C3 3041   3.824   1.278  14.747 -0.5908 -0.4378  0.6559
  200MPD1    C4 3042   3.761   1.159  14.765  0.6359  0.1208  0.2713
  200MPD1    C5 3043   3.746   1.107  14.890  0.8540  0.6128  0.1799
  200MPD1     H 3044   3.919   1.446  14.839  0.9277  0.7406  2.7852
  200MPD1    H1 3045   3.713   1.113  14.679 -1.9514 -0.0331  1.7955
  200MPD1    H2 3046   3.770   1.125  15.090 -0.0838  2.1809  0.5352
  200MPD1    H3 3047   3.680   1.022  14.905 -0.2865  1.4156 -0.2771
  200MPD1     N 3048   3.834   1.335  14.617  0.2851  0.2667 -0.2067
  200MPD1    H5 3049   3.892   1.417  14.606  0.5344 -0.0505 -1.1910
  200MPD1    N1 3050   3.906   1.346  15.103 -0.4309  0.6128  0.2523
  200MPD1    H6 3051   3.937   1.278  15.172 -1.6345 -1.4532 -1.2612
  200MPD1    H7 3052   3.978   1.418  15.094  0.3404 -0.4716 -2.1792
  201MPD1     C 3053   0.820   0.491  13.492 -0.5894  0.8325  0.1549
  201MPD1    C1 3054   0.777   0.369  13.446 -0.6798  0.0398  0.1509
  201MPD1    C2 3055   0.879   0.275  13.427  0.6374 -0.6391 -0.1872
  201MPD1    C3 3056   1.014   0.299  13.456 -0.2034 -0.2871  0.0631
  201MPD1    C4 3057   1.055   0.417  13.511  0.2916 -0.5492 -0.2779
  201MPD1    C5 3058   0.956   0.512  13.514 -0.4585 -0.2273  0.1496
  201MPD1     H 3059   0.855   0.180  13.380  0.9001 -0.7092 -0.1808
  201MPD1    H1 3060   1.157   0.439  13.539 -0.1721  0.9416  0.2516
  201MPD1    H2 3061   0.750   0.572  13.509  0.1797  1.7589 -1.1164
  201MPD1    H3 3062   0.982   0.612  13.546  0.4895 -0.4177 -0.0375
  201MPD1     N 3063   1.099   0.195  13.421  0.2696  0.3839  0.1452
  201MPD1    H5 3064   1.064   0.104  13.393 -1.4087  1.4303 -1.1340
  201MPD1    N1 3065   0.648   0.348  13.396 -0.0304 -0.3623 -0.1836
  201MPD1    H6 3066   0.574   0.385  13.455  1.7733  2.1923  0.4845
  201MPD1    H7 3067   0.627   0.248  13.389  1.7282 -0.7092 -0.5948
  202MPD1     C 3068   1.151   4.102   8.781 -0.5213 -0.1005 -0.3837
  202MPD1    C1 3069   1.074   4.194   8.855 -0.2760  0.0334  0.5043
  202MPD1    C2 3070   1.137   4.242   8.972  0.3428 -0.4826  0.5405
  202MPD1    C3 3071   1.241   4.176   9.038 -0.4079  0.5065  0.3335
  202MPD1    C4 3072   1.304   4.071   8.968 -0.0632  0.8121 -0.2516
  202MPD1    C5 3073   1.254   4.033   8.849 -0.1750  0.2801 -0.3027
  202MPD1     H 3074   1.082   4.307   9.040 -0.3318 -1.9612  1.4209
  202MPD1    H1 3075   1.392   4.023   9.008  0.1757  2.2155  0.8865
  202MPD1    H2 3076   1.126   4.075   8.679  0.3191 -0.8836 -0.3852
  202MPD1    H3 3077   1.300   3.957   8.787  1.1697 -1.2452  2.6110
  202MPD1     N 3078   1.296   4.221   9.162  0.5817  0.1340  0.5446
  202MPD1    H5 3079   1.385   4.179   9.187 -0.2562 -0.7827  1.9589
  202MPD1    N1 3080   1.004   4.287   8.782 -0.5397 -0.2866  0.1745
  202MPD1    H6 3081   0.958   4.244   8.703 -0.7762  0.9585 -0.3772
  202MPD1    H7 3082   0.940   4.340   8.842 -0.5545  2.2238 -2.0424
  203MPD1     C 3083   4.693   0.751  12.911  0.0194  0.1513  0.6793
  203MPD1    C1 3084   0.081   0.694  12.978 -0.9157  0.7736  0.1181
  203MPD1    C2 3085   0.118   0.568  12.944  0.6129  0.0534  0.9520
  203MPD1    C3 3086   0.046   0.493  12.854 -0.8795 -0.0008 -0.9176
  203MPD1    C4 3087   4.666   0.553  12.780 -0.2174 -0.2514  0.3747
  203MPD1    C5 3088   4.631   0.683  12.801 -0.5295  0.1922  0.0397
  203MPD1     H 3089   0.197   0.522  13.002  0.4723 -2.7125 -1.0360
  203MPD1    H1 3090   4.610   0.502  12.701 -1.8095  1.9107  0.1115
  203MPD1    H2 3091   4.657   0.847  12.947  1.0307  0.8431 -0.1624
  203MPD1    H3 3092   4.552   0.727  12.742 -1.1168  0.4698  1.0288
  203MPD1     N 3093   0.100   0.366  12.824 -0.0610 -0.8952 -0.2616
  203MPD1    H5 3094   0.173   0.323  12.880 -1.8456 -2.4246  0.9083
  203MPD1    N1 3095   0.137   0.758  13.085 -0.4309 -0.3671  0.1745
  203MPD1    H6 3096   0.139   0.859  13.068 -1.3718 -0.2721  0.6274
  203MPD1    H7 3097   0.228   0.724  13.113 -1.3216 -2.0192  1.0958
  204MPD1     C 3098   4.378   1.436   0.166 -0.0064  0.3354 -0.2189
  204MPD1    C1 3099   4.436   1.428   0.042  0.5559  0.2736 -0.0646
  204MPD1    C2 3100   4.402   1.319  17.649 -0.0825 -0.2343  1.0029
  204MPD1    C3 3101   4.318   1.218   0.009 -0.2222 -0.6336  0.8717
  204MPD1    C4 3102   4.263   1.231   0.134 -0.0259  0.1196 -0.0735
  204MPD1    C5 3103   4.295   1.337   0.210  0.5177 -0.2475 -0.5711
  204MPD1     H 3104   4.437   1.304  17.548  0.1726  0.7215  0.9507
  204MPD1    H1 3105   4.222   1.147   0.190 -2.5295  1.0653 -0.4877
  204MPD1    H2 3106   4.397   1.521   0.231  2.2149 -0.0682 -0.3347
  204MPD1    H3 3107   4.248   1.350   0.307  0.7452  2.2120 -0.7771
  204MPD1     N 3108   4.307   1.094  17.617 -0.4071 -0.2247  0.9962
  204MPD1    H5 3109   4.345   1.101  17.523 -0.6462 -1.0022  0.8451
  204MPD1    N1 3110   4.501   1.539  17.680 -0.1677 -0.1188  0.0281
  204MPD1    H6 3111   4.537   1.585   0.079  0.3484 -1.5932  0.6228
  204MPD1    H7 3112   4.573   1.500  17.620  1.0738  0.5527  1.0618
  205MPD1     C 3113   4.093   4.060  16.800 -0.0445  0.3578 -0.4515
  205MPD1    C1 3114   4.011   4.139  16.871  1.0392 -0.1707  0.5701
  205MPD1    C2 3115   4.056   4.205  16.982  0.0629 -0.1286  0.4476
  205MPD1    C3 3116   4.192   4.204  17.016 -0.5375 -0.2385 -0.3590
  205MPD1    C4 3117   4.281   4.141  16.938  0.1600 -0.3655  0.3786
  205MPD1    C5 3118   4.227   4.066  16.832  0.2548 -0.7707 -0.4309
  205MPD1     H 3119   3.991   4.263  17.046 -2.7041 -3.8906  1.0275
  205MPD1    H1 3120   4.385   4.137  16.969  0.1966 -0.5184  0.2372
  205MPD1    H2 3121   4.065   4.001  16.713  1.6248 -0.4465 -0.4384
  205MPD1    H3 3122   4.287   3.989  16.786 -0.4976 -0.9195 -1.1657
  205MPD1     N 3123   4.239   4.264  17.137  0.4486 -0.4109  0.0946
  205MPD1    H5 3124   4.337   4.254  17.161  0.6136 -3.1768 -1.7016
  205MPD1    N1 3125   3.872   4.146  16.843 -0.3651 -0.4399 -0.0207
  205MPD1    H6 3126   3.841   4.233  16.884 -2.2475 -1.3664  0.5116
  205MPD1    H7 3127   3.858   4.154  16.743 -1.0779  0.4815  0.1603
  206MPD1     C 3128   4.498   3.582  16.443  0.0880  0.1540  0.0758
  206MPD1    C1 3129   4.430   3.700  16.407 -0.6668  0.4293  0.0032
  206MPD1    C2 3130   4.372   3.698  16.280 -0.0468  0.4072 -0.0878
  206MPD1    C3 3131   4.396   3.601  16.190  0.4463  0.1249 -0.0876
  206MPD1    C4 3132   4.472   3.491  16.224  0.8402 -0.5268 -0.2836
  206MPD1    C5 3133   4.523   3.486  16.349 -0.6796  0.5802 -0.6720
  206MPD1     H 3134   4.314   3.785  16.252  1.3503  1.7123  1.1075
  206MPD1    H1 3135   4.500   3.409  16.160  2.7830  0.1408 -0.2980
  206MPD1    H2 3136   4.539   3.564  16.542  0.8267  0.7163 -0.1263
  206MPD1    H3 3137   4.586   3.401  16.370  0.1304  0.8635 -1.9609
  206MPD1     N 3138   4.344   3.608  16.056 -0.1531 -0.3128  0.7286
  206MPD1    H5 3139   4.360   3.534  15.988  3.5796  1.4105 -0.2739
  206MPD1    N1 3140   4.406   3.800  16.498  0.3502 -0.1467 -0.1536
  206MPD1    H6 3141   4.382   3.883  16.444  0.5938  0.4065  0.5958
  206MPD1    H7 3142   4.493   3.811  16.550  0.5866  1.5561 -0.9186
  207MPD1     C 3143   1.221   1.250   9.496  0.6219  0.0143  0.3737
  207MPD1    C1 3144   1.312   1.341   9.442  0.3555 -0.3212 -0.3760
  207MPD1    C2 3145   1.431   1.348   9.514 -0.0415 -0.1458  0.0310
  207MPD1    C3 3146   1.466   1.257   9.618  0.5005  0.4162  0.4823
  207MPD1    C4 3147   1.369   1.171   9.665  0.0444  0.4079 -0.1234
  207MPD1    C5 3148   1.248   1.170   9.603  0.6476  0.2296 -0.0918
  207MPD1     H 3149   1.492   1.432   9.484  0.2823 -0.2068  0.5126
  207MPD1    H1 3150   1.380   1.105   9.750 -0.0030 -0.1117 -0.5255
  207MPD1    H2 3151   1.122   1.250   9.452  0.6897 -0.8183  0.2219
  207MPD1    H3 3152   1.174   1.111   9.655 -1.1107  0.2067 -2.6125
  207MPD1     N 3153   1.588   1.256   9.687  0.5118  0.6348 -0.1424
  207MPD1    H5 3154   1.590   1.190   9.764 -1.5358 -0.0136 -0.6681
  207MPD1    N1 3155   1.279   1.437   9.347  0.4440  0.3821  0.6156
  207MPD1    H6 3156   1.244   1.397   9.260 -1.2508 -1.4916  2.1527
  207MPD1    H7 3157   1.360   1.486   9.309 -1.6169  2.5362 -1.0452
  208MPD1     C 3158   0.848   0.531  17.552 -0.0898 -0.4826 -0.6529
  208MPD1    C1 3159   0.917   0.488  17.657  0.2255 -0.5520  0.2265
  208MPD1    C2 3160   0.861   0.384   0.046 -0.7186  0.3934  0.0560
  208MPD1    C3 3161   0.768   0.304  17.678  0.1643  0.2519  0.0291
  208MPD1    C4 3162   0.714   0.326  17.553 -0.0932 -0.0613  0.4473
  208MPD1    C5 3163   0.739   0.456  17.499 -0.1811 -0.5948 -0.2411
  208MPD1     H 3164   0.909   0.366   0.141  1.1151 -0.0414 -0.9649
  208MPD1    H1 3165   0.623   0.276  17.520  0.0499 -1.0903  1.6088
  208MPD1    H2 3166   0.867   0.628  17.508  1.7671 -0.9087 -0.7776
  208MPD1    H3 3167   0.678   0.505  17.425  0.1671  3.2972  2.0615
  208MPD1     N 3168   0.718   0.194   0.074  0.3943 -0.1000  0.7652
  208MPD1    H5 3169   0.757   0.184   0.167  0.1100 -3.1545  0.5493
  208MPD1    N1 3170   1.006   0.581   0.030 -0.3206  0.0663 -0.1393
  208MPD1    H6 3171   1.081   0.526   0.072  0.6275  1.2939 -0.2128
  208MPD1    H7 3172   1.043   0.642  17.642 -0.6440  1.1970  0.6485
  209MPD1     C 3173   2.277   0.233  11.196  0.1160  0.3396  0.2727
  209MPD1    C1 3174   2.353   0.343  11.221 -0.3681  0.1161 -0.3417
  209MPD1    C2 3175   2.355   0.443  11.126 -0.2866  0.6733  0.4026
  209MPD1    C3 3176   2.270   0.443  11.016  0.3456  0.3640 -0.0692
  209MPD1    C4 3177   2.186   0.333  11.001 -0.1820 -0.3188  0.0951
  209MPD1    C5 3178   2.195   0.227  11.085  0.2699 -0.0819  0.2179
  209MPD1     H 3179   2.424   0.523  11.150 -1.1092  1.8737 -1.2488
  209MPD1    H1 3180   2.129   0.319  10.910  0.5456 -1.5970 -0.1572
  209MPD1    H2 3181   2.285   0.146  11.261 -1.9524  1.6604  2.3007
  209MPD1    H3 3182   2.129   0.143  11.072  0.9886 -0.9102  2.0128
  209MPD1     N 3183   2.280   0.559  10.931 -0.5670  0.1600  0.4281
  209MPD1    H5 3184   2.360   0.621  10.936 -0.6166  0.1570  1.2387
  209MPD1    N1 3185   2.431   0.355  11.335 -0.6894 -0.2062 -0.0382
  209MPD1    H6 3186   2.441   0.451  11.370 -0.3799 -0.6332  1.0460
  209MPD1    H7 3187   2.402   0.290  11.408  2.4815 -0.8416  0.6588
  210MPD1     C 3188   2.978   1.020  10.728  0.2700  0.5134  0.5344
  210MPD1    C1 3189   2.921   0.960  10.615 -0.0130  0.2287 -0.3383
  210MPD1    C2 3190   2.794   0.909  10.630  0.2895  0.2818 -0.1028
  210MPD1    C3 3191   2.722   0.921  10.749 -0.2195  0.2909 -0.3351
  210MPD1    C4 3192   2.789   0.962  10.860  0.2039 -1.1194  0.3455
  210MPD1    C5 3193   2.913   1.024  10.850  0.3987  0.2563  0.1496
  210MPD1     H 3194   2.749   0.864  10.543  0.9841  1.0223 -0.8388
  210MPD1    H1 3195   2.735   0.978  10.953  1.5283 -2.0263  1.2688
  210MPD1    H2 3196   3.077   1.063  10.718  0.0525  0.9314  0.1534
  210MPD1    H3 3197   2.955   1.081  10.932  0.9995 -1.4292  1.0332
  210MPD1     N 3198   2.583   0.886  10.751 -0.5270 -0.1572 -0.3267
  210MPD1    H5 3199   2.544   0.891  10.845  1.8844  0.0341  0.6664
  210MPD1    N1 3200   2.987   0.959  10.490 -0.2075 -0.3379 -0.4430
  210MPD1    H6 3201   3.087   0.971  10.507 -0.2922 -2.3032  1.4051
  210MPD1    H7 3202   2.968   0.871  10.443 -1.9921 -0.1026 -0.1495
  211MPD1     C 3203   0.831   0.311  16.550  0.2794  1.2177 -0.6444
  211MPD1    C1 3204   0.742   0.385  16.476 -0.3195  0.3902  0.0092
  211MPD1    C2 3205   0.607   0.389  16.511  0.2994 -0.1130 -0.5062
  211MPD1    C3 3206   0.560   0.303  16.612  0.3257  0.3205 -0.3012
  211MPD1    C4 3207   0.648   0.220  16.676  0.3817  0.5734 -0.1833
  211MPD1    C5 3208   0.780   0.228  16.644 -0.2845  0.3061  0.3297
  211MPD1     H 3209   0.546   0.468  16.468  1.9290  0.6136 -1.4508
  211MPD1    H1 3210   0.626   0.152  16.757 -1.8561 -0.1564 -1.3882
  211MPD1    H2 3211   0.938   0.313  16.534  0.8809 -1.9766  2.9936
  211MPD1    H3 3212   0.859   0.178  16.699  2.2999  1.2666 -2.4811
  211MPD1     N 3213   0.422   0.312  16.641 -0.3626 -0.2399  0.0446
  211MPD1    H5 3214   0.375   0.384  16.588  0.4133 -0.6150 -1.1678
  211MPD1    N1 3215   0.798   0.482  16.392  0.2989  0.2107 -0.7768
  211MPD1    H6 3216   0.739   0.510  16.314 -1.2426 -0.7601  0.0395
  211MPD1    H7 3217   0.893   0.454  16.369  0.3787 -2.1156  2.3298
  212MPD1     C 3218   4.121   3.389  16.342  0.0967 -0.1157 -0.6728
  212MPD1    C1 3219   4.049   3.467  16.430  0.1985  0.2008  0.2265
  212MPD1    C2 3220   3.963   3.397  16.516  0.4832  0.0619 -0.3166
  212MPD1    C3 3221   3.949   3.256  16.517  0.2421 -0.0994  0.5175
  212MPD1    C4 3222   4.026   3.185  16.430  0.4963 -0.1939 -0.5566
  212MPD1    C5 3223   4.107   3.256  16.344 -0.9659  0.5539  0.7681
  212MPD1     H 3224   3.906   3.461  16.581  1.0314 -0.0030  0.2229
  212MPD1    H1 3225   4.016   3.077  16.426  1.2794 -0.3662  1.7110
  212MPD1    H2 3226   4.202   3.431  16.282  0.9600 -2.3702 -1.0969
  212MPD1    H3 3227   4.180   3.204  16.284 -2.0284  0.3355 -0.3417
  212MPD1     N 3228   3.866   3.184  16.601 -1.0109 -0.2309 -0.1379
  212MPD1    H5 3229   3.860   3.085  16.582 -1.9441 -0.0902 -0.5540
  212MPD1    N1 3230   4.055   3.607  16.419 -0.2063  0.2062  0.0817
  212MPD1    H6 3231   4.032   3.646  16.510  1.4072  2.3458 -0.4329
  212MPD1    H7 3232   4.151   3.630  16.394 -0.1596  0.9332  0.9524
  213MPD1     C 3233   1.690   3.919  15.728  1.3609  0.6239 -0.1903
  213MPD1    C1 3234   1.693   3.817  15.630 -0.1807  0.6269  0.0712
  213MPD1    C2 3235   1.640   3.855  15.508  0.1863 -0.1224 -0.5524
  213MPD1    C3 3236   1.586   3.982  15.482  0.4522  0.4684  0.1245
  213MPD1    C4 3237   1.589   4.078  15.582  0.7805  0.6907  0.3253
  213MPD1    C5 3238   1.643   4.047  15.706  0.4858  0.1504 -0.6531
  213MPD1     H 3239   1.663   3.785  15.429 -0.4684 -0.2350 -0.6503
  213MPD1    H1 3240   1.545   4.177  15.575  1.4559  0.9918  0.3358
  213MPD1    H2 3241   1.736   3.911  15.826 -0.3910  0.9807  0.6753
  213MPD1    H3 3242   1.646   4.120  15.785  0.2647 -1.0327  0.4472
  213MPD1     N 3243   1.530   3.995  15.351 -0.3488 -0.1804 -0.1260
  213MPD1    H5 3244   1.518   3.910  15.297 -0.3469 -0.5877  0.5065
  213MPD1    N1 3245   1.791   3.720  15.632  1.0205 -1.5447  0.8665
  213MPD1    H6 3246   1.762   3.639  15.578 -3.3645 -0.7505  1.9742
  213MPD1    H7 3247   1.799   3.699  15.731  2.9400  1.8056  1.4301
  214MPD1     C 3248   0.924   3.703  14.636 -0.3738  0.2387 -0.0958
  214MPD1    C1 3249   0.999   3.634  14.734 -0.0843 -0.2859  0.1354
  214MPD1    C2 3250   1.083   3.703  14.822 -0.3858 -0.1919 -0.4290
  214MPD1    C3 3251   1.085   3.845  14.807  0.6189 -0.3714 -0.4383
  214MPD1    C4 3252   1.022   3.909  14.703 -0.2746  0.0888  0.2195
  214MPD1    C5 3253   0.944   3.833  14.618  0.1934  0.2712  0.7951
  214MPD1     H 3254   1.139   3.646  14.895 -0.0748 -0.9841 -1.2764
  214MPD1    H1 3255   1.033   4.014  14.682 -1.4921  0.5019  1.6103
  214MPD1    H2 3256   0.855   3.654  14.569 -0.9053  0.5183  0.2419
  214MPD1    H3 3257   0.902   3.883  14.531  1.0289 -1.4233 -0.5725
  214MPD1     N 3258   1.174   3.928  14.884 -0.4206 -0.0348 -0.5308
  214MPD1    H5 3259   1.185   4.025  14.857 -0.9528 -0.1099 -1.0314
  214MPD1    N1 3260   0.976   3.493  14.746  0.3145  0.4560 -0.2427
  214MPD1    H6 3261   0.999   3.457  14.653 -0.6181 -0.6756 -0.0310
  214MPD1    H7 3262   1.025   3.442  14.820  0.7303 -1.1575 -1.6202
  215MPD1     C 3263   1.107   0.488  11.299  0.3589 -0.3302 -0.1390
  215MPD1    C1 3264   1.175   0.489  11.180  0.2349  0.0212  0.3171
  215MPD1    C2 3265   1.315   0.469  11.190  0.3565  0.3240 -0.4070
  215MPD1    C3 3266   1.382   0.437  11.309  0.4082  0.1820  0.0558
  215MPD1    C4 3267   1.311   0.427  11.421 -0.0524 -0.8557  0.7621
  215MPD1    C5 3268   1.172   0.445  11.413 -1.2348  0.2199  0.1018
  215MPD1     H 3269   1.380   0.486  11.105 -0.7691  0.7451 -1.1840
  215MPD1    H1 3270   1.353   0.402  11.518 -0.3806  2.0182  1.6296
  215MPD1    H2 3271   1.003   0.513  11.310  0.5758 -0.0158  1.2281
  215MPD1    H3 3272   1.115   0.431  11.504 -1.7234 -2.1504 -0.5502
  215MPD1     N 3273   1.524   0.434  11.306  0.1765 -0.1256 -0.1798
  215MPD1    H5 3274   1.578   0.456  11.223  3.2672 -0.5714  1.7358
  215MPD1    N1 3275   1.116   0.533  11.063 -0.1159  0.1339 -0.2058
  215MPD1    H6 3276   1.162   0.497  10.980  0.3469 -0.8609  0.4904
  215MPD1    H7 3277   1.015   0.522  11.073  0.2284 -0.8841  2.0612
  216MPD1     C 3278   4.203   2.876  16.822  0.3260 -0.1703  0.2190
  216MPD1    C1 3279   4.174   2.807  16.700  0.9398  1.0398 -0.2420
  216MPD1    C2 3280   4.185   2.670  16.702  0.0896 -0.0599 -0.1456
  216MPD1    C3 3281   4.237   2.604  16.813  0.2399 -0.1031  0.4740
  216MPD1    C4 3282   4.283   2.672  16.924 -0.0923  0.0800  0.3277
  216MPD1    C5 3283   4.254   2.811  16.927  0.5444 -0.1227  1.2034
  216MPD1     H 3284   4.147   2.608  16.621 -0.8953  0.6335 -0.2082
  216MPD1    H1 3285   4.328   2.623  17.009  0.5812  0.2377  0.0593
  216MPD1    H2 3286   4.188   2.983  16.822 -0.2625 -0.2493 -2.7897
  216MPD1    H3 3287   4.290   2.874  17.007 -1.9369  1.2960  1.1627
  216MPD1     N 3288   4.230   2.462  16.811 -0.2693  0.0127  0.0037
  216MPD1    H5 3289   4.181   2.421  16.732 -2.3922  0.7828  0.9263
  216MPD1    N1 3290   4.106   2.877  16.599  0.1621  0.3134 -0.1247
  216MPD1    H6 3291   4.107   2.829  16.509  3.3880  0.1167  0.0025
  216MPD1    H7 3292   4.140   2.973  16.594 -0.7767  0.7058  1.0850
  217MPD1     C 3293   0.118   0.283   8.393 -0.3698 -0.1183 -0.4203
  217MPD1    C1 3294   0.186   0.162   8.393  0.2704  0.5944 -0.5284
  217MPD1    C2 3295   0.210   0.093   8.514  0.1055 -0.1069 -0.1743
  217MPD1    C3 3296   0.162   0.148   8.630  0.2552 -0.9313 -0.1950
  217MPD1    C4 3297   0.096   0.267   8.625 -0.5571 -0.2951 -0.0854
  217MPD1    C5 3298   0.058   0.329   8.505  0.0201 -0.2888 -0.1743
  217MPD1     H 3299   0.263   4.719   8.507  1.4144  0.6215  0.0592
  217MPD1    H1 3300   0.066   0.313   8.718  0.3188  2.6663 -1.2606
  217MPD1    H2 3301   0.100   0.323   8.294 -0.1650  1.2644  0.1004
  217MPD1    H3 3302   0.002   0.421   8.495 -1.2289 -1.1319 -0.8731
  217MPD1     N 3303   0.177   0.095   8.760  0.1075 -0.2805 -0.5742
  217MPD1    H5 3304   0.172   0.157   8.840 -0.4202 -0.9913 -0.0604
  217MPD1    N1 3305   0.247   0.104   8.274  0.2478 -0.8105 -0.1367
  217MPD1    H6 3306   0.334   0.054   8.289  0.8343  0.2119 -0.1363
  217MPD1    H7 3307   0.246   0.159   8.188 -0.4965  0.9768  1.0104
  218MPD1     C 3308   0.516   0.718  12.346  0.0607  0.0805 -0.1922
  218MPD1    C1 3309   0.574   0.800  12.441  0.3059  0.0029 -0.3554
  218MPD1    C2 3310   0.691   0.752  12.506  0.4119  0.3333 -0.1110
  218MPD1    C3 3311   0.748   0.624  12.482  0.1622  0.1780 -0.4191
  218MPD1    C4 3312   0.683   0.548  12.387  0.2711 -0.0852 -0.3996
  218MPD1    C5 3313   0.567   0.591  12.324  1.3015 -0.5804 -0.1099
  218MPD1     H 3314   0.733   0.821  12.579  0.6579  0.1904 -0.1187
  218MPD1    H1 3315   0.716   0.451  12.350  0.2013 -0.6106  0.9186
  218MPD1    H2 3316   0.431   0.753  12.289  0.7069  0.9636 -0.6060
  218MPD1    H3 3317   0.537   0.530  12.240 -1.8665  2.8769 -1.4989
  218MPD1     N 3318   0.869   0.591  12.547  0.1338  0.0151 -0.9218
  218MPD1    H5 3319   0.908   0.667  12.601 -0.2421 -1.2086  1.0720
  218MPD1    N1 3320   0.517   0.921  12.470  0.5125 -0.7233  0.4434
  218MPD1    H6 3321   0.503   0.923  12.571  0.7595  0.9899  0.4405
  218MPD1    H7 3322   0.421   0.932  12.439  1.0780  0.0288 -1.0252
  219MPD1     C 3323   1.556   0.802  13.240  0.3542 -0.4033  0.2182
  219MPD1    C1 3324   1.429   0.842  13.201 -0.1913 -0.4579 -0.1411
  219MPD1    C2 3325   1.370   0.778  13.090  0.0843 -0.2204  0.1380
  219MPD1    C3 3326   1.441   0.702  13.006 -0.6626 -0.0928 -0.2757
  219MPD1    C4 3327   1.572   0.685  13.035 -0.2543 -0.0907  0.3113
  219MPD1    C5 3328   1.628   0.727  13.148  0.8848  0.2913  0.4123
  219MPD1     H 3329   1.264   0.796  13.079  0.3013 -0.6031 -2.6353
  219MPD1    H1 3330   1.635   0.642  12.958  1.7314  2.3556  0.5823
  219MPD1    H2 3331   1.607   0.826  13.333 -0.1792 -1.9693  0.9147
  219MPD1    H3 3332   1.733   0.699  13.158  1.3484  1.6086 -0.8152
  219MPD1     N 3333   1.390   0.632  12.897 -0.1464  0.2858  0.3915
  219MPD1    H5 3334   1.458   0.571  12.852 -1.7521  0.9728 -2.9294
  219MPD1    N1 3335   1.347   0.909  13.296  0.2465 -0.6577  0.4014
  219MPD1    H6 3336   1.406   0.956  13.364 -0.7500 -0.7573  1.3294
  219MPD1    H7 3337   1.297   0.975  13.237  0.0237 -0.2568  1.0492
  220MPD1     C 3338   1.712   1.606   9.946  0.9649  0.0525 -0.4118
  220MPD1    C1 3339   1.798   1.576  10.050 -0.2480  0.9158 -0.5836
  220MPD1    C2 3340   1.749   1.476  10.138  0.0840 -0.7326 -0.6099
  220MPD1    C3 3341   1.637   1.394  10.123 -0.0009 -0.0891  0.8936
  220MPD1    C4 3342   1.559   1.425  10.009 -0.7300  0.0387 -0.1581
  220MPD1    C5 3343   1.598   1.528   9.924  0.2797  0.0668  0.0388
  220MPD1     H 3344   1.803   1.457  10.230  1.9795  0.3354 -1.5138
  220MPD1    H1 3345   1.467   1.369   9.991 -0.3429 -0.5237 -0.3836
  220MPD1    H2 3346   1.743   1.676   9.870 -0.7434  1.7044  0.4058
  220MPD1    H3 3347   1.542   1.540   9.832  1.5525  1.1861 -0.5901
  220MPD1     N 3348   1.607   1.292  10.219  0.6622  0.6326 -0.1085
  220MPD1    H5 3349   1.677   1.273  10.290  0.8046 -0.5354 -0.5657
  220MPD1    N1 3350   1.920   1.642  10.066  0.1446  0.0405 -0.4030
  220MPD1    H6 3351   1.985   1.606   9.997 -1.3422 -0.6738 -1.4364
  220MPD1    H7 3352   1.956   1.616  10.158 -2.0256  1.8896  0.9659
  221MPD1     C 3353   3.532   4.458  16.425  0.3468 -0.3591 -0.0880
  221MPD1    C1 3354   3.588   4.350  16.491  0.4317 -0.1180 -0.3902
  221MPD1    C2 3355   3.723   4.359  16.500 -0.3449  0.5064 -0.5589
  221MPD1    C3 3356   3.808   4.444  16.435  0.2753  0.4796 -0.2379
  221MPD1    C4 3357   3.746   4.540  16.355  0.4835 -0.6323  0.3854
  221MPD1    C5 3358   3.610   4.543  16.356  0.6319 -0.5356  0.7134
  221MPD1     H 3359   3.777   4.286  16.560  0.0728  0.2054 -1.3017
  221MPD1    H1 3360   3.801   4.614  16.298 -3.1479  3.1262  1.8058
  221MPD1    H2 3361   3.425   4.473  16.429  0.5225  1.1241 -0.8125
  221MPD1    H3 3362   3.559   4.625  16.305  0.7535 -1.5333 -0.9775
  221MPD1     N 3363   3.949   4.436  16.435 -0.1680  0.0586  0.6694
  221MPD1    H5 3364   3.997   4.495  16.369  0.2316 -1.8178 -0.7285
  221MPD1    N1 3365   3.503   4.268  16.567 -0.4159 -0.4269 -0.2664
  221MPD1    H6 3366   3.548   4.181  16.595 -0.4938 -0.2122  0.5175
  221MPD1    H7 3367   3.417   4.257  16.513 -1.3470 -0.1680  1.1634
  222MPD1     C 3368   3.597   2.739  17.417  0.1312 -0.4127  0.5469
  222MPD1    C1 3369   3.499   2.794  17.494  0.1657 -0.0982 -0.3130
  222MPD1    C2 3370   3.473   2.931  17.464 -0.0390  0.0710  0.5804
  222MPD1    C3 3371   3.550   3.005  17.378 -0.2075 -0.3016  0.0183
  222MPD1    C4 3372   3.653   2.936  17.314  0.4022 -0.2126 -0.5262
  222MPD1    C5 3373   3.678   2.801  17.332 -0.0822  0.0617 -0.2500
  222MPD1     H 3374   3.407   2.981  17.532  1.5566 -0.0949  2.2502
  222MPD1    H1 3375   3.718   2.986  17.243 -0.4038 -2.5089 -2.8394
  222MPD1    H2 3376   3.616   2.632  17.425  2.1238 -0.0977  0.0261
  222MPD1    H3 3377   3.748   2.752  17.266  0.3828 -0.8537  0.9287
  222MPD1     N 3378   3.548   3.143  17.372 -0.8203 -0.4819 -0.2212
  222MPD1    H5 3379   3.620   3.178  17.311 -1.9035 -0.1732 -1.3105
  222MPD1    N1 3380   3.437   2.711  17.594  0.1434 -1.0459  0.2195
  222MPD1    H6 3381   3.347   2.756  17.610  0.2787 -0.1451 -1.5271
  222MPD1    H7 3382   3.435   2.614  17.562  2.6139 -0.0834 -2.8187
  223MPD1     C 3383   3.142   3.982   0.221 -0.4470  0.4792  0.2266
  223MPD1    C1 3384   3.263   4.024   0.189  0.1128  0.2016  0.3580
  223MPD1    C2 3385   3.318   3.946   0.090  0.5092  0.2160 -0.6372
  223MPD1    C3 3386   3.259   3.837   0.032 -0.1912  0.0251 -0.1800
  223MPD1    C4 3387   3.131   3.794   0.075 -1.0096 -0.3456 -0.7787
  223MPD1    C5 3388   3.076   3.870   0.174  0.2920 -0.7131 -0.4123
  223MPD1     H 3389   3.410   3.980   0.042  0.6329  0.1330 -0.4596
  223MPD1    H1 3390   3.085   3.704   0.035 -0.3026 -0.6959 -0.7996
  223MPD1    H2 3391   3.091   4.049   0.289 -1.1051 -1.9882  2.1826
  223MPD1    H3 3392   2.981   3.839   0.214 -0.3872  1.0663 -0.6333
  223MPD1     N 3393   3.338   3.758  17.627  0.3480 -0.3761 -0.1297
  223MPD1    H5 3394   3.432   3.795  17.619  0.0553 -0.1112 -2.2925
  223MPD1    N1 3395   3.303   4.154   0.217  0.4680 -0.4157 -0.2979
  223MPD1    H6 3396   3.278   4.175   0.313 -0.5279 -2.2191 -0.1508
  223MPD1    H7 3397   3.404   4.148   0.204  0.7765 -0.7682  2.1433
  224MPD1     C 3398   0.461   0.217   8.943 -0.3801  0.7033  0.2474
  224MPD1    C1 3399   0.377   0.296   9.019 -0.6998  0.0248  0.2864
  224MPD1    C2 3400   0.365   0.271   9.158  0.3403  0.2350  0.0635
  224MPD1    C3 3401   0.466   0.192   9.215 -0.0696  0.5874 -0.9078
  224MPD1    C4 3402   0.553   0.125   9.140 -1.0879  0.0103 -0.3589
  224MPD1    C5 3403   0.552   0.134   8.998 -0.0968 -0.0452 -0.8743
  224MPD1     H 3404   0.288   0.320   9.217 -1.2361 -0.7281 -1.1728
  224MPD1    H1 3405   0.615   0.046   9.182  2.5362  1.7222 -2.4764
  224MPD1    H2 3406   0.465   0.223   8.835 -0.7614  0.8552  0.2408
  224MPD1    H3 3407   0.624   0.082   8.936  0.8529 -1.0681  1.0950
  224MPD1     N 3408   0.474   0.178   9.357  0.0326 -0.2831 -0.2301
  224MPD1    H5 3409   0.546   0.116   9.391  1.2951  0.7555 -1.0105
  224MPD1    N1 3410   0.275   0.363   8.949 -0.4828 -0.5085  0.4837
  224MPD1    H6 3411   0.248   0.446   9.001  2.4724  1.6101 -1.3388
  224MPD1    H7 3412   0.305   0.390   8.855 -0.6490 -0.1136  0.5434
  225MPD1     C 3413   1.861   0.993  12.456 -0.0527 -0.3128 -0.1569
  225MPD1    C1 3414   1.788   1.081  12.529  0.6438  0.6838  0.2849
  225MPD1    C2 3415   1.676   1.127  12.467  0.6465 -0.1493  0.6082
  225MPD1    C3 3416   1.642   1.100  12.337 -0.6783  0.0617 -0.8736
  225MPD1    C4 3417   1.726   1.010  12.275 -0.3176 -0.6153  0.0017
  225MPD1    C5 3418   1.840   0.963  12.330 -0.3325 -0.4721  0.2565
  225MPD1     H 3419   1.598   1.180  12.521 -2.3677 -0.3976 -3.4305
  225MPD1    H1 3420   1.701   0.976  12.175  0.0472 -0.2576 -0.2111
  225MPD1    H2 3421   1.953   0.953  12.498 -2.1943 -1.7037  3.1618
  225MPD1    H3 3422   1.899   0.892  12.273 -0.0590  1.0234 -1.3568
  225MPD1     N 3423   1.529   1.150  12.272  0.0906 -0.8977 -0.6383
  225MPD1    H5 3424   1.508   1.114  12.180  0.7301 -1.0668 -0.7196
  225MPD1    N1 3425   1.814   1.097  12.668  0.3302  0.0250 -0.0181
  225MPD1    H6 3426   1.779   1.182  12.713 -0.6567 -0.0604 -0.6166
  225MPD1    H7 3427   1.914   1.088  12.681  0.6637  2.3100 -1.0074
  226MPD1     C 3428   4.176   1.819   8.922 -0.0684  0.1741 -0.0058
  226MPD1    C1 3429   4.245   1.852   9.036  0.7296 -1.2794  0.1036
  226MPD1    C2 3430   4.313   1.747   9.095  0.3107 -0.2533  0.0027
  226MPD1    C3 3431   4.304   1.616   9.044  0.2181  0.1510  0.8211
  226MPD1    C4 3432   4.209   1.592   8.940  0.0423 -0.8269  0.4213
  226MPD1    C5 3433   4.141   1.695   8.891  0.4524 -0.4047  0.8844
  226MPD1     H 3434   4.380   1.764   9.179  1.9208 -0.7368 -1.1948
  226MPD1    H1 3435   4.201   1.493   8.896 -0.5622 -0.6284  0.0846
  226MPD1    H2 3436   4.124   1.897   8.869 -0.8266  0.1512  0.6945
  226MPD1    H3 3437   4.070   1.667   8.814 -0.3173  0.7556  1.1778
  226MPD1     N 3438   4.398   1.517   9.085  0.4416  0.0296  0.1734
  226MPD1    H5 3439   4.454   1.559   9.159 -0.9300 -0.9812  1.7943
  226MPD1    N1 3440   4.279   1.982   9.068  0.3227 -0.2612 -0.0906
  226MPD1    H6 3441   4.205   2.047   9.043  0.7741  0.0763 -0.5444
  226MPD1    H7 3442   4.324   1.988   9.159 -2.8150 -2.6451  1.6238
  227MPD1     C 3443   0.641   1.443   9.345  0.7476 -0.8718  0.3521
  227MPD1    C1 3444   0.590   1.327   9.404 -0.2739 -0.7334  0.0788
  227MPD1    C2 3445   0.459   1.298   9.366  0.1306 -0.6004  0.0334
  227MPD1    C3 3446   0.381   1.384   9.302  0.1478  0.4234  0.7303
  227MPD1    C4 3447   0.426   1.516   9.265  0.2962 -0.5850 -0.1829
  227MPD1    C5 3448   0.563   1.533   9.283 -0.2357  0.2303 -0.5232
  227MPD1     H 3449   0.416   1.203   9.396 -0.6920 -0.1834  0.1514
  227MPD1    H1 3450   0.363   1.589   9.216  0.4405  1.0031  2.0312
  227MPD1    H2 3451   0.743   1.477   9.361  0.7221 -1.2242  1.3036
  227MPD1    H3 3452   0.611   1.625   9.252  0.8642 -0.1700 -0.0059
  227MPD1     N 3453   0.243   1.339   9.281 -0.6498  0.3990  0.4652
  227MPD1    H5 3454   0.221   1.245   9.312  1.1020 -0.3888 -0.7094
  227MPD1    N1 3455   0.678   1.234   9.466 -0.0915 -0.2388  0.0477
  227MPD1    H6 3456   0.626   1.170   9.526  2.0464 -2.5938 -0.6236
  227MPD1    H7 3457   0.748   1.288   9.517 -1.1842  0.0213  1.2709
  228MPD1     C 3458   2.939   4.166  12.230  0.3695  0.3619  0.3653
  228MPD1    C1 3459   2.933   4.058  12.147 -0.5397 -0.0104  0.5114
  228MPD1    C2 3460   2.826   3.967  12.159  0.2247  0.7991 -0.1738
  228MPD1    C3 3461   2.745   3.980  12.271  0.2877  0.0865  0.2177
  228MPD1    C4 3462   2.758   4.083  12.362  0.1833 -0.7454  0.1950
  228MPD1    C5 3463   2.851   4.173  12.335 -0.8311  0.3281 -0.4323
  228MPD1     H 3464   2.825   3.876  12.100 -0.3961  1.1156 -0.6579
  228MPD1    H1 3465   2.709   4.103  12.456  2.1938 -0.6465  1.2151
  228MPD1    H2 3466   3.021   4.235  12.214 -0.1972  0.7927 -0.7349
  228MPD1    H3 3467   2.857   4.259  12.402  0.5965  0.3452 -0.5717
  228MPD1     N 3468   2.648   3.874  12.296 -0.0599 -0.6510 -0.4137
  228MPD1    H5 3469   2.651   3.796  12.231  0.8336 -1.5041  0.6713
  228MPD1    N1 3470   3.023   4.057  12.037  1.1008  0.2863  0.6015
  228MPD1    H6 3471   3.109   4.102  12.066 -0.3586  2.3714  1.7221
  228MPD1    H7 3472   3.046   3.962  12.009  1.8758  0.7926 -0.4673
  229MPD1     C 3473   3.771   3.064  14.727  0.2999  0.5789  0.0067
  229MPD1    C1 3474   3.832   3.003  14.831 -0.1558  0.3659  0.0205
  229MPD1    C2 3475   3.806   2.870  14.868  0.6393 -0.2432  0.4510
  229MPD1    C3 3476   3.718   2.792  14.796  0.3229  0.1637  1.2354
  229MPD1    C4 3477   3.656   2.857  14.689 -0.9856  0.1613  0.6156
  229MPD1    C5 3478   3.683   2.985  14.653  0.0193 -0.0240  0.7608
  229MPD1     H 3479   3.857   2.828  14.955 -1.3634 -1.3665  1.0919
  229MPD1    H1 3480   3.589   2.793  14.634 -1.9731  1.3640  0.4238
  229MPD1    H2 3481   3.782   3.171  14.710 -1.2785  0.6600 -0.5299
  229MPD1    H3 3482   3.636   3.026  14.564 -0.3730  2.2986  2.0446
  229MPD1     N 3483   3.690   2.660  14.825 -0.5442 -0.1401 -0.6028
  229MPD1    H5 3484   3.633   2.612  14.757 -1.2904 -0.5614  0.3148
  229MPD1    N1 3485   3.917   3.085  14.907  0.5740  0.2381 -0.3258
  229MPD1    H6 3486   3.975   3.036  14.975  1.9125  1.2858 -0.7089
  229MPD1    H7 3487   3.985   3.133  14.848  1.1165 -0.5492 -0.3548
  230MPD1     C 3488   3.822   1.842  15.567  0.2390 -0.0371 -0.6955
  230MPD1    C1 3489   3.777   1.785  15.450  1.4263 -0.5456  0.3603
  230MPD1    C2 3490   3.722   1.865  15.349  0.4385 -0.1910 -0.2493
  230MPD1    C3 3491   3.729   2.002  15.351 -0.0280  0.0819 -0.0322
  230MPD1    C4 3492   3.792   2.057  15.463 -0.1850 -0.1692 -0.3974
  230MPD1    C5 3493   3.846   1.980  15.568  0.3708  0.1164 -0.8586
  230MPD1     H 3494   3.684   1.817  15.260 -0.0110 -1.7807  0.7925
  230MPD1    H1 3495   3.792   2.164  15.482  0.0559 -0.3854  0.8245
  230MPD1    H2 3496   3.868   1.786  15.647  3.3860  0.0304 -2.4236
  230MPD1    H3 3497   3.874   2.019  15.665  0.0067 -1.7184 -0.0218
  230MPD1     N 3498   3.678   2.081  15.246 -0.3627 -0.2234 -0.0376
  230MPD1    H5 3499   3.627   2.025  15.178  1.0544 -0.3004 -1.0462
  230MPD1    N1 3500   3.764   1.644  15.442 -0.8419 -0.3213 -0.1614
  230MPD1    H6 3501   3.770   1.608  15.347 -1.4268  3.3041 -1.5640
  230MPD1    H7 3502   3.816   1.592  15.513 -1.6550 -0.1890  0.5377
  231MPD1     C 3503   0.987   4.332  15.327 -0.4347  0.2698  0.1897
  231MPD1    C1 3504   1.002   4.454  15.284 -0.1836  0.4851  0.3515
  231MPD1    C2 3505   1.044   4.473  15.158 -0.3173 -0.1955  0.4627
  231MPD1    C3 3506   1.069   4.369  15.070 -0.4871 -0.6005 -0.6944
  231MPD1    C4 3507   1.054   4.240  15.111  0.2953 -0.0997  0.1874
  231MPD1    C5 3508   1.015   4.228  15.244  0.7177 -0.0791 -0.0021
  231MPD1     H 3509   1.072   4.573  15.126 -1.8669 -0.5181 -1.8977
  231MPD1    H1 3510   1.079   4.157  15.046 -0.4443  1.8172 -2.5875
  231MPD1    H2 3511   0.953   4.307  15.427 -3.9199  0.8383 -0.8720
  231MPD1    H3 3512   1.009   4.129  15.288  0.0857 -0.3721 -0.7458
  231MPD1     N 3513   1.125   4.405  14.946 -0.0153  0.8549  0.2807
  231MPD1    H5 3514   1.131   4.505  14.931  0.1900  1.0808  1.9321
  231MPD1    N1 3515   1.001   4.562  15.367 -0.0562 -0.4644 -0.1621
  231MPD1    H6 3516   0.933   4.540  15.440 -0.8045  0.9131 -0.4388
  231MPD1    H7 3517   0.968   4.644  15.315  0.4048 -0.5034 -0.5169
  232MPD1     C 3518   3.502   1.234  17.526  0.0679 -0.0876  0.6030
  232MPD1    C1 3519   3.540   1.233  17.661 -0.2687  0.0748 -0.1067
  232MPD1    C2 3520   3.496   1.325   0.068  0.0379  1.0672 -0.8499
  232MPD1    C3 3521   3.417   1.436   0.032 -0.8081  0.4068 -0.2037
  232MPD1    C4 3522   3.369   1.435  17.583  0.3080  0.1546  0.2209
  232MPD1    C5 3523   3.413   1.335  17.500  0.5462  0.0608  0.1950
  232MPD1     H 3524   3.522   1.325   0.173 -0.7919 -4.4430 -0.6638
  232MPD1    H1 3525   3.291   1.496  17.539 -0.2135 -0.2962  0.5198
  232MPD1    H2 3526   3.527   1.154  17.458 -0.7801  1.5838 -1.6847
  232MPD1    H3 3527   3.378   1.341  17.397 -1.6245 -2.1591  0.8039
  232MPD1     N 3528   3.378   1.535   0.130 -0.3400 -0.9412 -0.2072
  232MPD1    H5 3529   3.412   1.523   0.225 -3.3588 -0.8000  0.8914
  232MPD1    N1 3530   3.583   1.111   0.034  0.2017  0.5131 -0.1585
  232MPD1    H6 3531   3.637   1.053  17.654 -1.2492  0.3475 -1.2136
  232MPD1    H7 3532   3.645   1.123   0.114  1.5964  1.1767 -1.3347
  233MPD1     C 3533   4.323   0.695   1.904 -0.4593 -0.2371 -0.5994
  233MPD1    C1 3534   4.382   0.686   2.027 -0.0335 -0.2683  0.0721
  233MPD1    C2 3535   4.521   0.679   2.044  0.6337 -0.5082  0.5584
  233MPD1    C3 3536   4.601   0.662   1.928 -0.1270  0.3674 -0.0802
  233MPD1    C4 3537   4.539   0.682   1.809  0.3002  0.1550  0.1487
  233MPD1    C5 3538   4.404   0.702   1.797  0.1251 -0.0276 -0.5069
  233MPD1     H 3539   4.558   0.682   2.146 -0.3432 -1.5265  0.9381
  233MPD1    H1 3540   4.595   0.683   1.717  1.1595 -0.8877  0.6606
  233MPD1    H2 3541   4.220   0.728   1.896 -0.1313  0.9278 -0.0848
  233MPD1    H3 3542   4.353   0.728   1.705  0.3515 -1.4360 -1.0248
  233MPD1     N 3543   0.018   0.644   1.921  0.3083 -1.1603  0.2924
  233MPD1    H5 3544   0.056   0.636   1.827  1.0584 -0.4806  0.5380
  233MPD1    N1 3545   4.302   0.717   2.142 -0.2046  0.0532 -0.7200
  233MPD1    H6 3546   4.337   0.715   2.237  1.7167 -0.0664 -1.4290
  233MPD1    H7 3547   4.207   0.682   2.136  0.2295 -0.8912 -2.2909
  234MPD1     C 3548   1.174   3.394   9.859 -0.4611 -0.0646  0.0965
  234MPD1    C1 3549   1.225   3.498   9.928  0.3283  0.3873 -0.6005
  234MPD1    C2 3550   1.222   3.628   9.867  0.5577 -0.4280 -0.0299
  234MPD1    C3 3551   1.166   3.645   9.739  0.1673  0.2866  0.0991
  234MPD1    C4 3552   1.113   3.541   9.675 -1.3320  0.1721  0.2195
  234MPD1    C5 3553   1.110   3.417   9.740 -0.2326  0.7181  0.1169
  234MPD1     H 3554   1.261   3.711   9.926  1.0122 -0.7972  0.1897
  234MPD1    H1 3555   1.055   3.552   9.584  0.3947  2.1936 -0.6297
  234MPD1    H2 3556   1.169   3.294   9.899 -1.2455 -0.0235  0.0986
  234MPD1    H3 3557   1.060   3.330   9.698 -2.9222  1.7123  1.2835
  234MPD1     N 3558   1.160   3.775   9.699 -0.1304  0.4067  0.7458
  234MPD1    H5 3559   1.202   3.843   9.760  0.9452  1.0076 -0.6618
  234MPD1    N1 3560   1.313   3.480  10.035 -0.1293  0.4002 -0.1829
  234MPD1    H6 3561   1.313   3.400  10.097 -1.7863  0.4473 -0.1102
  234MPD1    H7 3562   1.311   3.563  10.095  0.8383  0.2357  0.0763
  235MPD1     C 3563   2.106   1.344  10.742  0.3239  0.6573 -0.2797
  235MPD1    C1 3564   2.087   1.464  10.681  0.3436  0.0157 -0.6878
  235MPD1    C2 3565   2.134   1.476  10.547 -0.5150 -0.3080  0.9068
  235MPD1    C3 3566   2.182   1.367  10.480 -0.5663 -0.6002  0.1510
  235MPD1    C4 3567   2.191   1.244  10.548  0.3378  0.1788 -0.0556
  235MPD1    C5 3568   2.165   1.236  10.680 -0.1634  0.4237 -0.5799
  235MPD1     H 3569   2.122   1.568  10.491  0.1327 -0.6987  0.1178
  235MPD1    H1 3570   2.225   1.157  10.493 -0.6125 -0.5411  0.5062
  235MPD1    H2 3571   2.080   1.324  10.845  2.0891 -0.9167 -0.1378
  235MPD1    H3 3572   2.180   1.143  10.734  1.6526  1.4103  0.6136
  235MPD1     N 3573   2.226   1.387  10.347  0.0192  0.5766 -0.4773
  235MPD1    H5 3574   2.204   1.480  10.311 -0.9838  0.8307  0.7895
  235MPD1    N1 3575   2.048   1.576  10.755  0.3725  0.8651  0.4590
  235MPD1    H6 3576   1.993   1.647  10.707 -0.1170  1.2685  1.6248
  235MPD1    H7 3577   2.010   1.552  10.846  2.2297 -0.0418  0.9888
  236MPD1     C 3578   1.509   2.797   9.450  0.1494 -0.3518  0.2797
  236MPD1    C1 3579   1.467   2.670   9.471 -0.4464  0.1319  0.4807
  236MPD1    C2 3580   1.510   2.598   9.588 -0.5921 -0.4746  0.2110
  236MPD1    C3 3581   1.599   2.663   9.672 -0.2084 -0.4697  0.0027
  236MPD1    C4 3582   1.643   2.790   9.644 -0.5044 -0.1560  0.2731
  236MPD1    C5 3583   1.606   2.850   9.530 -0.4689  1.0598  0.6479
  236MPD1     H 3584   1.473   2.497   9.600  0.9937 -1.1088 -0.2234
  236MPD1    H1 3585   1.722   2.833   9.705 -0.2774  0.4683 -0.4671
  236MPD1    H2 3586   1.461   2.855   9.372 -0.7002  1.2658  1.9843
  236MPD1    H3 3587   1.651   2.945   9.505 -0.1333  0.6367 -0.3436
  236MPD1     N 3588   1.666   2.597   9.779  0.8013 -0.0363  0.3582
  236MPD1    H5 3589   1.749   2.641   9.817  2.8708 -1.4889 -2.5004
  236MPD1    N1 3590   1.357   2.626   9.394 -0.0744  0.9700  0.2664
  236MPD1    H6 3591   1.364   2.530   9.361  0.2538  1.2726 -0.5556
  236MPD1    H7 3592   1.343   2.688   9.314  1.2302 -0.2351 -0.9216
  237MPD1     C 3593   1.669   1.509  15.324 -0.1120  0.4757 -0.1648
  237MPD1    C1 3594   1.734   1.403  15.368 -0.1119  0.6063  0.2014
  237MPD1    C2 3595   1.704   1.281  15.311 -0.3276 -0.7334  0.5654
  237MPD1    C3 3596   1.614   1.263  15.207  0.0890  0.4544 -0.5541
  237MPD1    C4 3597   1.567   1.383  15.154  0.0729  0.9144 -0.6142
  237MPD1    C5 3598   1.589   1.509  15.214  0.0461  0.1113  0.2950
  237MPD1     H 3599   1.766   1.199  15.345  0.4374  0.0428  1.0744
  237MPD1    H1 3600   1.504   1.387  15.065 -0.3128  0.9308 -0.3397
  237MPD1    H2 3601   1.679   1.608  15.369 -1.1250  0.4851  0.0529
  237MPD1    H3 3602   1.545   1.602  15.181 -0.3923  0.6319  2.3530
  237MPD1     N 3603   1.598   1.138  15.134 -0.1186 -0.3108  0.1923
  237MPD1    H5 3604   1.544   1.135  15.048  0.2519 -2.6648  0.0411
  237MPD1    N1 3605   1.816   1.410  15.482  0.4103  0.3263  0.0436
  237MPD1    H6 3606   1.894   1.344  15.478 -0.3038 -0.4512 -0.9249
  237MPD1    H7 3607   1.859   1.502  15.489  1.3936 -0.0753 -0.7223
  238MPD1     C 3608   3.199   4.077  15.322 -0.3711 -0.0535  0.4145
  238MPD1    C1 3609   3.209   4.031  15.190 -0.1245 -0.6058 -0.1756
  238MPD1    C2 3610   3.114   4.088  15.108  0.5508  0.4330 -1.0888
  238MPD1    C3 3611   3.006   4.165  15.146 -1.4684  0.6929  0.3568
  238MPD1    C4 3612   3.000   4.195  15.283 -0.0875 -0.0817 -0.0240
  238MPD1    C5 3613   3.089   4.141  15.367 -0.5555 -0.2447  0.3051
  238MPD1     H 3614   3.126   4.052  15.007  0.9773 -2.5994  0.0398
  238MPD1    H1 3615   2.913   4.247  15.321 -0.3372  0.9332 -1.9827
  238MPD1    H2 3616   3.283   4.066  15.390  0.5518  0.4998 -0.6431
  238MPD1    H3 3617   3.072   4.168  15.471  0.3814  0.0297  0.3882
  238MPD1     N 3618   2.909   4.205  15.060  0.2466  0.0039 -0.8281
  238MPD1    H5 3619   2.829   4.252  15.100  1.4595  0.2168  1.3077
  238MPD1    N1 3620   3.329   3.973  15.135  0.4302  0.5979 -0.2597
  238MPD1    H6 3621   3.298   3.917  15.055 -0.8532 -0.3487  0.9074
  238MPD1    H7 3622   3.376   3.921  15.208  3.2924  1.5680 -1.4133
  239MPD1     C 3623   3.452   4.130  14.613  0.4006 -1.1990  0.0036
  239MPD1    C1 3624   3.329   4.161  14.663  0.3572  0.5968  0.5927
  239MPD1    C2 3625   3.255   4.253  14.593  0.0185 -0.5041  0.4213
  239MPD1    C3 3626   3.307   4.318  14.481  0.0601 -0.1967 -0.0348
  239MPD1    C4 3627   3.428   4.285  14.433  0.4845 -0.0519  0.3602
  239MPD1    C5 3628   3.495   4.188  14.497 -0.1219 -0.2966 -0.1808
  239MPD1     H 3629   3.153   4.272  14.624 -0.4134 -0.4194 -1.0370
  239MPD1    H1 3630   3.481   4.329  14.348 -0.9714 -1.2570 -1.1615
  239MPD1    H2 3631   3.521   4.061  14.660  1.6991  0.3815  0.4299
  239MPD1    H3 3632   3.575   4.138  14.444  0.7459  0.9971 -0.0847
  239MPD1     N 3633   3.233   4.405  14.396  0.7820 -0.2201 -0.0577
  239MPD1    H5 3634   3.263   4.424  14.301  1.6220 -3.0992 -0.3550
  239MPD1    N1 3635   3.278   4.092  14.776  0.1656 -0.3875 -0.3584
  239MPD1    H6 3636   3.197   4.141  14.813  1.0916 -1.0104  2.4361
  239MPD1    H7 3637   3.355   4.087  14.843  1.2477  2.1062 -1.4124
  240MPD1     C 3638   2.750   0.077  13.956  0.6236  0.4731 -0.0854
  240MPD1    C1 3639   2.733   4.662  13.929 -0.4674 -0.0487  0.1327
  240MPD1    C2 3640   2.696   4.590  14.029 -0.2105  0.6792 -0.1971
  240MPD1    C3 3641   2.661   4.636  14.157 -0.0690 -0.1880 -0.2569
  240MPD1    C4 3642   2.667   0.050  14.180  0.1955  0.2178 -0.2416
  240MPD1    C5 3643   2.710   0.127  14.071 -0.3754 -0.8474 -0.3283
  240MPD1     H 3644   2.685   4.484  14.006 -1.7736  0.4732  1.5126
  240MPD1    H1 3645   2.615   0.096  14.264  2.0441  1.5005  0.2044
  240MPD1    H2 3646   2.780   0.153  13.886 -1.1745 -1.2304 -2.7265
  240MPD1    H3 3647   2.688   0.231  14.088  1.7531 -0.2003 -1.5484
  240MPD1     N 3648   2.600   4.550  14.251  0.3102 -0.1741  0.1116
  240MPD1    H5 3649   2.576   4.458  14.217 -2.9534  0.3317  0.9957
  240MPD1    N1 3650   2.796   4.611  13.817 -0.8519 -0.1333  0.2688
  240MPD1    H6 3651   2.893   4.596  13.845 -0.6130 -1.0298 -1.0362
  240MPD1    H7 3652   2.793   4.674  13.737 -0.7282 -1.0963 -0.4967
  241MPD1     C 3653   2.405   4.685  15.254  0.9512 -0.3561  0.3801
  241MPD1    C1 3654   2.306   4.594  15.213 -0.1085  0.2232  0.5021
  241MPD1    C2 3655   2.315   4.543  15.082  0.4998 -0.0733  0.0466
  241MPD1    C3 3656   2.407   4.596  14.989 -0.3013 -0.3201  0.7275
  241MPD1    C4 3657   2.492   4.690  15.031 -0.0154  0.4972 -0.0576
  241MPD1    C5 3658   2.503   0.012  15.160  0.1068  0.1711 -0.0752
  241MPD1     H 3659   2.242   4.473  15.042 -0.5077  1.9046 -1.5674
  241MPD1    H1 3660   2.557   0.016  14.958 -1.2932  1.9393 -0.2542
  241MPD1    H2 3661   2.398   0.020  15.346 -0.0268  0.5591 -0.2539
  241MPD1    H3 3662   2.559   0.104  15.176 -2.4200  1.3337  2.1343
  241MPD1     N 3663   2.418   4.560  14.853 -0.2495  0.7747  0.6075
  241MPD1    H5 3664   2.476   4.623  14.799  1.4188 -0.0070  1.4932
  241MPD1    N1 3665   2.223   4.535  15.311 -0.1995 -0.0121 -0.2290
  241MPD1    H6 3666   2.148   4.491  15.259 -1.6365  2.0632  0.0924
  241MPD1    H7 3667   2.191   4.602  15.381 -1.0494  0.6131 -1.2275
  242MPD1     C 3668   3.687   3.113  15.228 -0.5023 -0.3411 -0.3976
  242MPD1    C1 3669   3.572   3.182  15.197  0.3578 -0.2188  0.0213
  242MPD1    C2 3670   3.474   3.125  15.126  0.3799 -0.1189  0.1839
  242MPD1    C3 3671   3.482   2.988  15.093  0.5412 -0.1556  0.1195
  242MPD1    C4 3672   3.597   2.921  15.121 -0.1696 -0.8280 -0.1960
  242MPD1    C5 3673   3.704   2.981  15.186 -1.3026 -0.6448 -0.0191
  242MPD1     H 3674   3.398   3.189  15.083 -1.5350 -1.0166  2.1907
  242MPD1    H1 3675   3.611   2.820  15.084 -0.2682 -1.0836  0.4603
  242MPD1    H2 3676   3.766   3.171  15.276 -0.8273  0.5032 -0.8831
  242MPD1    H3 3677   3.798   2.930  15.201 -0.6235  0.7441  0.4443
  242MPD1     N 3678   3.381   2.923  15.017  0.1720 -0.6120 -0.5254
  242MPD1    H5 3679   3.398   2.823  15.015 -0.8207 -0.7917  0.3729
  242MPD1    N1 3680   3.576   3.322  15.201  0.2787  0.0240  0.5536
  242MPD1    H6 3681   3.479   3.352  15.199  0.6013  1.1800  1.8669
  242MPD1    H7 3682   3.635   3.354  15.278 -0.1783 -0.1033  0.9574
  243MPD1     C 3683   4.217   1.745   0.474 -0.0627  0.2103  0.7616
  243MPD1    C1 3684   4.250   1.813   0.360  0.2720 -0.3251  0.1772
  243MPD1    C2 3685   4.213   1.762   0.241 -0.9807  0.1742  0.5186
  243MPD1    C3 3686   4.127   1.650   0.237 -0.0641 -0.2686  0.2359
  243MPD1    C4 3687   4.098   1.586   0.358  1.1779  0.2092  0.5876
  243MPD1    C5 3688   4.139   1.636   0.481 -0.3133  0.2895  0.7615
  243MPD1     H 3689   4.257   1.805   0.152 -0.0419 -0.2026  0.7972
  243MPD1    H1 3690   4.032   1.501   0.366  2.2312 -0.6084  0.6088
  243MPD1    H2 3691   4.258   1.788   0.565 -0.3703  2.7902 -0.3309
  243MPD1    H3 3692   4.108   1.598   0.578 -0.2890 -0.2800  0.5436
  243MPD1     N 3693   4.087   1.607   0.112  0.0450 -0.6241  0.2933
  243MPD1    H5 3694   4.107   1.661   0.029 -0.0078 -1.7711 -0.4681
  243MPD1    N1 3695   4.349   1.918   0.368  0.2218  0.1108 -0.3202
  243MPD1    H6 3696   4.340   1.985   0.292 -1.7592 -0.4815 -0.6199
  243MPD1    H7 3697   4.349   1.967   0.457 -0.4478 -2.1649  0.9209
  244MPD1     C 3698   3.831   0.669  17.632 -0.9971 -0.0276 -0.1032
  244MPD1    C1 3699   3.843   0.744   0.063 -0.2284 -0.3719 -0.9748
  244MPD1    C2 3700   3.862   0.878   0.042  1.1269  0.1568 -0.6853
  244MPD1    C3 3701   3.870   0.940  17.603  0.0558 -0.0133  0.0376
  244MPD1    C4 3702   3.838   0.857  17.492 -0.2160  0.9711 -0.1031
  244MPD1    C5 3703   3.819   0.725  17.507 -0.7721 -0.4576  0.9364
  244MPD1     H 3704   3.897   0.936   0.127 -1.1177  1.2842 -0.5415
  244MPD1    H1 3705   3.841   0.886  17.388  0.4166 -1.0257 -0.6380
  244MPD1    H2 3706   3.824   0.561  17.642  0.7996 -0.0363  1.0687
  244MPD1    H3 3707   3.801   0.656  17.424 -1.0116  1.4960 -0.6385
  244MPD1     N 3708   3.893   1.076  17.590  0.0367 -0.1063 -0.2105
  244MPD1    H5 3709   3.912   1.135  17.671  0.4243 -0.0225 -0.3582
  244MPD1    N1 3710   3.868   0.679   0.183  0.1126  0.0262 -0.2611
  244MPD1    H6 3711   3.852   0.729   0.270 -1.7170 -0.2622 -0.4286
  244MPD1    H7 3712   3.805   0.600   0.192  0.0615 -0.0730 -1.4377
  245MPD1     C 3713   0.848   1.917  13.219 -0.3253  0.4840 -0.8592
  245MPD1    C1 3714   0.914   1.913  13.339  0.4130 -0.2837 -0.3601
  245MPD1    C2 3715   0.995   2.019  13.374 -0.3306  0.6867  0.0985
  245MPD1    C3 3716   1.032   2.117  13.279 -0.5689  0.7951 -0.6270
  245MPD1    C4 3717   0.979   2.109  13.156  0.1340  0.1522 -0.3086
  245MPD1    C5 3718   0.885   2.017  13.130  0.3383 -0.1364  0.4534
  245MPD1     H 3719   1.047   2.016  13.469 -1.0694 -1.6584  0.4365
  245MPD1    H1 3720   1.005   2.177  13.077 -1.1856 -0.9914 -1.7355
  245MPD1    H2 3721   0.787   1.833  13.187  2.2493 -2.1811  1.1651
  245MPD1    H3 3722   0.829   2.017  13.038 -1.7247  0.0970  1.6968
  245MPD1     N 3723   1.119   2.221  13.313  0.0850  0.1670  0.2850
  245MPD1    H5 3724   1.122   2.228  13.415 -3.9004 -0.4576  0.4603
  245MPD1    N1 3725   0.877   1.829  13.443 -0.3536 -0.4506  0.3894
  245MPD1    H6 3726   0.950   1.823  13.515 -0.0550  2.0267  0.3018
  245MPD1    H7 3727   0.840   1.739  13.414 -1.0794  0.2898 -0.9873
  246MPD1     C 3728   2.349   4.340   8.440 -0.6491  0.2346 -0.4049
  246MPD1    C1 3729   2.232   4.265   8.438  1.0211  0.2422  0.1918
  246MPD1    C2 3730   2.212   4.172   8.541  0.9963  0.5053 -0.5137
  246MPD1    C3 3731   2.304   4.142   8.633 -0.5742 -0.7499  0.9242
  246MPD1    C4 3732   2.417   4.229   8.634  0.5312  0.4372  0.6116
  246MPD1    C5 3733   2.443   4.325   8.540  0.2459  0.4345 -0.6127
  246MPD1     H 3734   2.116   4.121   8.546  0.5148  1.5139  0.5489
  246MPD1    H1 3735   2.500   4.207   8.701 -0.3015  0.3745  1.6128
  246MPD1    H2 3736   2.370   4.406   8.357 -3.2358  2.3921  0.6697
  246MPD1    H3 3737   2.544   4.361   8.524  0.6206 -0.4838 -0.3101
  246MPD1     N 3738   2.283   4.039   8.723  0.6769 -0.0664  0.1428
  246MPD1    H5 3739   2.214   3.972   8.692 -1.2327  1.2710  1.5353
  246MPD1    N1 3740   2.132   4.310   8.352 -0.6969  0.4847 -0.1911
  246MPD1    H6 3741   2.175   4.327   8.261 -1.9999  3.4646 -0.2538
  246MPD1    H7 3742   2.064   4.237   8.332  0.9717 -1.5132  1.4549
  247MPD1     C 3743   4.480   2.364  16.000  0.7871  0.4144 -0.3316
  247MPD1    C1 3744   4.518   2.301  16.118 -0.6088  0.1169 -0.7153
  247MPD1    C2 3745   4.616   2.201  16.111  0.3264  0.8611  0.2278
  247MPD1    C3 3746   4.684   2.181  15.989 -0.0464 -0.1561  0.2945
  247MPD1    C4 3747   4.630   2.241  15.868 -0.5535 -0.2747 -0.2204
  247MPD1    C5 3748   4.532   2.336  15.874  0.2840 -0.6228  0.2676
  247MPD1     H 3749   4.658   2.157  16.201  0.4229  0.3076 -0.0952
  247MPD1    H1 3750   4.662   2.221  15.767  1.1047 -1.2423  0.4786
  247MPD1    H2 3751   4.404   2.441  16.001  1.5586  1.1312  3.5593
  247MPD1    H3 3752   4.506   2.386  15.782  1.9393  0.1098  0.2038
  247MPD1     N 3753   0.071   2.085  15.977  0.1372 -0.3448 -0.0691
  247MPD1    H5 3754   0.120   2.079  15.889  0.5933  0.1682  0.1538
  247MPD1    N1 3755   4.484   2.355  16.249  1.2414  0.7085  0.2830
  247MPD1    H6 3756   4.397   2.409  16.251 -0.4077 -2.0706  3.0537
  247MPD1    H7 3757   4.481   2.283  16.320 -2.7806 -0.8689 -1.4585
  248MPD1     C 3758   1.237   2.998   0.013  0.2421 -0.3005 -0.3924
  248MPD1    C1 3759   1.307   2.905   0.082  0.7086 -0.6454  0.4063
  248MPD1    C2 3760   1.256   2.782   0.083  0.0052 -1.0768 -0.4315
  248MPD1    C3 3761   1.140   2.746   0.017 -0.0561 -0.7740 -0.4429
  248MPD1    C4 3762   1.067   2.841  17.637 -0.0359  0.5337  0.0935
  248MPD1    C5 3763   1.123   2.968  17.631  0.2654  0.7661  0.0154
  248MPD1     H 3764   1.316   2.706   0.131 -0.0024  0.1824  1.5761
  248MPD1    H1 3765   0.973   2.826  17.585  0.2738 -1.6510  0.1658
  248MPD1    H2 3766   1.258   3.104   0.013 -1.6742  0.0731 -2.0674
  248MPD1    H3 3767   1.062   3.043  17.581 -1.0117 -1.7917 -2.2609
  248MPD1     N 3768   1.098   2.611   0.030  0.4372  0.4142 -0.3158
  248MPD1    H5 3769   1.160   2.552   0.084  0.3685  0.3161 -0.3432
  248MPD1    N1 3770   1.432   2.933   0.141  0.0356 -0.3080  0.2997
  248MPD1    H6 3771   1.463   3.026   0.171 -1.4024  0.2434  0.0611
  248MPD1    H7 3772   1.456   2.860   0.208  0.8971 -0.6040 -0.3288
  249MPD1     C 3773   1.591   0.639   9.703  0.4534  0.6384 -0.3176
  249MPD1    C1 3774   1.523   0.615   9.822 -0.0785  0.0392 -0.1971
  249MPD1    C2 3775   1.597   0.582   9.927 -0.3037 -0.0978 -0.7705
  249MPD1    C3 3776   1.738   0.584   9.927  0.0472  0.3988 -0.5033
  249MPD1    C4 3777   1.801   0.613   9.807  0.1649 -0.2423 -1.2475
  249MPD1    C5 3778   1.726   0.633   9.689  0.3849  0.3483 -0.3269
  249MPD1     H 3779   1.542   0.551  10.015 -1.5851  2.0545 -0.8275
  249MPD1    H1 3780   1.908   0.622   9.799 -0.3543  4.1422 -3.0467
  249MPD1    H2 3781   1.531   0.650   9.614 -2.5293 -0.2748  1.5716
  249MPD1    H3 3782   1.776   0.642   9.593  0.5328 -1.9660 -0.4548
  249MPD1     N 3783   1.808   0.544  10.046 -0.0755  0.1688  0.1240
  249MPD1    H5 3784   1.759   0.503  10.125 -0.7883  3.3496  1.3623
  249MPD1    N1 3785   1.385   0.593   9.820  0.1891  0.1452 -0.3966
  249MPD1    H6 3786   1.346   0.586   9.914  2.7425 -2.0449  0.4845
  249MPD1    H7 3787   1.337   0.661   9.761  2.1839  0.9195 -1.1074
  250MPD2     C 3788   4.365   0.916  12.549 -0.3859 -0.1349 -0.5465
  250MPD2    C1 3789   4.292   0.902  12.666  0.0727  0.1112 -0.3584
  250MPD2    C2 3790   4.266   0.774  12.721 -0.5413 -0.5943 -0.5212
  250MPD2    C3 3791   4.314   0.655  12.652  0.4971  0.7084  0.4048
  250MPD2    C4 3792   4.374   0.678  12.532  0.0990  0.0298  0.4793
  250MPD2    C5 3793   4.399   0.802  12.488 -0.1046  0.2507 -0.8695
  250MPD2     H 3794   4.212   0.761  12.814  0.8503 -1.4192  0.1723
  250MPD2    H1 3795   4.404   0.596  12.468  2.4621  1.1557  0.1223
  250MPD2    H2 3796   4.411   1.011  12.523  1.2506 -0.9508 -0.6320
  250MPD2    H3 3797   4.473   0.816  12.410  1.7478 -1.3251  0.5992
  250MPD2     N 3798   4.283   0.527  12.696 -0.2063 -0.4637  0.2487
  250MPD2    H5 3799   4.318   0.447  12.644 -1.5354 -0.3051 -0.8996
  250MPD2    N1 3800   4.257   1.006  12.755  0.1405  0.5405 -0.1953
  250MPD2    H7 3801   4.216   0.970  12.841 -1.5442  2.2322 -0.2924
  251TMC3    C1 3802   4.233   1.215  12.863  0.1337  0.4599 -0.3125
  251TMC3    C2 3803   4.183   1.341  12.841 -0.2968  0.5315  0.0921
  251TMC3    C3 3804   4.143   1.417  12.948  0.1920  0.3597 -0.4844
  251TMC3    C4 3805   4.270   1.167  12.984  0.1988  0.1332 -1.3085
  251TMC3    C5 3806   4.242   1.252  13.092 -0.8556 -0.2810 -0.1206
  251TMC3    C6 3807   4.161   1.370  13.075 -0.3548  0.0469  0.9325
  251TMC3     C 3808   4.280   1.144  12.743  0.0659  0.4681 -0.3130
  251TMC3     O 3809   4.322   1.208  12.647 -0.5531  0.0210 -0.1143
  251TMC3     H 3810   4.151   1.363  12.739  1.1698 -1.8066 -0.8754
  251TMC3    H1 3811   4.332   1.079  12.995 -1.1861 -0.8967 -1.7136
  251TMC3    H2 3812   4.129   1.428  13.161  0.8870 -1.6125  2.5095
  251TMC3    C7 3813   4.283   1.208  13.226  0.6757  0.1405  0.1920
  251TMC3    C8 3814   4.014   1.490  12.942  0.5717 -0.1260 -0.0022
  251TMC3    O1 3815   4.293   1.091  13.250  0.0537 -0.5357  0.3374
  251TMC3    O2 3816   3.923   1.434  12.885 -0.3440 -0.1277  0.9830
  252TMC3    C1 3817   3.917   2.020   9.390  0.3821  0.3718  0.2417
  252TMC3    C2 3818   4.046   2.074   9.410 -0.3048 -0.0006 -0.3408
  252TMC3    C3 3819   4.146   1.980   9.402 -0.2912 -0.3579 -1.1889
  252TMC3    C4 3820   3.889   1.890   9.377  0.1633  0.0221  0.8070
  252TMC3    C5 3821   3.993   1.801   9.368  0.3933 -0.1702  0.2150
  252TMC3    C6 3822   4.124   1.847   9.380  0.7832 -0.1770 -0.8253
  252TMC3     C 3823   3.805   2.104   9.403  0.2036  0.2576 -0.6234
  252TMC3     O 3824   3.699   2.047   9.428 -0.1037 -0.5333  0.3127
  252TMC3     H 3825   4.064   2.179   9.427 -1.1142  0.0757  0.0800
  252TMC3    H1 3826   3.794   1.851   9.340  1.0012 -0.9728 -0.3155
  252TMC3    H2 3827   4.206   1.777   9.387 -0.0993 -1.2832 -1.7393
  252TMC3    C7 3828   3.975   1.664   9.316  0.3737  0.5011  0.0010
  252TMC3    C8 3829   4.283   2.027   9.396 -0.3931  0.1759 -0.6769
  252TMC3    O1 3830   3.864   1.641   9.268 -0.0217 -0.1381  0.3492
  252TMC3    O2 3831   4.372   1.955   9.340 -0.2951 -0.7640 -0.2866
  253MPD2     C 3832   0.766   0.787  15.077  0.0888  0.2260  0.6114
  253MPD2    C1 3833   0.636   0.743  15.086 -0.2547 -0.0140  0.3748
  253MPD2    C2 3834   0.559   0.790  15.192  0.5706  0.1634 -0.0152
  253MPD2    C3 3835   0.607   0.869  15.290  0.7052  0.0988  0.0357
  253MPD2    C4 3836   0.739   0.912  15.281  1.0922  0.5617 -0.0745
  253MPD2    C5 3837   0.818   0.870  15.173  0.0518  0.2917 -0.5342
  253MPD2     H 3838   0.455   0.761  15.195  0.6001 -0.2601 -2.6627
  253MPD2    H1 3839   0.780   0.975  15.359  2.1279  0.6262 -0.6726
  253MPD2    H2 3840   0.838   0.752  15.004 -0.9149 -0.5934  0.0020
  253MPD2    H3 3841   0.922   0.903  15.177  0.5035 -1.1142 -0.8768
  253MPD2     N 3842   0.529   0.900  15.412 -0.1474 -0.5032 -0.0149
  253MPD2    H5 3843   0.589   0.934  15.487 -0.9060  2.4556 -0.7521
  253MPD2    N1 3844   0.586   0.662  14.988  0.0561 -0.3068  0.6070
  253MPD2    H7 3845   0.494   0.624  15.008  0.5342 -0.8747  1.7103
  254TMC3    C1 3846   0.363   0.912  15.559 -0.2839  0.3489 -0.9689
  254TMC3    C2 3847   0.234   0.952  15.584 -0.4023 -0.8948  0.4397
  254TMC3    C3 3848   0.187   0.938  15.712 -0.0510  0.6840 -0.1769
  254TMC3    C4 3849   0.441   0.868  15.663 -0.4201 -0.2324 -0.2598
  254TMC3    C5 3850   0.387   0.850  15.782 -0.4957 -0.8112 -0.0536
  254TMC3    C6 3851   0.255   0.877  15.814  0.3165 -0.0596 -0.0760
  254TMC3     C 3852   0.395   0.881  15.429  0.8619  0.1522  0.4127
  254TMC3     O 3853   0.309   0.851  15.349  0.5767 -0.3345  0.1809
  254TMC3     H 3854   0.167   0.986  15.506 -0.6654 -2.3434  0.0244
  254TMC3    H1 3855   0.542   0.834  15.641 -0.1711  1.1013 -1.1843
  254TMC3    H2 3856   0.209   0.864  15.911 -0.6072 -1.5715 -0.7130
  254TMC3    C7 3857   0.474   0.818  15.897 -0.1231  0.0112  0.3617
  254TMC3    C8 3858   0.060   0.989  15.751 -0.5696  0.9445 -0.4359
  254TMC3    O1 3859   0.407   0.776  15.992  0.1049  0.4794 -0.0646
  254TMC3    O2 3860   4.710   0.918  15.826  0.0184 -0.1941  0.4133
  255MPD2     C 3861   4.086   3.674  10.240 -0.2912  0.0045 -0.2658
  255MPD2    C1 3862   3.993   3.651  10.141 -0.0780 -0.2512  0.1642
  255MPD2    C2 3863   4.037   3.597  10.025  0.7805 -0.4010 -0.7810
  255MPD2    C3 3864   4.170   3.569  10.001 -0.5013  0.9144  0.8405
  255MPD2    C4 3865   4.263   3.597  10.101 -0.2807 -0.7380 -1.1046
  255MPD2    C5 3866   4.219   3.647  10.213  0.1988  0.5157 -0.1603
  255MPD2     H 3867   3.969   3.570   9.946 -0.3428 -4.1008  1.4461
  255MPD2    H1 3868   4.370   3.586  10.092 -0.3183 -3.1462  1.4609
  255MPD2    H2 3869   4.062   3.705  10.341 -0.1454  0.6813 -0.4409
  255MPD2    H3 3870   4.289   3.663  10.295 -1.5400 -1.7163  1.7810
  255MPD2     N 3871   4.205   3.515   9.877 -0.4067 -0.0432  0.6713
  255MPD2    H5 3872   4.132   3.507   9.808  1.3626 -0.1277 -1.1864
  255MPD2    N1 3873   3.865   3.685  10.172  0.2650 -0.3592 -0.2801
  255MPD2    H7 3874   3.847   3.709  10.269  0.0357 -0.0985 -0.3835
  256TMC3    C1 3875   3.630   3.735  10.134 -0.3482  0.2471  0.1645
  256TMC3    C2 3876   3.645   3.854  10.192 -0.1930  0.0324  0.4362
  256TMC3    C3 3877   3.533   3.920  10.223 -0.6427  0.6504 -0.1185
  256TMC3    C4 3878   3.517   3.685  10.089 -0.0520 -0.3198 -0.3724
  256TMC3    C5 3879   3.409   3.761  10.110 -0.1589 -0.4981  0.2705
  256TMC3    C6 3880   3.410   3.877  10.175  0.0907  0.0398  0.2137
  256TMC3     C 3881   3.758   3.677  10.082  0.3762 -0.0765 -0.2888
  256TMC3     O 3882   3.743   3.630   9.970 -0.0558  0.7019 -0.3181
  256TMC3     H 3883   3.741   3.898  10.216 -0.1636  0.2508 -0.0825
  256TMC3    H1 3884   3.508   3.597  10.026 -0.2812 -0.3466 -0.3006
  256TMC3    H2 3885   3.325   3.942  10.188 -0.4632 -1.1827  2.5889
  256TMC3    C7 3886   3.290   3.717  10.036  0.2646  0.2641 -0.2870
  256TMC3    C8 3887   3.540   4.061  10.241  0.2613  0.1526 -0.2064
  256TMC3    O1 3888   3.313   3.668   9.928  0.4034 -0.0750  0.7836
  256TMC3    O2 3889   3.466   4.120  10.321  0.4559  0.1477  0.1363
  257MPD2     C 3890   2.794   0.034  12.297 -0.6051 -0.1213  0.3663
  257MPD2    C1 3891   2.811   0.155  12.364 -0.8804 -0.2460  0.1564
  257MPD2    C2 3892   2.885   0.159  12.482 -0.2480 -0.7019  0.5042
  257MPD2    C3 3893   2.936   0.041  12.540  0.2150  0.2776  1.3640
  257MPD2    C4 3894   2.917   4.645  12.472 -0.3055 -0.6195  0.2119
  257MPD2    C5 3895   2.844   4.642  12.355  0.2003  0.0456 -0.0620
  257MPD2     H 3896   2.911   0.248  12.539  3.1635 -2.0178  0.9984
  257MPD2    H1 3897   2.944   4.548  12.511  0.1074 -0.7181 -0.3327
  257MPD2    H2 3898   2.736   0.024  12.206 -0.3816  1.1132  0.0927
  257MPD2    H3 3899   2.824   4.545  12.311 -0.0020 -1.5302  3.4763
  257MPD2     N 3900   3.008   0.048  12.661 -0.8430 -0.6245  0.3721
  257MPD2    H5 3901   3.002   0.127  12.724 -0.1836 -0.7156  0.5500
  257MPD2    N1 3902   2.765   0.281  12.320  0.1845  0.1886 -0.1401
  257MPD2    H7 3903   2.783   0.362  12.380 -0.3985 -1.3631  2.1152
  258TMC3    C1 3904   3.160   4.720  12.822 -0.1026  0.1227 -0.0524
  258TMC3    C2 3905   3.195   0.132  12.835 -0.4199  0.0531  0.1295
  258TMC3    C3 3906   3.276   0.149  12.947  0.0767 -0.4409 -0.5102
  258TMC3    C4 3907   3.195   4.617  12.899 -0.8490 -0.3057  1.0113
  258TMC3    C5 3908   3.273   4.649  13.008  0.1024  0.0688 -0.5247
  258TMC3    C6 3909   3.308   0.057  13.039  0.0030 -0.0826  0.1637
  258TMC3     C 3910   3.100   4.677  12.700  0.1882  0.3425 -0.1092
  258TMC3     O 3911   3.131   4.573  12.647 -0.5911  0.0189  1.0059
  258TMC3     H 3912   3.179   0.215  12.767 -1.4282 -1.4335 -1.4241
  258TMC3    H1 3913   3.164   4.517  12.870 -0.3258 -0.4718  1.0171
  258TMC3    H2 3914   3.366   0.091  13.124 -1.2206  0.4537  0.7874
  258TMC3    C7 3915   3.293   4.540  13.097 -0.6564 -0.4077  0.5617
  258TMC3    C8 3916   3.285   0.288  12.979 -0.8998 -0.7683  0.1911
  258TMC3    O1 3917   3.251   4.430  13.060 -0.5801 -0.4360  0.3687
  258TMC3    O2 3918   3.188   0.358  12.949  0.2208 -0.2407 -0.0033
  259MPD2     C 3919   2.240   3.049   1.169  0.4248  0.9271  0.4335
  259MPD2    C1 3920   2.157   2.948   1.132 -0.3042  0.6437  0.9845
  259MPD2    C2 3921   2.195   2.854   1.033  0.9221 -0.3524 -0.2706
  259MPD2    C3 3922   2.319   2.869   0.980  0.3435 -0.0799 -0.0373
  259MPD2    C4 3923   2.402   2.974   1.012 -0.2908 -0.2420  0.7163
  259MPD2    C5 3924   2.356   3.063   1.105 -0.1307 -0.0406  0.0471
  259MPD2     H 3925   2.136   2.769   1.002  0.7499  0.5360 -2.3738
  259MPD2    H1 3926   2.506   2.983   0.981 -0.0698  1.6566  1.9969
  259MPD2    H2 3927   2.208   3.117   1.247 -0.9844  0.5882  0.1544
  259MPD2    H3 3928   2.431   3.133   1.140 -0.9312  1.0455 -0.4037
  259MPD2     N 3929   2.369   2.767   0.888 -0.2524 -0.5540  0.3985
  259MPD2    H5 3930   2.321   2.678   0.881  0.0257 -0.7579  1.0263
  259MPD2    N1 3931   2.035   2.938   1.201  0.4363  0.1850  0.4731
  259MPD2    H7 3932   2.016   3.014   1.265  1.2727  1.0749 -0.3515
  260TMC3    C1 3933   2.517   2.654   0.746  0.3405 -0.0206 -0.6755
  260TMC3    C2 3934   2.626   2.652   0.667  0.2829  0.4694 -0.3453
  260TMC3    C3 3935   2.661   2.539   0.608 -0.6236  0.2791 -0.2278
  260TMC3    C4 3936   2.443   2.541   0.758  0.1821 -0.0248 -0.2016
  260TMC3    C5 3937   2.474   2.429   0.694 -0.1299  0.3821 -0.1445
  260TMC3    C6 3938   2.591   2.423   0.617 -0.1773 -0.2369  0.4413
  260TMC3     C 3939   2.480   2.779   0.815  0.6123 -0.0751  0.2024
  260TMC3     O 3940   2.557   2.872   0.804 -0.5671 -0.4547  0.9490
  260TMC3     H 3941   2.698   2.732   0.659  0.9291 -0.0207  0.6865
  260TMC3    H1 3942   2.364   2.531   0.831 -0.1435  0.9462 -0.4296
  260TMC3    H2 3943   2.612   2.334   0.559 -0.2592 -0.0728  0.1612
  260TMC3    C7 3944   2.392   2.310   0.688  0.4445 -0.4567  0.8231
  260TMC3    C8 3945   2.777   2.551   0.520 -0.0840  1.0602 -0.6583
  260TMC3    O1 3946   2.436   2.202   0.649 -0.2222  0.5912 -0.0176
  260TMC3    O2 3947   2.795   2.662   0.468 -0.1382  0.1534  0.2614
  261MPD2     C 3948   3.576   0.435  12.744 -0.2570 -0.3082 -0.4764
  261MPD2    C1 3949   3.673   0.407  12.658  0.0007 -0.1615  0.5538
  261MPD2    C2 3950   3.660   0.433  12.525  0.3372 -0.3010 -0.4131
  261MPD2    C3 3951   3.545   0.492  12.481  0.0209 -0.2220  0.2576
  261MPD2    C4 3952   3.441   0.499  12.573  0.1180  0.5567  0.1245
  261MPD2    C5 3953   3.455   0.483  12.706  0.5496  0.1868 -0.0933
  261MPD2     H 3954   3.748   0.422  12.463  0.4415  0.0992 -0.3421
  261MPD2    H1 3955   3.339   0.532  12.557  0.7501  3.4608  1.9893
  261MPD2    H2 3956   3.585   0.423  12.852 -0.6518 -0.7444 -0.4894
  261MPD2    H3 3957   3.383   0.518  12.779  1.0600  0.0795  0.4607
  261MPD2     N 3958   3.547   0.542  12.350 -0.3594 -0.2263 -0.0883
  261MPD2    H5 3959   3.636   0.527  12.305 -0.4748 -0.0970 -0.3586
  261MPD2    N1 3960   3.798   0.351  12.700  0.0544 -0.2977  0.4645
  261MPD2    H7 3961   3.867   0.341  12.627 -0.1806  0.7158  0.1150
  262TMC3    C1 3962   3.469   0.695  12.175  0.2858 -0.4190  0.3573
  262TMC3    C2 3963   3.413   0.825  12.170  0.3141  0.1306 -0.7075
  262TMC3    C3 3964   3.452   0.906  12.071  0.1794 -0.6674 -0.0308
  262TMC3    C4 3965   3.564   0.658  12.083 -0.1611 -0.1449  0.3917
  262TMC3    C5 3966   3.611   0.750  11.987 -0.5744 -0.0622  0.1390
  262TMC3    C6 3967   3.544   0.871  11.975  1.2738 -0.6717  0.7053
  262TMC3     C 3968   3.441   0.617  12.299  0.3347  0.2480 -0.4815
  262TMC3     O 3969   3.354   0.668  12.367  0.0606  0.1394  0.5263
  262TMC3     H 3970   3.330   0.853  12.233  0.0929 -0.7590 -0.5934
  262TMC3    H1 3971   3.615   0.563  12.085  2.1280  1.1376  3.1539
  262TMC3    H2 3972   3.561   0.944  11.897 -2.7173  1.8099  2.1373
  262TMC3    C7 3973   3.712   0.708  11.884 -0.4945  0.4350  0.4165
  262TMC3    C8 3974   3.388   1.034  12.059 -0.2208  0.0090 -0.1521
  262TMC3    O1 3975   3.740   0.596  11.867  0.0292 -0.5527 -0.8932
  262TMC3    O2 3976   3.458   1.123  12.013 -0.0538 -0.1147  0.2474
  263MPD2     C 3977   4.465   0.034  11.702  0.2434  0.0081  0.2325
  263MPD2    C1 3978   4.551   4.706  11.607 -0.8018 -0.3652  0.6141
  263MPD2    C2 3979   4.548   0.047  11.480  0.2970  0.1560  0.2508
  263MPD2    C3 3980   4.462   0.155  11.449  0.0662  0.0599 -0.6424
  263MPD2    C4 3981   4.369   0.188  11.546  0.2323 -0.2896 -0.7069
  263MPD2    C5 3982   4.368   0.127  11.673 -0.0331  0.4484 -0.2549
  263MPD2     H 3983   4.621   0.016  11.406  0.7230  1.4198  0.1490
  263MPD2    H1 3984   4.300   0.269  11.528 -1.2292 -1.2951  0.3904
  263MPD2    H2 3985   4.463   0.001  11.806 -1.3114  2.9322  1.1276
  263MPD2    H3 3986   4.304   0.167  11.751  1.1296  0.8398  0.5156
  263MPD2     N 3987   4.467   0.227  11.326  0.2620  0.6658  0.2585
  263MPD2    H5 3988   4.407   0.309  11.316 -1.0786 -0.3812 -0.2959
  263MPD2    N1 3989   4.648   4.607  11.638 -0.4867 -0.5546 -0.3207
  263MPD2    H7 3990   4.655   4.591  11.738 -1.0548 -0.5143 -0.2739
  264TMC3    C1 3991   4.555   0.286  11.125  0.0455  0.3842  0.0628
  264TMC3    C2 3992   4.510   0.414  11.150  0.0113 -0.3216  0.4020
  264TMC3    C3 3993   4.482   0.491  11.047  0.5073  0.0251 -0.2647
  264TMC3    C4 3994   4.590   0.254  10.999  1.0721 -0.0799 -0.5324
  264TMC3    C5 3995   4.562   0.339  10.896 -0.1303 -0.1684  0.1551
  264TMC3    C6 3996   4.498   0.455  10.916  0.2654 -0.1979 -0.1535
  264TMC3     C 3997   4.552   0.190  11.227  0.3519 -0.2751 -0.1372
  264TMC3     O 3998   4.608   0.085  11.212 -0.1946 -0.1615  0.0860
  264TMC3     H 3999   4.512   0.451  11.252 -2.1452  0.5376  0.1120
  264TMC3    H1 4000   4.637   0.158  10.980 -0.4303 -0.9689  0.2780
  264TMC3    H2 4001   4.488   0.529  10.838 -1.1339 -0.8677 -0.5957
  264TMC3    C7 4002   4.650   0.347  10.780  0.2341 -0.3515  0.0388
  264TMC3    C8 4003   4.488   0.632  11.076 -0.1374 -0.2020  0.3242
  264TMC3    O1 4004   4.654   0.443  10.703  0.1706  0.1162  0.3161
  264TMC3    O2 4005   4.524   0.704  10.982 -0.2689 -0.3634 -0.2160
  265MPD2     C 4006   1.852   0.343  15.498 -0.0157  0.3331  0.3914
  265MPD2    C1 4007   1.930   0.431  15.428  0.0033 -0.1386 -0.0737
  265MPD2    C2 4008   1.998   0.391  15.322  0.0935 -0.0566  0.0228
  265MPD2    C3 4009   2.005   0.261  15.285 -0.5740 -0.7591  0.4753
  265MPD2    C4 4010   1.917   0.173  15.351 -0.1223 -0.1265  0.6417
  265MPD2    C5 4011   1.846   0.216  15.460 -0.6235 -0.6744  0.6265
  265MPD2     H 4012   2.058   0.468  15.274 -0.0502  0.6170  0.9117
  265MPD2    H1 4013   1.921   0.068  15.328  0.3051 -0.4725  2.2748
  265MPD2    H2 4014   1.793   0.369  15.585 -1.0037  0.6236 -0.3645
  265MPD2    H3 4015   1.785   0.148  15.517 -2.3115  0.1470 -0.1903
  265MPD2     N 4016   2.089   0.216  15.178 -0.6465 -0.8204 -0.2030
  265MPD2    H5 4017   2.060   0.125  15.143  0.7694 -1.0193 -0.8502
  265MPD2    N1 4018   1.925   0.568  15.471 -0.0155  0.2502  0.0692
  265MPD2    H7 4019   1.931   0.642  15.402  2.4650 -0.4846 -0.5126
  266TMC3    C1 4020   1.885   0.732  15.614 -0.2391 -0.0770 -0.1471
  266TMC3    C2 4021   1.928   0.782  15.735 -0.5272 -0.2297 -0.0774
  266TMC3    C3 4022   1.862   0.883  15.799 -0.5051  0.0533 -0.0229
  266TMC3    C4 4023   1.775   0.790  15.557 -0.2543  0.9167 -0.2846
  266TMC3    C5 4024   1.719   0.908  15.609  1.1714  0.5838  0.4233
  266TMC3    C6 4025   1.761   0.955  15.735  0.2456 -0.8429 -0.0094
  266TMC3     C 4026   1.912   0.595  15.598  0.1885  0.4359  0.1249
  266TMC3     O 4027   1.938   0.532  15.697  0.1951  0.5638  0.2583
  266TMC3     H 4028   2.017   0.740  15.780  0.1157  0.8073 -0.4010
  266TMC3    H1 4029   1.736   0.758  15.461 -0.1818  2.5421 -0.8597
  266TMC3    H2 4030   1.705   1.031  15.789  0.4813  0.3547 -1.4582
  266TMC3    C7 4031   1.581   0.927  15.572 -0.5154  0.4090  0.3374
  266TMC3    C8 4032   1.897   0.908  15.938 -0.1075 -1.0773  0.1599
  266TMC3    O1 4033   1.516   0.825  15.579 -0.2318  0.2728  0.1479
  266TMC3    O2 4034   1.962   0.818  15.988  0.4578  0.0557  0.5423
  267MPD2     C 4035   3.803   2.108  17.298 -0.1374  0.1286 -0.2872
  267MPD2    C1 4036   3.897   2.177  17.226 -0.5741 -0.1197 -0.2524
  267MPD2    C2 4037   3.917   2.148  17.090  0.6380  0.4281  0.3688
  267MPD2    C3 4038   3.841   2.051  17.026  0.0691  0.6204 -0.3416
  267MPD2    C4 4039   3.754   1.982  17.099  0.3311 -0.3181 -0.4313
  267MPD2    C5 4040   3.736   2.008  17.227 -0.2080 -0.1538  0.0549
  267MPD2     H 4041   3.994   2.199  17.033  1.1975  0.0928  0.8241
  267MPD2    H1 4042   3.704   1.893  17.063  1.4232 -1.5373  1.0576
  267MPD2    H2 4043   3.786   2.121  17.404  0.5939 -1.6101  0.0472
  267MPD2    H3 4044   3.662   1.944  17.273  0.0994 -0.5235  0.0315
  267MPD2     N 4045   3.860   2.014  16.885 -0.5677  0.0750  0.4357
  267MPD2    H5 4046   3.777   1.970  16.846  0.4378  0.4083 -2.0831
  267MPD2    N1 4047   3.990   2.257  17.296  0.6377 -0.3939  0.2053
  267MPD2    H7 4048   3.968   2.272  17.394  2.6981  0.7288  0.4953
  268TMC3    C1 4049   4.197   2.358  17.324  0.0898  0.7647  0.7187
  268TMC3    C2 4050   4.295   2.441  17.272 -0.3784 -0.5051 -0.6817
  268TMC3    C3 4051   4.411   2.454  17.350  1.1671  0.4185  0.5646
  268TMC3    C4 4052   4.218   2.285  17.437 -0.5781 -0.1594 -0.0945
  268TMC3    C5 4053   4.344   2.296  17.499 -0.0639  0.5591  0.0818
  268TMC3    C6 4054   4.443   2.371  17.455 -0.0976  0.1511 -0.1043
  268TMC3     C 4055   4.088   2.333  17.235 -1.0986 -0.4405 -0.0885
  268TMC3     O 4056   4.088   2.386  17.125 -0.2927 -0.0951 -0.2372
  268TMC3     H 4057   4.286   2.506  17.186  2.3627  1.4978  0.5407
  268TMC3    H1 4058   4.151   2.212  17.481 -0.7416  0.6901  1.0625
  268TMC3    H2 4059   4.534   2.382  17.513 -0.2689 -0.3540  0.2642
  268TMC3    C7 4060   4.376   2.180  17.586 -0.2053  0.2311 -0.0614
  268TMC3    C8 4061   4.519   2.543  17.308  0.0360 -0.2959 -0.3443
  268TMC3    O1 4062   4.281   2.136  17.650 -0.2877 -0.0579 -0.2279
  268TMC3    O2 4063   4.576   2.600  17.399  0.6363 -0.2538 -0.1532
  269MPD2     C 4064   4.635   1.524  14.951  0.0141 -0.3426  0.2573
  269MPD2    C1 4065   4.568   1.558  15.070  0.1817  0.2524  0.5522
  269MPD2    C2 4066   4.538   1.689  15.088  0.1885  0.9615  0.2935
  269MPD2    C3 4067   4.562   1.786  14.997  0.1678 -0.1457 -0.0767
  269MPD2    C4 4068   4.635   1.758  14.889  0.3234  0.0596 -0.0709
  269MPD2    C5 4069   4.656   1.629  14.866  0.6400 -0.6032 -0.1746
  269MPD2     H 4070   4.481   1.701  15.179 -3.0519 -2.7343 -1.2282
  269MPD2    H1 4071   4.660   1.825  14.808  2.4834 -1.1690 -0.4243
  269MPD2    H2 4072   4.673   1.429  14.917 -1.0765  0.0090 -1.9247
  269MPD2    H3 4073   4.699   1.607  14.769  0.6727  1.0487 -0.5249
  269MPD2     N 4074   4.515   1.917  15.026 -0.4416  0.3614 -0.2177
  269MPD2    H5 4075   4.441   1.929  15.094 -0.1031 -0.3207  0.2693
  269MPD2    N1 4076   4.535   1.452  15.159  1.1489  0.2407 -0.7876
  269MPD2    H7 4077   4.585   1.366  15.142  0.5087 -0.5319  1.2509
  270TMC3    C1 4078   4.394   1.299  15.258  0.1590  0.1064 -0.2000
  270TMC3    C2 4079   4.261   1.271  15.281 -0.6042  0.1567 -0.1499
  270TMC3    C3 4080   4.222   1.164  15.356  0.0273  0.4721  0.3299
  270TMC3    C4 4081   4.487   1.213  15.306  0.3736  0.0761 -0.1850
  270TMC3    C5 4082   4.441   1.105  15.366 -0.6935 -0.9827 -0.4879
  270TMC3    C6 4083   4.314   1.081  15.406  0.3203 -0.6888 -0.4067
  270TMC3     C 4084   4.419   1.438  15.223 -0.2144 -0.1302 -0.1677
  270TMC3     O 4085   4.330   1.520  15.237  0.2743  0.0851 -0.2856
  270TMC3     H 4086   4.182   1.325  15.229 -1.1988 -2.4864 -2.0327
  270TMC3    H1 4087   4.592   1.230  15.287 -0.0146  2.6331  0.0402
  270TMC3    H2 4088   4.293   0.987  15.456  0.1966 -0.3121  0.2444
  270TMC3    C7 4089   4.549   1.011  15.395  0.4233 -0.0403 -0.2739
  270TMC3    C8 4090   4.089   1.106  15.324 -0.0030  0.3910  0.1539
  270TMC3    O1 4091   4.648   1.000  15.323  0.1859 -0.4422 -0.1068
  270TMC3    O2 4092   3.993   1.183  15.316  0.4843  0.4832 -0.3063
  271MPD2     C 4093   3.127   0.359  13.894  0.0691 -0.5216 -0.5287
  271MPD2    C1 4094   3.233   0.449  13.865 -0.0081  0.3625  0.1533
  271MPD2    C2 4095   3.203   0.567  13.796  0.3208  0.5104 -1.0808
  271MPD2    C3 4096   3.071   0.590  13.763 -0.6448 -0.1464 -0.0464
  271MPD2    C4 4097   2.977   0.488  13.770 -0.0985  0.8279  0.2025
  271MPD2    C5 4098   2.999   0.376  13.840 -0.3340 -0.3368 -0.0044
  271MPD2     H 4099   3.278   0.643  13.773 -0.6753  2.4603  2.2145
  271MPD2    H1 4100   2.875   0.506  13.738  0.4578  0.4219 -1.7820
  271MPD2    H2 4101   3.140   0.261  13.937 -0.5904  0.1233  1.1182
  271MPD2    H3 4102   2.917   0.309  13.865 -0.1054  0.2510  2.3448
  271MPD2     N 4103   3.011   0.713  13.730  0.4377  0.5265  0.3167
  271MPD2    H5 4104   2.910   0.715  13.715 -0.0864 -1.3518  3.7530
  271MPD2    N1 4105   3.375   0.415  13.883 -0.0373  0.5985 -0.5509
  271MPD2    H7 4106   3.441   0.483  13.847  0.6618  0.5942  0.7364
  272TMC3    C1 4107   3.543   0.348  14.018 -0.4801  0.4950  0.2422
  272TMC3    C2 4108   3.636   0.250  14.040  0.3490  0.2580  0.7935
  272TMC3    C3 4109   3.738   0.281  14.120 -0.5679 -0.0386 -0.0448
  272TMC3    C4 4110   3.554   0.482  14.061  0.6329  0.2174  0.5137
  272TMC3    C5 4111   3.656   0.509  14.145 -0.5099  0.2753  1.1430
  272TMC3    C6 4112   3.752   0.413  14.169  0.2249  0.7991 -0.2816
  272TMC3     C 4113   3.418   0.309  13.957  0.2733 -0.6685 -0.6325
  272TMC3     O 4114   3.366   0.214  14.016  0.3879  0.4742 -0.1929
  272TMC3     H 4115   3.637   0.159  13.982  2.0809  2.9039 -3.2927
  272TMC3    H1 4116   3.487   0.564  14.039 -1.0342 -0.8816  1.5229
  272TMC3    H2 4117   3.848   0.447  14.205  2.0590 -1.3271 -3.0720
  272TMC3    C7 4118   3.697   0.646  14.163 -0.7639  0.3530  0.1416
  272TMC3    C8 4119   3.845   0.188  14.122  0.9129 -0.5513 -1.0468
  272TMC3    O1 4120   3.649   0.725  14.084  0.2485  0.0392  0.4298
  272TMC3    O2 4121   3.854   0.117  14.023  0.2998  0.5040 -0.7715
  273MPD2     C 4122   0.690   3.487  11.245 -0.6301  0.1466  0.0995
  273MPD2    C1 4123   0.719   3.603  11.311 -0.2753 -0.5477 -0.0054
  273MPD2    C2 4124   0.744   3.719  11.235 -0.5605 -0.1053  0.0051
  273MPD2    C3 4125   0.744   3.712  11.101 -0.1745 -0.8395  0.1856
  273MPD2    C4 4126   0.736   3.590  11.037 -0.4216 -0.2028 -0.6280
  273MPD2    C5 4127   0.707   3.478  11.107 -0.2911 -0.1393  0.1272
  273MPD2     H 4128   0.764   3.815  11.283 -0.0676 -0.2234  0.0412
  273MPD2    H1 4129   0.743   3.586  10.929  3.1551 -0.3506 -0.4086
  273MPD2    H2 4130   0.654   3.397  11.293 -0.8138 -0.7752 -1.7831
  273MPD2    H3 4131   0.694   3.382  11.058  1.3216 -0.1630 -0.2327
  273MPD2     N 4132   0.770   3.823  11.009 -0.5674  0.0385  0.0264
  273MPD2    H5 4133   0.775   3.803  10.910  0.5504  1.2201 -0.1485
  273MPD2    N1 4134   0.711   3.610  11.452 -0.0380  0.1995  1.2464
  273MPD2    H7 4135   0.692   3.528  11.509 -0.4539 -0.6320 -0.1017
  274TMC3    C1 4136   0.817   4.046  10.934  0.4348  0.3772  0.0395
  274TMC3    C2 4137   0.718   4.035  10.832 -0.2919  0.9149 -0.5934
  274TMC3    C3 4138   0.644   4.144  10.800  0.2583 -0.3519 -0.2029
  274TMC3    C4 4139   0.845   4.168  10.990  0.0130  0.0449 -0.1544
  274TMC3    C5 4140   0.770   4.277  10.952 -0.1015  0.8067 -0.4060
  274TMC3    C6 4141   0.672   4.270  10.849  0.0053  0.0366 -0.0339
  274TMC3     C 4142   0.798   3.956  11.047 -0.9418  0.1056 -0.4785
  274TMC3     O 4143   0.797   3.990  11.162  0.3794 -1.0188  0.2008
  274TMC3     H 4144   0.702   3.941  10.781  1.2656  1.2757 -1.7564
  274TMC3    H1 4145   0.913   4.174  11.074 -0.6637 -1.1204  0.4913
  274TMC3    H2 4146   0.600   4.349  10.830  0.2736 -0.2991 -2.4678
  274TMC3    C7 4147   0.744   4.390  11.043 -0.4880  0.4977  0.1673
  274TMC3    C8 4148   0.564   4.129  10.677  0.2316  0.2779 -0.5754
  274TMC3    O1 4149   0.626   4.421  11.056 -0.4951 -0.0520  0.3720
  274TMC3    O2 4150   0.540   4.017  10.639  0.2135 -0.0641 -0.6913
  275MPD2     C 4151   0.294   1.765  14.214 -0.2979 -0.1826  0.0076
  275MPD2    C1 4152   0.276   1.657  14.292 -0.2569 -0.1542  0.0597
  275MPD2    C2 4153   0.166   1.573  14.281  0.1849 -0.0776 -0.4922
  275MPD2    C3 4154   0.065   1.597  14.191  0.6522  0.1319  0.1222
  275MPD2    C4 4155   0.079   1.721  14.123 -0.9051 -0.4566  0.8967
  275MPD2    C5 4156   0.192   1.798  14.128  0.8357 -0.0125  0.1026
  275MPD2     H 4157   0.156   1.490  14.349 -0.8047 -1.7558 -2.6908
  275MPD2    H1 4158   0.008   1.752  14.048 -0.7873  2.0171  1.8006
  275MPD2    H2 4159   0.370   1.838  14.239  1.0321 -1.1601 -1.2084
  275MPD2    H3 4160   0.196   1.885  14.063  0.5889  1.8701  2.6106
  275MPD2     N 4161   4.666   1.521  14.164 -0.2522 -0.0822 -0.8411
  275MPD2    H5 4162   4.603   1.556  14.093  1.6406  2.0877 -1.4883
  275MPD2    N1 4163   0.370   1.611  14.384  0.1586 -0.3955  0.3309
  275MPD2    H7 4164   0.349   1.523  14.431 -1.3959 -1.3968 -2.2506
  276TMC3    C1 4165   0.571   1.579  14.506 -0.3699 -0.3474  0.0532
  276TMC3    C2 4166   0.546   1.440  14.489 -0.1236  0.0211  0.2580
  276TMC3    C3 4167   0.618   1.356  14.565 -0.4423 -0.1869 -0.1083
  276TMC3    C4 4168   0.653   1.630  14.611  0.4312 -0.1911 -0.3538
  276TMC3    C5 4169   0.730   1.534  14.677  0.0774 -0.1357  0.2826
  276TMC3    C6 4170   0.713   1.397  14.658  0.3317 -0.8995  0.1954
  276TMC3     C 4171   0.493   1.668  14.420 -0.4663 -0.1984  0.3769
  276TMC3     O 4172   0.528   1.785  14.421 -0.2833 -0.1438  0.2709
  276TMC3     H 4173   0.510   1.412  14.391 -4.5315  1.6076  1.4330
  276TMC3    H1 4174   0.668   1.736  14.628  0.0032 -0.2424  0.3475
  276TMC3    H2 4175   0.765   1.321  14.715  1.1937 -0.9660 -0.6906
  276TMC3    C7 4176   0.809   1.580  14.800  0.0593 -0.7821  0.4634
  276TMC3    C8 4177   0.547   1.230  14.586  0.3616 -0.3625  0.4989
  276TMC3    O1 4178   0.786   1.695  14.834  0.1177  0.2040  0.0752
  276TMC3    O2 4179   0.602   1.154  14.669  0.0435  0.2487 -0.0632
  277MPD2     C 4180   2.305   0.869  13.657 -0.3366 -0.4782  0.0653
  277MPD2    C1 4181   2.170   0.857  13.676 -0.7516  0.1325  0.2837
  277MPD2    C2 4182   2.120   0.802  13.788 -0.1034 -0.6199 -0.2414
  277MPD2    C3 4183   2.206   0.753  13.884  0.1084  0.5926  0.3940
  277MPD2    C4 4184   2.344   0.760  13.859 -0.2949 -0.3926 -0.6538
  277MPD2    C5 4185   2.388   0.822  13.750  0.2868  0.0276  0.3945
  277MPD2     H 4186   2.014   0.789  13.806  0.0092 -0.1860  0.7135
  277MPD2    H1 4187   2.416   0.706  13.919 -0.4492 -1.5829 -1.5488
  277MPD2    H2 4188   2.342   0.920  13.569 -0.8989  0.3317  0.2931
  277MPD2    H3 4189   2.496   0.829  13.748  0.0416  3.1784 -1.7250
  277MPD2     N 4190   2.141   0.700  13.999  0.3875 -0.3366  0.1554
  277MPD2    H5 4191   2.041   0.711  14.008  0.2929 -0.9641 -0.1602
  277MPD2    N1 4192   2.088   0.898  13.571  0.5838 -0.1235 -0.1493
  277MPD2    H7 4193   2.131   0.918  13.481  0.2394  0.7624 -0.1101
  278TMC3    C1 4194   2.095   0.568  14.175 -0.1966 -0.3226  0.4858
  278TMC3    C2 4195   2.077   0.437  14.147  0.4317 -0.0534 -0.2385
  278TMC3    C3 4196   1.947   0.398  14.127 -0.4168 -0.0643 -1.1224
  278TMC3    C4 4197   1.988   0.657  14.180 -0.1590  0.1303 -1.1129
  278TMC3    C5 4198   1.857   0.608  14.160  0.0355  0.3800 -0.7348
  278TMC3    C6 4199   1.833   0.482  14.133  0.7141  0.1918 -0.0247
  278TMC3     C 4200   2.203   0.623  14.100  0.2068 -0.2131 -0.0360
  278TMC3     O 4201   2.298   0.549  14.089  0.8072  0.2260  0.2356
  278TMC3     H 4202   2.157   0.367  14.126  1.1798  1.1976 -1.5693
  278TMC3    H1 4203   2.010   0.760  14.206  0.4375 -0.1097 -0.6652
  278TMC3    H2 4204   1.739   0.441  14.095  1.5844 -1.0798 -0.8086
  278TMC3    C7 4205   1.794   0.696  14.071  0.9316 -0.6960 -0.7825
  278TMC3    C8 4206   1.938   0.266  14.089  0.3451 -0.3021 -0.1956
  278TMC3    O1 4207   1.864   0.778  14.016  0.2049 -0.3038  0.4665
  278TMC3    O2 4208   2.031   0.196  14.124  0.2833 -0.5899  0.6630
  279MPD2     C 4209   1.476   1.261   0.371 -0.0309  0.1537  0.1821
  279MPD2    C1 4210   1.353   1.265   0.317  0.1307  0.8507  0.2678
  279MPD2    C2 4211   1.350   1.279   0.180  0.5110 -0.3799 -0.9564
  279MPD2    C3 4212   1.459   1.282   0.100 -0.8507  0.3941 -0.4893
  279MPD2    C4 4213   1.579   1.281   0.162  0.1286 -0.2371  0.2534
  279MPD2    C5 4214   1.589   1.270   0.295 -0.4219 -0.0166 -0.7540
  279MPD2     H 4215   1.249   1.272   0.139  0.0922 -1.4263  0.2569
  279MPD2    H1 4216   1.668   1.299   0.101  0.9755 -0.8711  1.3110
  279MPD2    H2 4217   1.488   1.268   0.479 -0.7853 -1.2257  0.3624
  279MPD2    H3 4218   1.681   1.254   0.350 -0.0912  0.5901 -1.1324
  279MPD2     N 4219   1.456   1.287  17.642  0.1674 -0.3589 -0.1411
  279MPD2    H5 4220   1.543   1.295  17.591  0.3695 -0.6585  0.1552
  279MPD2    N1 4221   1.235   1.284   0.394 -0.9269  0.4932 -0.7400
  279MPD2    H7 4222   1.159   1.332   0.348 -2.0810 -1.0617 -0.4717
  280TMC3    C1 4223   1.077   1.310   0.549 -0.0859  0.0215 -0.0533
  280TMC3    C2 4224   0.985   1.210   0.553  0.7536 -0.2860 -0.4976
  280TMC3    C3 4225   0.872   1.221   0.477  0.4398 -0.9892 -0.1184
  280TMC3    C4 4226   1.044   1.429   0.491  0.0668 -0.0042  0.0375
  280TMC3    C5 4227   0.921   1.435   0.424 -0.0878  0.1380 -0.9088
  280TMC3    C6 4228   0.830   1.329   0.412 -0.2016 -0.2400  1.0181
  280TMC3     C 4229   1.213   1.266   0.527  0.2773  0.2460  0.0000
  280TMC3     O 4230   1.275   1.200   0.608 -0.5978  0.5466 -0.0786
  280TMC3     H 4231   1.012   1.117   0.601  0.7435 -0.4035 -0.7212
  280TMC3    H1 4232   1.114   1.511   0.494 -0.6043  0.6018 -0.8957
  280TMC3    H2 4233   0.730   1.334   0.370 -0.6386  0.6248  2.1477
  280TMC3    C7 4234   0.902   1.558   0.353 -0.1782  0.4086 -0.2062
  280TMC3    C8 4235   0.792   1.101   0.430 -0.6531  0.0678  0.4888
  280TMC3    O1 4236   0.984   1.647   0.383  0.5438 -0.4090  0.2862
  280TMC3    O2 4237   0.754   1.116   0.316 -0.1533  0.6022 -0.0260
  281TMC3    C1 4238   4.164   0.865  13.492 -0.2024  0.0819 -0.3816
  281TMC3    C2 4239   4.229   0.953  13.575 -0.2362  0.4865 -0.0045
  281TMC3    C3 4240   4.363   0.932  13.596  0.1130 -0.4732  0.5080
  281TMC3    C4 4241   4.229   0.750  13.448  0.9053  0.3161  0.4767
  281TMC3    C5 4242   4.365   0.747  13.466 -0.0129  0.2995  0.1118
  281TMC3    C6 4243   4.435   0.829  13.548  0.5880  0.2932 -0.5708
  281TMC3     C 4244   4.034   0.907  13.444  0.2663  0.2696 -0.3109
  281TMC3     O 4245   3.961   0.812  13.419  0.3983 -0.6100 -0.4384
  281TMC3     H 4246   4.183   1.035  13.629 -0.4816 -0.5771  1.3939
  281TMC3    H1 4247   4.175   0.704  13.366 -0.2795  1.1486  0.7894
  281TMC3    H2 4248   4.541   0.820  13.568 -0.0746 -1.1947  2.2561
  281TMC3    C7 4249   4.422   0.617  13.440  0.2357 -0.9701  0.0010
  281TMC3    C8 4250   4.426   0.987  13.710 -0.1167  0.6921  0.0431
  281TMC3    O1 4251   4.483   0.577  13.539  0.1387 -0.0755  0.3377
  281TMC3    O2 4252   4.456   0.901  13.794 -0.1039  0.9955  0.3497
  282MPD2     C 4253   1.912   2.115  14.966  0.0424 -0.1450 -0.4077
  282MPD2    C1 4254   1.853   2.236  14.998 -0.3565  0.3833  0.0262
  282MPD2    C2 4255   1.822   2.317  14.893 -0.2279 -0.4567  0.1712
  282MPD2    C3 4256   1.833   2.278  14.761 -0.0296  0.2072 -0.7866
  282MPD2    C4 4257   1.892   2.158  14.735 -0.2956 -0.1414 -0.0404
  282MPD2    C5 4258   1.923   2.074  14.838 -0.2517  0.0028 -0.4056
  282MPD2     H 4259   1.777   2.414  14.912  0.6277 -0.0498  0.1085
  282MPD2    H1 4260   1.919   2.117  14.638 -1.1623 -0.1583 -0.2773
  282MPD2    H2 4261   1.934   2.039  15.040 -0.1438 -0.6030 -0.8273
  282MPD2    H3 4262   1.962   1.974  14.823 -2.4124 -1.0748  1.0608
  282MPD2     N 4263   1.788   2.364  14.652 -0.5619 -0.9062  0.5033
  282MPD2    H5 4264   1.725   2.440  14.679 -0.3638  0.0578 -1.7796
  282MPD2    N1 4265   1.828   2.272  15.134  0.2874 -0.1442 -0.0520
  282MPD2    H7 4266   1.835   2.196  15.201  0.0368 -0.3907 -0.3101
  283TMC3    C1 4267   1.811   2.393  15.323  0.4680 -0.5497 -0.8688
  283TMC3    C2 4268   1.839   2.514  15.384 -0.5383 -0.4904  0.5774
  283TMC3    C3 4269   1.838   2.507  15.521 -0.2655  0.0837 -0.3041
  283TMC3    C4 4270   1.751   2.283  15.386 -0.0734  0.3474 -0.4178
  283TMC3    C5 4271   1.755   2.287  15.527 -0.4318 -0.4940  0.2628
  283TMC3    C6 4272   1.801   2.396  15.593 -0.9309 -0.0200 -0.0228
  283TMC3     C 4273   1.815   2.399  15.180 -0.0917 -0.4355  0.0053
  283TMC3     O 4274   1.824   2.509  15.122  0.3542 -0.1390 -0.7997
  283TMC3     H 4275   1.883   2.593  15.325 -0.8540  0.9201  2.2567
  283TMC3    H1 4276   1.704   2.198  15.338  0.5604 -1.0939  1.5214
  283TMC3    H2 4277   1.795   2.395  15.702  2.3288  0.2975  0.1669
  283TMC3    C7 4278   1.672   2.199  15.593  0.8220  0.6681 -0.6779
  283TMC3    C8 4279   1.848   2.631  15.601 -0.2333  0.4141  0.5713
  283TMC3    O1 4280   1.650   2.227  15.709 -0.1849 -0.8145 -0.5607
  283TMC3    O2 4281   1.808   2.631  15.717  0.5822 -0.0294  0.1615
  284MPD2     C 4282   0.091   1.663  12.217  0.0027  0.6244  0.2657
  284MPD2    C1 4283   0.070   1.619  12.087 -0.0325  0.2739  0.1520
  284MPD2    C2 4284   4.716   1.505  12.074 -0.3096 -0.2008  0.0127
  284MPD2    C3 4285   4.671   1.437  12.182 -0.8734 -0.0741 -0.2240
  284MPD2    C4 4286   4.689   1.486  12.310  0.5204 -0.8711 -0.1428
  284MPD2    C5 4287   0.047   1.590  12.325 -0.8882  0.2029 -0.2772
  284MPD2     H 4288   4.699   1.465  11.974 -1.1685 -1.0746  0.5163
  284MPD2    H1 4289   4.650   1.439  12.399 -0.4580 -1.1323 -0.7153
  284MPD2    H2 4290   0.134   1.758  12.245 -1.4340  2.3792 -3.3977
  284MPD2    H3 4291   0.061   1.622  12.427 -2.3620 -2.5709  0.8063
  284MPD2     N 4292   4.606   1.311  12.176  0.2423 -0.5117  0.8452
  284MPD2    H5 4293   4.569   1.277  12.264 -2.8521 -0.4368 -0.4065
  284MPD2    N1 4294   0.105   1.703  11.981 -0.3720 -0.3444 -0.1641
  284MPD2    H7 4295   0.059   1.678  11.894  1.9541 -0.2811 -1.4095
  285TMC3    C1 4296   0.226   1.864  11.854 -1.3713  0.3136 -0.0752
  285TMC3    C2 4297   0.196   1.792  11.740  0.0948  0.0608 -0.1647
  285TMC3    C3 4298   0.240   1.849  11.625  0.6689 -0.0626  0.0547
  285TMC3    C4 4299   0.262   1.994  11.859  0.4530  0.0566  0.2015
  285TMC3    C5 4300   0.287   2.050  11.740 -0.0340 -0.1842  0.5857
  285TMC3    C6 4301   0.283   1.981  11.622 -0.2727  0.1628  0.3820
  285TMC3     C 4302   0.202   1.807  11.986  0.3345  0.1323 -0.7020
  285TMC3     O 4303   0.262   1.855  12.079 -0.2959 -0.0122 -0.3652
  285TMC3     H 4304   0.182   1.685  11.732  2.4946 -0.2302 -0.4251
  285TMC3    H1 4305   0.283   2.048  11.951 -1.2954 -2.1540  1.8897
  285TMC3    H2 4306   0.313   2.027  11.529 -0.9878 -1.2180 -0.5224
  285TMC3    C7 4307   0.335   2.189  11.725  0.0153  0.2100  0.4256
  285TMC3    C8 4308   0.239   1.770  11.507  0.7303  0.0010  0.8834
  285TMC3    O1 4309   0.317   2.238  11.613 -0.1765 -0.1259  0.3570
  285TMC3    O2 4310   0.154   1.680  11.496 -0.4572  0.4628 -0.1520
  286MPD2     C 4311   1.133   0.688   2.034 -0.1442 -0.6893  0.0358
  286MPD2    C1 4312   1.087   0.678   1.909  0.2358 -0.2986  0.0607
  286MPD2    C2 4313   1.160   0.619   1.808  0.7020 -0.7696  0.2152
  286MPD2    C3 4314   1.288   0.571   1.826  0.0356 -0.2636 -0.1761
  286MPD2    C4 4315   1.336   0.565   1.953 -0.4408  0.6954  0.4990
  286MPD2    C5 4316   1.261   0.625   2.053 -0.7699 -0.3345  0.5362
  286MPD2     H 4317   1.110   0.606   1.712  2.6957 -1.2096 -0.7715
  286MPD2    H1 4318   1.429   0.514   1.975 -0.3702  0.3399 -0.6009
  286MPD2    H2 4319   1.079   0.733   2.117 -1.2620  0.0034 -1.0648
  286MPD2    H3 4320   1.289   0.617   2.157 -1.6043 -0.6879  0.7307
  286MPD2     N 4321   1.372   0.515   1.728  0.7468 -0.3014 -0.3315
  286MPD2    H5 4322   1.456   0.469   1.762  1.1094  0.2307 -0.5010
  286MPD2    N1 4323   0.956   0.725   1.881 -0.2926 -0.3171  0.1203
  286MPD2    H7 4324   0.932   0.730   1.782 -4.0308  0.8185  1.0964
  287TMC3    C1 4325   1.451   0.468   1.506 -0.2482 -0.4895  0.0327
  287TMC3    C2 4326   1.421   0.467   1.380 -0.0005  0.3440 -0.3002
  287TMC3    C3 4327   1.501   0.403   1.287 -0.1411 -0.2166 -0.0390
  287TMC3    C4 4328   1.564   0.401   1.549  0.4793 -0.3877 -0.6791
  287TMC3    C5 4329   1.642   0.340   1.455  0.1879 -1.1353  0.2489
  287TMC3    C6 4330   1.613   0.334   1.319  0.0782  0.0271 -0.1478
  287TMC3     C 4331   1.344   0.525   1.593  0.0909 -0.5463  0.3273
  287TMC3     O 4332   1.248   0.571   1.538 -0.2390 -0.6418  0.0247
  287TMC3     H 4333   1.336   0.522   1.341  0.1539  0.2329 -0.7938
  287TMC3    H1 4334   1.585   0.376   1.653 -1.3018 -0.0643 -0.2421
  287TMC3    H2 4335   1.670   0.299   1.233  2.8827  2.5967  0.6428
  287TMC3    C7 4336   1.779   0.306   1.501  0.3563  0.4599  0.5596
  287TMC3    C8 4337   1.447   0.384   1.147 -0.0474 -0.3381  0.4196
  287TMC3    O1 4338   1.811   0.348   1.613  0.3831 -0.0981  0.1120
  287TMC3    O2 4339   1.482   0.278   1.093  0.4125 -0.2187 -0.2959
  288TMC3    C1 4340   2.295   0.306  14.423  0.3002 -0.5512 -0.5985
  288TMC3    C2 4341   2.169   0.308  14.474 -0.2924  0.2675  0.3568
  288TMC3    C3 4342   2.121   0.424  14.526 -0.1477  0.5005 -0.2916
  288TMC3    C4 4343   2.376   0.418  14.429 -0.5770  0.1717 -0.0743
  288TMC3    C5 4344   2.327   0.533  14.494 -0.1670 -0.7638 -0.4523
  288TMC3    C6 4345   2.196   0.539  14.544  0.5354  0.7963  0.3108
  288TMC3     C 4346   2.334   0.208  14.327 -0.4193  0.6370 -0.3325
  288TMC3     O 4347   2.421   0.249  14.246  1.0420 -0.3759  0.4084
  288TMC3     H 4348   2.100   0.224  14.466 -1.5477  1.4823 -1.6123
  288TMC3    H1 4349   2.475   0.418  14.385 -0.2409  0.5194  0.6892
  288TMC3    H2 4350   2.164   0.632  14.588  2.5396  0.5431  2.3270
  288TMC3    C7 4351   2.380   0.670  14.461 -0.4398 -0.2456 -0.1684
  288TMC3    C8 4352   2.030   0.407  14.638  0.2473 -0.0900  0.2840
  288TMC3    O1 4353   2.298   0.756  14.471  0.5851  0.3908 -0.3818
  288TMC3    O2 4354   2.060   0.471  14.739  0.2892  0.7693  0.4967
  289MPD2     C 4355   2.227   4.075  14.060 -0.0896 -0.2514 -0.9383
  289MPD2    C1 4356   2.175   4.165  14.156 -0.5375 -0.1423  0.1912
  289MPD2    C2 4357   2.039   4.182  14.152 -0.2481 -0.1089 -0.0533
  289MPD2    C3 4358   1.961   4.127  14.051 -0.3940 -0.3497 -0.2296
  289MPD2    C4 4359   2.016   4.038  13.959  0.1276  0.0747  0.0930
  289MPD2    C5 4360   2.149   4.024  13.958  0.2961 -0.1806 -0.5022
  289MPD2     H 4361   1.985   4.229  14.233  0.9312  0.0989  0.6155
  289MPD2    H1 4362   1.962   4.005  13.871  0.0383  0.4551  0.0068
  289MPD2    H2 4363   2.335   4.064  14.052 -0.0028 -0.7697  1.0648
  289MPD2    H3 4364   2.193   3.966  13.878  0.1613  0.5988 -1.1401
  289MPD2     N 4365   1.823   4.156  14.035  0.4700 -0.3617  0.1411
  289MPD2    H5 4366   1.778   4.111  13.956  0.2676 -2.3536  1.4054
  289MPD2    N1 4367   2.260   4.224  14.253  0.3220  0.1116 -0.0023
  289MPD2    H7 4368   2.354   4.248  14.223  1.1448 -1.9395  0.8892
  290TMC3    C1 4369   1.622   4.278  14.029 -0.1496 -0.0004 -0.4546
  290TMC3    C2 4370   1.574   4.403  14.021 -0.1212  0.3583 -0.4987
  290TMC3    C3 4371   1.462   4.427  13.940 -0.1996 -0.4240  1.0748
  290TMC3    C4 4372   1.555   4.170  13.974  0.5107  0.4211  0.1726
  290TMC3    C5 4373   1.439   4.198  13.913 -0.1181 -0.2756 -0.1256
  290TMC3    C6 4374   1.399   4.322  13.883 -0.0497  0.0966  0.2257
  290TMC3     C 4375   1.754   4.267  14.086 -0.7323 -0.6630  0.3225
  290TMC3     O 4376   1.796   4.357  14.150  0.1603  0.2559 -0.4034
  290TMC3     H 4377   1.625   4.486  14.069 -1.1098  1.2797 -1.0391
  290TMC3    H1 4378   1.602   4.072  13.972 -1.8585 -0.7336 -0.4002
  290TMC3    H2 4379   1.299   4.327  13.843 -0.4878  2.3397  1.5748
  290TMC3    C7 4380   1.345   4.095  13.867 -0.5319  0.1830  0.5327
  290TMC3    C8 4381   1.394   4.552  13.954  0.0119  0.0365 -0.4804
  290TMC3    O1 4382   1.265   4.117  13.777  0.0831 -0.3028 -0.2464
  290TMC3    O2 4383   1.325   4.584  13.859 -0.1117 -0.0171  0.2123
  291MPD2     C 4384   1.465   4.047   0.400 -1.1869 -0.0720  0.4047
  291MPD2    C1 4385   1.400   3.923   0.380 -0.7625 -0.2739  0.6159
  291MPD2    C2 4386   1.477   3.814   0.386  0.4865  0.0867  0.4489
  291MPD2    C3 4387   1.610   3.826   0.412  1.1921  0.4209 -0.6854
  291MPD2    C4 4388   1.673   3.947   0.437  0.5394 -0.1331 -0.6350
  291MPD2    C5 4389   1.599   4.063   0.421 -0.4523  0.0961  0.5469
  291MPD2     H 4390   1.442   3.716   0.354  1.9064 -0.0396 -0.7085
  291MPD2    H1 4391   1.780   3.962   0.450  0.6634 -2.5908  1.0310
  291MPD2    H2 4392   1.407   4.138   0.389 -0.0550  0.3296 -2.2661
  291MPD2    H3 4393   1.650   4.159   0.425 -2.2266  1.0105  1.5275
  291MPD2     N 4394   1.703   3.722   0.411  0.1611  0.7671  0.4318
  291MPD2    H5 4395   1.801   3.743   0.425  0.1850  1.1557 -0.3554
  291MPD2    N1 4396   1.270   3.906   0.322 -0.3099  0.3678  0.4737
  291MPD2    H7 4397   1.236   3.812   0.303 -0.3253  0.2004  1.3334
  292TMC3    C1 4398   1.067   3.963   0.234 -1.1495 -0.3681 -0.0594
  292TMC3    C2 4399   0.953   4.014   0.267  0.7135  0.4824 -0.7565
  292TMC3    C3 4400   0.832   3.963   0.218 -0.6311 -0.2670  0.5851
  292TMC3    C4 4401   1.080   3.856   0.148 -0.3875  0.3288  0.2641
  292TMC3    C5 4402   0.969   3.817   0.092 -0.7503 -0.2356  0.1075
  292TMC3    C6 4403   0.839   3.865   0.122  0.4841 -0.4304 -0.2870
  292TMC3     C 4404   1.178   4.008   0.310  0.8955  0.5553  0.1096
  292TMC3     O 4405   1.178   4.124   0.348  0.3498 -0.4300 -0.0059
  292TMC3     H 4406   0.957   4.098   0.335 -0.2447  0.2392 -0.3892
  292TMC3    H1 4407   1.180   3.820   0.127 -0.7201 -0.3153 -0.1894
  292TMC3    H2 4408   0.746   3.834   0.078 -0.8311  1.9829  0.8184
  292TMC3    C7 4409   0.979   3.736  17.658  0.1168 -0.3424 -0.0196
  292TMC3    C8 4410   0.710   3.969   0.297 -0.0315  0.2593 -0.0057
  292TMC3    O1 4411   1.077   3.661  17.653  0.3860 -0.3562 -0.2148
  292TMC3    O2 4412   0.685   4.074   0.350 -0.2084  0.3083 -0.4256
  293MPD2     C 4413   2.889   0.733  12.611  0.0335 -0.5465 -0.5738
  293MPD2    C1 4414   2.964   0.618  12.612 -0.8559  0.0441  0.0293
  293MPD2    C2 4415   3.007   0.568  12.732 -0.6684 -0.0839  0.2766
  293MPD2    C3 4416   2.964   0.623  12.852  0.5044 -0.0026  0.2734
  293MPD2    C4 4417   2.883   0.735  12.842 -0.3132 -0.1236 -0.0279
  293MPD2    C5 4418   2.848   0.787  12.724 -0.0737  0.9299  0.0405
  293MPD2     H 4419   3.082   0.490  12.736 -0.9180 -0.3412 -0.0234
  293MPD2    H1 4420   2.850   0.790  12.930 -1.8868 -0.4254 -0.4206
  293MPD2    H2 4421   2.867   0.785  12.518 -1.1504 -1.3667 -0.7538
  293MPD2    H3 4422   2.800   0.884  12.726 -0.2885  0.8456 -0.9621
  293MPD2     N 4423   3.023   0.573  12.971 -0.3509  0.3464 -0.7348
  293MPD2    H5 4424   3.086   0.494  12.959  0.8206  1.2234 -0.3743
  293MPD2    N1 4425   3.001   0.564  12.487 -0.7643  0.0098 -0.2862
  293MPD2    H7 4426   2.986   0.625  12.407 -2.3100  1.0162  0.7647
  294TMC3    C1 4427   3.099   0.445  12.306  0.5644  1.2879 -0.4027
  294TMC3    C2 4428   3.122   0.318  12.257 -0.3178  0.3429  1.1240
  294TMC3    C3 4429   3.144   0.305  12.125  0.2078  0.0104  0.1678
  294TMC3    C4 4430   3.085   0.555  12.217 -0.7219 -0.1093  0.1110
  294TMC3    C5 4431   3.116   0.535  12.082  0.8775  0.3205  0.4646
  294TMC3    C6 4432   3.154   0.410  12.038 -0.0098  0.6472  0.2257
  294TMC3     C 4433   3.083   0.465  12.453  0.7690 -0.4262 -0.0128
  294TMC3     O 4434   3.133   0.379  12.524  0.3556 -0.2274 -0.1495
  294TMC3     H 4435   3.140   0.231  12.319  0.9283 -0.8416 -0.9273
  294TMC3    H1 4436   3.083   0.654  12.260 -2.3858  1.0899 -2.7452
  294TMC3    H2 4437   3.141   0.381  11.935  2.9893  0.6607 -0.1558
  294TMC3    C7 4438   3.159   0.648  12.002  0.8200  0.1484 -0.4293
  294TMC3    C8 4439   3.197   0.179  12.077 -0.5074  0.2409 -0.4335
  294TMC3    O1 4440   3.133   0.765  12.045 -0.6229  0.0254  0.3368
  294TMC3    O2 4441   3.294   0.193  12.000  0.2230  0.5270 -0.1227
  295MPD2     C 4442   4.583   3.918   0.599  0.1022 -0.1691 -0.1027
  295MPD2    C1 4443   4.449   3.938   0.575 -0.1622  0.3299 -0.3470
  295MPD2    C2 4444   4.361   3.982   0.670 -0.0056 -0.1994  0.6283
  295MPD2    C3 4445   4.420   4.011   0.795  0.8487 -0.2203  0.1584
  295MPD2    C4 4446   4.550   3.983   0.822 -1.1070 -0.2913 -0.3039
  295MPD2    C5 4447   4.636   3.934   0.727  0.4269  0.7635 -0.0301
  295MPD2     H 4448   4.264   4.020   0.640  0.2211 -0.9765 -1.1211
  295MPD2    H1 4449   4.593   4.006   0.919 -1.1241 -0.9813 -0.1335
  295MPD2    H2 4450   4.648   3.872   0.525  1.3199  0.0134  0.8528
  295MPD2    H3 4451   0.021   3.919   0.750 -0.2944 -2.4983  1.1041
  295MPD2     N 4452   4.341   4.064   0.901  0.3944 -0.1597 -0.0970
  295MPD2    H5 4453   4.385   4.110   0.979  2.1173 -0.3137 -0.9833
  295MPD2    N1 4454   4.392   3.925   0.445 -0.2178  0.3762 -0.5811
  295MPD2    H7 4455   4.291   3.931   0.433 -0.3423 -1.8107 -0.5586
  296TMC3    C1 4456   4.148   4.118   1.017 -0.5903 -0.2028  0.0559
  296TMC3    C2 4457   4.192   4.246   1.010 -0.5274  0.3804  0.1642
  296TMC3    C3 4458   4.099   4.345   0.988  0.8504 -0.7776 -0.1593
  296TMC3    C4 4459   4.012   4.088   1.025 -0.2695  0.0487 -0.2326
  296TMC3    C5 4460   3.925   4.189   1.015  0.9238 -0.4124 -0.1977
  296TMC3    C6 4461   3.968   4.319   0.995 -0.2765  0.1639 -0.0310
  296TMC3     C 4462   4.213   4.031   0.916 -0.4663  0.6533 -0.1228
  296TMC3     O 4463   4.148   3.948   0.856 -0.0604  0.2892 -0.1681
  296TMC3     H 4464   4.294   4.284   1.001 -0.2896 -0.4747 -0.6915
  296TMC3    H1 4465   3.977   3.988   1.051 -2.6306  1.1966  0.9599
  296TMC3    H2 4466   3.888   4.391   0.982  0.5111  0.9485 -0.5091
  296TMC3    C7 4467   3.786   4.163   1.014 -0.0863 -0.7625 -0.2872
  296TMC3    C8 4468   4.147   4.477   0.977  0.3351 -0.2688  0.4253
  296TMC3    O1 4469   3.718   4.245   0.957  0.0160 -0.8540 -0.1606
  296TMC3    O2 4470   4.255   4.499   0.930  0.1672  0.2045 -0.5846
  297MPD2     C 4471   0.823   1.294  16.459  0.2760  0.7183 -0.0241
  297MPD2    C1 4472   0.805   1.333  16.323 -0.1156 -0.2854  0.1118
  297MPD2    C2 4473   0.908   1.403  16.262  0.4820  0.1400  0.3235
  297MPD2    C3 4474   1.008   1.459  16.331  0.4436  0.0672  0.1361
  297MPD2    C4 4475   1.018   1.439  16.465 -0.9869 -0.0453  0.8725
  297MPD2    C5 4476   0.939   1.341  16.523  0.2065  0.3275  0.1029
  297MPD2     H 4477   0.890   1.433  16.159 -1.0953  0.0670  0.5652
  297MPD2    H1 4478   1.105   1.481  16.515 -1.0753  2.0957 -0.7455
  297MPD2    H2 4479   0.754   1.226  16.507  0.7940  0.8717  0.9364
  297MPD2    H3 4480   0.954   1.317  16.628 -1.9640 -0.7110  0.1742
  297MPD2     N 4481   1.092   1.553  16.266  0.0573  0.5904  0.1673
  297MPD2    H5 4482   1.096   1.563  16.165  1.2842 -0.7092  0.0944
  297MPD2    N1 4483   0.693   1.289  16.254 -0.0650  0.3349 -0.1296
  297MPD2    H7 4484   0.707   1.305  16.155  1.4649 -0.0570  0.0242
  298TMC3    C1 4485   0.470   1.244  16.205 -0.3490  0.3672 -0.3596
  298TMC3    C2 4486   0.497   1.206  16.072 -1.4875 -0.4316 -0.2854
  298TMC3    C3 4487   0.400   1.215  15.968 -0.7987  0.3292  0.1612
  298TMC3    C4 4488   0.342   1.284  16.236  0.1538  0.5432  0.4877
  298TMC3    C5 4489   0.251   1.296  16.132  0.3732 -0.3998  0.2863
  298TMC3    C6 4490   0.273   1.253  16.004 -0.0185 -0.7085  0.0162
  298TMC3     C 4491   0.578   1.239  16.306  1.0519 -0.2543  0.0076
  298TMC3     O 4492   0.536   1.223  16.416 -0.0810  0.2430 -0.1961
  298TMC3     H 4493   0.593   1.164  16.047 -1.0677  0.3215  0.0335
  298TMC3    H1 4494   0.324   1.326  16.335  2.1164 -0.8700  1.4388
  298TMC3    H2 4495   0.189   1.243  15.935 -1.4061 -1.1083  1.7676
  298TMC3    C7 4496   0.149   1.395  16.150 -0.1687  0.5932  0.2625
  298TMC3    C8 4497   0.426   1.201  15.829  0.3436 -0.0224 -0.8185
  298TMC3    O1 4498   0.110   1.417  16.264 -0.0327 -0.4144  0.3940
  298TMC3    O2 4499   0.327   1.205  15.754 -0.3599  0.5878 -0.0085
  299MPD2     C 4500   1.072   1.080  10.818 -0.5112  0.6541 -0.1914
  299MPD2    C1 4501   1.166   1.127  10.722 -0.1158  0.2547 -0.4334
  299MPD2    C2 4502   1.124   1.136  10.588 -0.0687  0.2511 -0.8029
  299MPD2    C3 4503   0.998   1.088  10.555  0.4780  0.5674  0.4192
  299MPD2    C4 4504   0.912   1.045  10.654 -0.0769  0.1100  0.5169
  299MPD2    C5 4505   0.947   1.055  10.778 -0.5993  0.1861  0.7083
  299MPD2     H 4506   1.199   1.141  10.510 -0.1821  0.8628 -0.8708
  299MPD2    H1 4507   0.814   1.003  10.632 -0.7250  1.0969  1.5532
  299MPD2    H2 4508   1.104   1.063  10.920  1.4096 -1.0390 -1.0707
  299MPD2    H3 4509   0.882   1.028  10.860  0.5462 -0.9751  1.2288
  299MPD2     N 4510   0.960   1.072  10.423 -0.8481 -0.2607  0.0305
  299MPD2    H5 4511   0.867   1.031  10.417 -1.0634  0.0892  1.1017
  299MPD2    N1 4512   1.305   1.153  10.762  0.0658  0.3871  0.2898
  299MPD2    H7 4513   1.335   1.130  10.857  1.1805  0.6592  0.0029
  300TMC3    C1 4514   0.910   1.127  10.209 -0.0996  0.2011 -0.1278
  300TMC3    C2 4515   0.889   1.256  10.163  0.4113  0.8524 -0.1252
  300TMC3    C3 4516   0.758   1.305  10.174 -0.8355 -0.2071  0.3552
  300TMC3    C4 4517   0.804   1.044  10.241  0.4606  0.7101 -0.1253
  300TMC3    C5 4518   0.681   1.091  10.222 -0.2231  0.8257 -0.7580
  300TMC3    C6 4519   0.650   1.221  10.193 -0.5019 -0.2655 -0.8431
  300TMC3     C 4520   1.017   1.127  10.307  0.6751  0.5031 -0.6541
  300TMC3     O 4521   1.112   1.207  10.296 -0.0942  0.5520 -0.2237
  300TMC3     H 4522   0.975   1.319  10.142  1.0448 -0.5205 -1.6220
  300TMC3    H1 4523   0.823   0.939  10.263  0.5392  0.6420 -0.5086
  300TMC3    H2 4524   0.547   1.250  10.179 -0.4232  0.4360  0.0479
  300TMC3    C7 4525   0.570   1.009  10.267  0.3828 -0.3153 -0.1590
  300TMC3    C8 4526   0.755   1.436  10.230 -0.0791 -0.2231  0.3507
  300TMC3    O1 4527   0.582   0.886  10.255 -0.1747 -0.3071 -0.2054
  300TMC3    O2 4528   0.855   1.504  10.217  0.1505  0.0140  0.1475
  301MPD2     C 4529   4.039   2.582   1.611 -0.3451 -1.1258 -0.3067
  301MPD2    C1 4530   3.959   2.535   1.508 -0.3059  0.6440  0.1480
  301MPD2    C2 4531   4.001   2.421   1.438  0.1524 -0.2807 -0.5922
  301MPD2    C3 4532   4.127   2.365   1.463  0.8920 -0.2277  0.3246
  301MPD2    C4 4533   4.214   2.420   1.549 -0.2946  0.1384  0.9978
  301MPD2    C5 4534   4.169   2.531   1.622  0.8138  0.0318  0.3826
  301MPD2     H 4535   3.928   2.382   1.367  0.6196 -0.4403 -0.9792
  301MPD2    H1 4536   4.312   2.378   1.565  0.3888  1.6371  0.7608
  301MPD2    H2 4537   4.020   2.670   1.672 -0.7550 -1.4939  0.0896
  301MPD2    H3 4538   4.240   2.578   1.689  0.2486  0.9448  0.3518
  301MPD2     N 4539   4.175   2.255   1.386  0.0684 -0.0430 -0.8784
  301MPD2    H5 4540   4.274   2.231   1.396 -0.1035 -0.3393  0.1313
  301MPD2    N1 4541   3.828   2.587   1.488  0.2201  0.2475 -0.6409
  301MPD2    H7 4542   3.762   2.541   1.426 -0.7275  1.4424 -0.5308
  302TMC3    C1 4543   4.186   2.072   1.233  0.0537  0.3031 -0.0346
  302TMC3    C2 4544   4.271   2.005   1.308  0.0838 -0.0274  0.0690
  302TMC3    C3 4545   4.322   1.890   1.246  0.1577  0.0137  0.4042
  302TMC3    C4 4546   4.142   2.028   1.109  0.1888 -0.3448  0.2210
  302TMC3    C5 4547   4.199   1.921   1.050  0.0732  0.3699 -0.2324
  302TMC3    C6 4548   4.306   1.856   1.112  0.0849 -0.1678  0.2319
  302TMC3     C 4549   4.100   2.164   1.308 -0.6200 -0.4739 -0.2844
  302TMC3     O 4550   3.981   2.163   1.269 -0.3993 -0.2655 -0.4400
  302TMC3     H 4551   4.275   2.022   1.415  2.8665 -0.3195  0.0264
  302TMC3    H1 4552   4.060   2.083   1.065  1.6399  0.7538 -1.1167
  302TMC3    H2 4553   4.351   1.763   1.077 -0.7148 -0.2735 -0.5104
  302TMC3    C7 4554   4.132   1.854   0.937  0.0392 -0.0553 -0.2065
  302TMC3    C8 4555   4.413   1.801   1.315  0.4349 -0.2634 -0.0649
  302TMC3    O1 4556   4.190   1.779   0.865  1.0303  0.2305  0.5686
  302TMC3    O2 4557   4.431   1.690   1.262 -0.2801 -0.1050  0.2182
  303MPD2     C 4558   4.081   0.655  10.208  0.2685 -0.5135 -0.3276
  303MPD2    C1 4559   3.999   0.561  10.250 -0.1081  0.4451 -0.0171
  303MPD2    C2 4560   3.955   0.465  10.161  0.0340 -0.3915  0.0906
  303MPD2    C3 4561   4.003   0.466  10.034 -0.3176 -0.2425  1.1935
  303MPD2    C4 4562   4.084   0.566   9.993 -1.0236  0.1281 -0.0585
  303MPD2    C5 4563   4.114   0.665  10.079 -0.3743  0.2040 -0.0320
  303MPD2     H 4564   3.886   0.389  10.197  1.3848 -0.4650  2.5180
  303MPD2    H1 4565   4.123   0.571   9.892  0.4267 -1.1056  0.4522
  303MPD2    H2 4566   4.122   0.720  10.283  2.3782  0.4538 -2.3225
  303MPD2    H3 4567   4.171   0.752  10.048 -0.0880  0.0452  0.0470
  303MPD2     N 4568   3.968   0.365   9.939 -0.1757 -0.3664  0.3907
  303MPD2    H5 4569   4.021   0.369   9.853 -0.9263 -1.2964 -0.1273
  303MPD2    N1 4570   3.972   0.561  10.389  0.5345  0.3864  0.2582
  303MPD2    H7 4571   3.989   0.641  10.449  2.2297 -0.4570  0.9042
  304TMC3    C1 4572   3.900   0.467  10.597 -0.1416 -0.0901 -0.0875
  304TMC3    C2 4573   3.809   0.571  10.596  0.9221 -0.3399 -0.6482
  304TMC3    C3 4574   3.693   0.552  10.661  0.0267  0.2386  0.1685
  304TMC3    C4 4575   3.882   0.358  10.680 -0.1684 -0.6043  0.0291
  304TMC3    C5 4576   3.773   0.349  10.766  0.2090 -0.2006 -0.3584
  304TMC3    C6 4577   3.678   0.447  10.752 -1.0284 -0.0740 -0.0298
  304TMC3     C 4578   3.932   0.445  10.459  0.2380 -0.6961  0.1528
  304TMC3     O 4579   3.896   0.336  10.417 -0.8216  0.2321 -0.9019
  304TMC3     H 4580   3.807   0.655  10.528  2.5345  1.1331  1.1441
  304TMC3    H1 4581   3.935   0.267  10.655  1.6677  0.0358  1.5904
  304TMC3    H2 4582   3.587   0.440  10.810 -2.3551 -1.0550 -2.2439
  304TMC3    C7 4583   3.708   0.217  10.766  0.1235 -0.0834  0.1415
  304TMC3    C8 4584   3.580   0.556  10.562  0.3606  0.6914 -0.6272
  304TMC3    O1 4585   3.588   0.224  10.741  0.2061 -0.2475  0.0792
  304TMC3    O2 4586   3.562   0.648  10.485 -0.2149  0.0401 -0.0105
  305MPD2     C 4587   1.817   2.967  14.062  0.0046  0.5204  0.5550
  305MPD2    C1 4588   1.887   2.846  14.070 -0.5043 -1.0021 -0.1709
  305MPD2    C2 4589   1.897   2.764  13.959  0.6397 -0.5848 -0.8284
  305MPD2    C3 4590   1.842   2.796  13.837  0.3894  0.2766 -0.8806
  305MPD2    C4 4591   1.765   2.910  13.830 -0.4671  0.6112  0.3313
  305MPD2    C5 4592   1.753   2.989  13.945  0.1168 -0.4339  0.5261
  305MPD2     H 4593   1.961   2.678  13.977 -0.2953 -0.9314  0.8776
  305MPD2    H1 4594   1.712   2.940  13.741  1.2814 -2.1788 -1.6244
  305MPD2    H2 4595   1.804   3.026  14.152  0.3934 -0.9923  1.5996
  305MPD2    H3 4596   1.693   3.079  13.945 -0.8726 -1.0917 -1.0901
  305MPD2     N 4597   1.837   2.714  13.715 -0.1910 -0.2983 -0.8061
  305MPD2    H5 4598   1.782   2.760  13.644 -1.0531  0.1753  0.1599
  305MPD2    N1 4599   1.946   2.823  14.201 -0.0460 -0.0303 -0.5003
  305MPD2    H7 4600   1.953   2.898  14.268  0.2944 -2.2771  1.9896
  306TMC3    C1 4601   2.091   2.715  14.357 -0.4598 -0.6235 -0.0538
  306TMC3    C2 4602   2.122   2.596  14.415  0.4274 -0.0834 -0.3850
  306TMC3    C3 4603   2.164   2.600  14.543  0.0452 -0.4662 -0.2870
  306TMC3    C4 4604   2.112   2.838  14.408  0.8103  0.3700  0.1785
  306TMC3    C5 4605   2.178   2.839  14.531  0.5236  0.5371 -0.2613
  306TMC3    C6 4606   2.197   2.721  14.603 -0.4165  0.2346 -0.4772
  306TMC3     C 4607   2.001   2.703  14.238  1.0580 -0.1281 -1.2988
  306TMC3     O 4608   2.006   2.596  14.180 -0.2016  0.1515  0.5988
  306TMC3     H 4609   2.084   2.506  14.367 -0.5869 -0.2153  0.6444
  306TMC3    H1 4610   2.117   2.927  14.346 -2.9494  1.1637  0.9764
  306TMC3    H2 4611   2.239   2.737  14.702  0.9183 -1.0531 -0.8332
  306TMC3    C7 4612   2.256   2.958  14.566 -0.1927  0.4296 -0.6335
  306TMC3    C8 4613   2.212   2.477  14.603 -0.2872  0.4001 -0.5909
  306TMC3    O1 4614   2.199   3.068  14.583  0.4538 -0.3595  0.1325
  306TMC3    O2 4615   2.259   2.399  14.522 -0.1468 -0.0697  0.7034
  307MPD2     C 4616   4.279   4.533   0.534  0.2658 -0.2760  0.7034
  307MPD2    C1 4617   4.263   4.666   0.513  0.3279  0.3349 -0.4695
  307MPD2    C2 4618   4.157   0.012   0.562 -0.1031  0.6791 -1.1038
  307MPD2    C3 4619   4.060   4.672   0.643  0.9074 -0.2242  0.3926
  307MPD2    C4 4620   4.086   4.538   0.666  0.1083 -0.0627  0.8301
  307MPD2    C5 4621   4.191   4.467   0.620  0.3911  0.4786 -0.6287
  307MPD2     H 4622   4.149   0.119   0.552 -0.9040  0.9270  2.2412
  307MPD2    H1 4623   4.015   4.480   0.724 -0.3770  0.2550  0.5570
  307MPD2    H2 4624   4.351   4.469   0.485 -0.2011 -2.6846  3.1227
  307MPD2    H3 4625   4.191   4.360   0.636  1.0224  0.6815  0.6868
  307MPD2     N 4626   3.945   0.017   0.694  0.4177  0.1968 -0.1071
  307MPD2    H5 4627   3.940   0.116   0.674 -2.8896 -0.0593 -0.4708
  307MPD2    N1 4628   4.354   0.016   0.436 -0.2444 -0.8931  0.2749
  307MPD2    H7 4629   4.326   0.110   0.408  0.5287 -0.9276 -0.5808
  308TMC3    C1 4630   3.531   0.090   0.879 -0.5684  1.1866 -0.1004
  308TMC3    C2 4631   3.563   0.217   0.921  0.2990  0.5872  0.1532
  308TMC3    C3 4632   3.691   0.256   0.919 -0.1962  0.0651 -0.4958
  308TMC3    C4 4633   3.622   0.005   0.831  0.0431  0.0085 -0.3172
  308TMC3    C5 4634   3.748   0.048   0.825 -1.0890  0.6108 -0.6214
  308TMC3    C6 4635   3.790   0.168   0.876  0.1650  0.2207 -0.3713
  308TMC3     C 4636   3.398   0.072   0.829  0.4579 -0.8373  0.1456
  308TMC3     O 4637   3.351   4.684   0.796  0.3972  0.9272 -0.3190
  308TMC3     H 4638   3.487   0.293   0.938 -0.0452  0.2663  0.0737
  308TMC3    H1 4639   3.598   4.622   0.806  1.9485 -0.7916  1.1949
  308TMC3    H2 4640   3.897   0.181   0.886  0.2649  0.4599 -1.7400
  308TMC3    C7 4641   3.842   4.677   0.764 -0.7872  0.3060 -0.3691
  308TMC3    C8 4642   3.727   0.386   0.966 -0.1154 -0.5484 -0.1009
  308TMC3    O1 4643   3.806   4.554   0.760 -0.2528  0.0099 -0.3640
  308TMC3    O2 4644   3.639   0.442   1.027 -0.1554  0.3931 -0.8651
  309MPD2     C 4645   3.629   0.821  17.214  0.0192 -0.1834 -0.1095
  309MPD2    C1 4646   3.612   0.919  17.125  0.5927  0.1580 -0.5194
  309MPD2    C2 4647   3.507   1.004  17.139 -0.0766  0.4143  0.1291
  309MPD2    C3 4648   3.415   0.982  17.242  0.6781  0.2842  0.0421
  309MPD2    C4 4649   3.433   0.880  17.337  0.6529  0.0836 -0.3678
  309MPD2    C5 4650   3.543   0.804  17.321  0.1301  0.4231  0.3952
  309MPD2     H 4651   3.495   1.087  17.070 -0.6024  1.6756  1.7376
  309MPD2    H1 4652   3.366   0.854  17.418  1.0951  2.0912  0.6305
  309MPD2    H2 4653   3.703   0.743  17.201 -0.1608  0.2018 -3.4911
  309MPD2    H3 4654   3.556   0.722  17.391  1.4836 -0.7687 -1.2414
  309MPD2     N 4655   3.302   1.060  17.260 -0.0264 -0.2339 -0.2869
  309MPD2    H5 4656   3.239   1.027  17.332  0.2152  2.2429  1.0578
  309MPD2    N1 4657   3.693   0.945  17.009  0.1108  0.2427 -0.5772
  309MPD2    H7 4658   3.657   1.013  16.943  0.1742  0.6126 -0.2242
  310TMC3    C1 4659   3.856   0.908  16.855 -0.1707 -0.3206  0.0728
  310TMC3    C2 4660   3.802   1.011  16.783 -0.6541  0.4394 -0.2033
  310TMC3    C3 4661   3.856   1.023  16.656  0.4052  0.3530 -0.8801
  310TMC3    C4 4662   3.950   0.822  16.804 -0.0336 -0.0015  0.3861
  310TMC3    C5 4663   3.996   0.844  16.676 -0.0408  0.0557 -0.0996
  310TMC3    C6 4664   3.946   0.938  16.598 -0.1845  0.0457  0.0506
  310TMC3     C 4665   3.806   0.873  16.981  0.6202  0.1281  0.4513
  310TMC3     O 4666   3.856   0.782  17.046 -0.1998 -0.1979  0.3876
  310TMC3     H 4667   3.737   1.084  16.830  0.8989  1.4265  0.4358
  310TMC3    H1 4668   4.005   0.749  16.861 -2.6808 -3.2222 -1.1525
  310TMC3    H2 4669   3.972   0.961  16.495 -0.6230 -2.3363 -0.5860
  310TMC3    C7 4670   4.125   0.779  16.645 -0.4130 -0.0398 -0.2218
  310TMC3    C8 4671   3.790   1.123  16.575 -0.3072  0.4589  0.0214
  310TMC3    O1 4672   4.183   0.713  16.735 -0.7494 -0.0536  0.3587
  310TMC3    O2 4673   3.672   1.141  16.601  0.0493 -0.7065  0.2182
  311MPD2     C 4674   0.949   2.128  12.768  0.0138  0.1897 -0.1664
  311MPD2    C1 4675   0.928   2.258  12.790  0.2186 -0.1758 -0.0046
  311MPD2    C2 4676   0.794   2.304  12.826 -0.3781 -0.1535  0.1946
  311MPD2    C3 4677   0.690   2.213  12.827 -0.2367 -0.2310 -0.2076
  311MPD2    C4 4678   0.720   2.085  12.806  0.5778 -0.2247  0.3656
  311MPD2    C5 4679   0.848   2.039  12.778 -0.2337  0.3840 -0.6111
  311MPD2     H 4680   0.781   2.409  12.846 -1.3866 -0.0795 -0.8383
  311MPD2    H1 4681   0.643   2.009  12.803  1.6705 -1.2579 -1.8673
  311MPD2    H2 4682   1.047   2.094  12.738 -0.3140 -0.5465 -0.4131
  311MPD2    H3 4683   0.873   1.936  12.755  1.9410  1.0258 -1.2008
  311MPD2     N 4684   0.557   2.254  12.866  0.7049 -0.3616 -0.3426
  311MPD2    H5 4685   0.546   2.353  12.886  1.1148 -0.2508 -0.6852
  311MPD2    N1 4686   1.022   2.363  12.767 -0.1796 -0.1601 -0.4110
  311MPD2    H7 4687   0.998   2.446  12.820 -1.5092 -1.0099  0.3385
  312TMC3    C1 4688   0.335   2.239  12.927 -0.0547 -0.3870 -0.8072
  312TMC3    C2 4689   0.220   2.196  12.861  0.1221 -0.4859  1.1704
  312TMC3    C3 4690   0.111   2.284  12.865  0.3760  0.2908  0.3569
  312TMC3    C4 4691   0.347   2.358  12.991  0.4205 -0.2393 -0.1273
  312TMC3    C5 4692   0.238   2.430  13.008 -0.1193  0.4378 -0.5485
  312TMC3    C6 4693   0.113   2.399  12.945  0.2449 -0.2781  0.2065
  312TMC3     C 4694   0.455   2.171  12.887 -0.3377 -0.4933  0.9998
  312TMC3     O 4695   0.441   2.053  12.865  0.1270  0.8102 -0.0548
  312TMC3     H 4696   0.223   2.106  12.799 -0.3486  0.1022  0.2905
  312TMC3    H1 4697   0.442   2.383  13.037  0.7431  1.1761 -1.5586
  312TMC3    H2 4698   0.029   2.466  12.961 -0.5366 -0.9584 -1.0082
  312TMC3    C7 4699   0.233   2.539  13.099  0.0632  0.3886  0.0535
  312TMC3    C8 4700   4.710   2.226  12.807 -0.3229 -0.3285  0.1213
  312TMC3    O1 4701   0.136   2.614  13.096 -0.1058 -0.3656 -0.0081
  312TMC3    O2 4702   4.714   2.108  12.778 -0.3002 -0.0293  0.2967
  313MPD2     C 4703   0.631   2.164  10.163 -0.1372  0.8224  0.3563
  313MPD2    C1 4704   0.540   2.073  10.212 -0.3710  0.4941  0.1225
  313MPD2    C2 4705   0.517   1.954  10.151 -0.1870  0.1659 -0.3957
  313MPD2    C3 4706   0.586   1.923  10.035 -0.8930 -0.5308 -0.2091
  313MPD2    C4 4707   0.665   2.013   9.978 -0.6588 -0.3104 -0.1943
  313MPD2    C5 4708   0.693   2.129  10.049  0.2967 -0.4771  0.1025
  313MPD2     H 4709   0.450   1.882  10.197  3.6893 -2.1625  1.5733
  313MPD2    H1 4710   0.702   2.006   9.876 -0.6360 -0.5197 -0.1704
  313MPD2    H2 4711   0.670   2.244  10.226 -1.8811  0.9770  1.2460
  313MPD2    H3 4712   0.774   2.184  10.002 -0.9320 -0.5544 -2.1576
  313MPD2     N 4713   0.545   1.805   9.972  0.3445  0.0259 -0.1461
  313MPD2    H5 4714   0.478   1.747  10.021 -0.9896  1.0405 -0.7648
  313MPD2    N1 4715   0.459   2.098  10.320 -0.0984 -0.2697 -0.6898
  313MPD2    H7 4716   0.405   2.017  10.349 -2.1162  1.4639  0.3714
  314TMC3    C1 4717   0.373   2.172  10.523  0.3132 -0.0803 -0.5971
  314TMC3    C2 4718   0.410   2.179  10.650 -0.3657 -0.3512  0.2192
  314TMC3    C3 4719   0.320   2.142  10.742  0.6197  0.0579  0.0688
  314TMC3    C4 4720   0.250   2.111  10.491  0.5224 -0.1501 -0.6344
  314TMC3    C5 4721   0.162   2.070  10.587  0.0338  0.3567 -0.1915
  314TMC3    C6 4722   0.200   2.086  10.719  0.5271  0.6314 -0.2201
  314TMC3     C 4723   0.470   2.191  10.421  0.2566 -0.0038  1.0800
  314TMC3     O 4724   0.549   2.286  10.442 -0.4382 -1.2466  0.5514
  314TMC3     H 4725   0.517   2.186  10.667 -0.7239  0.6592  2.1256
  314TMC3    H1 4726   0.218   2.108  10.388 -3.4278  0.3699  0.5961
  314TMC3    H2 4727   0.125   2.063  10.794 -1.7640  0.4539 -2.5351
  314TMC3    C7 4728   0.021   2.103  10.561  0.1264 -0.4563 -0.5989
  314TMC3    C8 4729   0.366   2.125  10.878 -0.2649  0.0913 -0.2610
  314TMC3    O1 4730   4.653   2.051  10.627  0.0745 -0.1213  0.3601
  314TMC3    O2 4731   0.351   2.008  10.912 -0.6852  0.8236  0.2515
  315MPD2     C 4732   0.002   1.200  17.653  0.1166 -0.0567 -0.6709
  315MPD2    C1 4733   0.068   1.297   0.047  0.0864  0.5604 -0.0525
  315MPD2    C2 4734   0.121   1.416  17.677 -0.0150 -0.0845 -0.1181
  315MPD2    C3 4735   0.116   1.434  17.541  0.1610  0.3093  0.3882
  315MPD2    C4 4736   0.049   1.345  17.459  0.1185 -0.4533 -0.3772
  315MPD2    C5 4737   4.710   1.234  17.518  0.3509  0.2878  0.5885
  315MPD2     H 4738   0.167   1.494   0.051 -0.1998 -0.9532  1.1608
  315MPD2    H1 4739   0.047   1.342  17.351 -1.4626 -0.5048 -0.3454
  315MPD2    H2 4740   4.693   1.102   0.001 -0.7948  0.1284 -0.9455
  315MPD2    H3 4741   4.663   1.160  17.454 -1.3575 -1.2095  3.5960
  315MPD2     N 4742   0.194   1.546  17.487 -0.0902 -0.3751  0.1506
  315MPD2    H5 4743   0.249   1.599  17.554 -2.6348  1.0738  1.0956
  315MPD2    N1 4744   0.081   1.285   0.192 -0.5809  0.2368 -0.6311
  315MPD2    H7 4745   0.132   1.349   0.252 -1.6811 -0.6099  1.2020
  316TMC3    C1 4746   0.264   1.701  17.331  0.0676 -0.0542 -0.1114
  316TMC3    C2 4747   0.374   1.722  17.404  0.3192 -0.1573  0.0735
  316TMC3    C3 4748   0.434   1.844  17.394  0.3619  0.2921  0.1408
  316TMC3    C4 4749   0.216   1.793  17.245 -0.5710 -0.0572  0.5092
  316TMC3    C5 4750   0.278   1.916  17.237  0.6309  0.4873 -0.2976
  316TMC3    C6 4751   0.381   1.943  17.322  0.2957  0.2931  0.3890
  316TMC3     C 4752   0.185   1.582  17.354 -0.4610 -0.4218 -0.0309
  316TMC3     O 4753   0.109   1.550  17.258 -0.3066  0.7786 -0.1700
  316TMC3     H 4754   0.423   1.639  17.453 -1.0356 -0.8796  0.2022
  316TMC3    H1 4755   0.128   1.769  17.186  1.7109 -1.1993 -2.4531
  316TMC3    H2 4756   0.424   2.043  17.325 -1.5929  1.1123  0.3110
  316TMC3    C7 4757   0.212   2.033  17.188 -0.1596  0.4056  0.7963
  316TMC3    C8 4758   0.565   1.861  17.452 -0.0799  0.1632  0.0808
  316TMC3    O1 4759   0.248   2.137  17.238 -0.2594  0.4310  0.0636
  316TMC3    O2 4760   0.637   1.948  17.402 -0.2767 -0.5990  0.0970
  317MPD2     C 4761   1.486   3.846  12.381  0.5116  0.1209 -0.3049
  317MPD2    C1 4762   1.586   3.756  12.343  0.3765 -0.5867  0.8184
  317MPD2    C2 4763   1.703   3.744  12.414  0.4431  0.2447 -0.2498
  317MPD2    C3 4764   1.726   3.816  12.532 -0.5608  0.2113  0.0748
  317MPD2    C4 4765   1.619   3.890  12.575  0.1872 -0.0701  0.1293
  317MPD2    C5 4766   1.505   3.899  12.501  0.1756 -0.3423 -0.7013
  317MPD2     H 4767   1.774   3.664  12.392  0.6440  0.2234  0.4604
  317MPD2    H1 4768   1.623   3.941  12.671 -1.1576  0.8215 -0.2915
  317MPD2    H2 4769   1.391   3.872  12.337 -1.0058 -1.6816  1.9199
  317MPD2    H3 4770   1.421   3.947  12.551 -0.1353 -0.8016 -0.7898
  317MPD2     N 4771   1.842   3.791  12.607  0.1518 -0.9326 -0.5467
  317MPD2    H5 4772   1.899   3.721  12.561  1.0435 -0.0200 -0.8319
  317MPD2    N1 4773   1.574   3.686  12.220  0.6690  0.3082  0.5229
  317MPD2    H7 4774   1.653   3.630  12.191 -0.1473 -1.5824  1.9384
  318TMC3    C1 4775   1.984   3.785  12.792  0.6143  0.4241 -0.0017
  318TMC3    C2 4776   1.948   3.746  12.915  0.1437 -0.1573  0.9911
  318TMC3    C3 4777   2.047   3.740  13.012 -0.5007  0.1399  0.5333
  318TMC3    C4 4778   2.109   3.820  12.760 -0.2109 -0.6138 -0.2879
  318TMC3    C5 4779   2.207   3.814  12.857 -0.1031  0.1164  0.2635
  318TMC3    C6 4780   2.174   3.785  12.989 -0.7389 -0.1979  0.4635
  318TMC3     C 4781   1.869   3.840  12.731  0.3070 -0.4593  0.2314
  318TMC3     O 4782   1.810   3.918  12.806 -0.1321  0.5425 -0.3640
  318TMC3     H 4783   1.844   3.713  12.922  0.2323 -0.7433 -0.4297
  318TMC3    H1 4784   2.137   3.835  12.656  0.1638  0.6780 -0.0024
  318TMC3    H2 4785   2.251   3.759  13.061 -0.4568  1.5478  0.7735
  318TMC3    C7 4786   2.336   3.862  12.824 -0.1877 -0.5359 -0.1703
  318TMC3    C8 4787   2.019   3.685  13.145  0.0680 -0.4609  0.3633
  318TMC3    O1 4788   2.337   3.939  12.732  0.0295  0.1932  0.3484
  318TMC3    O2 4789   2.100   3.707  13.237  0.3163  0.6103 -0.3870
  319MPD2     C 4790   3.176   0.713  16.700  0.4316  0.1592 -0.1101
  319MPD2    C1 4791   3.076   0.628  16.751 -0.4398 -0.5116  0.1144
  319MPD2    C2 4792   2.989   0.570  16.656  0.2363 -0.5349  0.5200
  319MPD2    C3 4793   2.993   0.615  16.521  0.1354 -0.2983 -0.3351
  319MPD2    C4 4794   3.103   0.693  16.478  0.4072 -0.4715 -0.3752
  319MPD2    C5 4795   3.195   0.738  16.568 -0.1540  0.4870  0.5152
  319MPD2     H 4796   2.909   0.507  16.694 -1.8862  0.6783 -1.9488
  319MPD2    H1 4797   3.112   0.721  16.374 -0.7700 -0.6728 -0.5355
  319MPD2    H2 4798   3.252   0.753  16.765  0.9692  0.9883 -1.2430
  319MPD2    H3 4799   3.283   0.796  16.544  1.0097 -0.9313  1.2815
  319MPD2     N 4800   2.890   0.581  16.427 -0.3329  0.1338 -0.1650
  319MPD2    H5 4801   2.898   0.628  16.337 -1.0381 -1.0626 -0.8465
  319MPD2    N1 4802   3.052   0.606  16.892  0.0616 -0.2501 -0.8914
  319MPD2    H7 4803   2.969   0.551  16.914  0.9663 -0.4145  2.1162
  320TMC3    C1 4804   2.698   0.466  16.340  0.1799  0.1747 -0.5536
  320TMC3    C2 4805   2.696   0.556  16.233 -0.2737 -0.1213 -0.1863
  320TMC3    C3 4806   2.629   0.511  16.119 -0.2870 -0.4146  0.0213
  320TMC3    C4 4807   2.628   0.353  16.344  0.2772  0.6055 -0.1239
  320TMC3    C5 4808   2.578   0.307  16.225  0.1407  0.1040  0.2292
  320TMC3    C6 4809   2.578   0.387  16.106  0.2362 -0.9178 -0.1637
  320TMC3     C 4810   2.792   0.485  16.450 -0.2108 -0.9376  0.8541
  320TMC3     O 4811   2.780   0.406  16.541  0.2223  0.7034  0.0645
  320TMC3     H 4812   2.730   0.659  16.241  1.5711 -0.8331  1.0510
  320TMC3    H1 4813   2.643   0.281  16.424  0.7526  0.4337 -0.3688
  320TMC3    H2 4814   2.511   0.368  16.023 -2.5281 -1.1744  2.1277
  320TMC3    C7 4815   2.532   0.168  16.210  0.6805  0.0881  0.4250
  320TMC3    C8 4816   2.551   0.616  16.052  0.0905 -1.0014 -0.0898
  320TMC3    O1 4817   2.491   0.140  16.096  0.1483  0.1365  0.0172
  320TMC3    O2 4818   2.555   0.721  16.115 -0.2671  0.2935 -0.8004
  321TMC3    C1 4819   3.064   0.633  17.128 -0.3906  0.3839  0.3802
  321TMC3    C2 4820   3.018   0.505  17.160  0.4851  0.8231  0.1751
  321TMC3    C3 4821   2.972   0.497  17.288 -0.6742  0.0479 -0.4640
  321TMC3    C4 4822   3.067   0.739  17.219 -0.2544 -0.2376 -0.3311
  321TMC3    C5 4823   3.011   0.718  17.340 -0.2553  0.0061 -0.0837
  321TMC3    C6 4824   2.954   0.599  17.379  0.5433 -0.3036  0.3579
  321TMC3     C 4825   3.124   0.650  16.997  0.0909  0.3233 -0.0578
  321TMC3     O 4826   3.219   0.729  16.991 -0.6774 -0.0190  0.3805
  321TMC3     H 4827   3.015   0.413  17.102 -0.9391  0.0492  1.4792
  321TMC3    H1 4828   3.113   0.833  17.192 -0.8849 -0.2204 -1.3151
  321TMC3    H2 4829   2.900   0.589  17.473  1.5545  3.4424  1.3277
  321TMC3    C7 4830   3.080   0.785  17.442 -0.1110 -0.4000 -0.2318
  321TMC3    C8 4831   3.011   0.380  17.362 -0.8830  0.8183 -0.3876
  321TMC3    O1 4832   3.116   0.901  17.430 -0.0942 -0.3745  0.3430
  321TMC3    O2 4833   3.032   0.411  17.477  0.0552  0.2228  0.2232
  322MPD2     C 4834   1.426   1.843  13.920  0.7967 -0.2543 -0.3118
  322MPD2    C1 4835   1.510   1.778  14.002  0.1955  0.1980 -0.7124
  322MPD2    C2 4836   1.531   1.645  13.977  0.1449  0.5354  0.1270
  322MPD2    C3 4837   1.491   1.585  13.860 -0.7066  0.1200 -1.1826
  322MPD2    C4 4838   1.399   1.656  13.778 -0.8708  0.1948 -0.4466
  322MPD2    C5 4839   1.362   1.780  13.813  0.4616  0.2563  0.3712
  322MPD2     H 4840   1.599   1.588  14.039 -2.0429 -0.9367  1.1780
  322MPD2    H1 4841   1.353   1.615  13.688  0.0948 -1.1404 -0.3391
  322MPD2    H2 4842   1.398   1.941  13.956 -1.3439 -0.7241 -0.7033
  322MPD2    H3 4843   1.290   1.828  13.748  1.8208  2.4874  0.5235
  322MPD2     N 4844   1.533   1.455  13.830 -0.5730 -0.0975  0.2983
  322MPD2    H5 4845   1.592   1.411  13.899  1.9285  2.5025 -0.1649
  322MPD2    N1 4846   1.573   1.852  14.100  0.6739  0.3083  0.2344
  322MPD2    H7 4847   1.573   1.953  14.094 -3.6347  0.4804  2.8116
  323TMC3    C1 4848   1.736   1.886  14.258 -0.9264 -0.6856 -1.3121
  323TMC3    C2 4849   1.818   1.963  14.181 -0.6151 -0.4828 -0.6065
  323TMC3    C3 4850   1.940   1.997  14.238 -0.2410 -0.2321 -0.5353
  323TMC3    C4 4851   1.775   1.851  14.383  0.2629  0.6538 -0.7433
  323TMC3    C5 4852   1.892   1.892  14.439  0.4373  0.3730  0.4383
  323TMC3    C6 4853   1.980   1.961  14.363  0.2161 -0.0027  0.5734
  323TMC3     C 4854   1.645   1.793  14.198 -0.2583  0.3530  0.3170
  323TMC3     O 4855   1.651   1.675  14.240 -0.1519  0.5652  0.3906
  323TMC3     H 4856   1.797   1.979  14.076 -1.4737 -1.1226 -0.5292
  323TMC3    H1 4857   1.705   1.795  14.443 -0.7754  0.3210 -2.2669
  323TMC3    H2 4858   2.079   1.973  14.406  0.2592 -1.1027  0.7631
  323TMC3    C7 4859   1.949   1.807  14.541 -0.1911  0.0777 -0.2851
  323TMC3    C8 4860   2.047   2.031  14.149  0.5410 -0.3553 -0.4667
  323TMC3    O1 4861   1.895   1.699  14.561  0.7865 -0.5253  0.7674
  323TMC3    O2 4862   2.159   2.024  14.198  0.3853 -0.3283 -0.0531
  324MPD2     C 4863   3.357   2.814  14.332 -0.3373  0.1827 -0.0132
  324MPD2    C1 4864   3.348   2.953  14.335  0.0899  0.5346 -0.1460
  324MPD2    C2 4865   3.224   3.010  14.351 -0.6066  0.2807  0.6973
  324MPD2    C3 4866   3.112   2.938  14.371 -0.3183 -0.0316  0.1874
  324MPD2    C4 4867   3.124   2.800  14.369 -0.2301  0.2197  0.4340
  324MPD2    C5 4868   3.243   2.737  14.349 -0.0273 -0.2179  0.5281
  324MPD2     H 4869   3.218   3.118  14.342 -1.6771  0.3611  2.4965
  324MPD2    H1 4870   3.029   2.748  14.364 -0.8506  1.5393 -1.5360
  324MPD2    H2 4871   3.449   2.760  14.314  0.2415  1.3732 -0.6603
  324MPD2    H3 4872   3.261   2.630  14.341 -0.8181 -0.3226  0.0694
  324MPD2     N 4873   2.977   2.989  14.381 -0.4255 -0.1864  0.9595
  324MPD2    H5 4874   2.908   2.916  14.363 -2.3773  1.5482  1.4241
  324MPD2    N1 4875   3.465   3.030  14.317 -0.8409 -0.1421  0.3464
  324MPD2    H7 4876   3.451   3.128  14.297  1.8425 -0.0957 -1.2528
  325TMC3    C1 4877   2.797   3.143  14.412 -0.6985 -0.2203 -0.3984
  325TMC3    C2 4878   2.717   3.076  14.324 -0.3247 -0.5816  0.7475
  325TMC3    C3 4879   2.591   3.131  14.300 -0.4430  0.3844  0.1878
  325TMC3    C4 4880   2.771   3.267  14.457  0.2758 -0.0707 -0.5975
  325TMC3    C5 4881   2.653   3.322  14.410 -0.0099  0.2526  0.3837
  325TMC3    C6 4882   2.554   3.253  14.338  0.1063  0.2576 -0.3501
  325TMC3     C 4883   2.941   3.112  14.429 -0.2121 -0.1234  0.1570
  325TMC3     O 4884   3.014   3.198  14.476 -0.2969 -0.4153  0.1340
  325TMC3     H 4885   2.735   2.974  14.291  1.9029 -0.4265  1.4765
  325TMC3    H1 4886   2.844   3.327  14.510 -0.6049  0.3273  0.1642
  325TMC3    H2 4887   2.455   3.295  14.326 -0.4151 -1.4708 -2.1605
  325TMC3    C7 4888   2.628   3.465  14.453 -0.0981 -0.3462  0.4893
  325TMC3    C8 4889   2.519   3.068  14.192  0.0295 -0.3506  0.6603
  325TMC3    O1 4890   2.703   3.509  14.537 -0.0636  0.0238  0.1106
  325TMC3    O2 4891   2.563   2.960  14.150 -0.8419 -0.1764  0.0007
  326MPD2     C 4892   0.121   3.906  10.732  0.1940 -0.4845 -0.4118
  326MPD2    C1 4893   0.073   4.023  10.673  0.6715  0.1536 -0.7621
  326MPD2    C2 4894   0.124   4.149  10.712 -1.2590 -0.0053 -0.0600
  326MPD2    C3 4895   0.218   4.163  10.813  0.5071 -0.3761  0.8367
  326MPD2    C4 4896   0.260   4.048  10.869 -0.2485 -0.1283 -0.9282
  326MPD2    C5 4897   0.212   3.923  10.831  0.2079  0.4836  0.1063
  326MPD2     H 4898   0.080   4.233  10.661 -0.7829  0.7286  0.7359
  326MPD2    H1 4899   0.330   4.049  10.952 -0.4053 -0.4971 -0.7923
  326MPD2    H2 4900   0.096   3.805  10.701  0.5303 -0.4230 -0.8819
  326MPD2    H3 4901   0.248   3.839  10.890 -1.1460 -1.4431 -1.7743
  326MPD2     N 4902   0.257   4.294  10.874 -0.4070 -0.4217  0.1708
  326MPD2    H5 4903   0.327   4.294  10.947  1.1202  0.7948 -1.3053
  326MPD2    N1 4904   4.708   4.017  10.557 -0.7729  0.3714 -0.1353
  326MPD2    H7 4905   4.688   4.104  10.510  0.9193  1.8092  1.7941
  327TMC3    C1 4906   4.626   3.930  10.361 -0.3669 -0.4498  0.3043
  327TMC3    C2 4907   4.501   3.985  10.334 -0.0329  0.6929  0.3525
  327TMC3    C3 4908   4.495   4.073  10.232  0.0380 -0.2054 -0.2867
  327TMC3    C4 4909   0.016   3.974  10.293 -0.6251 -0.2465 -0.2330
  327TMC3    C5 4910   4.718   4.069  10.191 -0.3974 -0.5139  0.1064
  327TMC3    C6 4911   4.595   4.111  10.147 -1.0228 -0.1641 -0.9749
  327TMC3     C 4912   4.657   3.904  10.497 -0.0006 -0.5923  0.5542
  327TMC3     O 4913   4.649   3.789  10.547  0.2137 -0.1031 -0.0019
  327TMC3     H 4914   4.417   3.951  10.392  0.3291 -0.0652  0.4303
  327TMC3    H1 4915   0.108   3.926  10.324 -1.4976 -0.3621  2.1880
  327TMC3    H2 4916   4.596   4.183  10.066 -1.5364  0.1197 -0.7277
  327TMC3    C7 4917   0.102   4.169  10.185  0.3457  0.1928 -0.4338
  327TMC3    C8 4918   4.379   4.162  10.222  0.3403  0.3368 -0.0298
  327TMC3    O1 4919   0.089   4.273  10.119  0.2384  0.3453  0.3684
  327TMC3    O2 4920   4.364   4.233  10.121 -0.1569  0.1261  0.3935
  328MPD2     C 4921   2.466   4.235  17.029 -0.0697  0.4846  0.2212
  328MPD2    C1 4922   2.385   4.123  17.010  0.7105  0.0829  0.7095
  328MPD2    C2 4923   2.260   4.141  16.963 -0.0268  0.2945  0.7267
  328MPD2    C3 4924   2.203   4.263  16.928  0.3722 -0.1633  0.7503
  328MPD2    C4 4925   2.286   4.377  16.943 -0.1244 -0.5565 -0.0375
  328MPD2    C5 4926   2.412   4.359  16.996  0.7166 -0.0102 -0.3089
  328MPD2     H 4927   2.203   4.055  16.929 -0.2119 -0.3765  2.7019
  328MPD2    H1 4928   2.265   4.471  16.894  1.5071 -0.8374 -1.2547
  328MPD2    H2 4929   2.566   4.232  17.069 -0.3722 -0.3315  0.9043
  328MPD2    H3 4930   2.476   4.446  17.007 -0.8583  0.7559  2.7362
  328MPD2     N 4931   2.075   4.273  16.859  0.3949  0.4432 -0.1507
  328MPD2    H5 4932   2.042   4.367  16.837  3.0846  1.4033 -0.0442
  328MPD2    N1 4933   2.431   3.996  17.045 -0.2826 -0.4823 -0.0560
  328MPD2    H7 4934   2.524   3.979  17.083  0.4289  0.9255 -1.1733
  329TMC3    C1 4935   2.408   3.777  17.114  0.6913  1.2410  0.6206
  329TMC3    C2 4936   2.433   3.803  17.241  0.3140  0.1250  0.1419
  329TMC3    C3 4937   2.432   3.700  17.328  0.6928  0.1813  0.3650
  329TMC3    C4 4938   2.370   3.657  17.068 -0.2210 -0.0326  0.2012
  329TMC3    C5 4939   2.372   3.552  17.161 -0.7191 -0.5059  0.2703
  329TMC3    C6 4940   2.408   3.566  17.286 -0.0884 -1.1328  0.0742
  329TMC3     C 4941   2.363   3.877  17.023  0.1474  0.3692  0.2041
  329TMC3     O 4942   2.260   3.847  16.965 -0.6426 -0.1199  0.1405
  329TMC3     H 4943   2.446   3.905  17.276 -4.2491 -0.8036  4.6104
  329TMC3    H1 4944   2.351   3.647  16.961  0.4211  2.2470 -0.1395
  329TMC3    H2 4945   2.438   3.490  17.357 -2.0565 -2.9868 -1.0768
  329TMC3    C7 4946   2.364   3.416  17.108  0.0949 -0.1232  0.5043
  329TMC3    C8 4947   2.477   3.726  17.464 -0.7849  0.6129 -0.9336
  329TMC3    O1 4948   2.360   3.398  16.989 -0.1202  0.7899  0.5264
  329TMC3    O2 4949   2.594   3.759  17.463 -0.7656  0.1396  0.0353
  330TMC3    C1 4950   0.813   3.528   9.908  0.2568  0.2175  0.1532
  330TMC3    C2 4951   0.729   3.445   9.830 -0.0734  0.1650  0.1307
  330TMC3    C3 4952   0.710   3.312   9.868  0.9540  0.5812 -0.0131
  330TMC3    C4 4953   0.880   3.485  10.013 -0.3242  0.5404  0.0573
  330TMC3    C5 4954   0.870   3.352  10.042  0.7595 -0.0393 -0.3923
  330TMC3    C6 4955   0.788   3.265   9.974 -0.7248  0.1642 -0.7115
  330TMC3     C 4956   0.809   3.672   9.890 -0.1608 -0.3778 -0.1867
  330TMC3     O 4957   0.820   3.738   9.996 -0.7047 -0.1025  0.2926
  330TMC3     H 4958   0.690   3.475   9.733 -0.0852  1.8396  0.6516
  330TMC3    H1 4959   0.948   3.545  10.072  0.3131  0.3256 -0.4649
  330TMC3    H2 4960   0.775   3.162  10.005  0.3880 -0.0561 -1.0042
  330TMC3    C7 4961   0.927   3.313  10.164  0.5592  0.2769  0.7604
  330TMC3    C8 4962   0.625   3.230   9.782  0.5986 -0.1103 -0.2643
  330TMC3    O1 4963   0.936   3.395  10.255 -0.0637 -0.1882  0.2226
  330TMC3    O2 4964   0.530   3.290   9.733  0.5774 -0.0562  0.6402
  331MPD2     C 4965   2.657   2.264  12.829  0.2122  0.4305 -0.0051
  331MPD2    C1 4966   2.751   2.273  12.731  0.7812 -1.0025 -0.4831
  331MPD2    C2 4967   2.785   2.160  12.664 -0.3583  0.5071  0.0629
  331MPD2    C3 4968   2.731   2.037  12.691  0.6074 -1.0452 -0.1562
  331MPD2    C4 4969   2.632   2.024  12.789  0.0051  0.9777 -0.6662
  331MPD2    C5 4970   2.600   2.138  12.855 -0.2350 -0.0292 -0.3333
  331MPD2     H 4971   2.868   2.156  12.594 -1.3167 -0.3124 -1.0324
  331MPD2    H1 4972   2.586   1.929  12.815 -0.7900  1.7326  0.6155
  331MPD2    H2 4973   2.628   2.345  12.895  1.6202  0.3978  0.6609
  331MPD2    H3 4974   2.532   2.128  12.939 -1.3819 -1.1274 -1.3945
  331MPD2     N 4975   2.778   1.927  12.615 -0.4721  0.2137 -0.2159
  331MPD2    H5 4976   2.839   1.953  12.538 -0.2238  1.3144  0.3565
  331MPD2    N1 4977   2.811   2.392  12.694 -0.3157  0.3554  0.4259
  331MPD2    H7 4978   2.794   2.474  12.751  2.0313  2.1072 -1.4177
  332TMC3    C1 4979   2.838   1.711  12.561 -0.4943  0.2082 -0.0245
  332TMC3    C2 4980   2.859   1.755  12.432  0.7902  0.0671 -0.1630
  332TMC3    C3 4981   2.977   1.710  12.370  0.3830  0.2735 -0.2605
  332TMC3    C4 4982   2.927   1.630  12.625 -0.0282 -0.1243  0.4060
  332TMC3    C5 4983   3.049   1.599  12.564  0.0051  0.4360 -0.1698
  332TMC3    C6 4984   3.071   1.642  12.436  0.9348  0.2144  0.7409
  332TMC3     C 4985   2.770   1.794  12.656  0.8099  0.1388  1.0103
  332TMC3     O 4986   2.724   1.751  12.764 -0.0950 -0.0627 -0.3790
  332TMC3     H 4987   2.790   1.824  12.385  1.0481  0.1155 -0.4762
  332TMC3    H1 4988   2.902   1.599  12.726 -2.6981  0.6992  0.0089
  332TMC3    H2 4989   3.157   1.615  12.378  0.8231  0.9165  0.2496
  332TMC3    C7 4990   3.128   1.493  12.617  0.0376  0.6291 -0.1403
  332TMC3    C8 4991   3.008   1.774  12.240  0.1703 -0.4373 -0.2532
  332TMC3    O1 4992   3.089   1.390  12.666 -0.4132  0.1425  0.1172
  332TMC3    O2 4993   3.126   1.790  12.206  0.7444 -0.4253 -0.7531
  333MPD2     C 4994   3.335   2.831  10.992  0.2366  0.2297 -0.0001
  333MPD2    C1 4995   3.372   2.700  10.993 -0.3157 -0.1387 -0.8979
  333MPD2    C2 4996   3.293   2.605  11.059  0.1645 -0.6803  0.1469
  333MPD2    C3 4997   3.169   2.643  11.107 -0.0731 -0.2368 -0.1932
  333MPD2    C4 4998   3.129   2.775  11.100  0.0425  0.1163  0.0756
  333MPD2    C5 4999   3.215   2.865  11.045  0.1665  0.1914  0.3274
  333MPD2     H 5000   3.324   2.503  11.080 -0.2135 -1.0205 -0.9451
  333MPD2    H1 5001   3.033   2.812  11.135  0.9211  2.0418  0.4387
  333MPD2    H2 5002   3.403   2.906  10.954  1.4233 -1.1459 -0.6139
  333MPD2    H3 5003   3.183   2.968  11.050  2.4062  0.7829  2.2804
  333MPD2     N 5004   3.094   2.545  11.173 -0.0103  0.3052 -0.6691
  333MPD2    H5 5005   3.121   2.447  11.167  0.6174  0.4039  0.5990
  333MPD2    N1 5006   3.505   2.676  10.948 -0.5625  0.7627  0.5029
  333MPD2    H7 5007   3.561   2.745  10.899 -2.6434  1.7590 -0.4756
  334TMC3    C1 5008   3.687   2.540  10.874 -0.0195  0.5418 -0.9320
  334TMC3    C2 5009   3.776   2.436  10.905 -0.3637 -0.2770 -0.5972
  334TMC3    C3 5010   3.855   2.394  10.806  1.3037  0.6201  0.3038
  334TMC3    C4 5011   3.695   2.598  10.748 -0.4375  0.0170  0.1247
  334TMC3    C5 5012   3.779   2.550  10.646  0.4974 -0.0822  0.0875
  334TMC3    C6 5013   3.868   2.452  10.679 -0.0535 -0.4798 -0.5657
  334TMC3     C 5014   3.580   2.559  10.971  0.2277 -0.6306  0.4323
  334TMC3     O 5015   3.566   2.476  11.057 -0.8717  0.0578  0.8498
  334TMC3     H 5016   3.781   2.389  11.002  2.5849  0.2417 -0.4981
  334TMC3    H1 5017   3.638   2.688  10.729  2.0925  1.5117 -0.3906
  334TMC3    H2 5018   3.947   2.417  10.614  0.4994 -0.3923  0.0478
  334TMC3    C7 5019   3.807   2.630  10.531  0.1708  0.1711  0.0538
  334TMC3    C8 5020   3.964   2.306  10.850 -0.0369  0.2699  0.7225
  334TMC3    O1 5021   3.765   2.744  10.529  0.0924 -0.3804  0.2241
  334TMC3    O2 5022   3.939   2.213  10.928  0.5224  0.0644  0.2915
  335TMC3    C1 5023   2.913   4.284  17.357  0.3921  0.1404 -0.7620
  335TMC3    C2 5024   2.822   4.191  17.311  0.3840  0.5060 -0.1513
  335TMC3    C3 5025   2.862   4.059  17.307 -0.3691 -0.4829 -0.5131
  335TMC3    C4 5026   3.024   4.245  17.415  0.4138  0.5338 -0.6467
  335TMC3    C5 5027   3.058   4.113  17.412 -0.4675 -0.4323 -0.4423
  335TMC3    C6 5028   2.984   4.017  17.351  0.3380  0.1056  0.8109
  335TMC3     C 5029   2.881   4.418  17.354 -0.7804 -0.1371 -0.3685
  335TMC3     O 5030   2.928   4.488  17.442 -0.3700  0.0416  0.3388
  335TMC3     H 5031   2.723   4.212  17.273  0.5068 -0.0539 -0.7691
  335TMC3    H1 5032   3.099   4.323  17.427 -0.4708  1.0615  1.4030
  335TMC3    H2 5033   3.019   3.914  17.349  0.1658  0.0629 -0.0179
  335TMC3    C7 5034   3.200   4.089  17.402  0.3330 -0.5886  0.3192
  335TMC3    C8 5035   2.802   3.973  17.206 -0.0838 -0.0968 -0.2302
  335TMC3    O1 5036   3.233   4.005  17.318  0.7342  0.6123  0.1795
  335TMC3    O2 5037   2.735   4.030  17.123  0.3135 -0.1128  0.5157
  336MPD2     C 5038   2.426   1.794  16.621 -0.1438 -0.0814 -0.5100
  336MPD2    C1 5039   2.473   1.771  16.497  0.4200 -0.0480 -0.2626
  336MPD2    C2 5040   2.524   1.642  16.467 -0.2395  0.7230  0.7803
  336MPD2    C3 5041   2.537   1.546  16.573 -0.3932 -0.0432  0.4911
  336MPD2    C4 5042   2.500   1.581  16.704  0.0727 -0.2905 -0.1408
  336MPD2    C5 5043   2.431   1.701  16.723 -0.1893 -0.1039  0.0838
  336MPD2     H 5044   2.549   1.609  16.366  1.4033  3.5950  0.2539
  336MPD2    H1 5045   2.514   1.518  16.791 -1.6442 -1.7651 -0.9329
  336MPD2    H2 5046   2.381   1.890  16.646  0.2053 -0.2663  0.8490
  336MPD2    H3 5047   2.389   1.715  16.822 -1.1936  0.5167 -0.4346
  336MPD2     N 5048   2.590   1.414  16.558  0.2263  0.1475  0.3847
  336MPD2    H5 5049   2.564   1.353  16.635 -0.4427  0.9815  0.8224
  336MPD2    N1 5050   2.436   1.862  16.401  0.0695  0.2695 -0.2841
  336MPD2    H7 5051   2.411   1.950  16.445 -0.7095  0.7382 -1.6706
  337TMC3    C1 5052   2.383   1.959  16.184 -0.4722  0.2004 -0.9207
  337TMC3    C2 5053   2.390   1.955  16.047  0.0422  0.5814  0.6171
  337TMC3    C3 5054   2.303   2.034  15.973  0.0181 -0.0800 -0.1424
  337TMC3    C4 5055   2.280   2.026  16.243  0.1743  0.5298  0.5609
  337TMC3    C5 5056   2.200   2.109  16.172 -0.1159  0.4828  0.3136
  337TMC3    C6 5057   2.207   2.111  16.038 -0.2515 -0.0081  0.4499
  337TMC3     C 5058   2.450   1.852  16.262  0.5845  0.2028  0.2054
  337TMC3     O 5059   2.491   1.768  16.185 -0.2258  0.5219 -0.0576
  337TMC3     H 5060   2.468   1.898  15.999 -2.7261 -0.0833 -3.0936
  337TMC3    H1 5061   2.265   2.020  16.350 -1.5332 -0.5672  0.2592
  337TMC3    H2 5062   2.143   2.173  15.977  1.7437  1.8503  0.2330
  337TMC3    C7 5063   2.123   2.216  16.236 -1.0784  0.0367 -0.5833
  337TMC3    C8 5064   2.287   2.004  15.837 -0.3299 -0.4621 -0.2913
  337TMC3    O1 5065   2.031   2.263  16.169 -0.8133  0.2454 -0.2810
  337TMC3    O2 5066   2.311   1.889  15.806 -0.5936  0.0039  0.0751
  338MPD2     C 5067   3.556   0.795   0.770 -0.7565 -0.2358  0.0943
  338MPD2    C1 5068   3.493   0.915   0.735 -0.1455  0.1848  0.4599
  338MPD2    C2 5069   3.583   1.024   0.734 -0.0693 -0.4545  0.7056
  338MPD2    C3 5070   3.719   1.010   0.767 -0.0475  0.3780  0.7918
  338MPD2    C4 5071   3.770   0.888   0.792  0.1588 -0.3473  0.2046
  338MPD2    C5 5072   3.686   0.786   0.801  0.2034 -0.0306 -0.5907
  338MPD2     H 5073   3.548   1.123   0.707  2.3444 -0.3209 -1.9238
  338MPD2    H1 5074   3.876   0.869   0.807 -0.1970 -2.3020  0.2935
  338MPD2    H2 5075   3.495   0.706   0.776  0.2825 -0.7506  3.3792
  338MPD2    H3 5076   3.730   0.696   0.843 -0.0668  0.4653  0.7724
  338MPD2     N 5077   3.796   1.129   0.768  1.2088 -0.0878 -0.5475
  338MPD2    H5 5078   3.750   1.218   0.750 -1.0496 -1.4901 -1.7389
  338MPD2    N1 5079   3.349   0.935   0.710  1.5171 -0.2973 -0.4829
  338MPD2    H7 5080   3.323   1.030   0.688  4.4886  0.0678 -2.3899
  339TMC3    C1 5081   3.956   1.277   0.827  0.5310 -0.2622 -0.7496
  339TMC3    C2 5082   3.979   1.323   0.950 -0.1947 -0.0625 -0.3535
  339TMC3    C3 5083   3.940   1.448   0.984  0.7544 -0.1917 -0.3147
  339TMC3    C4 5084   3.893   1.351   0.730 -0.1462  0.1013  0.4119
  339TMC3    C5 5085   3.844   1.478   0.778 -0.1737  0.4385 -0.1047
  339TMC3    C6 5086   3.874   1.528   0.899  0.2434  0.2084  0.5865
  339TMC3     C 5087   3.922   1.136   0.817 -0.8625  0.6311 -0.0498
  339TMC3     O 5088   3.984   1.057   0.886  0.2663  0.2334 -0.0048
  339TMC3     H 5089   4.030   1.264   1.025 -0.5759  2.0044  1.5114
  339TMC3    H1 5090   3.886   1.311   0.630 -0.0538 -0.9605  0.8232
  339TMC3    H2 5091   3.854   1.629   0.933 -0.0088 -0.0690  1.2605
  339TMC3    C7 5092   3.703   1.494   0.742  0.3023  0.6753  0.3549
  339TMC3    C8 5093   3.954   1.483   1.130 -0.0281  0.3538  0.0532
  339TMC3    O1 5094   3.677   1.459   0.627  0.2062 -0.3956 -0.2479
  339TMC3    O2 5095   4.004   1.586   1.171 -0.1660 -0.2560  0.2527
  340MPD2     C 5096   2.777   3.626  10.035 -0.0971  0.6709  0.5315
  340MPD2    C1 5097   2.869   3.621   9.933  0.0163 -0.0239 -0.4283
  340MPD2    C2 5098   3.001   3.663   9.957  0.1870  0.0605  0.2343
  340MPD2    C3 5099   3.039   3.706  10.079  0.1674 -0.4789  0.7678
  340MPD2    C4 5100   2.944   3.716  10.179 -0.3368 -0.3989  1.1495
  340MPD2    C5 5101   2.815   3.670  10.161  0.4196  0.0585 -0.9898
  340MPD2     H 5102   3.066   3.656   9.870  1.8931 -0.7314  1.5645
  340MPD2    H1 5103   2.975   3.751  10.277  1.0885 -0.8987  0.8690
  340MPD2    H2 5104   2.676   3.594  10.012  0.8149 -0.8763 -1.4031
  340MPD2    H3 5105   2.730   3.657  10.227  0.4287 -1.4088 -1.2618
  340MPD2     N 5106   3.174   3.741  10.107 -0.3538 -0.0632 -0.1932
  340MPD2    H5 5107   3.180   3.778  10.201 -0.6832 -1.7468  0.4907
  340MPD2    N1 5108   2.829   3.574   9.809  0.4964  0.7879  0.3627
  340MPD2    H7 5109   2.752   3.509   9.798  0.2606  1.6003 -2.7805
  341TMC3    C1 5110   2.844   3.510   9.584 -1.4207  0.2369 -0.4008
  341TMC3    C2 5111   2.783   3.387   9.621 -0.5954 -0.5577  0.0817
  341TMC3    C3 5112   2.761   3.297   9.515 -0.3924 -0.1925 -0.2828
  341TMC3    C4 5113   2.892   3.536   9.457  0.2145  0.0735  0.2950
  341TMC3    C5 5114   2.863   3.442   9.360 -0.4011 -0.2069  0.2955
  341TMC3    C6 5115   2.802   3.320   9.388 -0.0653  0.0056  0.2450
  341TMC3     C 5116   2.888   3.599   9.687 -0.9391  0.3844 -0.4912
  341TMC3     O 5117   2.963   3.689   9.657  0.3178  0.4036  0.8344
  341TMC3     H 5118   2.768   3.368   9.726 -2.7329 -1.9595 -0.4791
  341TMC3    H1 5119   2.919   3.636   9.425 -0.1582 -0.7014 -2.4399
  341TMC3    H2 5120   2.780   3.251   9.308 -0.0165  0.5618 -0.2554
  341TMC3    C7 5121   2.925   3.452   9.233 -0.2843  0.8169  0.3295
  341TMC3    C8 5122   2.686   3.167   9.535 -0.0597 -0.4194  0.2129
  341TMC3    O1 5123   3.007   3.538   9.232 -0.5792 -0.2497  0.0720
  341TMC3    O2 5124   2.680   3.098   9.438  0.5618 -0.9618  0.1350
  342MPD2     C 5125   0.787   2.486  16.815 -0.4221 -0.3975  0.0183
  342MPD2    C1 5126   0.897   2.472  16.892  0.6342  0.3573 -0.5299
  342MPD2    C2 5127   0.937   2.579  16.970 -0.3342  0.0007 -0.7796
  342MPD2    C3 5128   0.876   2.697  16.954 -0.7045  0.2191 -0.8710
  342MPD2    C4 5129   0.770   2.714  16.870  0.6295 -0.3956 -0.7939
  342MPD2    C5 5130   0.721   2.606  16.807  0.3543  0.0906 -0.4433
  342MPD2     H 5131   1.005   2.551  17.050 -1.2805 -2.4628 -0.8254
  342MPD2    H1 5132   0.734   2.812  16.841 -2.0206 -0.1514  3.3122
  342MPD2    H2 5133   0.745   2.405  16.757  1.8357 -0.7241 -1.1422
  342MPD2    H3 5134   0.636   2.623  16.742 -1.6622  0.0780  2.1852
  342MPD2     N 5135   0.916   2.804  17.026 -0.0549 -0.2954 -0.0979
  342MPD2    H5 5136   0.860   2.887  17.013 -2.1392 -1.8466 -1.0591
  342MPD2    N1 5137   0.972   2.354  16.902 -0.0485 -0.1914 -0.1822
  342MPD2    H7 5138   1.057   2.362  16.958 -0.9718 -0.3734  1.2595
  343TMC3    C1 5139   1.046   2.141  16.885  0.0984 -0.3555  0.1908
  343TMC3    C2 5140   1.181   2.152  16.871  0.2220  0.1448  0.2087
  343TMC3    C3 5141   1.252   2.052  16.922 -1.4001 -0.3656 -0.5940
  343TMC3    C4 5142   0.991   2.053  16.970 -0.2199 -0.0329  0.3476
  343TMC3    C5 5143   1.070   1.962  17.039  0.1513 -0.3040  0.2698
  343TMC3    C6 5144   1.198   1.946  17.001 -0.1287 -0.2584 -0.1823
  343TMC3     C 5145   0.940   2.235  16.840  0.1383 -0.1110  0.6172
  343TMC3     O 5146   0.834   2.196  16.789  0.0673  0.5530 -0.2261
  343TMC3     H 5147   1.226   2.214  16.794 -0.2519  0.7421  0.4178
  343TMC3    H1 5148   0.885   2.062  16.994 -0.2675  0.2226  0.0391
  343TMC3    H2 5149   1.268   1.877  17.046  0.2173 -0.2073 -0.6458
  343TMC3    C7 5150   0.998   1.851  17.106  0.0421  0.0896  0.3204
  343TMC3    C8 5151   1.386   2.026  16.859  0.2248  1.1623  0.4145
  343TMC3    O1 5152   0.885   1.835  17.064 -0.3042 -0.3744 -0.0327
  343TMC3    O2 5153   1.448   2.126  16.824 -0.2150 -0.2725  0.0935
  344MPD2     C 5154   1.718   1.810  10.622  0.2080 -0.0161  0.2572
  344MPD2    C1 5155   1.798   1.710  10.578  0.1569 -0.9283  0.1546
  344MPD2    C2 5156   1.881   1.729  10.460 -0.7990  0.1498 -0.7153
  344MPD2    C3 5157   1.901   1.854  10.416 -0.3338 -0.4072  0.1622
  344MPD2    C4 5158   1.823   1.960  10.469 -0.4214 -0.4726  0.5182
  344MPD2    C5 5159   1.740   1.935  10.575 -0.3386 -0.1445 -0.3440
  344MPD2     H 5160   1.937   1.646  10.419 -2.9916 -1.2182 -0.9586
  344MPD2    H1 5161   1.825   2.063  10.436  1.1440 -0.6765 -0.0084
  344MPD2    H2 5162   1.656   1.807  10.711 -0.4531  0.3239 -0.1923
  344MPD2    H3 5163   1.705   2.021  10.629  0.1169 -0.1822  0.0079
  344MPD2     N 5164   1.991   1.889  10.314  0.8823  0.0630  0.6472
  344MPD2    H5 5165   1.986   1.983  10.275  0.9088 -0.1302  0.1733
  344MPD2    N1 5166   1.773   1.577  10.626  0.9385 -0.0133 -0.7574
  344MPD2    H7 5167   1.778   1.506  10.554 -2.6354 -1.5969  0.5597
  345TMC3    C1 5168   2.179   1.886  10.177  0.5534 -0.2380 -0.1666
  345TMC3    C2 5169   2.310   1.848  10.170 -0.0906 -0.0416  0.0688
  345TMC3    C3 5170   2.391   1.908  10.086 -1.0446 -0.1775 -0.5459
  345TMC3    C4 5171   2.130   1.980  10.088  0.0564  0.3229 -0.9273
  345TMC3    C5 5172   2.214   2.038  10.001  0.1055 -0.3989 -0.0479
  345TMC3    C6 5173   2.347   2.000   9.993  0.1193 -0.2108  0.2259
  345TMC3     C 5174   2.094   1.810  10.268 -0.6456 -0.3301  0.2433
  345TMC3     O 5175   2.115   1.694  10.298 -0.2087  0.2219 -0.9653
  345TMC3     H 5176   2.349   1.763  10.224  0.6824 -0.1239 -0.6148
  345TMC3    H1 5177   2.027   2.012  10.088 -0.0004  0.1444 -1.2686
  345TMC3    H2 5178   2.423   2.063   9.948 -1.4799  0.3065 -1.7343
  345TMC3    C7 5179   2.176   2.145   9.918 -0.3657  0.0099  0.1861
  345TMC3    C8 5180   2.511   1.959  10.155 -0.3636 -0.4453  0.1566
  345TMC3    O1 5181   2.268   2.216   9.876  0.1044  0.1451 -0.1724
  345TMC3    O2 5182   2.498   1.991  10.272  0.4665 -0.0179 -0.4375
  346MPD2     C 5183   1.746   3.276  13.751 -0.0375 -0.3341 -0.1446
  346MPD2    C1 5184   1.870   3.328  13.775 -0.1188 -0.2480  0.3933
  346MPD2    C2 5185   1.883   3.425  13.874  0.5614 -0.6010 -0.0306
  346MPD2    C3 5186   1.777   3.462  13.958  0.0508 -0.7252 -0.1324
  346MPD2    C4 5187   1.657   3.391  13.942  0.4622  0.2274 -0.5866
  346MPD2    C5 5188   1.645   3.305  13.840 -0.5096 -0.3476 -0.3145
  346MPD2     H 5189   1.975   3.479  13.893 -1.2665  3.4964 -2.7053
  346MPD2    H1 5190   1.571   3.404  14.006  1.8530 -0.4106  1.4271
  346MPD2    H2 5191   1.720   3.213  13.667  1.1030 -0.3178 -0.5114
  346MPD2    H3 5192   1.548   3.260  13.822 -0.3261 -0.4449 -1.0625
  346MPD2     N 5193   1.800   3.575  14.049  0.4952  0.7248 -0.6605
  346MPD2    H5 5194   1.888   3.625  14.039  1.1116 -0.3794 -0.7573
  346MPD2    N1 5195   1.982   3.302  13.686  0.1621  0.3126  0.1268
  346MPD2    H7 5196   2.068   3.349  13.713  0.6508  0.4200 -1.6392
  347TMC3    C1 5197   1.761   3.758  14.191  0.0839  1.1794 -0.3014
  347TMC3    C2 5198   1.895   3.790  14.165  0.3764  0.0203  0.4088
  347TMC3    C3 5199   1.965   3.832  14.276 -0.1861 -0.2480  0.3306
  347TMC3    C4 5200   1.705   3.783  14.312 -0.0475  0.3183 -0.1527
  347TMC3    C5 5201   1.784   3.810  14.420  0.1326 -0.6645 -0.3188
  347TMC3    C6 5202   1.920   3.838  14.404 -0.1387  0.2280 -0.4225
  347TMC3     C 5203   1.707   3.644  14.126  0.1464 -0.3437  0.2873
  347TMC3     O 5204   1.592   3.622  14.150  0.4497 -0.0493  0.0374
  347TMC3     H 5205   1.940   3.788  14.066 -0.6292 -1.3774 -0.0152
  347TMC3    H1 5206   1.605   3.746  14.333  0.8404 -1.7015  0.4572
  347TMC3    H2 5207   1.983   3.862  14.489  1.2242 -1.4717 -0.9654
  347TMC3    C7 5208   1.734   3.792  14.552  0.5449 -0.3236 -0.0966
  347TMC3    C8 5209   2.106   3.803  14.262  0.0556 -0.2209 -0.3420
  347TMC3    O1 5210   1.623   3.754  14.557  0.0963 -0.1663 -0.8611
  347TMC3    O2 5211   2.129   3.705  14.191  0.5140  0.4641 -0.2732
  348MPD2     C 5212   0.866   3.066  11.948  0.2580 -0.5119 -0.7945
  348MPD2    C1 5213   0.996   3.090  11.930  0.4065 -0.7282  0.6171
  348MPD2    C2 5214   1.033   3.154  11.815  0.3096  0.4447  0.7416
  348MPD2    C3 5215   0.948   3.197  11.715 -0.9102 -0.9085  0.3592
  348MPD2    C4 5216   0.816   3.155  11.725  0.5839 -0.0173 -0.4637
  348MPD2    C5 5217   0.778   3.092  11.838  0.8879 -0.8985  0.4292
  348MPD2     H 5218   1.137   3.163  11.787  0.0760  0.3302 -0.1818
  348MPD2    H1 5219   0.745   3.192  11.653 -0.0045  0.5052  0.3919
  348MPD2    H2 5220   0.831   3.005  12.031  2.6640 -1.0162 -0.1513
  348MPD2    H3 5221   0.675   3.060  11.848  1.1614 -1.4862  1.3909
  348MPD2     N 5222   0.997   3.282  11.615  0.3817 -0.5540 -0.1850
  348MPD2    H5 5223   1.095   3.309  11.620  0.0154  1.2461 -2.9071
  348MPD2    N1 5224   1.101   3.046  12.022  0.1717 -0.1667 -0.1662
  348MPD2    H7 5225   1.190   3.083  11.990 -0.4201 -0.6021 -2.3245
  349TMC3    C1 5226   1.212   2.892  12.157 -0.6146  0.1165 -0.0442
  349TMC3    C2 5227   1.177   2.763  12.194 -0.5897 -0.2937  0.8355
  349TMC3    C3 5228   1.250   2.659  12.137  1.0446 -0.0978  0.2482
  349TMC3    C4 5229   1.309   2.909  12.057 -0.4477  0.0016 -0.2080
  349TMC3    C5 5230   1.367   2.804  11.997  0.7596  0.1673 -0.0063
  349TMC3    C6 5231   1.336   2.675  12.031  0.0624  0.1942  1.2025
  349TMC3     C 5232   1.086   2.957  12.127 -0.1325 -0.0144 -0.8118
  349TMC3     O 5233   0.980   2.919  12.172  0.0556  0.3517 -0.3459
  349TMC3     H 5234   1.105   2.748  12.273 -1.4970 -3.2106 -0.5558
  349TMC3    H1 5235   1.354   3.007  12.046 -2.5119  1.1352  1.5145
  349TMC3    H2 5236   1.390   2.594  11.984 -1.1457  1.5154 -2.4445
  349TMC3    C7 5237   1.371   2.813  11.852  0.1179  0.2575 -0.2002
  349TMC3    C8 5238   1.255   2.534  12.212 -0.1970  0.6554  1.0918
  349TMC3    O1 5239   1.366   2.709  11.792 -0.4667 -0.3588 -0.1800
  349TMC3    O2 5240   1.186   2.522  12.316  0.7780  0.1377  0.9201
  350MPD2     C 5241   4.548   1.351   9.769  0.4868 -0.4377 -0.8950
  350MPD2    C1 5242   4.629   1.250   9.817 -0.4110 -0.3382  0.2687
  350MPD2    C2 5243   0.036   1.256   9.773  1.0791  0.6173  0.4728
  350MPD2    C3 5244   0.092   1.354   9.698  0.0459  0.1027 -0.1659
  350MPD2    C4 5245   0.007   1.456   9.653  0.5647 -0.2095  0.3092
  350MPD2    C5 5246   4.591   1.444   9.684 -0.3298 -0.1960 -0.4066
  350MPD2     H 5247   0.099   1.178   9.814  0.6532 -0.4201 -0.8362
  350MPD2    H1 5248   0.029   1.540   9.589  2.4000 -1.7765 -1.1137
  350MPD2    H2 5249   4.443   1.354   9.795  0.9116 -1.6411  1.0148
  350MPD2    H3 5250   4.521   1.511   9.633 -0.1464  0.8438  0.7102
  350MPD2     N 5251   0.231   1.360   9.686  0.1135  0.5382 -0.2269
  350MPD2    H5 5252   0.293   1.296   9.736  1.6894  1.3291 -1.1796
  350MPD2    N1 5253   4.581   1.156   9.912 -0.5782  0.4504  0.5711
  350MPD2    H7 5254   4.651   1.087   9.941  1.7784  2.5110 -0.2292
  351TMC3    C1 5255   4.441   1.017  10.036  0.3666  0.2960 -0.6252
  351TMC3    C2 5256   4.539   0.919  10.021 -0.3474 -0.1975  0.1156
  351TMC3    C3 5257   4.546   0.816  10.114  0.2423  0.2671 -0.7780
  351TMC3    C4 5258   4.356   1.019  10.144 -0.6018 -0.8215 -0.5366
  351TMC3    C5 5259   4.372   0.919  10.234 -0.2197  0.4402 -0.0677
  351TMC3    C6 5260   4.471   0.826  10.224 -0.0298 -0.2320  0.2812
  351TMC3     C 5261   4.454   1.133   9.961 -0.3880  0.5165  0.0200
  351TMC3     O 5262   4.359   1.213   9.959 -0.5205  0.8026 -0.1481
  351TMC3     H 5263   4.585   0.908   9.923 -0.6932 -0.6726  0.0075
  351TMC3    H1 5264   4.283   1.098  10.156  0.4111  0.2096 -1.2127
  351TMC3    H2 5265   4.471   0.758  10.309 -3.1152 -0.3556  0.1731
  351TMC3    C7 5266   4.291   0.927  10.359 -0.1013 -0.3930 -0.1298
  351TMC3    C8 5267   4.630   0.699  10.086 -0.1968 -0.0805 -0.4019
  351TMC3    O1 5268   4.328   0.876  10.463  0.1058 -0.2151 -0.3214
  351TMC3    O2 5269   4.699   0.704   9.983  0.2993  0.0177 -0.2244
  352MPD2     C 5270   3.003   3.318   1.477  0.3336  1.0447  1.0044
  352MPD2    C1 5271   3.106   3.324   1.382 -0.1354  0.0333 -0.0939
  352MPD2    C2 5272   3.218   3.236   1.397 -0.0980 -0.2796 -0.3684
  352MPD2    C3 5273   3.222   3.151   1.511 -0.6636  0.3771  0.2637
  352MPD2    C4 5274   3.118   3.148   1.598 -0.6755  0.0178  0.4632
  352MPD2    C5 5275   3.013   3.236   1.586  0.0791  0.2781 -0.3194
  352MPD2     H 5276   3.290   3.233   1.315  1.8807 -1.6926  1.4198
  352MPD2    H1 5277   3.125   3.087   1.688  0.0371 -1.8014 -0.8092
  352MPD2    H2 5278   2.922   3.389   1.478  1.8209  2.7346  1.1238
  352MPD2    H3 5279   2.939   3.239   1.665  1.0640 -1.1403  0.6689
  352MPD2     N 5280   3.319   3.056   1.526 -0.5684  0.1176 -0.4422
  352MPD2    H5 5281   3.297   2.980   1.589  0.0121  0.8420  0.6317
  352MPD2    N1 5282   3.082   3.409   1.270 -0.3838 -0.8053 -0.1787
  352MPD2    H7 5283   2.991   3.454   1.272 -0.2649 -0.6531  1.4603
  353TMC3    C1 5284   3.480   2.908   1.464  0.3207  0.1304  0.4078
  353TMC3    C2 5285   3.613   2.881   1.500 -0.1364 -0.0438 -0.7634
  353TMC3    C3 5286   3.648   2.744   1.500  0.3219 -0.0504 -0.6647
  353TMC3    C4 5287   3.388   2.814   1.423 -0.6094 -0.3017  0.0901
  353TMC3    C5 5288   3.435   2.685   1.429 -0.0391  0.6741 -0.5514
  353TMC3    C6 5289   3.553   2.650   1.479  0.6802  0.0307  0.6931
  353TMC3     C 5290   3.434   3.043   1.443 -0.1756 -0.5154 -0.1249
  353TMC3     O 5291   3.507   3.123   1.387 -0.0374  0.6335 -0.2440
  353TMC3     H 5292   3.675   2.961   1.538  0.5108 -0.2081 -1.4824
  353TMC3    H1 5293   3.291   2.835   1.380  0.2660  0.8430 -1.3301
  353TMC3    H2 5294   3.578   2.546   1.495 -0.5135 -0.4604 -0.6030
  353TMC3    C7 5295   3.354   2.585   1.361  0.3220 -0.0315  0.0823
  353TMC3    C8 5296   3.785   2.712   1.539 -0.2403  0.6832 -0.0495
  353TMC3    O1 5297   3.308   2.604   1.247 -0.4230 -0.2098  0.0308
  353TMC3    O2 5298   3.848   2.789   1.610 -0.5360 -0.1771  0.5705
  354TMC3    C1 5299   0.357   3.990  13.585  0.5364 -0.0328 -0.1990
  354TMC3    C2 5300   0.355   4.122  13.589  0.5424  0.2554  0.6078
  354TMC3    C3 5301   0.426   4.186  13.491 -0.2452  0.8490  0.3467
  354TMC3    C4 5302   0.402   3.915  13.477 -0.4151 -0.5296 -0.3326
  354TMC3    C5 5303   0.444   3.986  13.368 -0.2294 -0.0258  0.2252
  354TMC3    C6 5304   0.474   4.124  13.379  0.2849  0.1882 -0.1736
  354TMC3     C 5305   0.228   3.945  13.633 -0.4896 -0.0882  0.1354
  354TMC3     O 5306   0.133   4.017  13.608  0.7428  0.0510 -0.1027
  354TMC3     H 5307   0.323   4.173  13.680  1.5938 -0.0621  1.1628
  354TMC3    H1 5308   0.365   3.814  13.466  0.7825 -0.7258 -2.4187
  354TMC3    H2 5309   0.535   4.181  13.311  2.7636 -1.1197  0.9655
  354TMC3    C7 5310   0.493   3.900  13.264 -0.1055  0.7950 -0.0024
  354TMC3    C8 5311   0.432   4.328  13.496 -0.0171 -0.1390 -0.0649
  354TMC3    O1 5312   0.478   3.780  13.283  0.2165 -0.4274 -0.3408
  354TMC3    O2 5313   0.383   4.375  13.600 -0.3175  0.5362 -0.2844
  355MPD2     C 5314   4.652   0.245  11.937 -0.2212 -0.2623  0.4581
  355MPD2    C1 5315   4.659   0.329  11.827 -0.5394  0.7003  0.1383
  355MPD2    C2 5316   0.062   0.335  11.764 -0.3951 -0.4064  0.0159
  355MPD2    C3 5317   0.172   0.275  11.818 -0.1529 -0.1514 -0.9590
  355MPD2    C4 5318   0.162   0.193  11.925  0.3074 -0.2471  0.6789
  355MPD2    C5 5319   0.044   0.184  11.985 -0.0810 -0.4392 -0.5177
  355MPD2     H 5320   0.077   0.390  11.672 -2.4844 -0.0026 -0.0945
  355MPD2    H1 5321   0.245   0.155  11.983  1.9009  2.4120  0.1364
  355MPD2    H2 5322   4.565   0.239  12.001 -1.0747 -3.8941 -1.0598
  355MPD2    H3 5323   0.047   0.138  12.083 -0.3616 -2.2595 -1.3453
  355MPD2     N 5324   0.306   0.300  11.778 -0.4534 -0.2988  0.2469
  355MPD2    H5 5325   0.380   0.284  11.845  1.0003 -1.9180 -1.7490
  355MPD2    N1 5326   4.544   0.407  11.779  0.5176 -0.9908 -0.7766
  355MPD2    H7 5327   4.457   0.374  11.821  0.1409 -0.3248 -1.0323
  356TMC3    C1 5328   0.482   0.405  11.688  0.3400  0.6094  0.3449
  356TMC3    C2 5329   0.543   0.459  11.578 -0.2376 -0.2264 -0.2777
  356TMC3    C3 5330   0.668   0.520  11.589  0.4830 -0.1591  0.0801
  356TMC3    C4 5331   0.545   0.413  11.810 -0.2898  0.3499 -0.3863
  356TMC3    C5 5332   0.664   0.479  11.813 -0.0686  0.5587  0.0009
  356TMC3    C6 5333   0.732   0.534  11.712 -0.4461 -0.6398  0.6004
  356TMC3     C 5334   0.350   0.366  11.666 -0.1916 -0.2139  0.6789
  356TMC3     O 5335   0.289   0.408  11.569 -0.0946  0.0239  0.4603
  356TMC3     H 5336   0.495   0.454  11.480  0.9041  3.4648 -1.0188
  356TMC3    H1 5337   0.493   0.387  11.902 -0.7541  0.5881 -0.5806
  356TMC3    H2 5338   0.839   0.517  11.713 -0.5133 -1.2436 -1.6767
  356TMC3    C7 5339   0.728   0.483  11.950 -0.1556 -0.5659 -1.1243
  356TMC3    C8 5340   0.694   0.613  11.479  0.9278 -0.2103  0.3356
  356TMC3    O1 5341   0.692   0.401  12.033  0.4189 -0.0147 -0.0163
  356TMC3    O2 5342   0.593   0.643  11.418 -0.6775  0.2274 -0.0404
  357MPD2     C 5343   0.476   0.626   1.242 -0.7078  0.4660  0.2804
  357MPD2    C1 5344   0.578   0.580   1.327 -0.2742 -0.0387  0.0285
  357MPD2    C2 5345   0.551   0.596   1.463  0.3666 -0.2629  0.2613
  357MPD2    C3 5346   0.430   0.651   1.514 -0.1873  0.5700  0.6572
  357MPD2    C4 5347   0.334   0.687   1.420  0.6911  0.1323  0.3022
  357MPD2    C5 5348   0.355   0.683   1.287  0.4307  0.5771  0.1237
  357MPD2     H 5349   0.621   0.545   1.528 -0.8283  0.1477  1.8733
  357MPD2    H1 5350   0.238   0.719   1.461  0.9675 -0.7206  1.6309
  357MPD2    H2 5351   0.481   0.610   1.134 -0.7740 -0.9438  0.4797
  357MPD2    H3 5352   0.280   0.717   1.218  0.0218  0.8664  0.7110
  357MPD2     N 5353   0.397   0.657   1.653 -0.1096  0.2080 -0.1641
  357MPD2    H5 5354   0.302   0.690   1.672  0.2234  0.2549  1.4583
  357MPD2    N1 5355   0.694   0.521   1.273 -0.2529  0.3596 -0.1298
  357MPD2    H7 5356   0.693   0.513   1.172  1.3588 -0.7333 -0.0480
  358TMC3    C1 5357   0.893   0.404   1.260  0.1478  1.0312 -0.1584
  358TMC3    C2 5358   0.845   0.330   1.153  0.3889 -0.2336  0.4993
  358TMC3    C3 5359   0.920   0.228   1.107 -0.0029 -0.1645  0.5128
  358TMC3    C4 5360   1.010   0.369   1.316  0.1868 -0.4287  0.9267
  358TMC3    C5 5361   1.062   0.253   1.277  0.1249 -0.2125  0.4780
  358TMC3    C6 5362   1.022   0.180   1.174 -0.2428  0.2351 -0.4127
  358TMC3     C 5363   0.807   0.478   1.340  0.2881 -0.3716 -0.4045
  358TMC3     O 5364   0.841   0.486   1.459  0.4555 -0.4104 -0.2967
  358TMC3     H 5365   0.740   0.335   1.126  0.4598 -1.3771  0.0140
  358TMC3    H1 5366   1.050   0.424   1.401 -0.1764  2.2417 -0.6321
  358TMC3    H2 5367   1.090   0.101   1.144 -0.2478  0.1674 -0.2500
  358TMC3    C7 5368   1.186   0.196   1.342 -0.4459 -0.1218 -0.4851
  358TMC3    C8 5369   0.859   0.157   0.996 -0.1874  0.1525  0.1923
  358TMC3    O1 5370   1.262   0.131   1.273  0.1663 -0.0109 -0.5560
  358TMC3    O2 5371   0.774   0.213   0.930  0.4259  0.1914  0.2623
  359MPD2     C 5372   0.618   3.296  12.118 -0.6732 -0.5583 -0.2800
  359MPD2    C1 5373   0.569   3.376  12.011  0.0817 -0.3195  0.2447
  359MPD2    C2 5374   0.435   3.414  12.010 -0.3875  0.6897  0.2053
  359MPD2    C3 5375   0.356   3.396  12.126  0.4200 -0.1664  0.2074
  359MPD2    C4 5376   0.411   3.322  12.226  0.3285 -0.7884  0.2932
  359MPD2    C5 5377   0.533   3.269  12.225 -0.5278  0.2209  0.0611
  359MPD2     H 5378   0.399   3.471  11.924 -0.7739  2.6944  1.6852
  359MPD2    H1 5379   0.359   3.313  12.321 -0.0689  0.0730  0.1612
  359MPD2    H2 5380   0.721   3.262  12.127 -0.1363  1.4938  1.1420
  359MPD2    H3 5381   0.566   3.216  12.314  0.0724  0.0120 -0.2828
  359MPD2     N 5382   0.232   3.458  12.153  0.5477  0.5587  0.3181
  359MPD2    H5 5383   0.189   3.456  12.245 -0.6874 -0.4170 -0.2899
  359MPD2    N1 5384   0.652   3.434  11.910  0.8883  0.1247 -0.1175
  359MPD2    H7 5385   0.602   3.488  11.841  1.7263  2.0844  0.8176
  360TMC3    C1 5386   0.841   3.544  11.824  0.0047  0.6174 -0.0966
  360TMC3    C2 5387   0.929   3.642  11.865 -0.0983  0.0449  0.4798
  360TMC3    C3 5388   0.927   3.767  11.807 -0.1201  0.5412 -0.5729
  360TMC3    C4 5389   0.766   3.569  11.715  0.2263 -0.4873 -0.1134
  360TMC3    C5 5390   0.762   3.693  11.661  0.6020  0.3191 -0.1680
  360TMC3    C6 5391   0.838   3.795  11.708  0.0944  0.1727 -0.1197
  360TMC3     C 5392   0.791   3.452  11.919 -0.1664  0.7817  0.2817
  360TMC3     O 5393   0.867   3.412  12.003  0.2504 -0.3052 -0.6889
  360TMC3     H 5394   0.992   3.616  11.949  0.2959 -0.0840  0.1451
  360TMC3    H1 5395   0.709   3.489  11.669  1.6899 -1.1742 -0.7312
  360TMC3    H2 5396   0.844   3.888  11.654 -1.6296  0.4694  0.1923
  360TMC3    C7 5397   0.707   3.718  11.529  1.1920 -0.7019  0.0203
  360TMC3    C8 5398   1.052   3.839  11.798  0.5718 -0.1387  0.3003
  360TMC3    O1 5399   0.704   3.839  11.500 -0.6347 -0.0822  0.3089
  360TMC3    O2 5400   1.158   3.784  11.827  0.0154 -0.5668  0.2963
  361MPD2     C 5401   2.434   2.789  16.520  0.9461  0.5223  0.6054
  361MPD2    C1 5402   2.378   2.779  16.641 -0.1201  0.2389 -0.1219
  361MPD2    C2 5403   2.441   2.700  16.740 -1.3882 -0.2139  0.7683
  361MPD2    C3 5404   2.555   2.625  16.707  0.2754 -0.0795 -0.2758
  361MPD2    C4 5405   2.605   2.631  16.579 -0.3784  0.0475  0.1028
  361MPD2    C5 5406   2.550   2.719  16.487 -0.0167  0.5679 -0.2170
  361MPD2     H 5407   2.407   2.701  16.842  0.9386 -1.3773  1.5547
  361MPD2    H1 5408   2.698   2.585  16.551 -1.5961 -1.3790 -1.5785
  361MPD2    H2 5409   2.395   2.866  16.455 -0.4728 -1.8356 -1.3540
  361MPD2    H3 5410   2.609   2.730  16.397 -0.7633  1.8186 -0.5410
  361MPD2     N 5411   2.626   2.542  16.799 -0.1597  0.1252 -0.3352
  361MPD2    H5 5412   2.703   2.484  16.767  1.1668  2.6355 -1.7470
  361MPD2    N1 5413   2.263   2.860  16.664  0.5703  0.0073 -0.4430
  361MPD2    H7 5414   2.231   2.918  16.587 -0.5624  0.2541  0.2033
  362TMC3    C1 5415   2.095   2.964  16.790  0.3130 -0.8284  0.4588
  362TMC3    C2 5416   1.984   2.949  16.871  0.8382 -0.3210  0.3328
  362TMC3    C3 5417   1.903   3.057  16.897  0.2401 -0.2560  0.5467
  362TMC3    C4 5418   2.124   3.087  16.740  0.8710  0.3495  0.3391
  362TMC3    C5 5419   2.039   3.195  16.763 -0.5259 -0.3320  0.4850
  362TMC3    C6 5420   1.933   3.180  16.852 -0.5989  0.0864  0.2316
  362TMC3     C 5421   2.192   2.859  16.785 -0.3004  0.3796 -0.0876
  362TMC3     O 5422   2.199   2.786  16.882  0.0204 -0.4261 -0.7862
  362TMC3     H 5423   1.958   2.847  16.897  3.3957 -0.6629  1.5471
  362TMC3    H1 5424   2.218   3.109  16.690  2.6703 -2.8043  2.3222
  362TMC3    H2 5425   1.866   3.264  16.872 -2.1868 -0.4571 -2.9240
  362TMC3    C7 5426   1.986   3.266  16.644 -0.4312 -0.4250 -0.3341
  362TMC3    C8 5427   1.771   3.008  16.885 -0.0539  0.6934 -0.3070
  362TMC3    O1 5428   1.865   3.293  16.642  0.5936 -0.0256 -0.3975
  362TMC3    O2 5429   1.757   2.903  16.819  0.0551  0.0558  0.1938
  363TMC3    C1 5430   0.794   0.411   9.131 -0.5577  0.2249  0.0694
  363TMC3    C2 5431   0.834   0.377   9.265  0.4485  0.2826 -0.3345
  363TMC3    C3 5432   0.746   0.410   9.363 -0.5468  0.0357 -0.8614
  363TMC3    C4 5433   0.679   0.492   9.109  0.1974  0.7807 -0.1387
  363TMC3    C5 5434   0.603   0.529   9.218 -0.4817  0.4472 -0.1990
  363TMC3    C6 5435   0.627   0.485   9.342 -0.7619  0.1170  0.3211
  363TMC3     C 5436   0.856   0.348   9.019 -0.6813  0.8113 -0.5760
  363TMC3     O 5437   0.840   0.395   8.904 -0.1367 -0.3775 -0.3550
  363TMC3     H 5438   0.931   0.337   9.289 -0.9239 -3.0571 -0.3380
  363TMC3    H1 5439   0.655   0.521   9.008 -0.6611 -0.1002 -0.1905
  363TMC3    H2 5440   0.556   0.507   9.421  0.5286 -1.3643  1.9168
  363TMC3    C7 5441   0.485   0.601   9.175  0.8581 -0.7288 -0.1674
  363TMC3    C8 5442   0.755   0.342   9.490  0.3377  0.3796 -0.7015
  363TMC3    O1 5443   0.496   0.672   9.076  0.3112  0.1346 -0.3659
  363TMC3    O2 5444   0.716   0.390   9.593 -0.4072  0.1288  0.0178
  364MPD2     C 5445   4.049   4.480  10.434 -0.3842 -0.7406 -0.1283
  364MPD2    C1 5446   4.147   4.502  10.342 -0.1375 -1.0694  0.9649
  364MPD2    C2 5447   4.220   4.393  10.298  1.0456  0.1280 -0.0602
  364MPD2    C3 5448   4.218   4.274  10.366  0.3664 -0.7123  0.4397
  364MPD2    C4 5449   4.120   4.253  10.464  1.2757 -0.3950  0.2095
  364MPD2    C5 5450   4.031   4.359  10.491  0.1100  0.9544  0.2605
  364MPD2     H 5451   4.286   4.404  10.212  0.3924  1.8439 -0.3295
  364MPD2    H1 5452   4.088   4.154  10.494 -0.5664 -0.3540 -1.6035
  364MPD2    H2 5453   3.978   4.557  10.459 -2.8491 -2.7875 -0.8604
  364MPD2    H3 5454   3.934   4.338  10.535 -0.4353 -2.1185 -2.3628
  364MPD2     N 5455   4.301   4.167  10.334  0.5780  0.3496 -0.0775
  364MPD2    H5 5456   4.316   4.102  10.410 -3.5718 -0.6409 -0.0734
  364MPD2    N1 5457   4.173   4.631  10.294 -0.3719 -0.0873  0.6731
  364MPD2    H7 5458   4.101   4.702  10.306  0.3784  0.8490 -0.3523
  365TMC3    C1 5459   4.283   0.079  10.185 -0.0260 -0.4181  0.4283
  365TMC3    C2 5460   4.362   0.116  10.076  0.7202  0.9739  0.4975
  365TMC3    C3 5461   4.402   0.242  10.063 -0.5733 -0.4400  0.3801
  365TMC3    C4 5462   4.249   0.174  10.278 -0.0904 -0.0372  0.1175
  365TMC3    C5 5463   4.278   0.304  10.254 -1.6705 -0.6090  0.5224
  365TMC3    C6 5464   4.352   0.344  10.145  0.4889 -0.2588 -0.4591
  365TMC3     C 5465   4.274   4.663  10.209 -0.6027  0.3697  0.8399
  365TMC3     O 5466   4.366   4.598  10.158 -0.2872  0.0155 -0.3739
  365TMC3     H 5467   4.385   0.033  10.010 -0.5367  0.6447  0.4725
  365TMC3    H1 5468   4.190   0.143  10.363 -0.3323 -1.1903 -0.4758
  365TMC3    H2 5469   4.376   0.448  10.128  0.6481 -0.1108  0.6399
  365TMC3    C7 5470   4.278   0.404  10.361  0.4793 -0.0967  0.2430
  365TMC3    C8 5471   4.466   0.275   9.935  0.0813  0.3652  0.2987
  365TMC3    O1 5472   4.307   0.519  10.323 -0.6246  0.6413 -0.0189
  365TMC3    O2 5473   4.460   0.387   9.888 -0.1822 -0.3380 -0.1575
  366MPD2     C 5474   2.825   0.615  15.057 -0.2675  0.7311  0.2912
  366MPD2    C1 5475   2.823   0.638  15.198  0.0239  0.0713 -0.4821
  366MPD2    C2 5476   2.938   0.607  15.266 -0.1221 -0.4671  0.3596
  366MPD2    C3 5477   3.048   0.557  15.206 -0.0393  0.2654 -0.0634
  366MPD2    C4 5478   3.044   0.525  15.072 -0.1169  0.5739 -0.2594
  366MPD2    C5 5479   2.934   0.557  14.999 -0.2548 -0.8387  0.0835
  366MPD2     H 5480   2.936   0.630  15.372  0.6336 -0.8709  0.4619
  366MPD2    H1 5481   3.125   0.479  15.018 -1.2952 -1.1323 -0.5815
  366MPD2    H2 5482   2.740   0.650  14.999 -0.3255  0.1037 -0.0046
  366MPD2    H3 5483   2.926   0.527  14.895  1.3756  2.5074 -0.9742
  366MPD2     N 5484   3.169   0.536  15.274  0.2440  0.8359 -0.0943
  366MPD2    H5 5485   3.231   0.471  15.227 -0.9868 -0.9140  0.6806
  366MPD2    N1 5486   2.708   0.683  15.272  0.1080 -0.3815  0.4903
  366MPD2    H7 5487   2.737   0.707  15.367 -1.1876 -0.8677  1.0181
  367TMC3    C1 5488   2.522   0.804  15.310  0.5420  0.5450 -0.3318
  367TMC3    C2 5489   2.576   0.844  15.433 -0.1089 -0.2195 -0.1954
  367TMC3    C3 5490   2.508   0.941  15.508  0.2489 -0.2731  0.3804
  367TMC3    C4 5491   2.417   0.865  15.259 -0.0018  0.4171 -1.0365
  367TMC3    C5 5492   2.348   0.951  15.336 -0.1649 -0.1707  0.1605
  367TMC3    C6 5493   2.390   0.993  15.460  0.2323 -0.2877 -0.5256
  367TMC3     C 5494   2.591   0.725  15.221  0.1753 -0.2812 -0.4511
  367TMC3     O 5495   2.547   0.696  15.111  0.4301 -0.6346  0.2647
  367TMC3     H 5496   2.665   0.801  15.478  0.2903 -0.3153 -1.0830
  367TMC3    H1 5497   2.377   0.827  15.166 -0.0607 -0.6459 -0.5756
  367TMC3    H2 5498   2.324   1.057  15.517 -0.7972 -2.0235  0.2147
  367TMC3    C7 5499   2.251   1.047  15.273  0.3863  0.4435  0.3760
  367TMC3    C8 5500   2.564   0.987  15.634  0.4150 -0.1207 -0.2392
  367TMC3    O1 5501   2.249   1.165  15.313  0.1109 -0.2641  1.1173
  367TMC3    O2 5502   2.617   0.899  15.702  0.2376 -0.6473 -0.3045
  368MPD2     C 5503   3.424   2.867  12.974  0.0300  0.3175  0.6890
  368MPD2    C1 5504   3.421   2.934  12.860 -0.2580 -0.3913  0.3616
  368MPD2    C2 5505   3.538   2.954  12.790  0.4785  0.1715  0.5334
  368MPD2    C3 5506   3.657   2.919  12.843  0.8482 -0.1407  0.2380
  368MPD2    C4 5507   3.657   2.845  12.963 -0.0123  0.3737  0.1114
  368MPD2    C5 5508   3.539   2.820  13.028  0.0644 -0.0936 -0.0693
  368MPD2     H 5509   3.537   3.009  12.697 -1.4688  1.7611  1.4966
  368MPD2    H1 5510   3.752   2.812  13.005 -0.3586  0.2517  0.7940
  368MPD2    H2 5511   3.330   2.851  13.025 -0.8414  1.3909 -0.5690
  368MPD2    H3 5512   3.544   2.757  13.117 -2.5797 -0.7757 -0.4154
  368MPD2     N 5513   3.783   2.952  12.786  0.3060 -0.1220  0.5754
  368MPD2    H5 5514   3.860   2.924  12.845  1.6157 -0.1970 -1.1554
  368MPD2    N1 5515   3.293   2.974  12.805  0.1947  0.1421  0.1057
  368MPD2    H7 5516   3.208   2.936  12.848  0.7459 -1.7347 -0.4483
  369TMC3    C1 5517   3.150   3.118  12.675 -0.4610 -0.6977 -0.4817
  369TMC3    C2 5518   3.137   3.218  12.582 -0.6246 -0.1756  0.1832
  369TMC3    C3 5519   3.018   3.232  12.514  0.1245 -0.5324  0.2676
  369TMC3    C4 5520   3.040   3.043  12.708  0.3675 -0.2136  0.5359
  369TMC3    C5 5521   2.923   3.065  12.644  0.0188 -0.3800  0.4184
  369TMC3    C6 5522   2.904   3.162  12.547 -0.5828 -0.3437 -0.0220
  369TMC3     C 5523   3.285   3.073  12.709 -0.7882 -0.7141 -0.6255
  369TMC3     O 5524   3.372   3.146  12.666  0.4848  0.5055  0.4117
  369TMC3     H 5525   3.222   3.281  12.560  0.1907 -1.5658 -0.7001
  369TMC3    H1 5526   3.049   2.970  12.788 -3.1492 -1.4044 -0.1237
  369TMC3    H2 5527   2.812   3.174  12.490  1.4055 -0.0465 -3.1471
  369TMC3    C7 5528   2.805   3.010  12.708 -0.9908  0.2378  0.1545
  369TMC3    C8 5529   3.027   3.291  12.379 -0.1278  0.4795 -0.2275
  369TMC3    O1 5530   2.820   2.914  12.779  0.1878  0.3570  0.0014
  369TMC3    O2 5531   2.924   3.300  12.319  0.4873 -0.1709  0.0711
  370TMC3    C1 5532   3.169   3.552  16.205  0.2789  0.1828 -0.8135
  370TMC3    C2 5533   3.130   3.450  16.288  0.4220  0.7822  0.7025
  370TMC3    C3 5534   3.112   3.329  16.243  0.5282  0.0546 -0.0310
  370TMC3    C4 5535   3.212   3.521  16.080  0.0539  0.0434 -0.2522
  370TMC3    C5 5536   3.206   3.392  16.039 -0.2826  0.1922 -0.5299
  370TMC3    C6 5537   3.144   3.296  16.113 -0.4965  0.3628 -0.0932
  370TMC3     C 5538   3.238   3.660  16.272  0.1886 -0.3711 -0.6540
  370TMC3     O 5539   3.246   3.651  16.393 -0.0804  0.0918  0.0164
  370TMC3     H 5540   3.114   3.473  16.393  0.6882  0.1150  0.8867
  370TMC3    H1 5541   3.240   3.603  16.015  0.3300 -1.4314 -1.9961
  370TMC3    H2 5542   3.135   3.195  16.073 -0.2081  0.3941 -0.2371
  370TMC3    C7 5543   3.294   3.352  15.932 -1.1754  0.0358 -0.1094
  370TMC3    C8 5544   3.112   3.219  16.342  0.0565  0.8180 -0.0704
  370TMC3    O1 5545   3.331   3.445  15.856  0.2521 -1.0056  0.4638
  370TMC3    O2 5546   3.183   3.118  16.317  0.4600  0.6847  0.4029
  371TMC3    C1 5547   4.524   2.145  15.058  0.5606 -0.3306  0.4507
  371TMC3    C2 5548   4.490   2.112  15.186  0.2059 -0.4416  0.2293
  371TMC3    C3 5549   4.409   2.204  15.252 -0.1683  0.9419  0.6032
  371TMC3    C4 5550   4.486   2.255  14.996 -0.0010  0.5582 -0.1067
  371TMC3    C5 5551   4.401   2.340  15.062 -0.0750 -0.4260  0.0536
  371TMC3    C6 5552   4.373   2.323  15.194  0.4798  0.6421  0.5420
  371TMC3     C 5553   4.569   2.035  14.977 -0.1287 -0.1734 -0.0245
  371TMC3     O 5554   4.648   2.059  14.888  0.9882  0.3200 -0.7032
  371TMC3     H 5555   4.525   2.021  15.234  0.5555 -1.1601 -1.3529
  371TMC3    H1 5556   4.510   2.265  14.890 -1.9970  0.0149 -0.6123
  371TMC3    H2 5557   4.316   2.389  15.258  1.6627  1.9715  0.2605
  371TMC3    C7 5558   4.416   2.481  15.022 -0.3822  0.2735  0.5161
  371TMC3    C8 5559   4.388   2.179  15.392  0.5776  0.4338 -0.4674
  371TMC3    O1 5560   4.388   2.566  15.102  0.0252 -0.1278 -0.1097
  371TMC3    O2 5561   4.466   2.100  15.443 -0.6004 -0.0450  0.2575
  372MPD2     C 5562   3.013   3.104  13.035  0.2328 -0.2116  0.0998
  372MPD2    C1 5563   3.138   3.096  13.099 -0.7886  0.0461  0.2957
  372MPD2    C2 5564   3.160   2.990  13.185 -0.8303  0.0007  0.2447
  372MPD2    C3 5565   3.057   2.898  13.213  0.9979 -0.9041  0.0814
  372MPD2    C4 5566   2.930   2.914  13.157 -0.1894 -0.1536  0.2464
  372MPD2    C5 5567   2.915   3.016  13.062 -1.1733  0.4528 -0.0246
  372MPD2     H 5568   3.250   2.988  13.246 -1.0550  0.7914  0.6034
  372MPD2    H1 5569   2.849   2.844  13.179 -0.5688  0.7682  1.7973
  372MPD2    H2 5570   2.997   3.181  12.960  0.2000 -0.1978  0.1212
  372MPD2    H3 5571   2.827   3.037  13.001 -0.8681 -0.1762 -0.6853
  372MPD2     N 5572   3.083   2.790  13.299 -0.3398  0.4640 -0.1238
  372MPD2    H5 5573   3.173   2.786  13.346  0.1080  1.6132 -0.9030
  372MPD2    N1 5574   3.240   3.185  13.064 -0.2788  0.0770  0.1583
  372MPD2    H7 5575   3.327   3.161  13.110  0.0648 -2.3961 -1.8097
  373TMC3    C1 5576   3.064   2.588  13.419  0.9576 -0.3595 -0.3263
  373TMC3    C2 5577   3.111   2.644  13.536  0.2577  0.1025 -0.7066
  373TMC3    C3 5578   3.149   2.563  13.636 -0.5004 -0.4984  1.0965
  373TMC3    C4 5579   3.052   2.453  13.405  0.0917 -0.5270 -0.1741
  373TMC3    C5 5580   3.115   2.376  13.498  0.0432 -0.0706 -0.3085
  373TMC3    C6 5581   3.165   2.430  13.612  0.0923 -0.3284 -0.2913
  373TMC3     C 5582   3.012   2.667  13.310 -0.1258  0.3107  0.3560
  373TMC3     O 5583   2.933   2.614  13.228  0.2489  0.1135 -0.7410
  373TMC3     H 5584   3.109   2.752  13.541 -1.4722  0.0546 -0.3078
  373TMC3    H1 5585   3.020   2.421  13.306 -1.0694 -0.2093  0.0988
  373TMC3    H2 5586   3.212   2.360  13.681  2.3442 -0.8798 -2.4138
  373TMC3    C7 5587   3.201   2.263  13.453  0.3282  0.1666 -0.2148
  373TMC3    C8 5588   3.200   2.627  13.749 -0.8607  0.2885 -0.3932
  373TMC3    O1 5589   3.308   2.251  13.507  0.0481 -0.3509 -0.1068
  373TMC3    O2 5590   3.224   2.747  13.736 -0.0929 -0.1886  0.4661
  374TMC3    C1 5591   4.583   3.148   9.769 -0.2783 -0.3434  0.7978
  374TMC3    C2 5592   4.635   3.273   9.765  0.0096 -0.8387  0.0829
  374TMC3    C3 5593   4.692   3.317   9.651 -0.0666 -0.4734 -0.5506
  374TMC3    C4 5594   4.537   3.087   9.655 -0.5904 -1.3143  0.3416
  374TMC3    C5 5595   4.577   3.151   9.537  0.8998  0.3286 -0.3909
  374TMC3    C6 5596   4.656   3.265   9.536  0.5874  0.1840 -0.4642
  374TMC3     C 5597   4.526   3.103   9.894 -0.6315 -0.0833 -0.0282
  374TMC3     O 5598   4.565   3.160   9.993  0.2995 -0.1798 -0.3902
  374TMC3     H 5599   4.640   3.342   9.849 -0.9607  0.8930 -1.2940
  374TMC3    H1 5600   4.473   3.000   9.646 -0.6923 -1.0992 -0.9777
  374TMC3    H2 5601   4.684   3.306   9.439 -0.5027 -0.9356 -1.2586
  374TMC3    C7 5602   4.518   3.120   9.405 -0.2263  0.6704  0.0246
  374TMC3    C8 5603   0.055   3.442   9.643 -0.6099  0.5636 -0.1492
  374TMC3    O1 5604   4.578   3.166   9.307 -0.2830 -0.3400 -0.3902
  374TMC3    O2 5605   0.061   3.490   9.530  0.2790 -0.0049 -0.2600
  375MPD2     C 5606   4.549   3.809  17.208  0.4380 -0.6848  0.2248
  375MPD2    C1 5607   4.475   3.836  17.094  0.0222  0.8362 -0.1951
  375MPD2    C2 5608   4.539   3.817  16.971  1.2604 -0.9208  0.3366
  375MPD2    C3 5609   4.672   3.763  16.963 -0.5804 -0.0177 -0.5784
  375MPD2    C4 5610   0.014   3.732  17.082 -0.0883 -0.0653 -0.2694
  375MPD2    C5 5611   4.678   3.760  17.202 -0.7210  0.1273 -0.1890
  375MPD2     H 5612   4.483   3.849  16.884  3.2466  0.2727 -0.4780
  375MPD2    H1 5613   0.115   3.691  17.085 -0.0895 -0.0940 -0.6257
  375MPD2    H2 5614   4.494   3.806  17.302 -0.9098 -1.2309 -0.5817
  375MPD2    H3 5615   0.005   3.729  17.295 -1.2904  1.2660  0.4880
  375MPD2     N 5616   0.016   3.742  16.843  0.4521  0.0126  0.3010
  375MPD2    H5 5617   0.099   3.684  16.847  0.3483  0.0644  2.7845
  375MPD2    N1 5618   4.337   3.858  17.106  0.7117 -0.8268 -0.7526
  375MPD2    H7 5619   4.283   3.837  17.022 -4.4923  4.1650  1.3439
  376TMC3    C1 5620   0.050   3.719  16.609  0.3238 -0.0140 -0.4523
  376TMC3    C2 5621   0.134   3.613  16.635  0.0958 -0.4798  0.3660
  376TMC3    C3 5622   0.246   3.605  16.557 -0.4892 -0.6416 -0.2078
  376TMC3    C4 5623   0.053   3.794  16.493  0.2327 -0.3443 -0.2347
  376TMC3    C5 5624   0.153   3.766  16.409 -0.0842  0.2303  0.8707
  376TMC3    C6 5625   0.253   3.673  16.437  0.3542  0.0042 -0.8515
  376TMC3     C 5626   4.689   3.773  16.720  0.6250  0.2619  0.2232
  376TMC3     O 5627   4.613   3.864  16.686  0.0464  0.3426 -0.2502
  376TMC3     H 5628   0.128   3.563  16.731  2.1636 -0.3624  0.5770
  376TMC3    H1 5629   4.703   3.872  16.465  0.1033 -0.4593 -0.2305
  376TMC3    H2 5630   0.333   3.666  16.364  0.7385 -0.0126 -0.4285
  376TMC3    C7 5631   0.133   3.817  16.270  0.4281 -0.0422 -0.6184
  376TMC3    C8 5632   0.320   3.484  16.567  0.5031  0.4944  0.1322
  376TMC3    O1 5633   0.097   3.933  16.251 -0.3502  0.0645  0.7470
  376TMC3    O2 5634   0.270   3.384  16.620  0.2823  0.2337  0.5336
  377MPD2     C 5635   2.497   3.255  11.860 -0.3471  0.4335 -0.5420
  377MPD2    C1 5636   2.557   3.183  11.962  0.6077 -0.0481 -0.5572
  377MPD2    C2 5637   2.477   3.148  12.075  0.1643 -0.3186 -0.5005
  377MPD2    C3 5638   2.350   3.201  12.073 -0.2741  0.0912 -0.5603
  377MPD2    C4 5639   2.303   3.283  11.975  0.8787 -0.1529  0.2244
  377MPD2    C5 5640   2.369   3.305  11.868  0.3906  0.4030 -0.5282
  377MPD2     H 5641   2.510   3.076  12.149 -0.6034  0.0765  0.2111
  377MPD2    H1 5642   2.203   3.324  11.980  1.1713  0.6275 -0.2796
  377MPD2    H2 5643   2.552   3.268  11.767  0.6279 -1.7009 -0.2719
  377MPD2    H3 5644   2.322   3.351  11.782 -2.8151 -1.6004  0.1908
  377MPD2     N 5645   2.257   3.178  12.177  0.1470 -0.1312  0.0032
  377MPD2    H5 5646   2.163   3.210  12.158  0.7610  1.5408 -0.2085
  377MPD2    N1 5647   2.700   3.151  11.954 -0.3643 -0.0622  0.0274
  377MPD2    H7 5648   2.741   3.167  11.862 -0.9372  0.8423 -0.0683
  378TMC3    C1 5649   3.098   3.096  11.889  0.1115 -0.7954 -0.4990
  378TMC3    C2 5650   2.962   3.109  11.909 -0.5736  1.0657  0.3824
  378TMC3    C3 5651   2.915   3.075  12.029 -0.0851  0.2470  0.5865
  378TMC3    C4 5652   3.178   3.053  11.990  0.6739 -0.0811 -0.1408
  378TMC3    C5 5653   3.124   3.021  12.114 -0.4106  0.4858 -0.5470
  378TMC3    C6 5654   2.990   3.039  12.142 -0.3882  0.0640  0.4631
  378TMC3     C 5655   3.156   3.118  11.760  0.0339 -0.0339  0.8402
  378TMC3     O 5656   3.079   3.140  11.670 -0.3764 -0.0157  0.8213
  378TMC3     H 5657   2.899   3.136  11.825  2.0197 -0.9965 -2.2017
  378TMC3    H1 5658   3.285   3.038  11.980  0.5420 -0.8558 -0.4085
  378TMC3    H2 5659   2.953   3.041  12.244  0.7259 -1.1500  0.8978
  378TMC3    C7 5660   3.219   2.993  12.225 -0.0565 -0.0259  0.4339
  378TMC3    C8 5661   2.783   3.121  12.060 -0.0678  1.0291  0.0431
  378TMC3    O1 5662   3.168   3.013  12.336  0.3189  0.2223  0.0266
  378TMC3    O2 5663   2.743   3.101  12.172 -0.0309  0.3073 -0.3454
  379MPD2     C 5664   3.783   1.373  16.117 -0.7924  0.5710  0.0641
  379MPD2    C1 5665   3.681   1.318  16.187 -0.0880 -0.5473  0.7740
  379MPD2    C2 5666   3.705   1.257  16.307  0.6359  0.3626  0.5787
  379MPD2    C3 5667   3.831   1.260  16.365 -0.1227 -0.4643  0.8098
  379MPD2    C4 5668   3.929   1.325  16.295  0.0250  0.1665  0.3919
  379MPD2    C5 5669   3.906   1.384  16.179  0.0602 -1.0875 -0.7384
  379MPD2     H 5670   3.621   1.215  16.360  1.0101 -0.6116  0.4011
  379MPD2    H1 5671   4.034   1.328  16.322 -0.2662 -0.0222  1.5270
  379MPD2    H2 5672   3.762   1.419  16.021  0.5544 -0.3792 -0.6938
  379MPD2    H3 5673   3.976   1.443  16.121 -0.7270 -0.3275 -0.9126
  379MPD2     N 5674   3.866   1.184  16.488 -0.2151  0.0607 -0.3573
  379MPD2    H5 5675   3.964   1.185  16.515 -0.3651  0.8181  0.1479
  379MPD2    N1 5676   3.557   1.328  16.121 -0.0782 -0.4241 -0.8890
  379MPD2    H7 5677   3.553   1.359  16.025 -1.7208 -0.0620 -0.7122
  380TMC3    C1 5678   3.334   1.283  16.083  0.6106 -0.8395  0.7792
  380TMC3    C2 5679   3.376   1.254  15.954 -0.8882  0.4059  0.5527
  380TMC3    C3 5680   3.273   1.237  15.868  0.0922  0.1519 -0.3731
  380TMC3    C4 5681   3.210   1.296  16.129  0.1510  0.3593  0.2322
  380TMC3    C5 5682   3.111   1.260  16.036 -0.4639 -0.5861  0.0844
  380TMC3    C6 5683   3.141   1.240  15.903  0.3995 -0.3996 -0.8695
  380TMC3     C 5684   3.438   1.295  16.182 -0.1540 -0.0233  0.5394
  380TMC3     O 5685   3.405   1.308  16.298  0.2656  0.1764  0.2370
  380TMC3     H 5686   3.477   1.263  15.915 -0.2715 -1.0441  1.8108
  380TMC3    H1 5687   3.186   1.338  16.226  2.6439 -1.0270  1.4445
  380TMC3    H2 5688   3.069   1.220  15.825  0.2170 -1.4335 -0.4437
  380TMC3    C7 5689   2.968   1.272  16.072 -0.3100 -0.0289 -0.5759
  380TMC3    C8 5690   3.300   1.231  15.728  0.3202  0.1021  0.4692
  380TMC3    O1 5691   2.930   1.348  16.158 -0.4015 -0.1358 -0.3793
  380TMC3    O2 5692   3.213   1.287  15.665 -0.2434  0.3219 -0.8084
  381TMC3    C1 5693   3.301   2.581  16.121 -0.7098  0.3235  0.7651
  381TMC3    C2 5694   3.380   2.690  16.133 -0.9135  0.1667 -0.2277
  381TMC3    C3 5695   3.354   2.778  16.235  0.2700 -0.4995  0.4347
  381TMC3    C4 5696   3.206   2.552  16.213  0.1676 -0.2513  0.6667
  381TMC3    C5 5697   3.168   2.650  16.309 -0.0935  0.4628  0.3914
  381TMC3    C6 5698   3.251   2.759  16.322  0.8736 -0.5052  0.1507
  381TMC3     C 5699   3.340   2.476  16.028 -0.8401  0.7615  0.4485
  381TMC3     O 5700   3.422   2.513  15.939  0.9336  0.1516  0.6353
  381TMC3     H 5701   3.466   2.701  16.068 -1.5877 -0.0025 -1.1438
  381TMC3    H1 5702   3.154   2.457  16.212 -1.2579  0.5366  0.0356
  381TMC3    H2 5703   3.235   2.832  16.401 -2.5915 -0.0663 -0.9277
  381TMC3    C7 5704   3.128   2.579  16.429 -0.0132  0.0542  0.4108
  381TMC3    C8 5705   3.470   2.872  16.260 -0.2346 -0.7671 -0.8101
  381TMC3    O1 5706   3.183   2.474  16.454 -0.1698  0.0316  0.3489
  381TMC3    O2 5707   3.570   2.850  16.189 -0.2851 -0.7138 -0.4131
  382MPD2     C 5708   2.237   0.669  16.935 -1.0030 -0.1461 -0.0138
  382MPD2    C1 5709   2.280   0.643  17.065  0.5241  0.5776  0.7226
  382MPD2    C2 5710   2.260   0.511  17.110  0.1236 -0.2658 -0.4515
  382MPD2    C3 5711   2.210   0.412  17.019 -0.4199  0.2992 -0.1972
  382MPD2    C4 5712   2.189   0.442  16.889  0.3879  0.4307  0.0775
  382MPD2    C5 5713   2.193   0.569  16.847  0.0068  0.3632 -0.8701
  382MPD2     H 5714   2.276   0.482  17.214  0.7094 -0.8516 -0.7045
  382MPD2    H1 5715   2.168   0.366  16.814 -0.3012 -0.0107  0.7266
  382MPD2    H2 5716   2.244   0.767  16.890 -3.0459  0.9429  1.9777
  382MPD2    H3 5717   2.180   0.603  16.745  0.9478 -0.5714 -1.3011
  382MPD2     N 5718   2.201   0.275  17.048  0.3768 -0.2990 -0.7527
  382MPD2    H5 5719   2.155   0.215  16.980  0.0841 -0.0605 -0.7694
  382MPD2    N1 5720   2.331   0.746  17.157  0.3287 -0.6149  0.7223
  382MPD2    H7 5721   2.334   0.718  17.254 -0.6449 -2.0461  0.3380
  383TMC3    C1 5722   2.209   0.081  17.195 -0.2368 -0.5397  0.0898
  383TMC3    C2 5723   2.106   0.021  17.131 -0.1564  0.1738  0.5145
  383TMC3    C3 5724   2.106   4.606  17.130 -0.3560  0.0472  0.6658
  383TMC3    C4 5725   2.293   0.016  17.283 -0.4521  1.1522 -0.3395
  383TMC3    C5 5726   2.278   4.599  17.290 -0.2900  0.0503  0.4048
  383TMC3    C6 5727   2.188   4.535  17.208  0.0167 -0.4875 -0.4012
  383TMC3     C 5728   2.230   0.222  17.175 -0.1203 -0.5294 -0.4922
  383TMC3     O 5729   2.282   0.271  17.274 -0.0891 -0.2038 -0.5255
  383TMC3     H 5730   2.039   0.075  17.064  0.9889  0.6393 -0.2683
  383TMC3    H1 5731   2.360   0.066  17.352 -1.0889 -3.1244  3.3968
  383TMC3    H2 5732   2.184   4.427  17.206 -0.9890 -0.4915  1.4453
  383TMC3    C7 5733   2.369   4.516  17.378 -0.3397  0.5141 -0.0199
  383TMC3    C8 5734   1.999   4.536  17.060 -0.5929  0.3909 -0.0396
  383TMC3    O1 5735   2.351   4.397  17.359 -0.2367 -0.3759 -0.5587
  383TMC3    O2 5736   1.953   4.587  16.956  0.1883  0.0719 -0.4020
  384MPD2     C 5737   3.652   1.487  12.018  0.5472 -0.0120  0.0899
  384MPD2    C1 5738   3.637   1.362  12.084  0.6241 -0.2757  0.0210
  384MPD2    C2 5739   3.729   1.261  12.060  0.0411  0.2455  0.6685
  384MPD2    C3 5740   3.845   1.288  11.983 -0.3786  0.0917  0.0075
  384MPD2    C4 5741   3.855   1.412  11.919 -0.3453 -0.1190  0.3636
  384MPD2    C5 5742   3.757   1.505  11.925  0.0034  0.8054 -0.2465
  384MPD2     H 5743   3.735   1.171  12.121  3.1209 -0.3042 -0.4243
  384MPD2    H1 5744   3.939   1.429  11.852 -1.0616  1.2499 -0.1905
  384MPD2    H2 5745   3.582   1.567  12.036  0.7842  0.1529  0.2731
  384MPD2    H3 5746   3.766   1.594  11.864  0.4934  0.4825 -0.6435
  384MPD2     N 5747   3.957   1.198  11.975 -0.0896  0.9326  0.7450
  384MPD2    H5 5748   4.048   1.230  11.944 -0.4515  1.8955  0.6944
  384MPD2    N1 5749   3.542   1.334  12.178  0.4012  0.2030  0.1478
  384MPD2    H7 5750   3.549   1.241  12.217  1.1114 -0.2044 -0.9620
  385TMC3    C1 5751   4.071   0.993  12.005 -0.0616 -0.1831  0.0949
  385TMC3    C2 5752   4.064   0.858  11.967 -0.0835  0.1533 -0.0175
  385TMC3    C3 5753   4.112   0.766  12.055  0.2438  1.0023 -0.9515
  385TMC3    C4 5754   4.130   1.031  12.123 -0.0689 -0.3005 -0.3786
  385TMC3    C5 5755   4.177   0.936  12.209  0.4916 -0.0578 -0.2145
  385TMC3    C6 5756   4.176   0.806  12.172  0.3010 -0.0264 -0.5211
  385TMC3     C 5757   3.943   1.060  11.994 -0.1118 -0.2142 -0.0383
  385TMC3     O 5758   3.848   0.987  11.993  0.3970 -0.0637 -0.1289
  385TMC3     H 5759   3.997   0.834  11.885  0.3734 -3.0528  0.5390
  385TMC3    H1 5760   4.115   1.135  12.151  1.8910  0.4594 -2.1661
  385TMC3    H2 5761   4.218   0.725  12.229 -0.1721  0.6053  0.7252
  385TMC3    C7 5762   4.116   0.965  12.338 -0.4644 -0.2189  0.3135
  385TMC3    C8 5763   4.067   0.636  12.043 -0.3291 -0.5099  0.3605
  385TMC3    O1 5764   4.091   1.080  12.366 -0.9358  0.5150 -0.0761
  385TMC3    O2 5765   4.064   0.580  12.151  0.0850  0.3514 -0.0903
  386TMC3    C1 5766   3.893   3.287  11.194 -0.5789 -0.4484  0.1444
  386TMC3    C2 5767   3.949   3.324  11.073  0.5899  0.4057  0.5656
  386TMC3    C3 5768   3.901   3.436  11.016 -0.6669 -0.5997  0.2602
  386TMC3    C4 5769   3.789   3.360  11.243  0.4878  0.2768  0.2611
  386TMC3    C5 5770   3.733   3.466  11.175  0.1577 -0.1246  0.0398
  386TMC3    C6 5771   3.793   3.509  11.061  0.5950  0.1995 -0.6061
  386TMC3     C 5772   3.939   3.159  11.257  0.1281  0.7449 -0.2161
  386TMC3     O 5773   4.004   3.090  11.182 -0.5389  0.3395  0.2379
  386TMC3     H 5774   4.039   3.276  11.035 -1.0960 -2.2555 -0.0689
  386TMC3    H1 5775   3.742   3.321  11.333 -1.6587  0.4310 -0.8058
  386TMC3    H2 5776   3.755   3.598  11.012 -0.3061 -0.4032 -1.0243
  386TMC3    C7 5777   3.601   3.514  11.210  0.5955 -0.2954 -0.6617
  386TMC3    C8 5778   3.936   3.449  10.873 -0.4203 -0.1303 -0.0051
  386TMC3    O1 5779   3.566   3.503  11.330 -0.2514  0.4876  0.2497
  386TMC3    O2 5780   3.868   3.514  10.799  0.2914  0.1382  1.0555
  387MPD2     C 5781   1.824   3.457   9.077  0.2216  0.0652  0.1599
  387MPD2    C1 5782   1.913   3.479   9.174  0.5625 -0.0932  0.1263
  387MPD2    C2 5783   1.997   3.369   9.205 -0.2235  0.0133 -0.3050
  387MPD2    C3 5784   1.974   3.242   9.146  0.6443  0.1033 -0.2093
  387MPD2    C4 5785   1.886   3.231   9.037  0.1536 -0.0259  0.2306
  387MPD2    C5 5786   1.819   3.344   9.002 -0.3004  0.4506  0.5769
  387MPD2     H 5787   2.070   3.378   9.284  0.0505 -0.3313 -0.5195
  387MPD2    H1 5788   1.871   3.139   8.983 -1.0384 -0.5088  1.3748
  387MPD2    H2 5789   1.746   3.525   9.045 -0.0231  0.7234  2.1365
  387MPD2    H3 5790   1.738   3.336   8.930  0.6407 -0.6136 -0.3726
  387MPD2     N 5791   2.022   3.129   9.219  0.1282  0.0599 -0.4188
  387MPD2    H5 5792   2.087   3.155   9.293 -1.2397 -0.8177  1.0654
  387MPD2    N1 5793   1.927   3.596   9.259 -0.0251 -0.5178 -0.3586
  387MPD2    H7 5794   1.999   3.610   9.329 -0.0049 -1.7175 -0.1398
  388TMC3    C1 5795   1.861   3.782   9.379  0.2859 -0.0697  0.0855
  388TMC3    C2 5796   1.815   3.909   9.389  0.1105  0.8943  0.4633
  388TMC3    C3 5797   1.816   3.975   9.511 -0.2589  0.6378 -0.3983
  388TMC3    C4 5798   1.894   3.711   9.494 -0.1739 -0.3578 -0.1796
  388TMC3    C5 5799   1.909   3.776   9.612  0.1028 -0.3957 -0.0455
  388TMC3    C6 5800   1.868   3.910   9.623  0.3914 -0.1447  0.0491
  388TMC3     C 5801   1.843   3.707   9.261  0.4940 -0.1874 -0.0940
  388TMC3     O 5802   1.766   3.751   9.178  0.0407 -0.1589  0.2377
  388TMC3     H 5803   1.773   3.958   9.302 -0.6596 -3.5871 -1.6428
  388TMC3    H1 5804   1.902   3.603   9.486 -1.1552 -0.2480 -2.9948
  388TMC3    H2 5805   1.864   3.949   9.724 -0.5390 -0.5323  0.1683
  388TMC3    C7 5806   1.939   3.710   9.734  0.3208 -0.4104  0.6577
  388TMC3    C8 5807   1.779   4.117   9.510  0.0380 -0.5096 -0.6059
  388TMC3    O1 5808   1.919   3.746   9.850 -0.5639 -0.1318  0.0880
  388TMC3    O2 5809   1.751   4.166   9.404  0.1040 -0.2804 -0.2702
  389MPD2     C 5810   0.829   1.451  10.781 -0.4098  0.6319 -0.9301
  389MPD2    C1 5811   0.847   1.545  10.879  0.2483  0.0847 -0.4559
  389MPD2    C2 5812   0.798   1.519  11.004  0.4295  0.4003  0.5626
  389MPD2    C3 5813   0.719   1.405  11.031 -0.7469  0.3036 -0.5104
  389MPD2    C4 5814   0.701   1.315  10.935 -0.9701  0.3759 -0.0330
  389MPD2    C5 5815   0.755   1.337  10.810  0.2848  0.4639 -0.1399
  389MPD2     H 5816   0.820   1.585  11.087 -3.3897  2.3745 -0.0126
  389MPD2    H1 5817   0.649   1.222  10.952 -0.2020  0.2257  1.4682
  389MPD2    H2 5818   0.864   1.453  10.678 -0.9633  0.6670 -1.1225
  389MPD2    H3 5819   0.735   1.259  10.738  0.4881 -1.1269  1.5312
  389MPD2     N 5820   0.666   1.381  11.156  0.5043 -0.0575  0.7803
  389MPD2    H5 5821   0.599   1.305  11.155 -1.1742  1.4440 -0.2553
  389MPD2    N1 5822   0.907   1.669  10.842  0.4065 -0.0314 -0.0984
  389MPD2    H7 5823   0.935   1.668  10.745 -0.3985 -1.2851 -0.3218
  390TMC3    C1 5824   0.561   1.432  11.363 -0.0001  0.4976 -0.3766
  390TMC3    C2 5825   0.594   1.440  11.493 -0.2120 -0.0742 -0.4359
  390TMC3    C3 5826   0.499   1.446  11.588 -0.5342  0.1670 -0.0269
  390TMC3    C4 5827   0.437   1.411  11.319 -0.1739  0.4455 -0.1976
  390TMC3    C5 5828   0.343   1.421  11.415 -0.7699  0.2530  0.1572
  390TMC3    C6 5829   0.369   1.431  11.551 -0.3159  0.6284 -0.5145
  390TMC3     C 5830   0.672   1.461  11.275  0.2972 -0.1666 -0.8495
  390TMC3     O 5831   0.751   1.554  11.296 -1.4214 -0.4548  0.1390
  390TMC3     H 5832   0.696   1.436  11.529  0.0097  1.6273 -0.8911
  390TMC3    H1 5833   0.410   1.399  11.215 -0.2052 -2.3642  0.1229
  390TMC3    H2 5834   0.289   1.453  11.620 -0.6243 -0.6778 -0.4540
  390TMC3    C7 5835   0.228   1.344  11.392  0.1258 -0.8206  0.4014
  390TMC3    C8 5836   0.515   1.331  11.678  0.0933 -0.6091  0.0565
  390TMC3    O1 5837   0.202   1.333  11.274  0.9440 -0.3995 -0.5678
  390TMC3    O2 5838   0.575   1.230  11.639 -0.5052 -0.1480  0.0075
  391MPD2     C 5839   0.805   3.072  10.963  1.1181 -0.8052  0.4249
  391MPD2    C1 5840   0.872   3.193  10.953 -0.2891 -0.5349 -0.3829
  391MPD2    C2 5841   0.849   3.281  10.846 -0.5918 -0.4232 -0.3807
  391MPD2    C3 5842   0.753   3.248  10.750  0.3241  0.2665 -0.6907
  391MPD2    C4 5843   0.677   3.138  10.762  0.2575 -0.0384 -0.2496
  391MPD2    C5 5844   0.705   3.058  10.872 -0.2443 -0.4329 -0.3901
  391MPD2     H 5845   0.915   3.365  10.831 -0.0447 -0.7385  0.3067
  391MPD2    H1 5846   0.597   3.105  10.696 -0.8167 -1.1689  1.6098
  391MPD2    H2 5847   0.806   3.006  11.048  0.9282  0.4911  1.4219
  391MPD2    H3 5848   0.641   2.971  10.888  0.2291 -0.5051  1.1645
  391MPD2     N 5849   0.742   3.323  10.635  0.0972  0.2999 -0.2773
  391MPD2    H5 5850   0.821   3.383  10.617  0.1976  0.4410  0.6320
  391MPD2    N1 5851   0.963   3.225  11.061 -0.0109 -0.1736 -0.7319
  391MPD2    H7 5852   0.969   3.156  11.135  1.8877  1.8243  0.9573
  392TMC3    C1 5853   0.670   3.416  10.427  0.1265  1.0342  0.3255
  392TMC3    C2 5854   0.596   3.403  10.314  0.4932  0.0987 -0.0642
  392TMC3    C3 5855   0.590   3.507  10.223  0.1392  0.5057  0.0832
  392TMC3    C4 5856   0.737   3.528  10.451 -0.2588  0.2145  0.4841
  392TMC3    C5 5857   0.739   3.625  10.355  0.6290 -0.4150  0.4144
  392TMC3    C6 5858   0.664   3.621  10.238 -0.0333 -0.3671 -0.4695
  392TMC3     C 5859   0.652   3.319  10.526 -0.9473  0.2636  0.6473
  392TMC3     O 5860   0.546   3.260  10.522 -0.1921 -0.3873  0.1614
  392TMC3     H 5861   0.542   3.310  10.304 -1.3152  1.3383 -1.9721
  392TMC3    H1 5862   0.787   3.540  10.547  2.6758  0.1365 -1.0482
  392TMC3    H2 5863   0.653   3.714  10.184 -0.3770  0.1102  0.4155
  392TMC3    C7 5864   0.830   3.738  10.381 -0.0631  0.2219  0.6187
  392TMC3    C8 5865   0.502   3.484  10.112  0.1438 -0.5370 -1.0055
  392TMC3    O1 5866   0.849   3.760  10.498  0.1153 -0.1064 -0.1933
  392TMC3    O2 5867   0.439   3.383  10.112  0.3743  0.9806  0.0557
  393TMC3    C1 5868   4.512   1.517  10.509 -0.5440  0.1139  0.4193
  393TMC3    C2 5869   4.429   1.474  10.604 -0.3514 -0.3085 -0.5368
  393TMC3    C3 5870   4.412   1.342  10.628 -0.6095  0.0676 -0.0193
  393TMC3    C4 5871   4.575   1.427  10.428 -0.0170  0.2392  0.5263
  393TMC3    C5 5872   4.542   1.292  10.444 -0.4430  0.2822  0.0521
  393TMC3    C6 5873   4.464   1.248  10.540 -0.4744  0.1882  0.0306
  393TMC3     C 5874   4.527   1.660  10.497 -0.0482  0.1240 -0.4067
  393TMC3     O 5875   4.448   1.730  10.555  0.1442 -0.3276  0.2295
  393TMC3     H 5876   4.380   1.549  10.665 -0.2059 -0.1912 -0.5635
  393TMC3    H1 5877   4.630   1.460  10.341  1.9026 -3.1205  0.4987
  393TMC3    H2 5878   4.445   1.142  10.544  2.1032 -0.2574  0.3764
  393TMC3    C7 5879   4.622   1.194  10.371 -0.2856 -0.5262 -0.4821
  393TMC3    C8 5880   4.298   1.308  10.706  0.8133  0.3801 -0.3635
  393TMC3    O1 5881   4.617   1.078  10.416 -0.6294 -0.2129 -0.2970
  393TMC3    O2 5882   4.228   1.399  10.749 -0.1910 -0.0105  0.2744
  394TMC3    C1 5883   0.972   1.893  10.839  0.7889 -0.1774  0.5140
  394TMC3    C2 5884   0.884   1.978  10.786 -0.0110  0.0758  0.1046
  394TMC3    C3 5885   0.889   2.007  10.649  0.3932 -0.0812  0.3040
  394TMC3    C4 5886   1.078   1.844  10.769  0.0678 -0.1101  0.0121
  394TMC3    C5 5887   1.086   1.885  10.636 -0.0834 -0.5757  0.0967
  394TMC3    C6 5888   0.991   1.962  10.576 -0.3461  0.1357  0.3923
  394TMC3     C 5889   0.900   1.786  10.912  0.3100  0.5409  0.2918
  394TMC3     O 5890   0.845   1.821  11.017  0.0323 -0.0096 -0.8491
  394TMC3     H 5891   0.791   1.994  10.839 -0.0805  1.4603 -0.4297
  394TMC3    H1 5892   1.150   1.772  10.806 -0.0012 -0.9938 -1.5499
  394TMC3    H2 5893   1.000   1.994  10.472  0.2883 -0.6529  0.2075
  394TMC3    C7 5894   1.216   1.881  10.569 -0.2573  0.1601 -0.7618
  394TMC3    C8 5895   0.757   1.966  10.599  0.0158 -0.4790  0.5124
  394TMC3    O1 5896   1.300   1.826  10.638  0.3608  0.0242 -0.1771
  394TMC3    O2 5897   0.659   2.012  10.654 -0.1071  0.3443 -0.0239
  395TMC3    C1 5898   0.911   3.484  14.283  0.3211 -0.7825  0.1004
  395TMC3    C2 5899   0.806   3.477  14.200 -0.0387 -0.1762  0.0522
  395TMC3    C3 5900   0.787   3.583  14.113 -0.0350 -0.1475  0.4765
  395TMC3    C4 5901   0.990   3.597  14.289 -0.1195  0.3681  0.3290
  395TMC3    C5 5902   0.963   3.701  14.207  0.0671  0.0132 -0.6602
  395TMC3    C6 5903   0.866   3.690  14.110 -0.8551  0.7525  0.2933
  395TMC3     C 5904   0.923   3.383  14.386  0.0883 -0.0550  0.4455
  395TMC3     O 5905   1.005   3.401  14.474  0.1677 -0.3130  0.1962
  395TMC3     H 5906   0.753   3.385  14.178  0.2705 -0.2725 -0.3027
  395TMC3    H1 5907   1.080   3.598  14.348 -0.7953  2.5077  1.2973
  395TMC3    H2 5908   0.841   3.763  14.035  2.8377  0.7107 -0.9613
  395TMC3    C7 5909   1.025   3.828  14.248  0.2566  0.3020 -0.3818
  395TMC3    C8 5910   0.693   3.570  14.004  0.5559  0.0903 -0.0856
  395TMC3    O1 5911   1.074   3.832  14.362 -0.2634  0.6712 -0.3897
  395TMC3    O2 5912   0.704   3.637  13.902  0.3670 -0.1381 -0.4585
  396MPD2     C 5913   0.463   0.254  17.222  0.0923  0.3006  0.0616
  396MPD2    C1 5914   0.595   0.289  17.193 -0.4246  0.2790  0.2857
  396MPD2    C2 5915   0.623   0.389  17.098  0.4205  0.1880 -0.1036
  396MPD2    C3 5916   0.522   0.443  17.029 -0.6311 -0.2047 -0.3424
  396MPD2    C4 5917   0.392   0.410  17.051 -0.0201 -0.0281  0.3516
  396MPD2    C5 5918   0.359   0.319  17.154 -0.3348 -0.9106  0.0222
  396MPD2     H 5919   0.722   0.413  17.062  0.2822  2.0582  0.7239
  396MPD2    H1 5920   0.314   0.450  16.987 -0.1002  1.2637  1.2583
  396MPD2    H2 5921   0.443   0.180  17.298  0.1019 -2.3079 -2.5154
  396MPD2    H3 5922   0.257   0.309  17.188 -0.6461 -1.0777 -0.9480
  396MPD2     N 5923   0.567   0.534  16.931  0.4248 -0.2705 -0.4771
  396MPD2    H5 5924   0.666   0.553  16.922  0.1716  0.4235 -1.6774
  396MPD2    N1 5925   0.694   0.206  17.253  0.0446 -0.4897  0.1614
  396MPD2    H7 5926   0.670   0.116  17.294  1.0418 -0.0248  1.7844
  397TMC3    C1 5927   0.896   0.112  17.285 -0.6167  0.0171  0.0636
  397TMC3    C2 5928   0.967   0.064  17.186 -0.2897 -0.3529  0.4091
  397TMC3    C3 5929   0.959   4.652  17.151 -0.1637 -0.3716  0.8119
  397TMC3    C4 5930   0.819   0.022  17.357  0.2692 -0.8634 -0.0928
  397TMC3    C5 5931   0.820   4.605  17.325  0.2755 -0.0822 -0.4335
  397TMC3    C6 5932   0.881   4.559  17.217  0.3621 -0.3474  0.3537
  397TMC3     C 5933   0.823   0.234  17.252 -0.1870 -0.2799 -0.2329
  397TMC3     O 5934   0.886   0.329  17.207  0.0071 -0.7062  0.1432
  397TMC3     H 5935   0.999   0.143  17.118 -0.3331 -2.0024 -1.4977
  397TMC3    H1 5936   0.763   0.063  17.441 -0.8842  1.8213 -2.1845
  397TMC3    H2 5937   0.879   4.453  17.194 -1.8848 -0.4469  1.0249
  397TMC3    C7 5938   0.786   4.511  17.425  0.5160  0.2422 -0.4738
  397TMC3    C8 5939   0.984   4.614  17.011  0.4546 -0.5255  0.3259
  397TMC3    O1 5940   0.764   4.394  17.399  0.2810 -0.4241  0.2184
  397TMC3    O2 5941   0.924   4.521  16.963  0.1926  0.0466 -0.1760
  398MPD2     C 5942   3.580   1.055   0.384 -0.4453 -0.5455  0.3038
  398MPD2    C1 5943   3.623   0.928   0.407  0.7730 -0.4547  0.4071
  398MPD2    C2 5944   3.757   0.911   0.440 -0.6395 -0.2656  0.0332
  398MPD2    C3 5945   3.845   1.016   0.452 -0.7610 -0.0947  0.3216
  398MPD2    C4 5946   3.800   1.145   0.431 -1.2278  0.1884 -0.2609
  398MPD2    C5 5947   3.669   1.160   0.400 -0.6161  0.1482  0.2681
  398MPD2     H 5948   3.779   0.810   0.475 -2.3115 -0.8985 -0.7199
  398MPD2    H1 5949   3.857   1.237   0.436  1.8057 -1.7015 -0.2858
  398MPD2    H2 5950   3.481   1.088   0.356 -1.8971 -4.4031  0.7792
  398MPD2    H3 5951   3.631   1.259   0.381  1.7851  0.9255 -0.5275
  398MPD2     N 5952   3.983   0.983   0.481  0.0952  1.0039 -0.6723
  398MPD2    H5 5953   4.012   0.887   0.498 -0.0397  0.9508 -0.7419
  398MPD2    N1 5954   3.547   0.808   0.396 -0.6047  0.7838  0.8091
  398MPD2    H7 5955   3.592   0.722   0.426  0.6983  0.7634 -1.2271
  399TMC3    C1 5956   3.349   0.669   0.367  0.2185  0.3814  0.2173
  399TMC3    C2 5957   3.405   0.560   0.433 -0.3674 -0.0766  0.1896
  399TMC3    C3 5958   3.335   0.436   0.416 -0.6272 -0.4754  0.1099
  399TMC3    C4 5959   3.233   0.663   0.296  0.3827 -0.4562 -0.6884
  399TMC3    C5 5960   3.165   0.548   0.299 -0.6535  1.2790  0.0228
  399TMC3    C6 5961   3.210   0.433   0.361  0.9764 -0.2368  0.2186
  399TMC3     C 5962   3.412   0.804   0.364  0.2027  0.5511 -0.5196
  399TMC3     O 5963   3.346   0.898   0.323 -0.6607  0.1591 -1.0757
  399TMC3     H 5964   3.502   0.562   0.482 -0.2631  3.0800 -0.0903
  399TMC3    H1 5965   3.198   0.742   0.231 -0.4132 -2.9836 -3.3042
  399TMC3    H2 5966   3.143   0.349   0.375  3.0829 -1.7549  1.0965
  399TMC3    C7 5967   3.056   0.528   0.207 -0.2667  0.3422  0.5490
  399TMC3    C8 5968   3.407   0.322   0.445 -0.1642  0.1405  0.6043
  399TMC3    O1 5969   3.050   0.409   0.169 -0.0264 -0.1101 -0.0565
  399TMC3    O2 5970   3.512   0.334   0.506 -0.1292  0.3576 -0.2651
  400TMC3    C1 5971   1.878   4.220  16.742  0.3196 -0.0843  0.4285
  400TMC3    C2 5972   1.780   4.122  16.717 -0.1287 -0.0175 -0.9238
  400TMC3    C3 5973   1.671   4.171  16.651 -0.7572 -0.2638 -0.1964
  400TMC3    C4 5974   1.873   4.348  16.699  0.0012  0.7250  0.4044
  400TMC3    C5 5975   1.759   4.386  16.638  0.2534  0.1654  0.3088
  400TMC3    C6 5976   1.653   4.298  16.618 -0.5318 -0.3553  0.1380
  400TMC3     C 5977   1.990   4.174  16.824  0.2988  0.4065  0.3969
  400TMC3     O 5978   1.990   4.057  16.857  0.4370  0.3532 -0.3666
  400TMC3     H 5979   1.777   4.021  16.758 -0.6217 -1.0687 -3.5290
  400TMC3    H1 5980   1.951   4.417  16.726 -0.0410  1.1401 -0.5465
  400TMC3    H2 5981   1.564   4.338  16.570  0.6026 -1.5251 -2.9718
  400TMC3    C7 5982   1.756   4.512  16.581 -0.0368  0.2172  0.0512
  400TMC3    C8 5983   1.546   4.098  16.651 -0.5285 -0.3807  0.1574
  400TMC3    O1 5984   1.694   4.524  16.476  0.3316 -0.1254 -0.1676
  400TMC3    O2 5985   1.447   4.164  16.675  0.0710  0.1025  0.0464
  401MPD2     C 5986   4.530   2.886   0.438 -0.0821  0.2479  0.2012
  401MPD2    C1 5987   4.655   2.852   0.486  0.2324 -0.6627  0.2347
  401MPD2    C2 5988   4.699   2.722   0.481 -0.1858 -0.4449 -0.3065
  401MPD2    C3 5989   4.616   2.613   0.440  0.6437  0.6500  0.7522
  401MPD2    C4 5990   4.493   2.648   0.384  0.1245  0.2077  0.0848
  401MPD2    C5 5991   4.452   2.780   0.391  0.0765 -0.4036  0.4375
  401MPD2     H 5992   0.079   2.702   0.515 -0.0957  1.3379  0.4814
  401MPD2    H1 5993   4.419   2.583   0.340  1.6591 -1.4149 -0.0748
  401MPD2    H2 5994   4.486   2.985   0.435  1.2074  0.8733  1.9068
  401MPD2    H3 5995   4.355   2.805   0.350 -0.0695  0.2811  1.1985
  401MPD2     N 5996   4.667   2.486   0.459 -0.4132 -0.0223  0.1447
  401MPD2    H5 5997   0.017   2.472   0.531 -1.2424  1.8187  1.3097
  401MPD2    N1 5998   0.031   2.949   0.530  0.4825  0.9555  0.4206
  401MPD2    H7 5999   0.120   2.907   0.555 -0.2395 -0.0649  1.3105
  402TMC3    C1 6000   4.675   2.247   0.455 -0.5229 -0.4428  1.2153
  402TMC3    C2 6001   4.688   2.246   0.588  0.1406 -0.5139  0.0778
  402TMC3    C3 6002   0.040   2.144   0.649 -0.7627  0.1446 -0.5158
  402TMC3    C4 6003   0.018   2.149   0.378  0.0672  0.1968 -0.6658
  402TMC3    C5 6004   0.102   2.057   0.437 -0.4783 -0.4242 -0.5396
  402TMC3    C6 6005   0.109   2.053   0.575 -0.5719  0.3496 -0.1874
  402TMC3     C 6006   4.634   2.374   0.392  0.0718  0.1826  0.4964
  402TMC3     O 6007   4.575   2.365   0.282 -0.9195  0.0442  0.1617
  402TMC3     H 6008   4.643   2.324   0.648  0.6509 -0.8207  0.8614
  402TMC3    H1 6009   0.021   2.164   0.271  1.0559  1.8792 -0.3904
  402TMC3    H2 6010   0.180   1.990   0.627  0.4446  1.8121  0.1795
  402TMC3    C7 6011   0.231   2.046   0.374 -0.1153  0.0184 -0.0622
  402TMC3    C8 6012   0.101   2.170   0.778 -0.6547  0.2746 -0.2505
  402TMC3    O1 6013   0.251   2.121   0.276  0.2661 -0.8451  1.0898
  402TMC3    O2 6014   0.205   2.115   0.811 -0.1517  0.5005  0.4589
  403MPD2     C 6015   3.199   1.059  13.494 -0.1645 -0.0003  0.0285
  403MPD2    C1 6016   3.283   0.951  13.500  0.1888  0.0884  0.3755
  403MPD2    C2 6017   3.420   0.977  13.540 -0.3317  0.5659 -0.2275
  403MPD2    C3 6018   3.466   1.112  13.560 -0.3912  0.6509  0.3275
  403MPD2    C4 6019   3.378   1.216  13.552 -0.9934 -0.3078 -0.4898
  403MPD2    C5 6020   3.242   1.189  13.521  0.3348 -0.5632  0.8641
  403MPD2     H 6021   3.493   0.897  13.546 -1.4280 -0.4432 -0.5042
  403MPD2    H1 6022   3.407   1.319  13.572  0.8061 -0.5216 -1.9538
  403MPD2    H2 6023   3.094   1.052  13.470 -0.8885  0.9846  2.9367
  403MPD2    H3 6024   3.172   1.270  13.505 -0.0408 -0.8576  1.0134
  403MPD2     N 6025   3.602   1.136  13.593 -0.1593 -0.2960 -0.5902
  403MPD2    H5 6026   3.663   1.054  13.592 -2.0222 -1.6952  0.7681
  403MPD2    N1 6027   3.229   0.824  13.457  0.0099  0.0774 -0.1023
  403MPD2    H7 6028   3.138   0.820  13.412 -0.2547  1.9579  0.2554
  404TMC3    C1 6029   3.238   0.608  13.371 -0.4013 -0.4304  0.4175
  404TMC3    C2 6030   3.230   0.473  13.407  0.0977 -0.5594  0.1148
  404TMC3    C3 6031   3.158   0.387  13.329  0.1012 -0.0854  0.3647
  404TMC3    C4 6032   3.160   0.657  13.269  0.5462  0.6221  0.3360
  404TMC3    C5 6033   3.093   0.572  13.193 -0.0196 -0.2498  0.7390
  404TMC3    C6 6034   3.091   0.441  13.220 -0.3136  0.0688 -0.4139
  404TMC3     C 6035   3.303   0.707  13.450  0.1666 -0.1830 -0.1473
  404TMC3     O 6036   3.396   0.676  13.523  0.8483 -0.0811  0.4673
  404TMC3     H 6037   3.285   0.452  13.498  0.7149  0.2405 -0.0762
  404TMC3    H1 6038   3.169   0.760  13.235 -1.2749  0.8238  0.4945
  404TMC3    H2 6039   3.048   0.375  13.145  0.2092 -0.2932 -0.3965
  404TMC3    C7 6040   3.006   0.632  13.094  0.7442  0.2906  0.0348
  404TMC3    C8 6041   3.155   0.243  13.349 -0.0595  0.3096  1.1983
  404TMC3    O1 6042   2.966   0.742  13.124 -0.2684  0.0663  0.0625
  404TMC3    O2 6043   3.141   0.170  13.250  0.0200  0.9412 -0.3394
  405MPD2     C 6044   3.897   1.960  14.185  0.2731  0.1121 -0.2624
  405MPD2    C1 6045   3.842   1.849  14.128  0.3924 -0.8713 -0.0232
  405MPD2    C2 6046   3.745   1.865  14.035  0.8621 -0.3339  0.4335
  405MPD2    C3 6047   3.705   1.987  13.994  0.5473 -0.2992  0.4333
  405MPD2    C4 6048   3.765   2.101  14.038  0.6246 -0.3290 -0.5518
  405MPD2    C5 6049   3.860   2.088  14.135 -0.2475  0.0130  0.0193
  405MPD2     H 6050   3.692   1.789  13.979  0.2912 -1.7562  2.9011
  405MPD2    H1 6051   3.730   2.200  14.008  0.7914 -0.2327 -0.4301
  405MPD2    H2 6052   3.971   1.949  14.263  0.7364  1.8478 -0.4567
  405MPD2    H3 6053   3.905   2.180  14.170  0.0763  0.2492 -1.0173
  405MPD2     N 6054   3.594   1.989  13.894  0.4322  1.2137  0.7217
  405MPD2    H5 6055   3.543   1.903  13.878  1.9308  0.5238 -0.2875
  405MPD2    N1 6056   3.877   1.717  14.158 -0.4234  0.0197  0.1017
  405MPD2    H7 6057   3.840   1.645  14.096 -0.3474  1.2591 -1.3701
  406TMC3    C1 6058   3.176   2.094  13.829  0.1608  0.7649 -0.8883
  406TMC3    C2 6059   3.140   1.966  13.777  0.3343  0.3268  0.3569
  406TMC3    C3 6060   3.243   1.895  13.730 -0.0699  0.2161  0.3330
  406TMC3    C4 6061   3.300   2.155  13.820 -0.8286  0.0863 -0.8542
  406TMC3    C5 6062   3.400   2.065  13.781  0.2047 -0.3516 -0.0483
  406TMC3    C6 6063   3.374   1.940  13.736 -0.3680  0.5614 -0.1107
  406TMC3     C 6064   3.082   2.168  13.901  0.4376  0.1721  0.1265
  406TMC3     O 6065   3.087   2.289  13.902  0.7716  0.1830  0.5718
  406TMC3     H 6066   3.043   1.920  13.784  0.4108  0.2838  1.1616
  406TMC3    H1 6067   3.318   2.248  13.872  0.8009  0.6896 -2.5319
  406TMC3    H2 6068   3.458   1.884  13.697 -0.0698  0.0859  1.1875
  406TMC3    C7 6069   3.523   2.099  13.847 -0.0318  0.0799  0.0976
  406TMC3    C8 6070   3.231   1.748  13.711  0.4070 -0.3930  0.1716
  406TMC3    O1 6071   3.547   2.216  13.855 -0.0063  0.9417 -1.6104
  406TMC3    O2 6072   3.116   1.705  13.685  0.5079  0.1065 -0.0935
  407MPD2     C 6073   1.426   3.047   9.020 -0.0493 -0.4249 -0.4553
  407MPD2    C1 6074   1.559   3.036   9.054 -0.8298  0.3621  0.3567
  407MPD2    C2 6075   1.600   3.081   9.182  0.1829 -0.7178  0.2405
  407MPD2    C3 6076   1.509   3.143   9.269  0.1548  0.4062 -0.3597
  407MPD2    C4 6077   1.379   3.145   9.235  0.6918 -0.1088 -0.5818
  407MPD2    C5 6078   1.338   3.091   9.119  0.3622 -0.5642  0.1240
  407MPD2     H 6079   1.706   3.074   9.200 -0.2273 -0.2882  2.7582
  407MPD2    H1 6080   1.301   3.198   9.289 -1.1641 -0.3134 -3.0856
  407MPD2    H2 6081   1.400   3.027   8.917 -2.6070 -3.6606  0.8272
  407MPD2    H3 6082   1.232   3.102   9.102  0.4880 -0.2032 -0.4073
  407MPD2     N 6083   1.542   3.202   9.393 -0.9858 -0.2689 -0.5778
  407MPD2    H5 6084   1.472   3.249   9.448  1.0311  1.1738  0.7582
  407MPD2    N1 6085   1.660   2.986   8.970 -1.2392  0.2751 -0.1004
  407MPD2    H7 6086   1.754   2.976   9.007 -2.1739 -1.7616  1.6564
  408TMC3    C1 6087   1.773   2.922   8.783 -0.1405 -0.0850  0.2270
  408TMC3    C2 6088   1.855   2.845   8.858 -0.1587 -0.8440 -0.9832
  408TMC3    C3 6089   1.981   2.842   8.816  0.4486 -0.8035 -1.1714
  408TMC3    C4 6090   1.815   2.984   8.668 -0.4054 -0.0948 -1.0008
  408TMC3    C5 6091   1.940   2.979   8.631  0.3099 -0.1724  0.5099
  408TMC3    C6 6092   2.030   2.905   8.705  0.2103 -0.3947 -0.5887
  408TMC3     C 6093   1.645   2.974   8.837 -0.2729 -0.2976 -0.7758
  408TMC3     O 6094   1.555   3.023   8.768 -0.0716  0.0761  0.3096
  408TMC3     H 6095   1.831   2.803   8.955 -2.4837  2.9528  0.1180
  408TMC3    H1 6096   1.742   3.051   8.624 -0.7409  1.6409  2.1881
  408TMC3    H2 6097   2.130   2.889   8.666 -0.3794 -2.0509 -1.3989
  408TMC3    C7 6098   2.008   3.104   8.602 -0.3237  0.1464  0.1147
  408TMC3    C8 6099   2.080   2.845   8.921  0.0284  0.3145 -0.3957
  408TMC3    O1 6100   2.109   3.123   8.672 -0.4990 -0.5941 -0.3449
  408TMC3    O2 6101   2.079   2.759   9.008 -0.3017 -0.2282  0.2025
  409MPD2     C 6102   0.862   3.883  16.712  0.0020 -0.5630  0.3973
  409MPD2    C1 6103   0.954   3.908  16.807 -0.2530  1.0424 -0.1871
  409MPD2    C2 6104   1.012   4.033  16.793 -0.7170 -0.3208 -0.8520
  409MPD2    C3 6105   0.984   4.126  16.693 -0.7142 -0.6168 -0.1472
  409MPD2    C4 6106   0.900   4.094  16.593  0.1721  0.1487 -0.3723
  409MPD2    C5 6107   0.842   3.966  16.602  0.5824  0.6771 -0.1647
  409MPD2     H 6108   1.083   4.046  16.874  0.1738 -3.4999 -1.1320
  409MPD2    H1 6109   0.872   4.161  16.512  1.1463  0.0434 -0.8071
  409MPD2    H2 6110   0.803   3.793  16.718 -1.2988  0.1678 -1.5192
  409MPD2    H3 6111   0.770   3.947  16.523  0.5756  2.2855 -0.5449
  409MPD2     N 6112   1.054   4.251  16.679  0.0008  0.4789  0.4296
  409MPD2    H5 6113   1.035   4.302  16.593 -1.1304 -0.4004  0.1529
  409MPD2    N1 6114   0.973   3.833  16.927 -0.5328 -0.1037 -0.0629
  409MPD2    H7 6115   1.044   3.866  16.991  0.2830 -2.1396  0.0789
  410TMC3    C1 6116   1.217   4.413  16.729  0.6993 -0.3890  0.1476
  410TMC3    C2 6117   1.302   4.461  16.828  0.2368  0.0429  0.3380
  410TMC3    C3 6118   1.396   4.555  16.784 -0.9698 -0.5170  0.4172
  410TMC3    C4 6119   1.234   4.446  16.596  0.8894  0.3006 -0.1828
  410TMC3    C5 6120   1.328   4.537  16.559 -0.2504 -0.4056  0.5026
  410TMC3    C6 6121   1.413   4.588  16.650 -0.4608  0.2327 -0.0495
  410TMC3     C 6122   1.128   4.309  16.776  0.7639 -0.2693 -0.0942
  410TMC3     O 6123   1.139   4.281  16.894  0.1094 -0.5395 -0.1769
  410TMC3     H 6124   1.269   4.461  16.931  0.5128 -0.9366  0.4260
  410TMC3    H1 6125   1.162   4.401  16.529 -0.5891 -0.9821  2.2897
  410TMC3    H2 6126   1.505   4.640  16.627 -0.7097 -0.4311 -2.5256
  410TMC3    C7 6127   1.358   4.525  16.417 -0.1824 -0.5455  0.5185
  410TMC3    C8 6128   1.505   4.551  16.875 -0.0603 -0.4836  0.3477
  410TMC3    O1 6129   1.289   4.453  16.347  0.3895 -0.0603  0.0797
  410TMC3    O2 6130   1.586   4.640  16.875  0.6377  0.3829 -0.2561
  411MPD2     C 6131   1.082   0.636  14.552  0.0599 -0.0711 -0.4662
  411MPD2    C1 6132   1.087   0.558  14.664 -0.1972 -0.2403 -0.2869
  411MPD2    C2 6133   1.092   0.419  14.642  0.2746  0.1367 -0.8121
  411MPD2    C3 6134   1.063   0.369  14.517 -0.2560 -0.1382  0.3395
  411MPD2    C4 6135   1.037   0.456  14.411 -0.2342  0.7857 -0.1720
  411MPD2    C5 6136   1.055   0.591  14.429  0.1940 -0.1498 -0.1275
  411MPD2     H 6137   1.110   0.352  14.724 -1.7329 -0.8175 -1.1559
  411MPD2    H1 6138   1.015   0.422  14.311 -2.1748 -0.0651  0.5435
  411MPD2    H2 6139   1.093   0.743  14.565 -1.7109  0.1762 -1.0530
  411MPD2    H3 6140   1.047   0.652  14.340 -0.8260 -0.2461 -0.1089
  411MPD2     N 6141   1.039   0.231  14.489 -0.0210 -0.2398  0.0414
  411MPD2    H5 6142   1.014   0.209  14.393 -0.0123 -0.3841  0.0721
  411MPD2    N1 6143   1.094   0.619  14.783  0.1615 -0.0070  0.3422
  411MPD2    H7 6144   1.114   0.718  14.773  1.3917 -0.1744  1.0576
  412TMC3    C1 6145   1.022   0.008  14.507  0.4547 -0.1309 -0.4926
  412TMC3    C2 6146   0.999   4.616  14.584  0.1337  0.9383  0.3118
  412TMC3    C3 6147   1.013   4.499  14.518 -0.4304 -0.0169 -0.1725
  412TMC3    C4 6148   1.052   4.719  14.369  0.0560  0.1736  0.3986
  412TMC3    C5 6149   1.077   4.596  14.309 -0.0855 -0.4098  0.6266
  412TMC3    C6 6150   1.058   4.488  14.390 -0.4764 -0.2809 -0.3504
  412TMC3     C 6151   1.050   0.131  14.580  0.4611  0.1089  0.1261
  412TMC3     O 6152   1.053   0.132  14.703  0.4562  0.0074 -0.4252
  412TMC3     H 6153   0.968   4.631  14.687 -2.8330 -1.3536 -0.2639
  412TMC3    H1 6154   1.078   0.086  14.310 -2.3056  0.0697 -0.7763
  412TMC3    H2 6155   1.079   4.388  14.354  0.6678 -0.4510  0.8094
  412TMC3    C7 6156   1.007   4.575  14.186  0.0918 -0.1122 -0.5952
  412TMC3    C8 6157   0.912   4.401  14.551 -0.0712 -0.2668  0.2318
  412TMC3    O1 6158   0.927   4.482  14.191  0.0657  0.1320  0.1798
  412TMC3    O2 6159   0.879   4.372  14.666  0.7617  0.1306 -0.0651
  413MPD2     C 6160   3.035   2.439  14.400  0.9385 -0.1506  0.2034
  413MPD2    C1 6161   3.141   2.451  14.485 -0.2219 -0.7918  1.1319
  413MPD2    C2 6162   3.253   2.386  14.452 -0.2012  0.1935 -0.6347
  413MPD2    C3 6163   3.272   2.296  14.343  0.4703  0.1074 -0.0978
  413MPD2    C4 6164   3.163   2.280  14.270  0.4532  0.3714 -0.4459
  413MPD2    C5 6165   3.047   2.349  14.292  0.1217  0.5661  0.5669
  413MPD2     H 6166   3.339   2.402  14.516  0.9666 -0.6795 -1.9857
  413MPD2    H1 6167   3.163   2.214  14.184  0.0277  0.4600 -0.5147
  413MPD2    H2 6168   2.941   2.489  14.420  1.1075  0.4143 -0.4228
  413MPD2    H3 6169   2.963   2.331  14.226  1.5340  0.7339 -1.2746
  413MPD2     N 6170   3.394   2.221  14.339  0.1969  0.1848  0.2980
  413MPD2    H5 6171   3.453   2.226  14.421  0.7708  0.9357 -0.1633
  413MPD2    N1 6172   3.124   2.541  14.599 -0.1058 -0.5071 -0.3555
  413MPD2    H7 6173   3.037   2.592  14.613  1.5189  1.8303  1.3083
  414TMC3    C1 6174   3.524   2.031  14.305  0.0742 -0.4592  0.5487
  414TMC3    C2 6175   3.497   1.899  14.340  0.7660  0.6434  0.4711
  414TMC3    C3 6176   3.588   1.838  14.425 -0.0053  0.8778  0.2807
  414TMC3    C4 6177   3.620   2.096  14.376 -0.0738 -0.3840 -0.6135
  414TMC3    C5 6178   3.697   2.035  14.468  0.3421  0.3160 -0.2840
  414TMC3    C6 6179   3.694   1.901  14.483  0.1109 -0.0948 -0.1915
  414TMC3     C 6180   3.420   2.113  14.254 -0.6247 -0.0468  0.1977
  414TMC3     O 6181   3.357   2.060  14.161 -0.1299 -0.1232 -0.4203
  414TMC3     H 6182   3.412   1.849  14.295  0.7990  0.1346  0.9636
  414TMC3    H1 6183   3.635   2.203  14.361  0.1501 -0.0153  2.2897
  414TMC3    H2 6184   3.774   1.845  14.528 -2.1981 -0.8733  2.9740
  414TMC3    C7 6185   3.770   2.117  14.566  0.5897  0.4237  0.5784
  414TMC3    C8 6186   3.559   1.705  14.472 -0.2000  0.2427  0.7442
  414TMC3    O1 6187   3.782   2.238  14.553 -0.0066 -0.7936  0.2304
  414TMC3    O2 6188   3.604   1.669  14.580  0.2327  0.3014 -0.1437
  415TMC3    C1 6189   3.885   0.171   9.841 -0.2000 -0.2868 -0.0423
  415TMC3    C2 6190   3.931   0.220   9.721  0.0926 -0.0430  0.8461
  415TMC3    C3 6191   3.930   0.137   9.615 -0.0846 -0.0863  0.5891
  415TMC3    C4 6192   3.809   0.059   9.855  1.0072 -0.4323  0.5890
  415TMC3    C5 6193   3.806   4.698   9.741 -0.0659 -0.3509 -0.7628
  415TMC3    C6 6194   3.869   0.011   9.622 -0.3572 -0.0156 -0.6174
  415TMC3     C 6195   3.892   0.256   9.962  0.4350 -0.0005 -0.1144
  415TMC3     O 6196   3.823   0.231  10.058  0.5175 -0.1016 -0.2184
  415TMC3     H 6197   3.951   0.326   9.707 -0.1829 -0.2622 -1.2215
  415TMC3    H1 6198   3.776   0.014   9.948 -0.7022 -0.0792  0.1607
  415TMC3    H2 6199   3.843   4.669   9.537 -0.4576  0.6695 -1.0923
  415TMC3    C7 6200   3.695   4.597   9.730  0.0249  0.0543 -0.2785
  415TMC3    C8 6201   3.977   0.182   9.486 -0.4285 -0.2252 -0.4947
  415TMC3    O1 6202   3.673   4.540   9.620 -0.2561 -0.1815 -0.1135
  415TMC3    O2 6203   3.925   0.129   9.388  0.1617  0.0576  0.5496
  416MPD2     C 6204   0.841   4.475  11.531  0.3837 -0.2057 -0.1989
  416MPD2    C1 6205   0.720   4.454  11.469  0.0017  0.0954 -0.4237
  416MPD2    C2 6206   0.721   4.440  11.333  0.2924 -0.4601 -0.5607
  416MPD2    C3 6207   0.838   4.446  11.264 -0.1896  0.7052 -0.2046
  416MPD2    C4 6208   0.955   4.478  11.325 -0.2644 -0.4507  0.2375
  416MPD2    C5 6209   0.956   4.486  11.460  0.0581 -0.1890 -0.0505
  416MPD2     H 6210   0.629   4.405  11.287 -0.2700  1.2393 -0.7075
  416MPD2    H1 6211   1.043   4.489  11.263 -0.0148  0.2752  0.7272
  416MPD2    H2 6212   0.850   4.481  11.639  2.0342  0.9937 -0.4072
  416MPD2    H3 6213   1.049   4.502  11.514 -0.9526  0.4195  1.5272
  416MPD2     N 6214   0.848   4.412  11.129  0.2332  0.1300 -0.3429
  416MPD2    H5 6215   0.939   4.399  11.087 -0.9685 -0.6862 -2.6703
  416MPD2    N1 6216   0.602   4.441  11.546 -1.2064 -0.2909 -0.0067
  416MPD2    H7 6217   0.619   4.448  11.645  1.9016 -2.4651 -0.3723
  417TMC3    C1 6218   0.369   4.452  11.593  0.1356 -0.0421 -0.0558
  417TMC3    C2 6219   0.393   4.493  11.722  0.7363  0.3217 -0.5178
  417TMC3    C3 6220   0.284   4.531  11.795  0.1703 -0.2958  0.4734
  417TMC3    C4 6221   0.243   4.466  11.537  0.2164 -0.1991  0.3073
  417TMC3    C5 6222   0.139   4.504  11.617  0.5721  0.1617 -0.0731
  417TMC3    C6 6223   0.151   4.533  11.752  0.0839  0.6658 -0.0613
  417TMC3     C 6224   0.477   4.412  11.498 -0.4373 -0.0622 -0.6067
  417TMC3     O 6225   0.441   4.361  11.393  0.7983  0.0327 -0.8076
  417TMC3     H 6226   0.492   4.501  11.766  0.6939  0.7107 -0.4936
  417TMC3    H1 6227   0.225   4.441  11.433  0.9535  0.7220 -0.0460
  417TMC3    H2 6228   0.073   4.562  11.822  1.4593  0.2054  1.6336
  417TMC3    C7 6229   0.026   4.558  11.546 -0.2690 -0.4700 -0.3731
  417TMC3    C8 6230   0.299   4.536  11.941  0.5240  0.4007  0.0859
  417TMC3    O1 6231   0.043   4.577  11.426  0.5494  0.1646  0.0627
  417TMC3    O2 6232   0.205   4.571  12.006  0.3056 -0.3660 -0.1096
  418TMC3    C1 6233   4.426   0.935   0.518 -0.3129 -0.2091  0.4245
  418TMC3    C2 6234   4.324   1.021   0.466  0.3624 -0.1732  0.1129
  418TMC3    C3 6235   4.208   1.019   0.539 -0.7016  0.5449  0.4738
  418TMC3    C4 6236   4.405   0.858   0.633 -0.3145 -0.3037  0.1816
  418TMC3    C5 6237   4.287   0.869   0.705 -0.0472 -0.2336 -1.2411
  418TMC3    C6 6238   4.185   0.950   0.653 -0.1994  0.3316  0.6587
  418TMC3     C 6239   4.509   0.859   0.427  0.6612  0.0507  0.1202
  418TMC3     O 6240   4.556   0.756   0.463  0.2951  0.4126 -0.0401
  418TMC3     H 6241   4.328   1.069   0.369 -0.4379  0.0664  0.2011
  418TMC3    H1 6242   4.475   0.781   0.664 -0.6084  0.2637  2.2020
  418TMC3    H2 6243   4.089   0.948   0.704 -0.3438  1.6655  0.4424
  418TMC3    C7 6244   4.231   0.749   0.770 -0.2576 -0.1586  0.9395
  418TMC3    C8 6245   4.085   1.073   0.472 -0.1723 -0.3025 -0.1729
  418TMC3    O1 6246   4.218   0.647   0.708  0.1990 -0.3986 -0.0818
  418TMC3    O2 6247   4.088   1.182   0.416  0.0274 -0.4197  0.1337
  419MPD2     C 6248   2.202   3.952  12.219 -0.5826  0.3926  0.7312
  419MPD2    C1 6249   2.283   4.062  12.250 -0.2285  0.2476  0.4423
  419MPD2    C2 6250   2.245   4.148  12.351  0.8964  0.0051  0.2456
  419MPD2    C3 6251   2.140   4.116  12.434  0.0031 -0.2017 -0.1312
  419MPD2    C4 6252   2.070   3.997  12.406  0.5792 -0.0832  0.5465
  419MPD2    C5 6253   2.103   3.919  12.308  0.3393 -0.1557  0.3623
  419MPD2     H 6254   2.310   4.230  12.378  0.5269 -0.2295  1.8261
  419MPD2    H1 6255   1.983   3.965  12.462  0.3706 -2.6108 -1.2142
  419MPD2    H2 6256   2.218   3.892  12.131 -3.7190 -1.5578  1.4853
  419MPD2    H3 6257   2.039   3.831  12.307 -1.3731  1.0601  2.8781
  419MPD2     N 6258   2.096   4.218  12.523 -0.0419  0.4999  0.0364
  419MPD2    H5 6259   2.159   4.297  12.521  0.2540  0.2047 -2.3186
  419MPD2    N1 6260   2.390   4.112  12.174  0.4011  0.0930  0.4476
  419MPD2    H7 6261   2.424   4.204  12.202 -0.7512 -0.2588  2.9842
  420TMC3    C1 6262   1.966   4.322  12.685  0.2770 -0.3393  0.1452
  420TMC3    C2 6263   1.848   4.391  12.667  0.3874 -0.8830  0.0193
  420TMC3    C3 6264   1.803   4.466  12.773  0.8552  0.3794  0.8663
  420TMC3    C4 6265   2.034   4.324  12.806 -0.2781 -0.2033 -0.6570
  420TMC3    C5 6266   1.981   4.393  12.909  0.0979  0.0209 -0.0542
  420TMC3    C6 6267   1.865   4.465  12.892 -0.6900  0.2064 -0.6904
  420TMC3     C 6268   1.986   4.209  12.598  0.0358  0.7887 -0.8079
  420TMC3     O 6269   1.883   4.144  12.581 -0.3840 -0.2232 -0.3836
  420TMC3     H 6270   1.807   4.377  12.568  1.8911  0.6891 -0.8222
  420TMC3    H1 6271   2.125   4.265  12.816 -0.3780 -0.1037  0.8818
  420TMC3    H2 6272   1.820   4.525  12.971  1.3838 -1.5727  1.8476
  420TMC3    C7 6273   2.044   4.379  13.038  0.2262  0.0398 -0.6548
  420TMC3    C8 6274   1.676   4.544  12.769  0.0646  0.7848  0.2417
  420TMC3    O1 6275   2.142   4.306  13.051 -0.5104  0.3699 -0.0118
  420TMC3    O2 6276   1.643   4.620  12.862 -0.1299 -0.0638 -0.2579
  421TMC3    C1 6277   3.799   1.237  13.683 -0.6292 -0.4298 -0.4908
  421TMC3    C2 6278   3.878   1.346  13.699  0.3860  0.8199  0.7007
  421TMC3    C3 6279   3.983   1.336  13.796  0.2516 -0.3240 -0.0223
  421TMC3    C4 6280   3.823   1.118  13.742 -0.0162  0.2186  0.7266
  421TMC3    C5 6281   3.926   1.112  13.837  0.2507  0.0599 -0.1092
  421TMC3    C6 6282   4.009   1.216  13.856 -0.0732  0.5336 -0.4858
  421TMC3     C 6283   3.665   1.253  13.622  0.0569 -0.1098  0.2427
  421TMC3     O 6284   3.630   1.372  13.610 -0.0310 -0.8533 -0.2997
  421TMC3     H 6285   3.848   1.438  13.651 -1.0247  0.6214  1.2069
  421TMC3    H1 6286   3.760   1.032  13.721  1.0599 -0.7660  1.5151
  421TMC3    H2 6287   4.093   1.226  13.923 -0.8165 -0.2200  0.5714
  421TMC3    C7 6288   3.999   0.988  13.861  1.2857 -0.0436 -1.0313
  421TMC3    C8 6289   4.062   1.455  13.833 -0.0043  1.3780 -0.5591
  421TMC3    O1 6290   4.112   1.003  13.908  0.5495 -0.1994 -0.0582
  421TMC3    O2 6291   4.150   1.440  13.915  0.1683  0.0973  0.5181
  422TMC3    C1 6292   1.381   2.586  12.569 -0.0485  0.5032  0.6642
  422TMC3    C2 6293   1.316   2.707  12.586  0.3425  0.1620 -0.2105
  422TMC3    C3 6294   1.221   2.705  12.687  0.3654  0.0180  0.2886
  422TMC3    C4 6295   1.334   2.457  12.624  0.1762 -0.3923  0.0110
  422TMC3    C5 6296   1.225   2.465  12.709  0.0662  0.1120 -0.3514
  422TMC3    C6 6297   1.175   2.589  12.753  0.0459 -0.6402 -0.2280
  422TMC3     C 6298   1.477   2.579  12.469  0.4790  0.2953  0.2136
  422TMC3     O 6299   1.477   2.664  12.381  0.1677 -0.1212  0.0664
  422TMC3     H 6300   1.360   2.795  12.540  1.3675 -0.3110 -0.1393
  422TMC3    H1 6301   1.367   2.359  12.592 -1.6187 -1.3106  0.9359
  422TMC3    H2 6302   1.101   2.597  12.832 -0.2325 -0.0466 -0.5432
  422TMC3    C7 6303   1.144   2.349  12.717  0.5401  0.1173  0.2866
  422TMC3    C8 6304   1.196   2.830  12.753 -0.1897 -0.0273 -0.2257
  422TMC3    O1 6305   1.185   2.253  12.655  0.0270  0.3473  0.1117
  422TMC3    O2 6306   1.201   2.841  12.875 -0.1762 -0.4340 -0.1880
  423MPD2     C 6307   3.362   3.665   0.469  0.0978  0.7863 -0.6331
  423MPD2    C1 6308   3.234   3.618   0.506 -0.2386  0.7472  1.1026
  423MPD2    C2 6309   3.165   3.553   0.405  0.1429  0.5285  0.2863
  423MPD2    C3 6310   3.226   3.536   0.284 -0.0735 -0.0265 -0.7157
  423MPD2    C4 6311   3.348   3.587   0.252 -0.2812  0.0188 -1.0246
  423MPD2    C5 6312   3.417   3.653   0.347  0.0780 -0.6230  0.3243
  423MPD2     H 6313   3.064   3.519   0.419  0.2983 -0.6646 -1.4460
  423MPD2    H1 6314   3.384   3.571   0.151 -0.1529 -0.7721 -0.8570
  423MPD2    H2 6315   3.418   3.721   0.543  0.3860 -0.2999 -0.0407
  423MPD2    H3 6316   3.507   3.710   0.324  0.0757 -1.3920 -1.5614
  423MPD2     N 6317   3.164   3.452   0.185 -0.1421  0.1290 -0.0036
  423MPD2    H5 6318   3.183   3.454   0.085  0.0022 -0.6550  0.0046
  423MPD2    N1 6319   3.169   3.629   0.631 -0.3516  0.2621 -0.2312
  423MPD2    H7 6320   3.072   3.598   0.637 -1.1602  2.4759 -2.2462
  424TMC3    C1 6321   3.159   3.626   0.864  0.2531 -0.5434 -0.2627
  424TMC3    C2 6322   3.213   3.565   0.977  0.5560  0.5973 -0.1482
  424TMC3    C3 6323   3.123   3.530   1.074  0.1413  0.3414  0.8617
  424TMC3    C4 6324   3.029   3.658   0.858  0.3689 -0.0805  0.5739
  424TMC3    C5 6325   2.952   3.625   0.966  0.3560  0.4038 -0.0107
  424TMC3    C6 6326   2.992   3.558   1.076 -0.3629  0.1453  0.0050
  424TMC3     C 6327   3.242   3.648   0.746  0.4541  0.9822  0.4494
  424TMC3     O 6328   3.362   3.646   0.760  0.0624 -0.2574  0.0175
  424TMC3     H 6329   3.320   3.549   0.988  0.2813 -2.9980 -2.6315
  424TMC3    H1 6330   2.989   3.726   0.784 -0.2184  1.8572  2.6965
  424TMC3    H2 6331   2.916   3.530   1.148 -1.0524  2.3521  0.1384
  424TMC3    C7 6332   2.811   3.637   0.954 -0.4241 -0.9606  0.2011
  424TMC3    C8 6333   3.176   3.442   1.175  0.5908 -0.0022  0.2140
  424TMC3    O1 6334   2.768   3.610   0.842  0.1094  0.1707 -0.0416
  424TMC3    O2 6335   3.293   3.417   1.175  0.8375  0.0758 -0.3601
  425MPD2     C 6336   1.859   2.961  17.309 -0.0895 -0.0854 -0.7186
  425MPD2    C1 6337   1.785   2.866  17.251  0.3443 -0.1871  0.4190
  425MPD2    C2 6338   1.651   2.888  17.223  0.6072 -0.0970  0.3751
  425MPD2    C3 6339   1.589   3.005  17.265  0.3670 -0.1912  0.2749
  425MPD2    C4 6340   1.663   3.106  17.319  0.3350  0.1011 -0.3857
  425MPD2    C5 6341   1.800   3.080  17.337  0.3498  0.1185 -0.2031
  425MPD2     H 6342   1.590   2.815  17.172 -0.6208  2.1327 -1.3941
  425MPD2    H1 6343   1.620   3.200  17.352 -1.9536 -0.9159 -0.5145
  425MPD2    H2 6344   1.966   2.954  17.322 -0.0580 -1.0931 -1.5748
  425MPD2    H3 6345   1.856   3.158  17.389  0.0618  0.3895 -0.2974
  425MPD2     N 6346   1.446   3.006  17.254  0.2657  0.3418  0.4718
  425MPD2    H5 6347   1.404   2.918  17.225  0.3337 -0.1295  1.7824
  425MPD2    N1 6348   1.853   2.748  17.205 -0.2592  0.3402 -0.2817
  425MPD2    H7 6349   1.942   2.718  17.244 -0.0506  2.1448  0.6098
  426TMC3    C1 6350   1.866   2.534  17.115  0.2894 -0.4483  0.1524
  426TMC3    C2 6351   1.844   2.471  16.999 -0.1406 -0.5126  0.1408
  426TMC3    C3 6352   1.888   2.342  16.986 -0.3438  0.1884  0.2944
  426TMC3    C4 6353   1.893   2.460  17.224  0.0861 -0.0881  0.1255
  426TMC3    C5 6354   1.937   2.327  17.209 -0.2799  0.4494 -0.0343
  426TMC3    C6 6355   1.945   2.268  17.089 -0.8792 -0.0106  0.0696
  426TMC3     C 6356   1.791   2.658  17.119 -0.6007  0.7704 -0.0100
  426TMC3     O 6357   1.695   2.670  17.039 -0.2366 -0.1281  0.0688
  426TMC3     H 6358   1.811   2.528  16.913 -0.5774 -0.3684  0.4003
  426TMC3    H1 6359   1.887   2.497  17.326 -1.7148  0.9147 -0.3412
  426TMC3    H2 6360   1.994   2.172  17.078 -0.0998  0.3114  0.7273
  426TMC3    C7 6361   2.034   2.276  17.309 -0.1234 -0.5500 -0.7008
  426TMC3    C8 6362   1.862   2.272  16.862  0.3148  0.3020 -0.2223
  426TMC3    O1 6363   2.130   2.212  17.273  0.2914  0.7329 -0.4740
  426TMC3    O2 6364   1.911   2.159  16.851 -0.2346 -1.1948  0.4361
  427MPD2     C 6365   0.245   4.242  14.709 -0.2667 -0.4068  0.0040
  427MPD2    C1 6366   0.210   4.272  14.841  0.3223 -0.8946  0.1751
  427MPD2    C2 6367   0.109   4.368  14.867 -0.1375  1.0667 -0.4582
  427MPD2    C3 6368   0.039   4.425  14.758 -0.6991  0.2764 -0.7118
  427MPD2    C4 6369   0.084   4.390  14.631  0.5974  0.3657 -1.1710
  427MPD2    C5 6370   0.183   4.301  14.606  0.4755 -0.0777 -0.5858
  427MPD2     H 6371   0.090   4.395  14.971  0.6121 -0.2561  0.0253
  427MPD2    H1 6372   0.027   4.434  14.550 -0.7519 -0.5345 -0.7204
  427MPD2    H2 6373   0.337   4.192  14.681  0.0393 -0.8045  1.7446
  427MPD2    H3 6374   0.214   4.280  14.505 -1.1349 -0.7403 -0.9216
  427MPD2     N 6375   4.667   4.524  14.765  0.0450 -0.2927 -0.5053
  427MPD2    H5 6376   4.628   4.558  14.678  0.5347  2.1465  0.2300
  427MPD2    N1 6377   0.271   4.211  14.949 -0.0647 -0.3210 -0.2106
  427MPD2    H7 6378   0.246   4.244  15.041  0.4815 -0.0931 -0.1416
  428TMC3    C1 6379   0.427   4.083  15.073 -0.4020 -0.7391 -0.4609
  428TMC3    C2 6380   0.426   3.957  15.120 -0.8541 -0.1005  0.3367
  428TMC3    C3 6381   0.454   3.935  15.251  0.0325  0.4861 -0.1951
  428TMC3    C4 6382   0.454   4.191  15.153 -0.7194  0.9360  0.0485
  428TMC3    C5 6383   0.485   4.163  15.286 -0.3462  0.4169 -0.3147
  428TMC3    C6 6384   0.485   4.030  15.335 -0.2762 -0.0611  0.4171
  428TMC3     C 6385   0.358   4.102  14.943  0.0841  1.4561 -0.1297
  428TMC3     O 6386   0.405   4.043  14.850  0.3613 -0.2080  0.0206
  428TMC3     H 6387   0.405   3.875  15.053  0.4345  0.3968 -0.6730
  428TMC3    H1 6388   0.442   4.295  15.123 -2.3896  0.1342 -2.0276
  428TMC3    H2 6389   0.503   4.019  15.441  0.0300  0.1823  0.3899
  428TMC3    C7 6390   0.521   4.271  15.380 -0.2728  0.0889  0.0184
  428TMC3    C8 6391   0.466   3.795  15.291 -0.3787  0.3091  0.1419
  428TMC3    O1 6392   0.524   4.248  15.499  0.0196  0.3346 -0.0842
  428TMC3    O2 6393   0.445   3.700  15.216 -0.4614  0.0132 -0.5104
  429MPD2     C 6394   1.172   0.228  17.453  0.3088 -0.4612  0.2184
  429MPD2    C1 6395   1.298   0.172  17.468  0.2907 -0.0472 -0.5427
  429MPD2    C2 6396   1.409   0.233  17.413 -0.0202  0.0927  0.1351
  429MPD2    C3 6397   1.401   0.356  17.354 -0.4167 -0.5846 -0.0868
  429MPD2    C4 6398   1.280   0.413  17.349  0.1481 -0.2086  0.4750
  429MPD2    C5 6399   1.169   0.353  17.395 -0.7498 -0.3550  0.6871
  429MPD2     H 6400   1.505   0.182  17.404 -0.0641 -0.0603  0.5129
  429MPD2    H1 6401   1.259   0.510  17.306  2.1650  0.5120  1.1241
  429MPD2    H2 6402   1.079   0.178  17.477  1.7996 -3.1130  0.3658
  429MPD2    H3 6403   1.073   0.395  17.366  0.8209  2.1560 -0.9123
  429MPD2     N 6404   1.519   0.409  17.301 -0.1877 -0.1120  0.0729
  429MPD2    H5 6405   1.602   0.354  17.319  0.2440  0.1233 -1.2145
  429MPD2    N1 6406   1.310   0.045  17.528  0.3511  0.1059  0.0850
  429MPD2    H7 6407   1.400   0.010  17.558  0.1500 -2.0238 -1.7928
  430TMC3    C1 6408   1.649   0.552  17.156 -0.9222  0.0909 -0.4614
  430TMC3    C2 6409   1.661   0.676  17.100  0.0556  0.2872 -0.2642
  430TMC3    C3 6410   1.738   0.676  16.992 -0.0037 -0.2401  0.1746
  430TMC3    C4 6411   1.718   0.435  17.123 -0.1980 -0.6793  0.1294
  430TMC3    C5 6412   1.813   0.451  17.026  0.1930  0.7143  0.0753
  430TMC3    C6 6413   1.820   0.574  16.951 -0.0214 -0.0803  1.2310
  430TMC3     C 6414   1.524   0.535  17.238 -1.1821 -0.2100  0.5916
  430TMC3     O 6415   1.443   0.624  17.248 -0.0416  0.2501 -0.0945
  430TMC3     H 6416   1.584   0.751  17.116  0.3915  0.1957  1.6773
  430TMC3    H1 6417   1.716   0.338  17.173  0.6564 -0.7100  0.0963
  430TMC3    H2 6418   1.893   0.586  16.872  0.8192 -1.0436  1.8670
  430TMC3    C7 6419   1.818   0.337  16.943  0.4872 -0.6913  0.3949
  430TMC3    C8 6420   1.704   0.770  16.879 -0.3431  0.2489  0.0320
  430TMC3    O1 6421   1.828   0.232  17.004  0.1764  0.0491 -0.6305
  430TMC3    O2 6422   1.756   0.738  16.773 -0.5148 -0.8264 -0.2877
  431MPD2     C 6423   3.254   4.624  11.984  0.5211  0.6185 -0.1632
  431MPD2    C1 6424   3.133   4.661  12.047  0.2126  0.4434  0.6858
  431MPD2    C2 6425   3.026   4.569  12.059  0.3786 -0.0841  0.7496
  431MPD2    C3 6426   3.032   4.457  11.978  0.0767 -0.1945 -0.7259
  431MPD2    C4 6427   3.148   4.425  11.912 -0.3347 -0.2121  0.7562
  431MPD2    C5 6428   3.257   4.500  11.925  0.1019  0.3457  0.5757
  431MPD2     H 6429   2.943   4.605  12.119 -0.9361  0.2704 -1.2789
  431MPD2    H1 6430   3.146   4.339  11.846 -0.2071  0.9644 -0.7783
  431MPD2    H2 6431   3.341   4.688  11.990  3.3742 -3.0981 -2.4451
  431MPD2    H3 6432   3.351   4.464  11.885 -1.3085 -2.8235  0.1579
  431MPD2     N 6433   2.913   4.384  11.950 -0.7905  0.1324  0.3453
  431MPD2    H5 6434   2.928   4.318  11.875 -1.3070  0.1490  0.2260
  431MPD2    N1 6435   3.126   0.066  12.110 -0.1186  0.3260  0.3013
  431MPD2    H7 6436   3.057   0.075  12.184  2.3395  1.3676  2.4666
  432TMC3    C1 6437   2.708   4.282  11.951  0.4339 -0.5692  0.5552
  432TMC3    C2 6438   2.726   4.253  11.820 -0.4840 -0.3018 -0.1184
  432TMC3    C3 6439   2.649   4.148  11.773 -0.3680  1.1506 -0.1641
  432TMC3    C4 6440   2.631   4.212  12.039 -0.5525  0.2445  1.0052
  432TMC3    C5 6441   2.546   4.117  11.983 -0.0188  0.6475 -0.0826
  432TMC3    C6 6442   2.553   4.083  11.845 -0.4014 -0.3718 -0.0838
  432TMC3     C 6443   2.791   4.389  12.007  0.8484  0.7450  0.7270
  432TMC3     O 6444   2.754   4.452  12.103 -0.5503 -0.2645  0.4050
  432TMC3     H 6445   2.778   4.317  11.750 -0.3377 -0.1997  0.0843
  432TMC3    H1 6446   2.634   4.246  12.142  1.9260  0.6398  0.7976
  432TMC3    H2 6447   2.498   4.003  11.797 -0.3080 -0.3959 -0.1510
  432TMC3    C7 6448   2.436   4.050  12.059 -0.1298 -0.4706  0.7490
  432TMC3    C8 6449   2.668   4.100  11.634  0.4075 -0.3699  0.8045
  432TMC3    O1 6450   2.385   3.957  12.000  0.2961 -0.6096 -0.0516
  432TMC3    O2 6451   2.568   4.061  11.573 -0.0244 -0.0031 -0.5217
  433MPD2     C 6452   1.255   3.672  10.662 -0.2176 -0.8782 -0.0079
  433MPD2    C1 6453   1.357   3.587  10.694 -0.4476 -0.4853  1.1654
  433MPD2    C2 6454   1.426   3.618  10.810  0.2099 -0.6201  0.2159
  433MPD2    C3 6455   1.405   3.737  10.878 -0.1122 -0.1667 -0.6090
  433MPD2    C4 6456   1.303   3.820  10.849  0.1545 -0.6349  0.2635
  433MPD2    C5 6457   1.228   3.782  10.739 -0.1445 -0.9741  0.7820
  433MPD2     H 6458   1.498   3.543  10.839  2.4303  0.1333 -3.3310
  433MPD2    H1 6459   1.270   3.915  10.891 -1.3921 -1.1442  0.2018
  433MPD2    H2 6460   1.194   3.657  10.574  1.5586  0.4976 -1.4699
  433MPD2    H3 6461   1.147   3.845  10.706 -0.4740 -0.6147  2.2823
  433MPD2     N 6462   1.493   3.764  10.990  0.0078 -1.0245  0.7947
  433MPD2    H5 6463   1.558   3.689  11.014  0.7062 -0.5629  0.3239
  433MPD2    N1 6464   1.365   3.464  10.619  0.1523  0.0286 -0.0290
  433MPD2    H7 6465   1.307   3.458  10.536  1.2739 -2.2109 -0.6479
  434TMC3    C1 6466   1.413   3.249  10.575 -0.1051 -0.1728 -0.2167
  434TMC3    C2 6467   1.454   3.142  10.639 -1.4667 -0.0082  0.4540
  434TMC3    C3 6468   1.511   3.042  10.573  0.0715  0.1735 -1.4943
  434TMC3    C4 6469   1.423   3.267  10.441  1.3362  0.3525  0.0268
  434TMC3    C5 6470   1.466   3.160  10.371  0.3436  0.4900  0.0962
  434TMC3    C6 6471   1.518   3.045  10.437 -0.1900 -0.5760  0.4304
  434TMC3     C 6472   1.446   3.361  10.653 -0.1390 -0.3075 -0.6685
  434TMC3     O 6473   1.512   3.339  10.751  0.4463 -0.1273  0.0266
  434TMC3     H 6474   1.427   3.133  10.743 -1.8215  0.1903  0.3787
  434TMC3    H1 6475   1.394   3.356  10.387  0.3772 -0.4540 -0.7910
  434TMC3    H2 6476   1.572   2.964  10.389  0.0771 -0.2753  0.2186
  434TMC3    C7 6477   1.416   3.156  10.242  0.6353  0.2149 -0.1175
  434TMC3    C8 6478   1.620   2.992  10.648  0.3664 -0.2899 -0.0867
  434TMC3    O1 6479   1.380   3.264  10.189  0.0762  0.2402  0.0309
  434TMC3    O2 6480   1.663   3.077  10.725  0.1314  0.0536  0.6958
  435MPD2     C 6481   3.550   3.612  15.407  0.3053  0.2974 -0.5442
  435MPD2    C1 6482   3.518   3.620  15.539  0.0735 -0.0995 -0.0689
  435MPD2    C2 6483   3.603   3.572  15.638  0.4990 -0.3707  0.2512
  435MPD2    C3 6484   3.724   3.517  15.606  0.6106 -0.2471  0.4374
  435MPD2    C4 6485   3.755   3.518  15.468 -0.2831  0.1601 -0.2799
  435MPD2    C5 6486   3.673   3.570  15.383 -0.4939  0.3832  0.3552
  435MPD2     H 6487   3.568   3.565  15.741  0.3886 -1.2030  0.1590
  435MPD2    H1 6488   3.848   3.480  15.427  0.5430 -0.3485  2.0563
  435MPD2    H2 6489   3.493   3.664  15.331 -1.3995  2.5245  2.2536
  435MPD2    H3 6490   3.697   3.566  15.277  0.0110  2.8136  0.3837
  435MPD2     N 6491   3.804   3.458  15.706 -0.3741  0.2217  0.1701
  435MPD2    H5 6492   3.774   3.474  15.802  1.6382  0.7765  0.6941
  435MPD2    N1 6493   3.399   3.691  15.581  1.2390 -0.3633 -0.6732
  435MPD2    H7 6494   3.383   3.707  15.680 -0.3478 -0.6046 -0.8819
  436TMC3    C1 6495   3.060   3.861  15.764 -0.3775  0.1360  0.5861
  436TMC3    C2 6496   3.175   3.809  15.711 -0.1414  0.2154 -0.9172
  436TMC3    C3 6497   3.196   3.815  15.573  0.0731 -0.2841 -0.4858
  436TMC3    C4 6498   2.953   3.902  15.694 -0.3958 -0.2097 -0.2128
  436TMC3    C5 6499   2.964   3.893  15.556  0.1633 -0.6834  0.0926
  436TMC3    C6 6500   3.084   3.842  15.494  0.0741 -0.4233  0.4165
  436TMC3     C 6501   3.054   3.841  15.909  0.0767  0.1005 -0.2852
  436TMC3     O 6502   3.155   3.819  15.969  0.0410 -0.4835 -0.6507
  436TMC3     H 6503   3.260   3.789  15.775  2.0469  1.5368 -3.4451
  436TMC3    H1 6504   2.862   3.947  15.732 -1.1467 -0.0439 -2.2079
  436TMC3    H2 6505   3.093   3.832  15.386  1.0066 -0.5735  0.5022
  436TMC3    C7 6506   2.843   3.871  15.475  0.4231 -0.3361  0.1720
  436TMC3    C8 6507   3.309   3.763  15.505  0.0777  0.6585  0.1410
  436TMC3    O1 6508   2.752   3.830  15.539  0.4948  0.3544 -0.0189
  436TMC3    O2 6509   3.300   3.768  15.381 -0.8843  0.1668 -0.1802
  437TMC3    C1 6510   1.589   0.548  12.524 -1.3073  0.0941 -1.0423
  437TMC3    C2 6511   1.507   0.650  12.548 -0.6235 -0.3395 -0.0584
  437TMC3    C3 6512   1.473   0.730  12.444 -0.2773  1.0898  0.6590
  437TMC3    C4 6513   1.655   0.532  12.405  0.2194  0.2813  0.5036
  437TMC3    C5 6514   1.608   0.608  12.301 -0.1170 -0.0489 -0.3805
  437TMC3    C6 6515   1.513   0.705  12.322 -0.2523 -0.1015  0.1516
  437TMC3     C 6516   1.642   0.480  12.642 -0.1038 -0.3548 -0.5898
  437TMC3     O 6517   1.582   0.500  12.744 -0.0683  0.6032  0.1949
  437TMC3     H 6518   1.451   0.658  12.641  0.5532  0.7598  0.5691
  437TMC3    H1 6519   1.720   0.451  12.373 -1.3516 -1.9457  2.9697
  437TMC3    H2 6520   1.477   0.772  12.244 -0.6514  0.0877  0.4977
  437TMC3    C7 6521   1.694   0.633  12.190  0.3358 -0.3663  0.4384
  437TMC3    C8 6522   1.406   0.852  12.466 -0.3557 -0.5402 -0.5275
  437TMC3    O1 6523   1.644   0.670  12.083 -0.2321  0.0415  0.0120
  437TMC3    O2 6524   1.328   0.881  12.376 -0.1269  0.6591  0.2682
  438MPD2     C 6525   4.074   1.254  16.805 -0.2733 -0.6619  0.3705
  438MPD2    C1 6526   4.166   1.153  16.808 -0.3623  0.3857 -0.0710
  438MPD2    C2 6527   4.180   1.073  16.918 -0.3103  0.2620 -0.7412
  438MPD2    C3 6528   4.100   1.097  17.025  0.0642  0.1479  0.0827
  438MPD2    C4 6529   4.002   1.200  17.023  0.0933 -0.1597  0.0755
  438MPD2    C5 6530   3.995   1.279  16.915 -0.5050 -0.3674 -0.5263
  438MPD2     H 6531   4.264   1.004  16.919 -0.1998  0.4099 -0.0296
  438MPD2    H1 6532   3.934   1.209  17.107  1.4133 -0.1845  1.1447
  438MPD2    H2 6533   4.074   1.333  16.730  0.6891 -0.2024  0.8410
  438MPD2    H3 6534   3.921   1.358  16.915 -2.0937 -1.8418 -3.2955
  438MPD2     N 6535   4.105   1.021  17.151 -0.2993  0.1189  0.3866
  438MPD2    H5 6536   4.051   1.054  17.230 -1.8825  1.3484 -1.2310
  438MPD2    N1 6537   4.259   1.141  16.707 -0.5665 -0.2075  0.4819
  438MPD2    H7 6538   4.339   1.082  16.727 -0.8370 -1.2440 -1.5220
  439TMC3    C1 6539   4.381   1.198  16.519 -0.3086  0.5529  0.6926
  439TMC3    C2 6540   4.388   1.181  16.384 -0.1028 -0.3496 -0.3704
  439TMC3    C3 6541   4.519   1.175  16.328 -0.6348 -0.3365  0.4225
  439TMC3    C4 6542   4.492   1.195  16.602  0.9166  0.9855 -0.0349
  439TMC3    C5 6543   4.615   1.188  16.542  0.8276  0.1911 -0.4374
  439TMC3    C6 6544   4.634   1.180  16.406 -0.3109  0.6196  0.4899
  439TMC3     C 6545   4.251   1.191  16.580 -0.1026 -0.8194  0.0642
  439TMC3     O 6546   4.152   1.206  16.509  0.3257 -0.3816 -0.0789
  439TMC3     H 6547   4.295   1.174  16.328  0.4318  1.1309 -1.4613
  439TMC3    H1 6548   4.490   1.220  16.707  0.1712 -0.9156  0.4160
  439TMC3    H2 6549   0.012   1.169  16.361 -1.3599  0.4739 -1.7847
  439TMC3    C7 6550   0.011   1.228  16.619 -0.3814  0.2932  0.2216
  439TMC3    C8 6551   4.537   1.155  16.189 -0.7816 -0.1930 -0.3587
  439TMC3    O1 6552   0.011   1.189  16.736 -0.4253  0.3785  0.1010
  439TMC3    O2 6553   4.613   1.060  16.164 -0.6096 -0.0008 -0.5101
  440MPD2     C 6554   3.307   2.042  14.612 -0.0752  0.1961  0.1937
  440MPD2    C1 6555   3.355   2.003  14.739  0.1714  0.8203  0.3720
  440MPD2    C2 6556   3.323   1.883  14.792 -0.1134  0.3720  0.1067
  440MPD2    C3 6557   3.235   1.801  14.729  0.0905  0.2110 -0.3293
  440MPD2    C4 6558   3.191   1.836  14.603  0.3757  0.2146  0.0087
  440MPD2    C5 6559   3.229   1.953  14.540 -0.2477 -0.7899 -0.2546
  440MPD2     H 6560   3.360   1.859  14.891 -2.5406  1.0345  1.1795
  440MPD2    H1 6561   3.122   1.766  14.556  0.6983 -0.9117  1.2038
  440MPD2    H2 6562   3.321   2.144  14.578 -1.9745 -0.2331 -1.9275
  440MPD2    H3 6563   3.177   1.978  14.449 -0.2332  3.1384  0.8393
  440MPD2     N 6564   3.176   1.687  14.787 -0.8176 -0.8066  0.1603
  440MPD2    H5 6565   3.111   1.635  14.728  0.4905 -0.3754 -1.6737
  440MPD2    N1 6566   3.429   2.092  14.817  0.7422  0.0617 -0.0007
  440MPD2    H7 6567   3.442   2.046  14.907  1.5888 -1.2556 -0.7975
  441TMC3    C1 6568   3.170   1.495  14.929  1.2296 -0.4547  0.5258
  441TMC3    C2 6569   3.170   1.414  14.817 -0.2559  0.1049 -0.6144
  441TMC3    C3 6570   3.174   1.275  14.832  0.6611 -0.2163 -0.0272
  441TMC3    C4 6571   3.187   1.441  15.052  0.5813  0.1996  1.0551
  441TMC3    C5 6572   3.199   1.300  15.064  0.8143  0.0454  0.3947
  441TMC3    C6 6573   3.195   1.216  14.955 -0.1085  0.1948 -0.4395
  441TMC3     C 6574   3.210   1.634  14.912 -0.2555 -0.2786 -0.1161
  441TMC3     O 6575   3.253   1.701  15.006 -0.2108  0.4746 -0.3820
  441TMC3     H 6576   3.124   1.447  14.725  0.0023  1.1999 -0.3497
  441TMC3    H1 6577   3.221   1.496  15.138 -1.2472  0.6658  1.4887
  441TMC3    H2 6578   3.183   1.109  14.968  0.7256 -0.0863 -1.9046
  441TMC3    C7 6579   3.237   1.261  15.201  0.4746  0.9322 -0.6519
  441TMC3    C8 6580   3.238   1.212  14.715  0.3077  1.2547  0.6694
  441TMC3    O1 6581   3.181   1.330  15.286  0.1929 -0.4432 -0.0853
  441TMC3    O2 6582   3.183   1.115  14.664 -0.0771  0.0277  0.4740
  442MPD2     C 6583   1.242   2.616  16.220  0.2391  0.6670  0.0988
  442MPD2    C1 6584   1.135   2.536  16.255  0.3224 -0.0615  0.0611
  442MPD2    C2 6585   1.142   2.398  16.231  0.2238  0.4112 -0.3397
  442MPD2    C3 6586   1.259   2.347  16.168 -0.5793  0.1377  0.2756
  442MPD2    C4 6587   1.361   2.431  16.136  0.6358  0.4523  0.2065
  442MPD2    C5 6588   1.359   2.564  16.171 -0.2467 -0.0690 -0.6355
  442MPD2     H 6589   1.054   2.343  16.262  1.6439 -0.7885  1.4788
  442MPD2    H1 6590   1.453   2.396  16.092  0.7430 -0.3105  1.0213
  442MPD2    H2 6591   1.257   2.722  16.235 -0.3474  0.6150  1.0938
  442MPD2    H3 6592   1.440   2.627  16.136 -0.1295  1.0940  1.7353
  442MPD2     N 6593   1.269   2.209  16.138  0.4878  0.2734  0.1077
  442MPD2    H5 6594   1.351   2.179  16.086  0.3600  0.8890 -0.4504
  442MPD2    N1 6595   1.011   2.598  16.289  1.0397 -0.2341  0.2800
  442MPD2    H7 6596   0.935   2.534  16.309 -0.0740  0.4240 -1.8440
  443TMC3    C1 6597   0.849   2.753  16.308  0.0450  0.1493 -0.3794
  443TMC3    C2 6598   0.795   2.865  16.253  0.2224  0.6398 -0.0999
  443TMC3    C3 6599   0.659   2.867  16.235 -0.0935 -0.1638  0.1995
  443TMC3    C4 6600   0.772   2.654  16.366 -0.0532  0.5101  0.6152
  443TMC3    C5 6601   0.639   2.664  16.362 -0.2351  0.4265  0.2257
  443TMC3    C6 6602   0.582   2.768  16.289 -0.1753 -0.0901  0.6775
  443TMC3     C 6603   0.985   2.733  16.283  0.2566  0.4150  0.4642
  443TMC3     O 6604   1.052   2.834  16.263  0.0273 -0.2598 -0.4560
  443TMC3     H 6605   0.857   2.932  16.194 -0.4753  2.4994  1.2717
  443TMC3    H1 6606   0.816   2.587  16.438  1.1634  0.3849 -0.2550
  443TMC3    H2 6607   0.476   2.792  16.292 -0.2155 -0.2135  0.2297
  443TMC3    C7 6608   0.563   2.566  16.442 -0.2261 -0.4515 -0.3811
  443TMC3    C8 6609   0.619   2.900  16.096  0.0442 -0.0433 -0.1558
  443TMC3    O1 6610   0.622   2.490  16.519  0.1278 -0.0310 -0.2231
  443TMC3    O2 6611   0.676   2.996  16.052  0.4056 -0.1220  0.1836
  444MPD2     C 6612   1.643   1.909  16.745  0.6445  0.6153 -0.2247
  444MPD2    C1 6613   1.534   1.837  16.790 -0.1337  0.5069 -0.2725
  444MPD2    C2 6614   1.531   1.703  16.774 -0.1464 -0.6982 -0.9965
  444MPD2    C3 6615   1.645   1.631  16.738  0.0004  0.5280 -0.0274
  444MPD2    C4 6616   1.761   1.708  16.718 -0.8109 -0.1038  0.3650
  444MPD2    C5 6617   1.758   1.849  16.715 -0.2846 -0.0519 -0.0763
  444MPD2     H 6618   1.443   1.645  16.796  0.4116 -1.2662 -0.2880
  444MPD2    H1 6619   1.854   1.652  16.718 -0.4198  0.5456 -1.2461
  444MPD2    H2 6620   1.656   2.014  16.767  0.2428  0.4844  0.6046
  444MPD2    H3 6621   1.837   1.922  16.698 -0.4460 -0.1901 -1.3704
  444MPD2     N 6622   1.645   1.487  16.725 -0.3852 -0.0998  0.3889
  444MPD2    H5 6623   1.555   1.444  16.743  0.2088 -1.2123  0.6663
  444MPD2    N1 6624   1.411   1.889  16.834  0.3837  0.1732  0.0793
  444MPD2    H7 6625   1.344   1.815  16.851 -1.4153  2.1980  1.7919
  445TMC3    C1 6626   1.711   1.265  16.673 -0.4506  0.3670 -0.1653
  445TMC3    C2 6627   1.632   1.227  16.573 -0.1796  0.4511  0.6870
  445TMC3    C3 6628   1.650   1.100  16.528 -0.1746 -0.3977  0.1575
  445TMC3    C4 6629   1.797   1.178  16.737  1.1240 -0.1550 -0.4495
  445TMC3    C5 6630   1.813   1.053  16.689 -1.4608 -0.4125 -0.3245
  445TMC3    C6 6631   1.736   1.003  16.584  0.0780  0.2525 -0.3409
  445TMC3     C 6632   1.749   1.404  16.681 -0.1136 -0.0172  0.0488
  445TMC3     O 6633   1.865   1.431  16.656 -0.4607 -0.0301  0.2488
  445TMC3     H 6634   1.557   1.295  16.534  0.1756  0.6178  0.2930
  445TMC3    H1 6635   1.870   1.224  16.803  2.2135  1.6548 -2.9294
  445TMC3    H2 6636   1.744   0.901  16.548  0.0180 -0.1417  0.7623
  445TMC3    C7 6637   1.953   1.018  16.691  0.8930 -0.1608 -0.3357
  445TMC3    C8 6638   1.598   1.083  16.391  0.3047  0.7485  0.0559
  445TMC3    O1 6639   2.035   1.096  16.736  0.9255 -0.5735  0.3654
  445TMC3    O2 6640   1.524   1.177  16.353 -0.0061 -0.2911 -0.3145
  446MPD2     C 6641   1.522   2.938  11.285 -0.1956  0.2640 -0.4683
  446MPD2    C1 6642   1.484   2.936  11.150 -0.7981 -0.4596  0.3586
  446MPD2    C2 6643   1.558   3.008  11.054  0.0414  0.0939  0.1137
  446MPD2    C3 6644   1.678   3.066  11.088 -0.3026  0.0595  0.0209
  446MPD2    C4 6645   1.722   3.057  11.214 -0.3088  0.6488  0.1300
  446MPD2    C5 6646   1.652   2.985  11.308 -0.0387  0.0869  0.3850
  446MPD2     H 6647   1.512   3.023  10.957  0.6166 -2.2410 -0.5267
  446MPD2    H1 6648   1.799   3.120  11.255  1.1191  0.3271 -2.0429
  446MPD2    H2 6649   1.458   2.903  11.365  2.0823  0.4195  1.4043
  446MPD2    H3 6650   1.683   2.987  11.412 -1.7732  1.5745  0.8762
  446MPD2     N 6651   1.752   3.139  10.989  0.1654  0.3210 -0.2559
  446MPD2    H5 6652   1.715   3.156  10.896  2.4925  1.9658 -0.8661
  446MPD2    N1 6653   1.373   2.869  11.104  0.2932  0.0244  0.1376
  446MPD2    H7 6654   1.339   2.890  11.011 -1.7726 -1.8067  0.4898
  447TMC3    C1 6655   1.936   3.259  10.879 -0.9729 -0.5595 -0.4397
  447TMC3    C2 6656   1.857   3.285  10.777 -0.3609  0.1235  1.0651
  447TMC3    C3 6657   1.911   3.367  10.678 -0.5581 -0.2855 -0.2020
  447TMC3    C4 6658   2.066   3.289  10.886  0.3995 -0.2379 -0.3164
  447TMC3    C5 6659   2.121   3.357  10.777  0.4302 -0.4673 -0.5329
  447TMC3    C6 6660   2.044   3.385  10.670  0.8025  0.8418  0.1280
  447TMC3     C 6661   1.878   3.195  11.001 -0.0707 -0.2816 -0.0554
  447TMC3     O 6662   1.944   3.210  11.105  0.1105  0.3390 -0.6369
  447TMC3     H 6663   1.750   3.267  10.779 -0.9584  3.5720 -0.3281
  447TMC3    H1 6664   2.127   3.263  10.972 -1.6988 -0.5676  1.0744
  447TMC3    H2 6665   2.093   3.412  10.577  0.7424 -1.0671 -0.4642
  447TMC3    C7 6666   2.266   3.333  10.760 -0.3982 -0.1092  0.5216
  447TMC3    C8 6667   1.857   3.342  10.544 -0.4790  0.0274  0.2758
  447TMC3    O1 6668   2.316   3.253  10.839  0.1161 -0.6366 -0.3951
  447TMC3    O2 6669   1.824   3.435  10.475  0.6775 -0.2501  0.3578
  448TMC3    C1 6670   4.471   3.045  16.488  0.1910 -0.5098 -0.8241
  448TMC3    C2 6671   4.414   2.938  16.427 -0.3293 -0.0729 -0.1140
  448TMC3    C3 6672   4.482   2.817  16.439 -0.4139 -0.0183 -0.4869
  448TMC3    C4 6673   4.589   3.033  16.551  0.3244  0.5800 -0.1515
  448TMC3    C5 6674   4.643   2.911  16.575  0.2108  0.7784  0.0552
  448TMC3    C6 6675   4.589   2.800  16.521  0.3131  0.4033  0.5660
  448TMC3     C 6676   4.375   3.138  16.556 -0.4623  0.6075  0.2325
  448TMC3     O 6677   4.255   3.105  16.548  0.0930  0.3164  0.2490
  448TMC3     H 6678   4.317   2.947  16.381 -0.0807 -0.7829 -0.7846
  448TMC3    H1 6679   4.637   3.115  16.604 -0.0640  1.2576 -0.8436
  448TMC3    H2 6680   4.640   2.704  16.522 -0.6795 -0.1325  1.5008
  448TMC3    C7 6681   4.704   2.901  16.698  0.0948  0.3723 -0.3329
  448TMC3    C8 6682   4.405   2.695  16.406  0.5985  1.1203 -0.3225
  448TMC3    O1 6683   0.045   3.002  16.733 -0.2046 -0.1089  0.3572
  448TMC3    O2 6684   4.424   2.606  16.489  0.0552  0.5516 -0.1867
  449MPD2     C 6685   1.036   1.121  14.115  0.0679  0.2855 -0.4257
  449MPD2    C1 6686   0.924   1.170  14.056 -0.3719  0.2367 -0.8856
  449MPD2    C2 6687   0.805   1.103  14.068 -0.1525  0.5673  0.0829
  449MPD2    C3 6688   0.793   0.982  14.129 -0.4987  0.1141  0.6220
  449MPD2    C4 6689   0.905   0.932  14.183  0.3215 -0.4672 -0.3813
  449MPD2    C5 6690   1.018   1.005  14.186 -0.2588 -0.0188 -0.8233
  449MPD2     H 6691   0.714   1.143  14.026  0.7706 -1.1985 -3.5476
  449MPD2    H1 6692   0.914   0.839  14.239  0.1400 -0.1208  0.2230
  449MPD2    H2 6693   1.132   1.169  14.127  0.3373 -0.5699  0.8102
  449MPD2    H3 6694   1.097   0.958  14.243 -1.5567 -2.6138 -1.1689
  449MPD2     N 6695   0.669   0.920  14.119  0.0242  0.4684  0.1427
  449MPD2    H5 6696   0.600   0.960  14.056  1.1258 -0.5230 -1.7057
  449MPD2    N1 6697   0.917   1.298  13.991  0.2722  0.6428  0.2286
  449MPD2    H7 6698   0.825   1.331  13.962  0.2821  1.0516  0.6546
  450TMC3    C1 6699   0.985   1.478  13.852  0.4130  0.1833 -0.1233
  450TMC3    C2 6700   1.044   1.467  13.725 -0.0234  0.4931 -1.1040
  450TMC3    C3 6701   0.966   1.472  13.614 -0.7366 -0.3476 -0.3197
  450TMC3    C4 6702   0.854   1.507  13.862  0.3194 -0.5269 -0.2676
  450TMC3    C5 6703   0.773   1.509  13.747 -0.4691 -0.5388 -0.1409
  450TMC3    C6 6704   0.828   1.502  13.619 -0.1341  0.1637 -0.0756
  450TMC3     C 6705   1.030   1.376  13.949  0.1664  0.0595  1.2039
  450TMC3     O 6706   1.149   1.348  13.952  0.4367  0.6812  0.0674
  450TMC3     H 6707   1.150   1.445  13.717  0.0748  1.2747 -1.8543
  450TMC3    H1 6708   0.810   1.509  13.961  0.1672  0.4131 -0.3603
  450TMC3    H2 6709   0.766   1.519  13.531 -1.3189 -0.4612  0.6375
  450TMC3    C7 6710   0.652   1.437  13.773 -0.9399 -0.3119  0.1017
  450TMC3    C8 6711   1.028   1.477  13.484 -0.1748  0.6618  0.8171
  450TMC3    O1 6712   0.641   1.387  13.881 -0.7678 -0.4008 -0.1817
  450TMC3    O2 6713   0.969   1.552  13.405 -0.0382  0.3185 -0.5759
  451MPD2     C 6714   2.703   0.894   0.856 -0.6501 -0.5617  0.9830
  451MPD2    C1 6715   2.809   0.853   0.932 -0.4956  0.1673 -0.3131
  451MPD2    C2 6716   2.825   0.726   0.965  0.1235  0.0700  0.3353
  451MPD2    C3 6717   2.748   0.622   0.904  0.1871 -0.6431 -0.4255
  451MPD2    C4 6718   2.645   0.664   0.825  0.2224 -0.0736 -0.5448
  451MPD2    C5 6719   2.629   0.794   0.792 -1.0647 -0.1234 -0.3207
  451MPD2     H 6720   2.900   0.696   1.036  0.0531 -0.3670  0.2232
  451MPD2    H1 6721   2.575   0.602   0.771 -2.8942  1.1175  2.1414
  451MPD2    H2 6722   2.684   0.997   0.830  2.3529 -0.3401 -0.3766
  451MPD2    H3 6723   2.543   0.830   0.736 -2.5288 -0.9980  1.3621
  451MPD2     N 6724   2.772   0.485   0.931 -0.7636 -0.0848  0.4438
  451MPD2    H5 6725   2.694   0.427   0.900 -0.2186 -2.1923  3.0508
  451MPD2    N1 6726   2.890   0.960   0.981 -0.2160 -0.3507 -0.1203
  451MPD2    H7 6727   2.855   1.055   0.972  1.2579  0.0469 -1.6270
  452TMC3    C1 6728   2.868   0.282   0.982 -0.2276  0.3299  0.3029
  452TMC3    C2 6729   2.963   0.203   1.039 -0.0120 -0.5637  0.5476
  452TMC3    C3 6730   2.961   0.069   1.018  0.3630 -0.4155  0.6353
  452TMC3    C4 6731   2.776   0.228   0.894  0.1291 -0.0019 -0.0020
  452TMC3    C5 6732   2.784   0.098   0.869  0.1193 -0.1508 -0.2300
  452TMC3    C6 6733   2.872   0.011   0.928  0.9166 -0.2489 -0.2201
  452TMC3     C 6734   2.880   0.425   0.985 -0.1336  1.0096  0.2834
  452TMC3     O 6735   2.985   0.473   1.028  0.3266 -0.3788 -0.0032
  452TMC3     H 6736   3.033   0.260   1.100 -0.1100 -0.3230  0.4352
  452TMC3    H1 6737   2.700   0.288   0.846  0.4526  0.3479 -0.0776
  452TMC3    H2 6738   2.869   4.624   0.917  0.8454 -0.4276  1.5544
  452TMC3    C7 6739   2.694   0.049   0.771 -0.1048 -0.0632 -0.2313
  452TMC3    C8 6740   3.061   4.704   1.080  0.1842 -0.1031  0.4258
  452TMC3    O1 6741   2.595   0.116   0.734 -0.1455  0.1486 -0.4557
  452TMC3    O2 6742   3.027   4.587   1.095 -0.1116 -0.1789 -0.1480
  453TMC3    C1 6743   3.347   1.811  11.874  0.4655 -0.1355  0.4190
  453TMC3    C2 6744   3.250   1.736  11.921  0.7622 -0.2631 -0.7100
  453TMC3    C3 6745   3.153   1.690  11.840  0.3650 -0.1618 -0.2929
  453TMC3    C4 6746   3.362   1.821  11.745 -0.2938 -0.1700 -0.0676
  453TMC3    C5 6747   3.267   1.767  11.657  0.2796 -0.7249 -0.1054
  453TMC3    C6 6748   3.158   1.704  11.705  0.3273 -0.4713  0.3397
  453TMC3     C 6749   3.451   1.868  11.957 -0.4588 -0.2717  0.6003
  453TMC3     O 6750   3.563   1.868  11.918  0.3579  0.1060  0.4786
  453TMC3     H 6751   3.251   1.713  12.027  1.0118  0.0373 -0.6448
  453TMC3    H1 6752   3.451   1.866  11.700  0.3247 -3.5394 -2.1986
  453TMC3    H2 6753   3.085   1.651  11.644 -1.6372  2.2482  0.3289
  453TMC3    C7 6754   3.299   1.770  11.511 -0.2928  0.2097 -0.1630
  453TMC3    C8 6755   3.080   1.580  11.887 -0.2714  0.2523 -0.3023
  453TMC3    O1 6756   3.398   1.829  11.476  0.5200  0.1111  0.4086
  453TMC3    O2 6757   2.971   1.565  11.836 -0.2811 -0.1839 -0.3429
  454MPD2     C 6758   2.235   1.322  16.429 -0.2553 -0.3404  0.4682
  454MPD2    C1 6759   2.226   1.433  16.352  1.0259 -0.3447 -0.4697
  454MPD2    C2 6760   2.194   1.557  16.407 -0.0644  0.2964 -0.5757
  454MPD2    C3 6761   2.167   1.562  16.544 -0.3385  0.0125  0.6159
  454MPD2    C4 6762   2.181   1.445  16.620  0.1486  0.2248 -0.5201
  454MPD2    C5 6763   2.218   1.330  16.563 -0.8085 -1.2297 -0.1991
  454MPD2     H 6764   2.197   1.643  16.341 -2.8226  0.4810 -0.4489
  454MPD2    H1 6765   2.164   1.441  16.727  0.2633  0.7734 -0.4816
  454MPD2    H2 6766   2.257   1.223  16.391  0.8733  0.7207 -1.6318
  454MPD2    H3 6767   2.220   1.243  16.628  2.0668 -2.7304 -2.2772
  454MPD2     N 6768   2.113   1.677  16.610 -0.1284  0.1329  0.6967
  454MPD2    H5 6769   2.133   1.689  16.709  0.0953  1.9082  0.4451
  454MPD2    N1 6770   2.252   1.434  16.210 -0.6997  0.3019 -0.9882
  454MPD2    H7 6771   2.239   1.518  16.154  0.0281  0.2473 -1.2428
  455TMC3    C1 6772   1.985   1.760  16.414  0.0997 -0.2739  0.5089
  455TMC3    C2 6773   1.952   1.871  16.348  0.0489 -0.1647 -0.5684
  455TMC3    C3 6774   1.843   1.877  16.262  0.4918  0.0703  0.8100
  455TMC3    C4 6775   1.910   1.645  16.407  0.6530  0.2737  1.1100
  455TMC3    C5 6776   1.809   1.638  16.308 -0.1269  1.0032  0.4583
  455TMC3    C6 6777   1.775   1.754  16.242  0.3860 -0.4319  0.6710
  455TMC3     C 6778   2.059   1.789  16.537 -0.2319 -0.2966 -0.9850
  455TMC3     O 6779   2.064   1.904  16.570 -0.5274  0.1042 -0.8768
  455TMC3     H 6780   2.017   1.957  16.356 -0.1025  0.1578 -2.6200
  455TMC3    H1 6781   1.933   1.559  16.468  1.9190  0.1528  0.4733
  455TMC3    H2 6782   1.704   1.752  16.161  1.6020 -0.7990 -0.3845
  455TMC3    C7 6783   1.792   1.503  16.242 -0.1659 -0.0281  0.0537
  455TMC3    C8 6784   1.761   2.004  16.277 -0.3513  0.7001  0.6724
  455TMC3    O1 6785   1.732   1.497  16.134  0.0709 -0.0840  0.5070
  455TMC3    O2 6786   1.667   2.034  16.204  0.3075  0.5810 -0.4995
  456MPD2     C 6787   4.707   1.592  15.883  0.3249  0.1788  0.3793
  456MPD2    C1 6788   0.015   1.552  16.011  0.1863  0.8152  0.4509
  456MPD2    C2 6789   4.665   1.610  16.112  0.5546 -0.5511 -0.0976
  456MPD2    C3 6790   4.577   1.716  16.087  0.6974 -0.0580  0.1797
  456MPD2    C4 6791   4.559   1.757  15.956 -0.2955 -0.5436 -0.5859
  456MPD2    C5 6792   4.628   1.697  15.859  0.5420 -0.0060  0.6553
  456MPD2     H 6793   4.696   1.587  16.213 -0.8481 -0.4636  0.3497
  456MPD2    H1 6794   4.499   1.845  15.932  0.8696  0.5320  0.4998
  456MPD2    H2 6795   0.021   1.535  15.797  0.0676  0.8656 -0.1822
  456MPD2    H3 6796   4.621   1.730  15.757 -0.3521  0.4645  0.8724
  456MPD2     N 6797   4.518   1.779  16.202  0.0097 -0.5736 -0.0600
  456MPD2    H5 6798   4.558   1.757  16.292  1.7696 -0.5143 -0.8355
  456MPD2    N1 6799   0.108   1.453  16.030  0.5942  0.8248  0.2988
  456MPD2    H7 6800   0.154   1.424  15.945  1.6703  0.9427  0.8473
  457TMC3    C1 6801   4.384   1.921  16.335  0.9557 -0.2874 -0.7469
  457TMC3    C2 6802   4.284   2.023  16.339 -0.3769  0.0834 -0.2542
  457TMC3    C3 6803   4.264   2.092  16.455 -0.1656 -0.1019  0.1279
  457TMC3    C4 6804   4.475   1.907  16.435  0.0064 -0.3397  0.2040
  457TMC3    C5 6805   4.456   1.982  16.546 -0.5997  0.0287 -0.1452
  457TMC3    C6 6806   4.350   2.070  16.560 -0.5762  0.1795 -0.2848
  457TMC3     C 6807   4.419   1.875  16.199  1.4202 -1.0324  0.1561
  457TMC3     O 6808   4.370   1.933  16.099  0.7852  0.4744 -0.5470
  457TMC3     H 6809   4.229   2.047  16.248 -0.0414  1.4311 -0.0999
  457TMC3    H1 6810   4.566   1.850  16.420  0.5229  0.1428  1.4780
  457TMC3    H2 6811   4.344   2.135  16.647  1.7550 -0.3987  0.2998
  457TMC3    C7 6812   4.549   1.970  16.652  0.3176 -0.1753  0.8090
  457TMC3    C8 6813   4.196   2.223  16.460 -0.4225 -0.0176  0.4780
  457TMC3    O1 6814   4.602   1.864  16.680  0.1742 -0.3318 -0.0771
  457TMC3    O2 6815   4.214   2.301  16.554  0.0296  0.7491 -0.0337
  458MPD2     C 6816   2.107   0.814  11.960  0.2583  0.6583  0.7427
  458MPD2    C1 6817   2.144   0.705  12.047  0.1992  0.1510  0.4789
  458MPD2    C2 6818   2.047   0.651  12.133 -0.2563 -0.3869  0.1110
  458MPD2    C3 6819   1.918   0.687  12.117 -0.5489  0.5127 -0.0064
  458MPD2    C4 6820   1.880   0.774  12.020  0.3768  0.0169 -0.4980
  458MPD2    C5 6821   1.972   0.844  11.949 -0.5341  0.7269  0.5634
  458MPD2     H 6822   2.064   0.565  12.196 -0.7383 -1.3565 -1.0974
  458MPD2    H1 6823   1.781   0.817  12.017  0.6024  0.6392  0.9847
  458MPD2    H2 6824   2.183   0.866  11.904  1.2276 -1.4289  0.1025
  458MPD2    H3 6825   1.936   0.927  11.889 -1.2337 -1.4830 -2.0997
  458MPD2     N 6826   1.829   0.626  12.209  0.7572  0.0005 -0.6381
  458MPD2    H5 6827   1.874   0.587  12.291  1.2460  0.3212 -0.7572
  458MPD2    N1 6828   2.280   0.678  12.061  0.2917 -0.0759 -0.2635
  458MPD2    H7 6829   2.339   0.738  12.004 -1.6201  2.4783  0.4859
  459TMC3    C1 6830   2.472   0.563  12.126  0.3311 -0.3903  0.2378
  459TMC3    C2 6831   2.543   0.676  12.163  0.6438  0.0203  0.1889
  459TMC3    C3 6832   2.669   0.667  12.210 -0.2142  0.2332  0.2941
  459TMC3    C4 6833   2.523   0.438  12.134 -0.0597 -0.3600  0.0588
  459TMC3    C5 6834   2.647   0.437  12.189 -0.7135  0.3097 -0.0640
  459TMC3    C6 6835   2.725   0.546  12.227  0.3130  0.6139  0.5699
  459TMC3     C 6836   2.329   0.569  12.122  0.2879 -0.8076 -0.1904
  459TMC3     O 6837   2.269   0.465  12.150 -0.0553  0.3217 -0.0240
  459TMC3     H 6838   2.492   0.771  12.159  2.1862  0.8594  0.5312
  459TMC3    H1 6839   2.482   0.345  12.097  0.0234 -0.7420  0.9314
  459TMC3    H2 6840   2.827   0.541  12.263  0.2966  0.5994  0.6140
  459TMC3    C7 6841   2.693   0.299  12.206  0.2756  0.1382  0.0592
  459TMC3    C8 6842   2.744   0.790  12.253 -0.7222  0.0716  0.4406
  459TMC3    O1 6843   2.651   0.220  12.122 -0.0162 -0.0190 -0.3636
  459TMC3    O2 6844   2.862   0.761  12.268  0.6729  0.2501 -0.4801
  460MPD2     C 6845   1.858   3.006  10.385 -0.2395  0.0611 -0.7574
  460MPD2    C1 6846   1.840   3.142  10.387  0.9854  0.5563 -0.8135
  460MPD2    C2 6847   1.806   3.201  10.264 -0.3132 -0.5115 -0.0398
  460MPD2    C3 6848   1.761   3.120  10.152 -0.2876  0.4579 -0.1710
  460MPD2    C4 6849   1.763   2.986  10.166  0.0458  0.1213  0.6282
  460MPD2    C5 6850   1.813   2.929  10.282 -0.3666  0.2012  0.4268
  460MPD2     H 6851   1.812   3.309  10.261  0.0741 -0.5075  0.8479
  460MPD2    H1 6852   1.724   2.909  10.101 -1.6148  0.6983  0.9347
  460MPD2    H2 6853   1.887   2.956  10.476 -0.9396 -1.2618 -1.2580
  460MPD2    H3 6854   1.814   2.821  10.288 -0.9268  0.1610 -0.1872
  460MPD2     N 6855   1.721   3.191  10.035  0.8605 -0.0387 -0.7453
  460MPD2    H5 6856   1.735   3.292  10.039  3.2072 -0.4022  0.1401
  460MPD2    N1 6857   1.869   3.208  10.509  0.2523 -0.3247 -0.0462
  460MPD2    H7 6858   1.905   3.140  10.575 -0.3773  1.0605  1.7294
  461TMC3    C1 6859   1.704   3.237   9.801  0.0874  0.2302  0.5116
  461TMC3    C2 6860   1.707   3.182   9.680  0.1496  0.1831  0.2230
  461TMC3    C3 6861   1.681   3.265   9.571 -0.1462  0.3907  0.4567
  461TMC3    C4 6862   1.657   3.370   9.828  0.5524 -0.2723  0.4764
  461TMC3    C5 6863   1.641   3.449   9.716 -0.3789 -0.3836 -0.6844
  461TMC3    C6 6864   1.652   3.397   9.594 -0.3822 -0.7869  0.6894
  461TMC3     C 6865   1.707   3.139   9.911 -0.4326  0.7377  0.3959
  461TMC3     O 6866   1.706   3.021   9.874 -0.0819  0.4993 -0.7054
  461TMC3     H 6867   1.749   3.083   9.663 -0.6392 -0.2230  0.6483
  461TMC3    H1 6868   1.627   3.402   9.927  0.8703  1.4046  0.0269
  461TMC3    H2 6869   1.643   3.459   9.506 -0.3624  2.2279  2.8206
  461TMC3    C7 6870   1.616   3.594   9.731 -0.4892 -0.3804  0.5684
  461TMC3    C8 6871   1.670   3.199   9.441 -0.4364 -0.6465  0.4780
  461TMC3    O1 6872   1.625   3.661   9.629  0.3614 -0.5464  0.5294
  461TMC3    O2 6873   1.765   3.134   9.409  0.5489  0.1479  0.2175
  462TMC3    C1 6874   1.879   3.388   0.610  0.6460 -0.3312  0.5873
  462TMC3    C2 6875   2.007   3.430   0.580 -0.0813 -0.0108  0.4929
  462TMC3    C3 6876   2.025   3.503   0.466 -0.7894  0.2040  0.3852
  462TMC3    C4 6877   1.774   3.415   0.528  0.9992 -0.7601 -0.4165
  462TMC3    C5 6878   1.791   3.507   0.433  0.1502 -0.5890  0.7304
  462TMC3    C6 6879   1.917   3.552   0.398 -0.8244 -0.0060  0.3059
  462TMC3     C 6880   1.844   3.361   0.749 -0.2120  0.8782 -0.1589
  462TMC3     O 6881   1.726   3.386   0.780  0.3160 -0.2358 -0.0432
  462TMC3     H 6882   2.095   3.403   0.636  1.3953  0.5883 -1.5375
  462TMC3    H1 6883   1.672   3.382   0.548  1.1325  0.7769  2.7594
  462TMC3    H2 6884   1.922   3.636   0.329 -0.4732  0.3141  0.7188
  462TMC3    C7 6885   1.674   3.590   0.398 -0.5097 -0.0653  0.1019
  462TMC3    C8 6886   2.162   3.547   0.431  0.7084 -0.1685  0.4985
  462TMC3    O1 6887   1.567   3.531   0.401  0.1929  0.1991 -0.0068
  462TMC3    O2 6888   2.249   3.539   0.517  0.0360 -0.1157 -0.2652
  463MPD2     C 6889   2.835   3.490   2.192 -0.3504 -0.2291  0.9372
  463MPD2    C1 6890   2.775   3.531   2.074 -0.1591  0.1632  0.4369
  463MPD2    C2 6891   2.862   3.551   1.958 -0.7300 -0.6454  0.3872
  463MPD2    C3 6892   2.997   3.519   1.967  0.5230 -0.2365 -0.1657
  463MPD2    C4 6893   3.051   3.478   2.088  0.3438 -0.0584 -0.3151
  463MPD2    C5 6894   2.966   3.457   2.195  0.5520 -0.0593  0.1463
  463MPD2     H 6895   2.827   3.602   1.869  1.3676  0.5476  0.2586
  463MPD2    H1 6896   3.159   3.467   2.097  0.4081  1.2971  0.6116
  463MPD2    H2 6897   2.786   3.484   2.289 -1.2953  0.3831  0.5059
  463MPD2    H3 6898   3.010   3.429   2.291  1.8687 -0.5269 -0.5957
  463MPD2     N 6899   3.082   3.535   1.854 -0.7353  0.1996 -0.7940
  463MPD2    H5 6900   3.181   3.517   1.870 -0.7988  0.9022  0.3483
  463MPD2    N1 6901   2.643   3.557   2.063 -0.0524  0.2037 -0.4786
  463MPD2    H7 6902   2.611   3.572   1.968 -0.0388  1.5991 -0.2615
  464TMC3    C1 6903   2.416   3.559   2.097 -0.7320  0.0554 -0.6828
  464TMC3    C2 6904   2.400   3.624   1.976  0.6993 -0.7530  0.4944
  464TMC3    C3 6905   2.278   3.615   1.918 -0.0577 -0.6699  0.7036
  464TMC3    C4 6906   2.323   3.479   2.163 -0.2569  0.2230 -0.2246
  464TMC3    C5 6907   2.207   3.457   2.085  0.1699  0.1243 -0.1587
  464TMC3    C6 6908   2.178   3.528   1.972  0.0230  1.0415  0.3903
  464TMC3     C 6909   2.546   3.527   2.150 -0.7081 -0.0859  0.2870
  464TMC3     O 6910   2.561   3.498   2.268  0.5759 -0.3620 -0.6510
  464TMC3     H 6911   2.476   3.689   1.937 -0.5909  0.2274 -0.3812
  464TMC3    H1 6912   2.346   3.433   2.258  2.6669 -0.8355 -1.4275
  464TMC3    H2 6913   2.083   3.514   1.922  1.1209 -0.7355 -1.2176
  464TMC3    C7 6914   2.125   3.336   2.118  0.7615  0.2778 -0.2502
  464TMC3    C8 6915   2.260   3.670   1.788  0.5083  0.6175 -0.3502
  464TMC3    O1 6916   2.129   3.287   2.229 -0.3344  0.4022  0.0644
  464TMC3    O2 6917   2.354   3.698   1.716  0.1455  0.0746  0.2565
  465MPD2     C 6918   4.338   1.615  17.078  0.2098  1.2271 -0.0198
  465MPD2    C1 6919   4.206   1.560  17.082 -0.2712 -0.4818 -0.3323
  465MPD2    C2 6920   4.132   1.569  16.964  0.4889  0.9931  0.5660
  465MPD2    C3 6921   4.186   1.617  16.847 -1.0460 -0.2847  0.3377
  465MPD2    C4 6922   4.314   1.652  16.841  0.7647 -0.1016 -0.5029
  465MPD2    C5 6923   4.389   1.652  16.951  0.5286 -0.2729 -0.3651
  465MPD2     H 6924   4.029   1.536  16.960  0.3684  1.1815  2.4336
  465MPD2    H1 6925   4.361   1.682  16.748 -0.5581  1.2499 -0.7379
  465MPD2    H2 6926   4.403   1.615  17.164  0.8217  2.5213 -0.4734
  465MPD2    H3 6927   4.492   1.685  16.956  0.0498  0.8717  1.6706
  465MPD2     N 6928   4.091   1.619  16.741 -0.1666 -0.1969 -0.3662
  465MPD2    H5 6929   3.993   1.596  16.760 -0.1824  0.6566  0.5652
  465MPD2    N1 6930   4.141   1.494  17.194  0.3527 -0.2957  0.3517
  465MPD2    H7 6931   4.045   1.464  17.179  0.5406 -0.3999 -0.6248
  466TMC3    C1 6932   3.760   1.585  16.591 -0.8702 -0.5456  0.1521
  466TMC3    C2 6933   3.717   1.696  16.525 -0.1459 -0.4041 -0.2771
  466TMC3    C3 6934   3.808   1.775  16.464  0.0979 -0.1222  0.0071
  466TMC3    C4 6935   3.893   1.560  16.595  0.3319  0.6386  0.0003
  466TMC3    C5 6936   3.984   1.644  16.535 -0.2331 -0.4113  0.0644
  466TMC3    C6 6937   3.944   1.754  16.475  0.1197  0.6586 -1.0993
  466TMC3     C 6938   3.683   1.547  16.704  1.1210  0.1178  0.2869
  466TMC3     O 6939   3.743   1.534  16.811  0.3096 -0.3805 -0.0591
  466TMC3     H 6940   3.615   1.722  16.499 -0.3431  0.3470  1.2534
  466TMC3    H1 6941   3.920   1.468  16.645  0.2831 -0.7803 -2.6035
  466TMC3    H2 6942   4.024   1.821  16.442 -0.1600  1.9079  0.7870
  466TMC3    C7 6943   4.114   1.654  16.608  1.0102 -0.4626 -0.2831
  466TMC3    C8 6944   3.770   1.893  16.396  0.2279  0.4515 -0.1001
  466TMC3    O1 6945   4.218   1.677  16.547 -0.2251 -0.5764  0.0393
  466TMC3    O2 6946   3.828   1.907  16.289  0.5946 -0.2484  0.1268
  467TMC3    C1 6947   0.115   0.015  13.710 -0.0126  0.3062  0.2322
  467TMC3    C2 6948   0.057   0.057  13.601  0.2862 -0.8464  0.1069
  467TMC3    C3 6949   4.640   0.026  13.591 -0.2571 -0.2874 -0.6332
  467TMC3    C4 6950   0.055   4.655  13.809  0.1411 -0.2153 -0.1221
  467TMC3    C5 6951   4.640   4.621  13.795  0.2964  0.5444 -0.2162
  467TMC3    C6 6952   4.575   4.668  13.684  1.5196 -0.2758 -0.7696
  467TMC3     C 6953   0.259   0.061  13.728 -0.4733  0.2180 -0.5004
  467TMC3     O 6954   0.293   0.153  13.660 -0.0499 -0.1542 -0.1858
  467TMC3     H 6955   0.116   0.120  13.535  0.5828 -1.1221  0.1055
  467TMC3    H1 6956   0.102   4.635  13.904  0.0356 -1.4374 -0.3294
  467TMC3    H2 6957   4.474   4.635  13.660  1.4343  0.7673 -1.8707
  467TMC3    C7 6958   4.581   4.549  13.903 -0.2021  0.0930  0.3482
  467TMC3    C8 6959   4.562   0.122  13.505  0.0396 -0.0869  0.7322
  467TMC3    O1 6960   4.656   4.518  13.998  0.4845 -0.1869  0.3128
  467TMC3    O2 6961   4.456   0.164  13.555 -0.3927  1.0545 -0.0383
  468MPD2     C 6962   3.875   2.691  10.023  0.3902  0.1046 -0.2301
  468MPD2    C1 6963   3.890   2.779  10.125  0.0171  0.3921 -0.6767
  468MPD2    C2 6964   3.872   2.737  10.261  0.6429  0.0312  0.3250
  468MPD2    C3 6965   3.857   2.604  10.290  0.0421  0.6237  0.5423
  468MPD2    C4 6966   3.851   2.509  10.186 -0.8852 -1.3957 -0.0567
  468MPD2    C5 6967   3.856   2.556  10.055  0.0087 -1.2961 -0.0933
  468MPD2     H 6968   3.881   2.811  10.340 -0.8948 -0.1587  0.6767
  468MPD2    H1 6969   3.822   2.407  10.207  1.2483 -1.6914  1.4439
  468MPD2    H2 6970   3.886   2.717   9.919  0.2208  2.0321  0.2375
  468MPD2    H3 6971   3.844   2.484   9.974  0.2532 -1.8705  0.3778
  468MPD2     N 6972   3.835   2.551  10.422  0.0528  0.4881  0.2570
  468MPD2    H5 6973   3.839   2.450  10.431 -1.3957  0.4663  0.7199
  468MPD2    N1 6974   3.925   2.916  10.099  0.1710 -0.2041 -0.3498
  468MPD2    H7 6975   3.951   2.964  10.184 -0.0127  0.5896 -0.7358
  469TMC3    C1 6976   3.930   3.120  10.002  0.5098  0.4770  0.5497
  469TMC3    C2 6977   4.033   3.157  10.084 -1.1050  0.6316  0.0858
  469TMC3    C3 6978   4.013   3.269  10.163 -0.4657 -0.9481 -0.2015
  469TMC3    C4 6979   3.813   3.186   9.999 -0.4424 -0.7147 -0.9269
  469TMC3    C5 6980   3.790   3.281  10.091 -0.4595  0.0698  0.2260
  469TMC3    C6 6981   3.889   3.329  10.174 -0.2068  0.2460  0.1640
  469TMC3     C 6982   3.916   2.976   9.976  0.6033  0.0163 -0.3151
  469TMC3     O 6983   3.849   2.948   9.877  0.3761  0.8427 -0.0730
  469TMC3     H 6984   4.124   3.098  10.083 -0.7681  1.1253  2.3035
  469TMC3    H1 6985   3.737   3.129   9.946 -1.1903  0.2074 -0.8349
  469TMC3    H2 6986   3.875   3.411  10.243 -0.8248 -0.0850  0.4303
  469TMC3    C7 6987   3.653   3.308  10.101  0.5181 -1.0055 -0.3850
  469TMC3    C8 6988   4.119   3.307  10.253  0.0979 -0.1718  0.9798
  469TMC3    O1 6989   3.591   3.277  10.003 -0.1679  0.3445  0.3964
  469TMC3    O2 6990   4.235   3.285  10.231 -0.2699 -0.2357 -0.0611
  470TMC3    C1 6991   2.469   4.223   0.860 -0.3145  0.0474 -0.1949
  470TMC3    C2 6992   2.505   4.353   0.877  0.1229  0.0616  0.1813
  470TMC3    C3 6993   2.409   4.449   0.894 -0.0860 -0.7389  0.1048
  470TMC3    C4 6994   2.337   4.186   0.878  0.3313  0.7504 -0.2309
  470TMC3    C5 6995   2.241   4.287   0.872  0.2610  0.4635 -0.2673
  470TMC3    C6 6996   2.277   4.419   0.882  0.1867 -0.7290 -0.2598
  470TMC3     C 6997   2.545   4.140   0.763  0.1218 -0.0798 -0.3007
  470TMC3     O 6998   2.487   4.065   0.689 -0.7770 -0.2768 -0.5659
  470TMC3     H 6999   2.596   4.380   0.825  0.0284  1.2162  0.6153
  470TMC3    H1 7000   2.305   4.088   0.845 -0.2358  0.3787  1.4164
  470TMC3    H2 7001   2.202   4.494   0.903  0.0893 -1.3483  1.5753
  470TMC3    C7 7002   2.128   4.249   0.952  0.0069 -0.5168 -0.9354
  470TMC3    C8 7003   2.443   4.581   0.958 -0.3934  0.6481 -0.0895
  470TMC3    O1 7004   2.058   4.160   0.911  0.4671  0.2484  0.9028
  470TMC3    O2 7005   2.350   4.661   0.963 -0.2499 -0.4479  1.0882
  471MPD2     C 7006   1.289   0.961  16.658  0.4473  0.4800 -0.1893
  471MPD2    C1 7007   1.381   0.875  16.607  0.1290  0.3598 -0.5627
  471MPD2    C2 7008   1.483   0.837  16.698 -0.0385 -0.0202 -0.0580
  471MPD2    C3 7009   1.512   0.903  16.818 -0.8363 -0.3893  0.0770
  471MPD2    C4 7010   1.426   0.996  16.857 -0.5183  0.2592  0.0853
  471MPD2    C5 7011   1.311   1.024  16.780 -0.1614 -0.0468 -0.1575
  471MPD2     H 7012   1.548   0.758  16.662 -1.2690  0.2857 -2.9894
  471MPD2    H1 7013   1.432   1.035  16.958 -0.8608  0.3690  0.0645
  471MPD2    H2 7014   1.200   0.985  16.600  0.4411  0.0255 -0.3697
  471MPD2    H3 7015   1.236   1.092  16.818  0.2398 -0.4339  1.3153
  471MPD2     N 7016   1.617   0.871  16.904  0.2278 -0.1834  0.0535
  471MPD2    H5 7017   1.620   0.923  16.992  1.8412 -1.3209  0.6731
  471MPD2    N1 7018   1.380   0.806  16.481 -0.4782  0.2929 -0.3852
  471MPD2    H7 7019   1.462   0.748  16.467 -1.1818 -1.1827  1.7000
  472TMC3    C1 7020   1.320   0.741  16.258  0.1012  0.3910 -0.4816
  472TMC3    C2 7021   1.242   0.771  16.146  0.1915  0.3110  0.1202
  472TMC3    C3 7022   1.236   0.666  16.055 -0.3145  0.5980  0.8294
  472TMC3    C4 7023   1.397   0.631  16.275 -0.5897 -0.2893 -0.5668
  472TMC3    C5 7024   1.395   0.538  16.173  0.8258 -0.2847 -0.4363
  472TMC3    C6 7025   1.295   0.547  16.073  0.0151 -0.6610  0.0164
  472TMC3     C 7026   1.294   0.828  16.377 -0.1586  0.0664 -0.7644
  472TMC3     O 7027   1.196   0.899  16.376 -0.0560 -0.3169  0.6165
  472TMC3     H 7028   1.189   0.865  16.136  1.8937  0.9656 -2.4237
  472TMC3    H1 7029   1.456   0.608  16.364 -1.1646 -1.4328 -0.4775
  472TMC3    H2 7030   1.274   0.463  16.007  3.2658 -1.7951  0.4175
  472TMC3    C7 7031   1.422   0.400  16.220 -0.3596  0.4742 -0.3984
  472TMC3    C8 7032   1.097   0.652  15.996 -0.6463 -0.4856 -0.0237
  472TMC3    O1 7033   1.443   0.389  16.337  0.2171  0.2216  0.7552
  472TMC3    O2 7034   1.059   0.742  15.927 -0.3067  0.5281  0.2953
  473MPD2     C 7035   1.527   2.531  13.898 -0.2470  0.0997 -0.1826
  473MPD2    C1 7036   1.430   2.616  13.855  0.1874 -0.5079  0.6084
  473MPD2    C2 7037   1.398   2.729  13.932 -0.5341 -0.4737  0.2455
  473MPD2    C3 7038   1.479   2.759  14.045 -0.9460  0.1954 -0.0138
  473MPD2    C4 7039   1.573   2.665  14.080 -0.5957 -0.0065 -0.9567
  473MPD2    C5 7040   1.597   2.549  14.011  0.3017  0.6942 -0.3927
  473MPD2     H 7041   1.324   2.797  13.891 -0.5219  1.1230  2.8917
  473MPD2    H1 7042   1.629   2.683  14.171  1.1683 -0.2198 -1.9837
  473MPD2    H2 7043   1.540   2.435  13.849 -0.8631 -0.0760 -0.0041
  473MPD2    H3 7044   1.677   2.480  14.037  0.1968  0.0645 -1.7225
  473MPD2     N 7045   1.469   2.883  14.117 -0.2636  0.2381  0.5194
  473MPD2    H5 7046   1.529   2.899  14.197  0.0785  1.2088  0.0775
  473MPD2    N1 7047   1.356   2.590  13.734  0.2426  0.2633 -0.3177
  473MPD2    H7 7048   1.281   2.655  13.711 -0.4690 -0.5873 -0.3792
  474TMC3    C1 7049   1.426   3.113  14.151  0.4010 -0.6045  0.2440
  474TMC3    C2 7050   1.315   3.198  14.165  0.2098  0.1630 -0.8777
  474TMC3    C3 7051   1.331   3.329  14.212  0.1725  0.7561  0.0644
  474TMC3    C4 7052   1.548   3.169  14.186 -0.4229 -0.0619 -0.0763
  474TMC3    C5 7053   1.559   3.285  14.250  0.6591 -0.5421  0.0746
  474TMC3    C6 7054   1.453   3.372  14.263  0.3133  0.5876  0.6092
  474TMC3     C 7055   1.399   2.993  14.078  0.2199 -0.3114  0.1997
  474TMC3     O 7056   1.319   3.000  13.989 -0.1842  0.2859 -0.2829
  474TMC3     H 7057   1.218   3.172  14.124  1.0798  1.7231 -3.9440
  474TMC3    H1 7058   1.637   3.108  14.183 -0.4448 -0.1137  0.3088
  474TMC3    H2 7059   1.467   3.474  14.299 -0.2492  0.5113  1.0431
  474TMC3    C7 7060   1.686   3.325  14.295  0.4547 -0.6589  0.4539
  474TMC3    C8 7061   1.244   3.420  14.145 -0.3354  0.3016 -0.2468
  474TMC3    O1 7062   1.791   3.289  14.240  0.2287  0.3188  0.3269
  474TMC3    O2 7063   1.141   3.372  14.099  0.4431  0.2565  0.0839
  475MPD2     C 7064   0.283   1.045  10.041 -0.0336 -0.4175 -0.2974
  475MPD2    C1 7065   0.281   1.182  10.060  0.0563 -0.9172  0.3243
  475MPD2    C2 7066   0.187   1.248  10.144 -0.2963 -0.4522  0.0435
  475MPD2    C3 7067   0.096   1.172  10.213  0.4173  0.8432 -0.1036
  475MPD2    C4 7068   0.096   1.036  10.190  0.6631  0.1510  0.6495
  475MPD2    C5 7069   0.186   0.977  10.104 -0.1871 -0.2900 -0.1694
  475MPD2     H 7070   0.172   1.355  10.156  0.1096 -0.4777  0.7617
  475MPD2    H1 7071   0.036   0.978  10.259  1.3286 -1.7725 -0.3889
  475MPD2    H2 7072   0.349   0.998   9.969  4.5051  0.9005  2.9748
  475MPD2    H3 7073   0.189   0.871  10.083 -2.7739 -0.4443  0.2355
  475MPD2     N 7074   0.004   1.247  10.295 -0.0955  0.0926 -0.5757
  475MPD2    H5 7075   4.719   1.348  10.289  2.1287  0.2187 -0.5738
  475MPD2    N1 7076   0.382   1.246   9.994  0.5998  0.1657  0.6101
  475MPD2    H7 7077   0.436   1.180   9.938 -0.2152 -0.1294  0.1754
  476TMC3    C1 7078   0.495   1.429   9.895 -0.2529 -0.1650  0.4588
  476TMC3    C2 7079   0.473   1.380   9.767 -0.9778 -0.5902  0.3079
  476TMC3    C3 7080   0.444   1.468   9.670 -0.3273  0.5694  0.6690
  476TMC3    C4 7081   0.524   1.556   9.923 -0.7665 -0.3184 -0.0834
  476TMC3    C5 7082   0.538   1.635   9.810  0.2639 -0.1932 -0.1764
  476TMC3    C6 7083   0.489   1.598   9.684  0.3454  1.0517 -0.4434
  476TMC3     C 7084   0.405   1.376   9.998  0.0313 -0.0418  0.4298
  476TMC3     O 7085   0.380   1.449  10.092  0.1357 -0.8542  0.1187
  476TMC3     H 7086   0.451   1.276   9.746 -1.3890 -0.5141  0.3629
  476TMC3    H1 7087   0.561   1.580  10.021  1.2355 -0.0604 -0.9177
  476TMC3    H2 7088   0.490   1.666   9.600 -0.9594  0.9343 -0.5605
  476TMC3    C7 7089   0.561   1.777   9.835 -0.5849  0.1566  0.1317
  476TMC3    C8 7090   0.301   1.466   9.630 -0.7146  0.1992  0.5231
  476TMC3    O1 7091   0.585   1.857   9.746 -0.2626  0.4365 -0.2809
  476TMC3    O2 7092   0.263   1.567   9.577 -0.1337 -0.0693 -0.0510
  477MPD2     C 7093   2.046   3.042  11.813 -0.4830 -0.6068 -0.0374
  477MPD2    C1 7094   2.105   2.939  11.742  0.1154 -0.5045 -0.2310
  477MPD2    C2 7095   2.127   2.828  11.819 -0.8730 -0.0874 -0.5434
  477MPD2    C3 7096   2.084   2.810  11.952 -0.3416 -0.1232 -0.0006
  477MPD2    C4 7097   2.032   2.919  12.020  0.3340  0.3604 -0.1637
  477MPD2    C5 7098   2.014   3.034  11.947  0.3684 -0.5612 -0.3848
  477MPD2     H 7099   2.194   2.749  11.789  1.7406  1.2701  1.7230
  477MPD2    H1 7100   2.005   2.913  12.125  1.4568 -1.5079  0.0089
  477MPD2    H2 7101   2.034   3.136  11.760 -1.7361  0.2368  1.7462
  477MPD2    H3 7102   1.974   3.115  12.006  1.4599 -0.4638  0.2014
  477MPD2     N 7103   2.099   2.682  12.009 -0.4526  0.1597  0.1977
  477MPD2    H5 7104   2.164   2.621  11.960 -1.1430 -0.0806 -0.4116
  477MPD2    N1 7105   2.152   2.948  11.611 -0.9680  0.1248 -0.3128
  477MPD2    H7 7106   2.117   3.030  11.564 -1.2907  0.0118 -0.2717
  478TMC3    C1 7107   2.212   2.876  11.402  0.7838 -0.6582  0.0842
  478TMC3    C2 7108   2.250   3.003  11.384  0.4757 -0.1854 -0.3927
  478TMC3    C3 7109   2.215   3.062  11.271  0.6230 -0.6773  0.2293
  478TMC3    C4 7110   2.139   2.803  11.312 -0.1200  0.0037 -0.5497
  478TMC3    C5 7111   2.119   2.866  11.187  0.0544  0.2189  0.4411
  478TMC3    C6 7112   2.160   2.993  11.163  0.6262 -0.3192 -0.3825
  478TMC3     C 7113   2.194   2.841  11.536 -0.3904  0.3452  0.0368
  478TMC3     O 7114   2.218   2.726  11.564  0.0283  0.1627  0.2296
  478TMC3     H 7115   2.307   3.062  11.454  1.9292 -1.1787 -0.7494
  478TMC3    H1 7116   2.105   2.704  11.339 -0.4025  0.2441 -0.0252
  478TMC3    H2 7117   2.149   3.041  11.067 -1.1312  1.6842  0.8335
  478TMC3    C7 7118   2.051   2.784  11.079  0.0759  0.7351  0.1502
  478TMC3    C8 7119   2.274   3.187  11.243  0.0953 -0.2908  0.2675
  478TMC3    O1 7120   2.042   2.666  11.094  0.1128  0.0892  0.0339
  478TMC3    O2 7121   2.389   3.202  11.274 -0.4564 -0.1378 -0.3383
  479MPD2     C 7122   0.642   4.594  15.259 -0.0912 -0.2512 -0.2218
  479MPD2    C1 7123   0.602   4.505  15.357 -0.3440  0.1329  0.3616
  479MPD2    C2 7124   0.614   4.534  15.490 -0.1809  0.2040 -0.5282
  479MPD2    C3 7125   0.641   4.667  15.522 -0.4244  0.1831 -0.3669
  479MPD2    C4 7126   0.678   0.039  15.432 -0.0704 -0.2162  0.1360
  479MPD2    C5 7127   0.679   0.004  15.301  0.4528 -0.0720 -0.0868
  479MPD2     H 7128   0.583   4.458  15.561  2.5273 -0.2433  0.1517
  479MPD2    H1 7129   0.705   0.139  15.464 -0.7694 -0.0100  0.0606
  479MPD2    H2 7130   0.639   4.562  15.155  1.1205 -2.8410  0.5120
  479MPD2    H3 7131   0.719   0.083  15.238 -1.5521 -0.2967 -1.6495
  479MPD2     N 7132   0.639   4.711  15.653  0.3232 -0.1364  0.3146
  479MPD2    H5 7133   0.687   0.077  15.676  0.6079 -0.2500  0.1407
  479MPD2    N1 7134   0.573   4.373  15.306  0.4650 -0.6895  0.3547
  479MPD2    H7 7135   0.586   4.352  15.208  0.1945 -1.5396  0.5027
  480TMC3    C1 7136   0.822   4.513  16.001  0.4357  0.1154 -0.1594
  480TMC3    C2 7137   0.931   4.599  15.987  0.0108  0.3666 -0.3326
  480TMC3    C3 7138   0.907   4.710  15.914 -0.5316  0.0451 -0.7992
  480TMC3    C4 7139   0.700   4.541  15.952 -0.5189  0.8981 -0.0823
  480TMC3    C5 7140   0.676   4.658  15.877 -0.0752 -0.0591 -0.7648
  480TMC3    C6 7141   0.784   0.015  15.853 -0.0096  1.2313  0.1183
  480TMC3     C 7142   0.842   4.377  16.053  0.0012  0.0342  0.2353
  480TMC3     O 7143   0.752   4.297  16.027  0.2870  1.2126  0.1396
  480TMC3     H 7144   1.028   4.585  16.032 -0.6654 -3.8049 -0.1575
  480TMC3    H1 7145   0.616   4.473  15.967 -1.1312  2.1658  2.2557
  480TMC3    H2 7146   0.769   0.111  15.804 -0.3422  0.0114 -2.1719
  480TMC3    C7 7147   0.602   4.637  15.763  0.1801  0.1667  0.2180
  480TMC3    C8 7148   1.023   0.065  15.867  1.4173 -0.3470 -0.4843
  480TMC3    O1 7149   0.530   4.533  15.762  0.2474 -0.1153  0.2640
  480TMC3    O2 7150   1.114   0.071  15.950 -0.7210  0.4070 -0.1005
  481MPD2     C 7151   2.914   4.160  14.084  0.3883  0.2541  0.1173
  481MPD2    C1 7152   2.783   4.196  14.109 -0.3455  0.2344 -0.3458
  481MPD2    C2 7153   2.746   4.220  14.230  0.1596 -0.0976 -0.2195
  481MPD2    C3 7154   2.838   4.203  14.339 -0.9395 -0.2430  0.2742
  481MPD2    C4 7155   2.969   4.181  14.313 -0.9477 -0.1885 -0.5379
  481MPD2    C5 7156   3.011   4.162  14.181 -0.1677 -0.4517 -0.0298
  481MPD2     H 7157   2.647   4.256  14.254  0.6300  1.6911 -0.9344
  481MPD2    H1 7158   3.052   4.172  14.382 -0.2327 -0.2407 -1.3929
  481MPD2    H2 7159   2.948   4.142  13.983 -1.3393  0.5798 -0.5185
  481MPD2    H3 7160   3.115   4.142  14.159 -0.3554  0.1943 -1.4498
  481MPD2     N 7161   2.807   4.225  14.475  0.0250  0.2296  0.1828
  481MPD2    H5 7162   2.882   4.235  14.543 -1.3886 -0.8511  1.9170
  481MPD2    N1 7163   2.696   4.199  13.995 -0.0880 -0.1242  0.0153
  481MPD2    H7 7164   2.724   4.154  13.909 -1.9717 -0.8778 -0.2121
  482TMC3    C1 7165   2.494   4.185  13.879  0.8782  0.1816 -0.6550
  482TMC3    C2 7166   2.545   4.077  13.811  0.5843  0.5527 -0.2125
  482TMC3    C3 7167   2.476   4.040  13.697 -0.1473  0.5357 -0.3398
  482TMC3    C4 7168   2.383   4.257  13.841  0.3988 -0.3920  0.5118
  482TMC3    C5 7169   2.329   4.209  13.723  0.7184  0.1206  0.2118
  482TMC3    C6 7170   2.372   4.106  13.644  0.8386 -0.4036  0.0009
  482TMC3     C 7171   2.560   4.233  13.999 -0.1818 -0.1242  0.7055
  482TMC3     O 7172   2.498   4.287  14.087  0.6306  0.3432 -0.1487
  482TMC3     H 7173   2.622   4.014  13.855  0.6523  0.6988 -0.1209
  482TMC3    H1 7174   2.343   4.338  13.902 -0.0706  0.7501 -1.3142
  482TMC3    H2 7175   2.329   4.082  13.547  1.2003  0.3480 -0.3430
  482TMC3    C7 7176   2.218   4.293  13.679 -0.3057 -0.0325 -0.2709
  482TMC3    C8 7177   2.491   3.909  13.652 -0.0544  0.3074 -0.0894
  482TMC3    O1 7178   2.186   4.381  13.758  0.3069 -0.1172  0.1028
  482TMC3    O2 7179   2.406   3.873  13.573 -0.3611  0.4467  0.2967
  483TMC3    C1 7180   0.112   3.153   0.609 -0.3205  0.0958 -0.6682
  483TMC3    C2 7181   0.104   3.291   0.581  0.3191  0.0764 -0.6897
  483TMC3    C3 7182   0.221   3.363   0.575 -0.0573  0.1756 -0.0819
  483TMC3    C4 7183   0.231   3.090   0.631 -0.8103 -0.6036 -0.9026
  483TMC3    C5 7184   0.344   3.171   0.632  0.4546  0.1393  0.3388
  483TMC3    C6 7185   0.336   3.303   0.609 -0.1959  0.2552  0.4224
  483TMC3     C 7186   0.007   3.081   0.546  0.2953 -0.5111  0.0832
  483TMC3     O 7187   4.623   3.145   0.524 -0.0255  0.0530  0.6320
  483TMC3     H 7188   0.011   3.342   0.557  0.1276 -0.4102 -0.9918
  483TMC3    H1 7189   0.243   2.987   0.662 -1.3558 -0.5422 -0.5017
  483TMC3    H2 7190   0.424   3.365   0.618  0.4722 -0.5819 -0.3908
  483TMC3    C7 7191   0.464   3.127   0.690 -0.4112  0.1693  0.4041
  483TMC3    C8 7192   0.220   3.505   0.544  0.1546 -0.3360 -0.2649
  483TMC3    O1 7193   0.526   3.217   0.743 -0.4698 -0.5160 -0.1834
  483TMC3    O2 7194   0.114   3.570   0.565 -0.0998 -0.3084  0.3164
  484MPD2     C 7195   2.637   1.130  12.345  0.2087  0.2638  1.1227
  484MPD2    C1 7196   2.718   1.024  12.331  0.1642 -0.3867 -0.2225
  484MPD2    C2 7197   2.850   1.047  12.373  1.1149  0.0069 -0.3792
  484MPD2    C3 7198   2.904   1.173  12.400 -0.4115  1.5924  0.6870
  484MPD2    C4 7199   2.820   1.286  12.393 -0.8003 -0.4987  0.0295
  484MPD2    C5 7200   2.687   1.261  12.357  0.0154  0.3898  0.1140
  484MPD2     H 7201   2.925   0.970  12.373  1.7754  0.6433  0.4427
  484MPD2    H1 7202   2.851   1.390  12.393  1.1286 -1.0673 -1.4082
  484MPD2    H2 7203   2.531   1.127  12.319  0.0905  3.0145  1.2715
  484MPD2    H3 7204   2.622   1.347  12.342  1.3847  1.5499  0.9538
  484MPD2     N 7205   3.046   1.210  12.403 -0.7009  0.1249 -0.5202
  484MPD2    H5 7206   3.064   1.310  12.412  2.4825 -0.8527  3.5183
  484MPD2    N1 7207   2.667   0.899  12.284 -0.2530 -0.1826  0.5532
  484MPD2    H7 7208   2.570   0.900  12.254  0.9974 -0.2983 -3.5455
  485TMC3    C1 7209   3.277   1.192  12.421  0.1024  0.4078  0.6198
  485TMC3    C2 7210   3.381   1.133  12.473  0.6720  0.1610  0.4548
  485TMC3    C3 7211   3.505   1.194  12.481 -0.2591 -0.3668 -0.3246
  485TMC3    C4 7212   3.282   1.312  12.361  0.1536 -0.1482  0.0992
  485TMC3    C5 7213   3.400   1.370  12.355 -0.1758  0.1377  0.6037
  485TMC3    C6 7214   3.516   1.321  12.423 -0.5524 -0.3591 -0.3380
  485TMC3     C 7215   3.151   1.118  12.397  0.1865  0.7713 -0.2465
  485TMC3     O 7216   3.145   0.993  12.386  0.5742 -0.4865 -0.6923
  485TMC3     H 7217   3.359   1.038  12.520  0.4132 -0.0749 -0.1284
  485TMC3    H1 7218   3.202   1.351  12.299  1.2316 -1.4883 -2.1179
  485TMC3    H2 7219   3.611   1.372  12.410 -0.8063  0.3122  0.4536
  485TMC3    C7 7220   3.440   1.417  12.222 -0.6034  0.8101  0.7042
  485TMC3    C8 7221   3.617   1.109  12.459  0.6334  0.2587 -0.2952
  485TMC3    O1 7222   3.390   1.519  12.177 -0.2703  0.2163 -0.1879
  485TMC3    O2 7223   3.683   1.137  12.365 -0.3502 -0.7245 -0.0441
  486MPD2     C 7224   1.124   0.118  12.934  0.4592 -0.0963 -0.5671
  486MPD2    C1 7225   1.016   0.054  12.885 -0.3009  0.6049 -0.3858
  486MPD2    C2 7226   0.897   0.128  12.870  0.5391 -0.0479  0.1619
  486MPD2    C3 7227   0.899   0.262  12.881 -0.4770  0.1313  1.0205
  486MPD2    C4 7228   1.016   0.329  12.921 -0.5344  0.4096  0.6373
  486MPD2    C5 7229   1.125   0.255  12.948  0.0152  0.0034 -0.2104
  486MPD2     H 7230   0.802   0.082  12.847 -0.0149  1.1928 -0.0378
  486MPD2    H1 7231   1.014   0.429  12.962 -1.6303  0.1951  1.1115
  486MPD2    H2 7232   1.216   0.066  12.959 -0.6728 -1.8448 -0.0979
  486MPD2    H3 7233   1.212   0.306  12.986 -2.3089  2.2673  2.0310
  486MPD2     N 7234   0.775   0.339  12.861 -0.2874  0.1145 -0.2528
  486MPD2    H5 7235   0.693   0.282  12.843 -0.5370  0.9018 -1.6441
  486MPD2    N1 7236   1.028   4.636  12.868  0.0730 -0.0168  0.1201
  486MPD2    H7 7237   1.112   4.595  12.907 -0.4195  1.3526  2.5920
  487TMC3    C1 7238   0.959   4.414  12.792  0.3816  0.8240 -0.0663
  487TMC3    C2 7239   0.887   4.353  12.699 -0.1753 -0.0103 -0.3183
  487TMC3    C3 7240   0.883   4.215  12.705  0.4486 -0.3192  0.0206
  487TMC3    C4 7241   1.038   4.350  12.884 -0.1614 -0.1984  0.1718
  487TMC3    C5 7242   1.023   4.211  12.897  0.1664 -0.1891 -0.1210
  487TMC3    C6 7243   0.965   4.144  12.790  0.3922 -0.3638  0.1531
  487TMC3     C 7244   0.944   4.559  12.793 -0.5610 -0.2860 -0.3938
  487TMC3     O 7245   0.868   4.614  12.715  0.1716  0.6446 -0.1061
  487TMC3     H 7246   0.849   4.404  12.611 -0.0003 -2.6524 -1.9480
  487TMC3    H1 7247   1.076   4.412  12.964  3.4501 -0.0680 -1.6788
  487TMC3    H2 7248   0.974   4.037  12.804  1.7029 -0.4407 -1.3008
  487TMC3    C7 7249   1.008   4.168  13.033  0.5957  0.3365  0.6513
  487TMC3    C8 7250   0.751   4.167  12.728  0.1949 -0.4980 -0.5642
  487TMC3    O1 7251   0.996   4.252  13.121 -0.3731  0.0022  0.0391
  487TMC3    O2 7252   0.668   4.244  12.767  0.2238 -0.1660  0.5804
  488MPD2     C 7253   0.777   1.728  16.356 -0.2333  0.1170 -0.4061
  488MPD2    C1 7254   0.780   1.865  16.346  0.3143 -0.6209  0.6189
  488MPD2    C2 7255   0.735   1.933  16.458  0.0916 -0.4399  0.1566
  488MPD2    C3 7256   0.692   1.868  16.572 -0.0141  0.1076  0.4615
  488MPD2    C4 7257   0.697   1.730  16.582  0.3403  0.3363  1.0020
  488MPD2    C5 7258   0.738   1.662  16.469  0.0884 -0.3158  0.1156
  488MPD2     H 7259   0.743   2.041  16.464 -0.0437 -0.3470 -1.2800
  488MPD2    H1 7260   0.661   1.679  16.670  0.0304 -3.0735 -1.0968
  488MPD2    H2 7261   0.791   1.657  16.276  0.5940 -0.6748  0.4380
  488MPD2    H3 7262   0.726   1.555  16.457  0.9122 -0.3325 -0.5417
  488MPD2     N 7263   0.647   1.950  16.680 -0.2610 -0.5951 -0.0271
  488MPD2    H5 7264   0.641   2.051  16.671 -2.3989 -0.8962 -1.9671
  488MPD2    N1 7265   0.825   1.936  16.232 -0.0724 -0.0681  0.1863
  488MPD2    H7 7266   0.841   2.036  16.243  1.8679 -0.4217  0.6251
  489TMC3    C1 7267   0.558   1.988  16.889  0.6162  0.3062 -0.2653
  489TMC3    C2 7268   0.468   2.059  16.813 -0.5037 -0.1568 -0.2480
  489TMC3    C3 7269   0.440   2.176  16.870 -0.7432 -0.7383  0.1556
  489TMC3    C4 7270   0.615   2.029  17.004  0.0637 -0.8448  0.2544
  489TMC3    C5 7271   0.570   2.145  17.058 -0.2270 -0.1417 -0.1703
  489TMC3    C6 7272   0.489   2.229  16.985 -0.5272  0.5583  0.7913
  489TMC3     C 7273   0.635   1.897  16.810  0.0047 -1.2656  0.3192
  489TMC3     O 7274   0.684   1.800  16.864  0.7848  0.1649 -0.1367
  489TMC3     H 7275   0.414   2.012  16.732 -2.9589 -1.4094  2.1178
  489TMC3    H1 7276   0.680   1.964  17.060  0.2430 -1.4268 -0.6245
  489TMC3    H2 7277   0.449   2.319  17.031  1.6297  1.5663  0.6928
  489TMC3    C7 7278   0.656   2.219  17.149  0.2044  0.1026  0.2456
  489TMC3    C8 7279   0.360   2.267  16.788 -0.0786 -0.3723 -0.0084
  489TMC3    O1 7280   0.654   2.341  17.146  0.4128  0.0586 -0.6034
  489TMC3    O2 7281   0.371   2.384  16.821  0.2370  0.0041 -0.3319
  490MPD2     C 7282   1.702   1.754  17.175 -0.5293  0.3841  0.5393
  490MPD2    C1 7283   1.684   1.698  17.301 -0.3811 -0.2500  0.3771
  490MPD2    C2 7284   1.760   1.744  17.401  0.2159  0.7259 -0.1980
  490MPD2    C3 7285   1.868   1.821  17.377  0.0351 -0.1194 -0.2325
  490MPD2    C4 7286   1.893   1.865  17.250 -0.2413  0.2355 -0.4655
  490MPD2    C5 7287   1.804   1.838  17.148  0.5356 -0.1748 -0.0448
  490MPD2     H 7288   1.755   1.701  17.501 -0.2530  0.6482 -0.2555
  490MPD2    H1 7289   1.981   1.919  17.217  0.9468  0.2985  2.7352
  490MPD2    H2 7290   1.639   1.726  17.092  0.2163 -2.5698  0.9431
  490MPD2    H3 7291   1.821   1.872  17.046 -1.6068  1.0571  0.0048
  490MPD2     N 7292   1.959   1.862  17.478  0.0328  0.6021 -0.1454
  490MPD2    H5 7293   2.049   1.899  17.448 -0.4407 -0.1834 -2.5169
  490MPD2    N1 7294   1.580   1.602  17.317  0.0857  0.1316  0.2598
  490MPD2    H7 7295   1.546   1.596  17.412 -0.2258  2.3300  0.2842
  491TMC3    C1 7296   1.390   1.461  17.289  0.3121  0.5029 -0.8190
  491TMC3    C2 7297   1.424   1.381  17.397  0.1989 -0.3790 -0.4197
  491TMC3    C3 7298   1.339   1.282  17.433  1.1583 -1.2337 -0.1549
  491TMC3    C4 7299   1.280   1.436  17.218 -0.4089 -0.3693 -0.2718
  491TMC3    C5 7300   1.199   1.327  17.253 -0.1446  0.2574  0.3321
  491TMC3    C6 7301   1.228   1.246  17.360 -0.6546 -0.6682 -0.0169
  491TMC3     C 7302   1.495   1.541  17.228 -0.1860  0.0461 -0.1393
  491TMC3     O 7303   1.514   1.529  17.106 -0.8195 -0.0406 -0.6457
  491TMC3     H 7304   1.518   1.386  17.451 -0.4562 -0.9312  0.7781
  491TMC3    H1 7305   1.244   1.507  17.143  0.4767  1.3141  0.8924
  491TMC3    H2 7306   1.159   1.170  17.394 -1.2081  0.4432  1.3483
  491TMC3    C7 7307   1.089   1.268  17.173  1.1072 -0.0593 -0.8599
  491TMC3    C8 7308   1.339   1.262  17.575  0.0250  0.1151  0.0959
  491TMC3    O1 7309   1.050   1.154  17.194  0.5998  0.0349  0.2454
  491TMC3    O2 7310   1.232   1.212  17.609  0.3567 -0.3783  0.1003
  492MPD2     C 7311   1.845   1.311  11.358  0.7983 -0.9301 -0.3477
  492MPD2    C1 7312   1.785   1.214  11.279  0.0956 -0.1736  0.0343
  492MPD2    C2 7313   1.768   1.088  11.331 -0.0078  0.0167 -0.8558
  492MPD2    C3 7314   1.813   1.053  11.460 -0.2521 -0.1129 -0.5593
  492MPD2    C4 7315   1.886   1.150  11.529 -0.2081 -1.0778  0.2751
  492MPD2    C5 7316   1.891   1.280  11.485 -0.1780 -0.6950  0.1000
  492MPD2     H 7317   1.726   1.007  11.273  0.7147  0.4534 -1.9952
  492MPD2    H1 7318   1.930   1.128  11.626  1.6583  0.2716 -0.2653
  492MPD2    H2 7319   1.854   1.413  11.321 -2.6660 -0.9404 -1.2455
  492MPD2    H3 7320   1.932   1.356  11.549  0.4673 -0.2700 -0.8143
  492MPD2     N 7321   1.773   0.932  11.521  0.3310 -0.2640 -0.4322
  492MPD2    H5 7322   1.818   0.905  11.608  2.4005 -2.7088 -2.2414
  492MPD2    N1 7323   1.745   1.249  11.153  0.1026 -0.2769 -0.4069
  492MPD2    H7 7324   1.753   1.347  11.130 -1.8801 -0.3147 -1.3191
  493TMC3    C1 7325   1.662   1.242  10.931 -0.2890  0.1103  0.6797
  493TMC3    C2 7326   1.721   1.360  10.893 -0.0808  0.1171  1.6020
  493TMC3    C3 7327   1.680   1.417  10.773 -0.6617  0.2010  1.4973
  493TMC3    C4 7328   1.563   1.189  10.851 -1.0937 -0.1515 -0.0888
  493TMC3    C5 7329   1.523   1.254  10.737 -0.2928  0.0692 -0.3002
  493TMC3    C6 7330   1.580   1.366  10.696  0.2774  0.5605 -0.5387
  493TMC3     C 7331   1.678   1.168  11.059  0.8146  0.2823  0.1186
  493TMC3     O 7332   1.650   1.055  11.062  0.1537  0.2277 -0.5278
  493TMC3     H 7333   1.798   1.408  10.953  0.8325 -1.6711  1.8455
  493TMC3    H1 7334   1.519   1.095  10.884  1.3831 -0.0607  3.5570
  493TMC3    H2 7335   1.545   1.428  10.614  0.2549 -0.2130 -1.1101
  493TMC3    C7 7336   1.396   1.217  10.679 -0.0035 -0.1160  0.3288
  493TMC3    C8 7337   1.718   1.554  10.752  0.0662  0.2836 -0.2512
  493TMC3    O1 7338   1.389   1.249  10.561 -0.4552 -0.1174 -0.3663
  493TMC3    O2 7339   1.728   1.626  10.850  0.6005 -0.1431  0.5849
  494TMC3    C1 7340   2.742   3.096   0.661  0.2461 -0.0600 -0.2296
  494TMC3    C2 7341   2.837   3.018   0.715  0.4154 -0.2739  0.1713
  494TMC3    C3 7342   2.912   2.951   0.623  0.6717  0.5147  0.3630
  494TMC3    C4 7343   2.730   3.119   0.524 -0.8593 -0.1644 -0.0959
  494TMC3    C5 7344   2.816   3.042   0.441 -0.3312 -0.1663 -0.3945
  494TMC3    C6 7345   2.913   2.956   0.482  0.0658  0.0275  0.5074
  494TMC3     C 7346   2.647   3.173   0.745 -0.8976 -0.4015 -0.4202
  494TMC3     O 7347   2.567   3.247   0.694  0.4813  0.2605  0.5440
  494TMC3     H 7348   2.836   2.975   0.814  2.9285 -1.3710 -0.2878
  494TMC3    H1 7349   2.652   3.177   0.476 -0.2689 -0.6381 -1.6329
  494TMC3    H2 7350   2.966   2.880   0.427 -0.8286 -0.2645  0.0420
  494TMC3    C7 7351   2.772   3.015   0.307  0.4458  0.7618 -0.3482
  494TMC3    C8 7352   2.994   2.844   0.670 -0.0980 -0.6384 -0.3506
  494TMC3    O1 7353   2.729   3.113   0.244 -0.0069 -0.0787 -0.0999
  494TMC3    O2 7354   2.960   2.782   0.769 -0.4346 -0.2043  0.3063
  495TMC3    C1 7355   1.014   0.439  14.944  0.0843  1.0648 -0.0454
  495TMC3    C2 7356   0.902   0.396  14.878 -0.1122  0.4439 -0.2276
  495TMC3    C3 7357   0.851   0.271  14.921  0.3074  0.0013 -0.2477
  495TMC3    C4 7358   1.070   0.372  15.050  0.3640 -0.3073 -0.0766
  495TMC3    C5 7359   1.021   0.248  15.086 -0.0400 -0.1793 -0.5460
  495TMC3    C6 7360   0.903   0.208  15.032  0.1994 -0.6005 -0.1578
  495TMC3     C 7361   1.089   0.561  14.907  0.3900  0.3208 -0.5140
  495TMC3     O 7362   1.134   0.619  15.010  0.1821 -0.1349  0.0170
  495TMC3     H 7363   0.879   0.441  14.781  1.0746 -0.8550 -1.1042
  495TMC3    H1 7364   1.160   0.414  15.092 -1.2128  2.1541  0.8408
  495TMC3    H2 7365   0.859   0.115  15.065 -0.4115 -0.4239 -0.4800
  495TMC3    C7 7366   1.047   0.184  15.215  0.2530  0.2012 -0.4681
  495TMC3    C8 7367   0.758   0.198  14.836 -0.2692 -0.5298 -0.1494
  495TMC3    O1 7368   0.970   0.101  15.251  0.0336  0.4649  0.0346
  495TMC3    O2 7369   0.699   0.270  14.758  0.7887  0.3850  0.7787
  496MPD2     C 7370   3.459   4.402  15.534 -0.5459 -0.4936  0.1710
  496MPD2    C1 7371   3.340   4.416  15.459  0.2646  0.2932  0.9200
  496MPD2    C2 7372   3.217   4.429  15.531 -0.2688 -0.2201 -0.1840
  496MPD2    C3 7373   3.216   4.424  15.671 -0.4088 -0.1239  0.4161
  496MPD2    C4 7374   3.334   4.409  15.745  0.0567 -0.2950  0.5337
  496MPD2    C5 7375   3.453   4.389  15.671 -0.5506  0.7026 -0.4261
  496MPD2     H 7376   3.125   4.445  15.477  0.1045 -1.4642 -1.1897
  496MPD2    H1 7377   3.340   4.393  15.852  0.1839  2.3794  0.9401
  496MPD2    H2 7378   3.557   4.406  15.489 -1.5256 -0.3461 -1.9576
  496MPD2    H3 7379   3.550   4.372  15.716 -1.3601 -0.1091  1.0293
  496MPD2     N 7380   3.107   4.458  15.751 -0.6072  0.5022 -0.4162
  496MPD2    H5 7381   3.113   4.470  15.852 -0.3513 -1.1336 -0.2449
  496MPD2    N1 7382   3.347   4.423  15.318  0.0794  0.6444 -0.1866
  496MPD2    H7 7383   3.433   4.386  15.280  0.4304  2.5252 -1.2421
  497TMC3    C1 7384   2.882   4.508  15.813  0.7091 -0.2884 -0.2940
  497TMC3    C2 7385   2.753   4.538  15.775 -0.3175  0.2244 -0.1802
  497TMC3    C3 7386   2.667   4.553  15.872  0.0731 -0.0532  0.5542
  497TMC3    C4 7387   2.927   4.496  15.942 -0.7564 -0.1666  0.2831
  497TMC3    C5 7388   2.829   4.517  16.039  0.5323 -0.3413  0.7685
  497TMC3    C6 7389   2.703   4.545  16.005  0.6384 -0.3394 -0.4288
  497TMC3     C 7390   2.976   4.476  15.709  0.8238 -0.1485  0.5994
  497TMC3     O 7391   2.932   4.473  15.592  0.1431 -0.1513  0.6659
  497TMC3     H 7392   2.729   4.548  15.670 -0.7556 -0.9369 -0.1799
  497TMC3    H1 7393   3.019   4.453  15.980 -0.4081 -0.4155 -0.8450
  497TMC3    H2 7394   2.627   4.566  16.080  1.5457  0.5081  0.2667
  497TMC3    C7 7395   2.862   4.524  16.184  0.3375  0.5367 -0.2374
  497TMC3    C8 7396   2.526   4.568  15.843  0.3587  0.0753  0.5736
  497TMC3    O1 7397   2.769   4.521  16.265 -0.3759 -0.0290  0.5150
  497TMC3    O2 7398   2.440   4.519  15.914  0.6520 -0.3687  0.4715
  498MPD2     C 7399   4.202   0.544   9.192  0.2947 -0.0853  0.7561
  498MPD2    C1 7400   4.239   0.562   9.321 -0.2225  0.9049  0.1629
  498MPD2    C2 7401   4.193   0.479   9.425 -0.1882  0.4243  0.7502
  498MPD2    C3 7402   4.110   0.381   9.388 -0.1453  0.0563  0.9717
  498MPD2    C4 7403   4.061   0.365   9.260  0.5012  0.9141  0.0406
  498MPD2    C5 7404   4.116   0.441   9.157  0.1253  0.0357 -1.0029
  498MPD2     H 7405   4.222   0.488   9.529 -3.0506  1.9984  1.4184
  498MPD2    H1 7406   4.004   0.277   9.233  0.6479  0.8731 -0.1340
  498MPD2    H2 7407   4.242   0.616   9.121  1.0205 -1.6633 -0.4238
  498MPD2    H3 7408   4.086   0.430   9.054  1.4928 -0.7556 -1.3132
  498MPD2     N 7409   4.062   0.291   9.495 -0.3402 -0.1256  0.1909
  498MPD2    H5 7410   4.093   0.323   9.586  1.0619 -0.0844 -0.2861
  498MPD2    N1 7411   4.305   0.688   9.351 -0.0289 -0.2005 -0.1962
  498MPD2    H7 7412   4.297   0.759   9.279 -0.2907 -0.9566 -0.9121
  499TMC3    C1 7413   4.463   0.820   9.487 -0.3250 -0.6596  0.0911
  499TMC3    C2 7414   4.601   0.827   9.508  0.0862  0.7044 -0.1091
  499TMC3    C3 7415   4.668   0.949   9.490 -0.0638 -0.3290  0.4687
  499TMC3    C4 7416   4.400   0.934   9.447 -0.1234 -0.5688 -0.2346
  499TMC3    C5 7417   4.467   1.053   9.431 -0.2144 -0.0654 -0.4061
  499TMC3    C6 7418   4.604   1.063   9.446  0.7979 -0.0328 -0.1663
  499TMC3     C 7419   4.394   0.694   9.467  0.8180  0.4279 -0.0037
  499TMC3     O 7420   4.443   0.599   9.533  0.1918  0.5863  0.2552
  499TMC3     H 7421   4.648   0.739   9.551 -2.1627 -1.3628 -1.8932
  499TMC3    H1 7422   4.292   0.942   9.450 -0.3387 -3.5883 -0.9075
  499TMC3    H2 7423   4.653   1.159   9.445 -0.0987  0.4247 -0.0996
  499TMC3    C7 7424   4.386   1.172   9.408 -0.0339  0.0300 -0.2222
  499TMC3    C8 7425   0.088   0.950   9.468  0.6367 -0.7127 -0.1420
  499TMC3    O1 7426   4.412   1.276   9.467  0.3055  0.9419 -0.5889
  499TMC3    O2 7427   0.133   1.054   9.416 -0.0961 -0.4297  0.1268
  500MPD2     C 7428   0.713   2.904  10.137 -0.0213  0.5851 -0.9683
  500MPD2    C1 7429   0.667   2.801  10.054 -0.3279  0.3061 -0.4161
  500MPD2    C2 7430   0.533   2.791  10.018 -0.1412  0.0737  0.0945
  500MPD2    C3 7431   0.443   2.892  10.050  0.7158 -0.0099 -0.6642
  500MPD2    C4 7432   0.489   2.985  10.140 -0.6488  0.1481  0.0126
  500MPD2    C5 7433   0.626   2.997  10.175  0.5955 -0.6398 -0.2489
  500MPD2     H 7434   0.497   2.711   9.955 -0.6109  0.1716  0.2385
  500MPD2    H1 7435   0.424   3.061  10.181 -1.4262 -0.9995  0.9240
  500MPD2    H2 7436   0.817   2.907  10.167  0.3936  0.5649 -2.4309
  500MPD2    H3 7437   0.649   3.080  10.241 -2.1574  2.2420 -2.8694
  500MPD2     N 7438   0.311   2.889   9.999  0.0413 -0.0257 -0.2933
  500MPD2    H5 7439   0.261   2.974  10.023 -0.7341 -1.5736  3.6879
  500MPD2    N1 7440   0.741   2.699  10.001  0.8121 -0.3349 -0.3721
  500MPD2    H7 7441   0.698   2.617   9.961 -1.7523  0.1392  1.3861
  501TMC3    C1 7442   0.937   2.565   9.984  0.5711  0.5477  0.5082
  501TMC3    C2 7443   1.056   2.575   9.904  0.3223  0.0312  0.1808
  501TMC3    C3 7444   1.168   2.504   9.943 -0.1429 -0.0019  0.0717
  501TMC3    C4 7445   0.928   2.476  10.089 -0.0259 -1.4493  0.2472
  501TMC3    C5 7446   1.042   2.399  10.118 -0.4370  1.0414 -0.3464
  501TMC3    C6 7447   1.156   2.410  10.044 -0.5170  1.0234  0.2505
  501TMC3     C 7448   0.882   2.697  10.003  0.0507 -0.3654  0.2603
  501TMC3     O 7449   0.958   2.791  10.013 -0.4054 -0.2552 -0.2338
  501TMC3     H 7450   1.051   2.647   9.823  0.1928 -0.1717  0.0067
  501TMC3    H1 7451   0.847   2.491  10.159 -0.3819 -0.4954 -0.3701
  501TMC3    H2 7452   1.249   2.359  10.070 -0.3937  0.6253 -0.9708
  501TMC3    C7 7453   1.066   2.332  10.246 -0.1524  0.0202  0.0154
  501TMC3    C8 7454   1.285   2.586   9.960  0.5357 -0.1720 -0.2998
  501TMC3    O1 7455   1.156   2.251  10.245  0.0804  0.0818  0.0773
  501TMC3    O2 7456   1.341   2.565  10.068  0.5640  0.2049  0.2639
  502TMC3    C1 7457   0.568   0.534  14.787 -0.3298 -0.7147 -0.9116
  502TMC3    C2 7458   0.549   0.586  14.661 -0.2317 -0.4095  0.0864
  502TMC3    C3 7459   0.423   0.587  14.610 -0.2685  0.7940  0.0310
  502TMC3    C4 7460   0.472   0.469  14.855  0.0164  0.8506 -0.1476
  502TMC3    C5 7461   0.344   0.483  14.808 -0.4126 -0.3918  0.2649
  502TMC3    C6 7462   0.327   0.526  14.679 -0.2776 -0.0870  0.9466
  502TMC3     C 7463   0.645   0.632  14.867 -0.0560  1.1104  0.7669
  502TMC3     O 7464   0.744   0.678  14.815 -0.4979  0.7341  0.5028
  502TMC3     H 7465   0.627   0.650  14.621  0.1247 -0.0055  1.4651
  502TMC3    H1 7466   0.495   0.420  14.949 -0.3402  1.7324  0.4057
  502TMC3    H2 7467   0.229   0.520  14.633  0.1299  1.9677 -0.2188
  502TMC3    C7 7468   0.254   0.519  14.915 -0.0115  0.4842 -0.1061
  502TMC3    C8 7469   0.393   0.716  14.553  0.0546  0.0999  0.0212
  502TMC3    O1 7470   0.310   0.539  15.021 -0.2762  0.4389  0.2017
  502TMC3    O2 7471   0.487   0.776  14.503  0.0457  0.1437  0.1723
  503MPD2     C 7472   2.851   1.849  16.757  1.0088  0.7877 -0.1483
  503MPD2    C1 7473   2.858   1.869  16.888  0.2762  0.0278 -0.0154
  503MPD2    C2 7474   2.871   1.769  16.980 -0.0642 -0.5234 -0.2599
  503MPD2    C3 7475   2.881   1.637  16.944  0.0081  0.2415  0.9162
  503MPD2    C4 7476   2.871   1.612  16.804 -0.0084 -0.1432 -0.0284
  503MPD2    C5 7477   2.862   1.719  16.718  0.5086 -0.1817  0.0142
  503MPD2     H 7478   2.897   1.784  17.084  1.3017 -2.6162 -0.2722
  503MPD2    H1 7479   2.873   1.516  16.753 -0.1588  0.3526 -0.9726
  503MPD2    H2 7480   2.835   1.919  16.676 -2.2666  1.3150  0.9720
  503MPD2    H3 7481   2.852   1.696  16.613 -2.5558 -0.4734  0.3821
  503MPD2     N 7482   2.903   1.533  17.044  0.4820  0.0572 -0.4043
  503MPD2    H5 7483   2.897   1.564  17.140 -1.1734  0.6451 -0.7076
  503MPD2    N1 7484   2.860   1.995  16.950  0.0502 -0.0452 -0.2003
  503MPD2    H7 7485   2.850   1.993  17.051 -1.1335  1.2627 -0.2933
  504TMC3    C1 7486   2.956   1.325  17.133  0.4468 -0.1831  0.7589
  504TMC3    C2 7487   2.925   1.377  17.254  0.7869  0.3337  0.1339
  504TMC3    C3 7488   3.007   1.332  17.356  0.0042 -0.1860  0.0613
  504TMC3    C4 7489   3.047   1.231  17.108 -0.8015 -0.0362  0.5573
  504TMC3    C5 7490   3.115   1.183  17.214 -0.4312 -0.1855 -0.1873
  504TMC3    C6 7491   3.099   1.232  17.344 -0.8465 -0.3390  0.0452
  504TMC3     C 7492   2.915   1.400  17.014  0.4969 -0.6771  0.3202
  504TMC3     O 7493   2.902   1.344  16.910 -0.7066  0.1397 -0.1024
  504TMC3     H 7494   2.851   1.454  17.275  2.8259  2.0021  1.1513
  504TMC3    H1 7495   3.062   1.197  17.006  2.5862  2.9946  0.0669
  504TMC3    H2 7496   3.183   1.219  17.410  1.9112 -0.1581 -3.4236
  504TMC3    C7 7497   3.253   1.153  17.175 -0.0069  0.3933 -0.0846
  504TMC3    C8 7498   3.008   1.396  17.483  0.7652  0.1360  0.3722
  504TMC3    O1 7499   3.296   1.216  17.082  0.3328 -0.2252 -0.4288
  504TMC3    O2 7500   2.983   1.515  17.497  0.0681  0.2912  0.8783
  505MPD2     C 7501   3.195   0.306  10.334 -0.7233  0.2632  0.1670
  505MPD2    C1 7502   3.251   0.224  10.427 -0.2096 -0.4437  0.3294
  505MPD2    C2 7503   3.350   0.281  10.512  0.2236 -0.2618 -1.2632
  505MPD2    C3 7504   3.395   0.407  10.489 -0.3924 -0.6356  0.2491
  505MPD2    C4 7505   3.330   0.495  10.400 -0.8790  0.6859  0.5855
  505MPD2    C5 7506   3.236   0.435  10.323 -0.1809 -1.3328 -0.2424
  505MPD2     H 7507   3.395   0.219  10.589 -0.9966 -1.1454 -1.2655
  505MPD2    H1 7508   3.337   0.603  10.398 -1.4828  0.7384  1.0686
  505MPD2    H2 7509   3.130   0.273  10.255 -1.2901  2.2495 -0.2040
  505MPD2    H3 7510   3.187   0.498  10.249 -0.0740 -0.6457  0.2732
  505MPD2     N 7511   3.509   0.442  10.569 -0.2743  0.6040 -0.2257
  505MPD2    H5 7512   3.538   0.375  10.640 -1.7035 -2.5173 -2.5580
  505MPD2    N1 7513   3.192   0.094  10.438 -0.4802 -0.4645  0.5218
  505MPD2    H7 7514   3.133   0.059  10.363  0.0642 -1.0806  0.3803
  506TMC3    C1 7515   3.184   4.579  10.516  0.0305 -0.0476  0.7353
  506TMC3    C2 7516   3.183   4.525  10.386 -0.2520 -0.3281  0.2246
  506TMC3    C3 7517   3.203   4.393  10.368  1.0951  0.2167  0.5422
  506TMC3    C4 7518   3.232   4.504  10.619  0.0326 -0.1493  0.2455
  506TMC3    C5 7519   3.283   4.382  10.594 -0.7225 -0.3696 -0.4811
  506TMC3    C6 7520   3.263   4.326  10.471 -0.8784 -0.3313  0.4039
  506TMC3     C 7521   3.230   4.717  10.529  0.5198  0.2917 -0.4020
  506TMC3     O 7522   3.313   0.003  10.616  0.0186 -0.3090  0.4556
  506TMC3     H 7523   3.146   4.577  10.298  1.7153  2.0911  0.8415
  506TMC3    H1 7524   3.234   4.537  10.722 -1.3306 -1.9827  0.8740
  506TMC3    H2 7525   3.296   4.224  10.454 -3.6603 -1.1269 -0.2952
  506TMC3    C7 7526   3.420   4.363  10.637 -0.0594  0.3514 -0.6414
  506TMC3    C8 7527   3.239   4.339  10.238  0.0892  0.8967  0.2789
  506TMC3    O1 7528   3.481   4.258  10.616 -0.5416 -0.5401  0.1423
  506TMC3    O2 7529   3.205   4.223  10.213  0.7294  0.2077 -0.1092
  507TMC3    C1 7530   3.798   1.371  14.387  0.3920  0.0419  0.2534
  507TMC3    C2 7531   3.741   1.333  14.266  0.2618 -0.4519  0.0437
  507TMC3    C3 7532   3.785   1.382  14.152  0.4905  0.3942 -0.5865
  507TMC3    C4 7533   3.868   1.487  14.399  0.6278  0.5697 -0.0017
  507TMC3    C5 7534   3.922   1.526  14.280  0.2068  0.7722 -0.0155
  507TMC3    C6 7535   3.881   1.477  14.163 -0.0681  0.4997  0.0312
  507TMC3     C 7536   3.770   1.291  14.503 -0.0190 -0.5716 -0.3702
  507TMC3     O 7537   3.698   1.197  14.484  0.4760  0.2429  0.0768
  507TMC3     H 7538   3.681   1.243  14.260 -1.2267  0.5989 -0.9884
  507TMC3    H1 7539   3.895   1.527  14.496  3.7090 -0.8772 -0.2808
  507TMC3    H2 7540   3.938   1.492  14.072 -0.3174  0.0099 -0.2104
  507TMC3    C7 7541   3.939   1.673  14.271  0.3577  0.9219  0.0001
  507TMC3    C8 7542   3.691   1.424  14.050  0.0302 -0.4116  0.1689
  507TMC3    O1 7543   3.972   1.733  14.374  0.2038  0.5047 -0.2346
  507TMC3    O2 7544   3.720   1.526  13.987  0.1774  0.0856  0.5642
  508MPD2     C 7545   0.246   3.635  15.961 -0.4659 -0.0706 -0.1584
  508MPD2    C1 7546   0.198   3.743  16.033 -0.3419  0.2824 -0.1784
  508MPD2    C2 7547   0.155   3.855  15.954 -0.4861 -0.1859 -0.2065
  508MPD2    C3 7548   0.173   3.860  15.815 -0.1436  0.0136  0.1197
  508MPD2    C4 7549   0.228   3.746  15.752  0.0219 -0.5691 -0.5190
  508MPD2    C5 7550   0.265   3.636  15.823 -0.6079 -0.1627 -0.9526
  508MPD2     H 7551   0.099   3.937  15.998  0.2584  0.6509 -0.8361
  508MPD2    H1 7552   0.244   3.739  15.645  0.1490 -0.5813 -0.4997
  508MPD2    H2 7553   0.287   3.554  16.019  0.5101  1.2090  0.9287
  508MPD2    H3 7554   0.332   3.565  15.775  1.6760  1.5682 -0.3579
  508MPD2     N 7555   0.121   3.971  15.751 -0.3409  0.4684  0.4798
  508MPD2    H5 7556   0.094   4.053  15.804 -0.1260  0.5654  0.4394
  508MPD2    N1 7557   0.188   3.728  16.175  0.0492 -0.4005  0.3212
  508MPD2    H7 7558   0.220   3.641  16.216 -1.3198 -0.8732  0.4010
  509TMC3    C1 7559   0.004   4.339  15.654 -0.7202 -0.0194  0.1494
  509TMC3    C2 7560   0.066   4.391  15.547 -0.4248 -0.1310 -0.9186
  509TMC3    C3 7561   0.138   4.316  15.457 -0.3347  0.2051  0.0976
  509TMC3    C4 7562   0.012   4.199  15.671 -0.0419 -0.1541 -0.2007
  509TMC3    C5 7563   0.093   4.125  15.584  0.0782  0.2809  0.4634
  509TMC3    C6 7564   0.153   4.179  15.474  0.6160 -0.2671  0.5964
  509TMC3     C 7565   4.597   4.401  15.666 -0.2810 -0.5046  0.4473
  509TMC3     O 7566   4.582   4.474  15.762  0.6643  0.0312 -0.7617
  509TMC3     H 7567   0.042   4.495  15.527  0.9111  0.5553  1.0724
  509TMC3    H1 7568   4.676   4.158  15.755  0.7602 -3.7728 -1.4320
  509TMC3    H2 7569   0.205   4.119  15.400 -0.2514 -1.7439  1.1763
  509TMC3    C7 7570   0.142   3.998  15.617  0.8438  0.2860 -0.0333
  509TMC3    C8 7571   0.167   4.369  15.323 -0.2538 -0.0788 -0.7262
  509TMC3    O1 7572   0.199   3.928  15.534  0.4854  0.6066  0.5093
  509TMC3    O2 7573   0.174   4.291  15.229 -0.0608  0.7769  0.6845
  510MPD2     C 7574   2.702   0.476  14.629  0.9408  0.1372  0.2403
  510MPD2    C1 7575   2.667   0.347  14.662 -0.4684  0.3485 -1.0051
  510MPD2    C2 7576   2.737   0.253  14.588  0.8254 -0.1110  0.0457
  510MPD2    C3 7577   2.834   0.276  14.493  0.8423 -0.1322 -0.3797
  510MPD2    C4 7578   2.866   0.405  14.470 -0.3737  0.1244 -0.5381
  510MPD2    C5 7579   2.799   0.503  14.535 -0.3760 -0.4722  0.1533
  510MPD2     H 7580   2.708   0.150  14.601 -1.7402  0.6638  0.4071
  510MPD2    H1 7581   2.944   0.443  14.406 -0.7967  2.0107  0.0574
  510MPD2    H2 7582   2.645   0.560  14.667  1.5032  1.7378 -2.4824
  510MPD2    H3 7583   2.813   0.608  14.513  0.2229 -0.3440  1.1910
  510MPD2     N 7584   2.879   0.163  14.416  0.3823 -0.3494 -1.1687
  510MPD2    H5 7585   2.843   0.070  14.436  1.3148 -0.8578 -1.8293
  510MPD2    N1 7586   2.559   0.322  14.747  0.2031  0.2936  0.4877
  510MPD2    H7 7587   2.523   0.403  14.796  0.1625  1.4352 -1.4613
  511TMC3    C1 7588   2.359   0.210  14.813 -0.0887 -0.4525  0.2422
  511TMC3    C2 7589   2.337   0.264  14.939 -0.7863  0.0451  0.2912
  511TMC3    C3 7590   2.232   0.209  15.005  0.2104  0.9971  0.1290
  511TMC3    C4 7591   2.279   0.118  14.751 -0.1662 -0.4069 -0.2942
  511TMC3    C5 7592   2.168   0.081  14.820  0.0984  0.0675  0.8564
  511TMC3    C6 7593   2.142   0.118  14.946 -0.3143  0.6537 -0.6736
  511TMC3     C 7594   2.494   0.196  14.760  0.4352 -0.5711 -1.2044
  511TMC3     O 7595   2.514   0.087  14.709  0.1294 -0.6779  0.0408
  511TMC3     H 7596   2.403   0.338  14.982 -0.5004  0.5598 -1.0376
  511TMC3    H1 7597   2.307   0.085  14.652 -1.2498  0.3664 -0.8633
  511TMC3    H2 7598   2.046   0.082  14.981  0.3117 -0.3111  0.0817
  511TMC3    C7 7599   2.071   0.008  14.736 -0.0415 -0.2721  0.6350
  511TMC3    C8 7600   2.182   0.293  15.106 -0.9092 -0.1175  0.3790
  511TMC3    O1 7601   2.100   0.011  14.616 -0.1946 -0.2718  0.4197
  511TMC3    O2 7602   2.229   0.405  15.128  0.0717 -0.1680 -0.1175
  512TMC3    C1 7603   1.284   0.050  13.455  0.2140 -0.3269  0.0972
  512TMC3    C2 7604   1.378   0.015  13.550  0.0110  0.0406  0.0372
  512TMC3    C3 7605   1.436   4.609  13.535  0.0794 -0.6027 -0.3369
  512TMC3    C4 7606   1.256   4.695  13.344  0.5608 -1.1119  1.3606
  512TMC3    C5 7607   1.322   4.580  13.329 -0.3862 -0.0360  0.1251
  512TMC3    C6 7608   1.418   4.537  13.420  0.3823  0.8209 -0.3474
  512TMC3     C 7609   1.223   0.180  13.479  1.2109 -0.7628 -0.6225
  512TMC3     O 7610   1.280   0.250  13.560  0.3540 -0.0872 -0.2100
  512TMC3     H 7611   1.395   0.083  13.633  0.1883  1.3475 -1.0561
  512TMC3    H1 7612   1.182   0.012  13.275  2.8728 -0.9296 -1.0654
  512TMC3    H2 7613   1.486   4.455  13.405  2.1756  1.8137  2.4196
  512TMC3    C7 7614   1.292   4.501  13.209  0.2109 -0.3214 -0.7373
  512TMC3    C8 7615   1.547   4.582  13.617 -0.4720  0.2062  0.1929
  512TMC3    O1 7616   1.247   4.559  13.110  0.3910 -0.1702  0.1127
  512TMC3    O2 7617   1.575   4.462  13.632  0.2300 -0.5879 -0.6243
  513MPD2     C 7618   3.186   4.106  12.678 -0.3152  0.4247  0.2389
  513MPD2    C1 7619   3.258   4.096  12.561 -0.1026  0.4596  0.0594
  513MPD2    C2 7620   3.357   4.191  12.538  0.0797  0.2352  0.8107
  513MPD2    C3 7621   3.373   4.293  12.639 -0.6823 -0.1713  0.5911
  513MPD2    C4 7622   3.312   4.293  12.756  0.3048  0.0765 -0.1929
  513MPD2    C5 7623   3.218   4.191  12.776 -0.3060  0.4144  0.9711
  513MPD2     H 7624   3.409   4.195  12.443 -0.7156  1.1373  0.4233
  513MPD2    H1 7625   3.337   4.363  12.836 -1.4924  1.4579 -0.8500
  513MPD2    H2 7626   3.096   4.048  12.694  0.6369 -1.2329 -0.4305
  513MPD2    H3 7627   3.164   4.182  12.870 -0.2996  1.5659  1.0886
  513MPD2     N 7628   3.479   4.385  12.608  0.0270  0.3094  0.2570
  513MPD2    H5 7629   3.528   4.364  12.522  0.0540 -1.0079  0.5884
  513MPD2    N1 7630   3.237   3.987  12.473  0.6695 -0.0004 -0.5152
  513MPD2    H7 7631   3.167   3.917  12.493  1.4203 -0.7780 -0.6369
  514TMC3    C1 7632   3.309   3.812  12.329 -0.1453  0.2475 -0.2159
  514TMC3    C2 7633   3.226   3.804  12.218  0.3929 -0.0897  0.0030
  514TMC3    C3 7634   3.278   3.745  12.111 -0.2778 -0.1327  0.4549
  514TMC3    C4 7635   3.434   3.761  12.326  0.1545 -0.4186 -0.1616
  514TMC3    C5 7636   3.474   3.686  12.220  0.2077  0.4068 -0.1221
  514TMC3    C6 7637   3.395   3.677  12.111 -0.2330  0.8087 -0.8552
  514TMC3     C 7638   3.324   3.948  12.375  1.3368 -0.3530  0.5032
  514TMC3     O 7639   3.426   4.005  12.335  0.9166 -0.2022 -0.3032
  514TMC3     H 7640   3.134   3.858  12.235  1.0524  0.7937  0.8059
  514TMC3    H1 7641   3.490   3.772  12.418 -2.3186  0.0766  1.3033
  514TMC3    H2 7642   3.430   3.625  12.023 -0.2495 -2.3420  0.9834
  514TMC3    C7 7643   3.617   3.712  12.189  0.6653  0.0375  0.9317
  514TMC3    C8 7644   3.195   3.740  11.995  0.4822 -0.7109  0.3890
  514TMC3    O1 7645   3.687   3.637  12.123 -0.6862 -0.8311 -0.6594
  514TMC3    O2 7646   3.082   3.778  12.017 -0.8195 -0.5376 -0.4363
  515MPD2     C 7647   1.197   1.986  14.806 -0.3603  0.1683  0.0295
  515MPD2    C1 7648   1.242   1.862  14.777 -0.1098 -1.0525  0.1416
  515MPD2    C2 7649   1.360   1.814  14.831 -0.1881 -0.1357  0.3120
  515MPD2    C3 7650   1.443   1.892  14.913  0.0216  0.5108  0.2594
  515MPD2    C4 7651   1.397   2.011  14.952 -0.1751  0.1695 -0.1514
  515MPD2    C5 7652   1.278   2.054  14.898 -1.0304  0.2042 -0.4166
  515MPD2     H 7653   1.390   1.714  14.802  0.3153  0.1696 -0.2091
  515MPD2    H1 7654   1.465   2.072  15.010  0.7568 -1.0181  0.0066
  515MPD2    H2 7655   1.112   2.034  14.760 -1.9379 -1.9751  0.7276
  515MPD2    H3 7656   1.248   2.156  14.917 -0.8578 -0.3424  2.7827
  515MPD2     N 7657   1.576   1.857  14.958 -0.0801  0.4351 -0.0011
  515MPD2    H5 7658   1.619   1.925  15.019 -0.4536  0.6806 -0.0123
  515MPD2    N1 7659   1.178   1.766  14.692  0.3114  0.9286 -0.1860
  515MPD2    H7 7660   1.223   1.676  14.690  1.2690  1.4509 -2.6951
  516TMC3    C1 7661   1.023   1.663  14.542  0.2547  0.2050 -0.0806
  516TMC3    C2 7662   0.954   1.683  14.428  0.4519  0.2980 -0.0610
  516TMC3    C3 7663   0.917   1.569  14.360  0.0212  0.0161  0.7448
  516TMC3    C4 7664   1.075   1.540  14.570 -0.4942 -0.2065 -0.2010
  516TMC3    C5 7665   1.052   1.434  14.486  0.0111 -0.3220  0.1094
  516TMC3    C6 7666   0.963   1.442  14.382  0.0942 -1.2788 -0.1258
  516TMC3     C 7667   1.060   1.781  14.621  0.7994  0.2994 -0.3427
  516TMC3     O 7668   0.992   1.884  14.614 -0.0707  0.5713 -0.5148
  516TMC3     H 7669   0.926   1.785  14.401 -0.4805  1.1154  4.0573
  516TMC3    H1 7670   1.128   1.513  14.661 -0.0186  2.2938  0.2401
  516TMC3    H2 7671   0.933   1.354  14.327  0.5714 -1.3050 -0.3456
  516TMC3    C7 7672   1.099   1.305  14.524  0.2041 -0.3842 -0.9273
  516TMC3    C8 7673   0.816   1.578  14.258  0.0925  1.3610  0.0931
  516TMC3    O1 7674   1.068   1.279  14.640  0.4781  0.2939 -0.1338
  516TMC3    O2 7675   0.775   1.476  14.201 -0.0542  0.3858  0.3683
  517MPD2     C 7676   0.739   3.486  17.301  1.0968  0.3077  0.1283
  517MPD2    C1 7677   0.847   3.446  17.378 -0.3075  0.4915 -0.5037
  517MPD2    C2 7678   0.895   3.536  17.468  0.3415 -0.7431 -0.4551
  517MPD2    C3 7679   0.832   3.666  17.480 -0.3506  0.4197  0.7751
  517MPD2    C4 7680   0.727   3.699  17.397  0.4243 -0.8482 -0.3499
  517MPD2    C5 7681   0.684   3.611  17.306  0.5093 -0.3557  0.3551
  517MPD2     H 7682   0.990   3.513  17.515  0.7248  1.2523 -0.2714
  517MPD2    H1 7683   0.685   3.797  17.414 -1.6461 -1.6852 -0.6947
  517MPD2    H2 7684   0.699   3.423  17.222  0.5014  1.1433 -0.2292
  517MPD2    H3 7685   0.594   3.636  17.251  0.6566  0.4029  0.4497
  517MPD2     N 7686   0.874   3.756  17.576  0.4782  0.0347 -0.0064
  517MPD2    H5 7687   0.824   3.844  17.577 -1.6426 -1.1321 -1.6654
  517MPD2    N1 7688   0.928   3.333  17.350  0.3362 -0.1829  0.0064
  517MPD2    H7 7689   1.019   3.334  17.395 -1.7530  2.0424  4.2206
  518TMC3    C1 7690   0.999   3.143  17.240 -0.1333 -0.5833 -0.0236
  518TMC3    C2 7691   0.977   3.028  17.171 -0.1145  0.3719  0.4555
  518TMC3    C3 7692   1.076   2.948  17.125 -0.1063  0.9317  0.2776
  518TMC3    C4 7693   1.127   3.158  17.294 -0.3404  0.5522  0.0552
  518TMC3    C5 7694   1.228   3.078  17.248  0.1533 -0.5431  1.5365
  518TMC3    C6 7695   1.205   2.967  17.170  0.5859  0.1214 -0.0758
  518TMC3     C 7696   0.892   3.234  17.263  0.1745 -0.1417  0.4584
  518TMC3     O 7697   0.795   3.224  17.192  0.0396 -0.0050 -0.1331
  518TMC3     H 7698   0.876   3.004  17.139 -0.3439 -2.2653  3.1889
  518TMC3    H1 7699   1.159   3.248  17.345 -0.6244 -0.4972  2.0973
  518TMC3    H2 7700   1.283   2.909  17.123 -1.0878 -0.7692 -1.7754
  518TMC3    C7 7701   1.366   3.109  17.291 -0.1611 -0.1863  0.1130
  518TMC3    C8 7702   1.043   2.818  17.080 -0.6693 -0.3302 -0.4527
  518TMC3    O1 7703   1.384   3.210  17.358  0.2603  0.3252  0.6938
  518TMC3    O2 7704   1.135   2.737  17.097  0.0582 -0.3077  0.0042
  519MPD2     C 7705   2.653   1.538  14.313 -0.7374 -0.3144 -0.3487
  519MPD2    C1 7706   2.577   1.528  14.200  0.6697  0.3341 -0.0813
  519MPD2    C2 7707   2.607   1.432  14.105 -1.0311 -0.0797  0.1912
  519MPD2    C3 7708   2.728   1.363  14.115  0.4965  0.1139 -0.6875
  519MPD2    C4 7709   2.813   1.386  14.221 -0.5201  0.0752 -0.1235
  519MPD2    C5 7710   2.771   1.470  14.321  0.4893 -0.7416  0.5122
  519MPD2     H 7711   2.558   1.434  14.008  1.6919  1.9219 -1.1640
  519MPD2    H1 7712   2.912   1.343  14.233 -0.4902 -0.3717 -1.8680
  519MPD2    H2 7713   2.622   1.604  14.393  0.2157 -1.1206  0.6780
  519MPD2    H3 7714   2.835   1.472  14.408 -2.0254  1.2973  2.2873
  519MPD2     N 7715   2.771   1.285  14.000  0.2371 -0.1848  0.6426
  519MPD2    H5 7716   2.700   1.249  13.937 -2.2614  0.2747  3.2081
  519MPD2    N1 7717   2.455   1.602  14.204  0.2373 -0.3806  0.1662
  519MPD2    H7 7718   2.448   1.672  14.277 -1.7859 -0.3314 -0.0751
  520TMC3    C1 7719   2.888   1.144  13.870  0.7024  0.0556  0.7024
  520TMC3    C2 7720   2.783   1.149  13.783 -0.2994 -0.1892 -0.9182
  520TMC3    C3 7721   2.782   1.062  13.678  0.0497 -0.4252 -0.7955
  520TMC3    C4 7722   2.986   1.044  13.865 -0.3071  0.2548 -0.3801
  520TMC3    C5 7723   2.966   0.946  13.771 -0.3783 -0.1084 -0.2940
  520TMC3    C6 7724   2.861   0.951  13.676 -0.3483 -0.6237  0.5991
  520TMC3     C 7725   2.891   1.234  13.985 -0.0432 -0.3853 -0.9482
  520TMC3     O 7726   3.000   1.267  14.035  0.0843  0.1505 -0.3630
  520TMC3     H 7727   2.728   1.242  13.784 -1.5277 -0.9580  1.4039
  520TMC3    H1 7728   3.066   1.036  13.938 -1.6766 -0.4824  1.0469
  520TMC3    H2 7729   2.852   0.873  13.601  1.0005 -1.7114  1.5716
  520TMC3    C7 7730   3.061   0.836  13.765  0.2463  0.2727 -0.1684
  520TMC3    C8 7731   2.674   1.064  13.585  0.4176 -0.1545 -0.1910
  520TMC3    O1 7732   3.170   0.860  13.815  0.1221 -0.0462  0.1674
  520TMC3    O2 7733   2.686   0.995  13.485 -0.1217  0.4028 -0.8543
  521MPD2     C 7734   3.454   4.253  17.623 -0.0954 -0.9458  0.7511
  521MPD2    C1 7735   3.410   4.173  17.521 -0.8002  0.6276  0.2180
  521MPD2    C2 7736   3.509   4.114  17.447 -0.0645 -0.0005  0.0992
  521MPD2    C3 7737   3.646   4.117  17.475  0.4318 -0.1602 -0.3945
  521MPD2    C4 7738   3.682   4.183  17.590  0.5304 -0.5322  0.3382
  521MPD2    C5 7739   3.584   4.249  17.664  0.1705  0.1190 -0.1329
  521MPD2     H 7740   3.480   4.056  17.360  1.2235 -0.7467  0.1651
  521MPD2    H1 7741   3.780   4.185  17.635  0.8028  1.6973 -0.4056
  521MPD2    H2 7742   3.381   4.299   0.004  0.5314  0.6703  0.2936
  521MPD2    H3 7743   3.613   4.296   0.072 -0.6865  0.9121 -0.2718
  521MPD2     N 7744   3.737   4.045  17.395 -0.3785 -0.9630 -0.2469
  521MPD2    H5 7745   3.698   3.993  17.317 -1.8463 -0.2548 -0.0003
  521MPD2    N1 7746   3.269   4.172  17.498 -0.0341  0.7352  0.1217
  521MPD2    H7 7747   3.216   4.232  17.560 -0.8250  0.3987 -0.2308
  522TMC3    C1 7748   3.930   3.953  17.320  0.1915  0.5312 -0.1975
  522TMC3    C2 7749   4.060   3.972  17.308 -0.6080  0.6474 -0.3742
  522TMC3    C3 7750   4.130   3.914  17.206 -0.3632  0.4229 -0.2350
  522TMC3    C4 7751   3.859   3.880  17.230 -0.0036 -0.4497  0.9415
  522TMC3    C5 7752   3.927   3.819  17.129 -0.0236 -0.5321 -0.5851
  522TMC3    C6 7753   4.060   3.838  17.113  0.4253 -0.9441 -0.0219
  522TMC3     C 7754   3.869   4.030  17.425  0.0232  0.3545 -0.0187
  522TMC3     O 7755   3.936   4.079  17.516 -0.2017 -0.3204  0.0533
  522TMC3     H 7756   4.111   4.031  17.384  1.4487 -2.1655  0.4249
  522TMC3    H1 7757   3.755   3.854  17.246 -0.1492 -0.1920  0.4204
  522TMC3    H2 7758   4.116   3.787  17.035 -1.1906 -0.5455 -1.4626
  522TMC3    C7 7759   3.861   3.728  17.038 -0.1855 -0.1353  0.0986
  522TMC3    C8 7760   4.273   3.925  17.209 -0.0760  0.4546 -0.1299
  522TMC3    O1 7761   3.929   3.638  16.987 -0.4079 -0.4214  0.8066
  522TMC3    O2 7762   4.323   3.980  17.309  0.8515  0.5250 -0.5948
  523MPD2     C 7763   1.511   3.783  10.029  0.1240 -0.3682 -0.2235
  523MPD2    C1 7764   1.539   3.767   9.899  0.3153 -0.3778 -0.7633
  523MPD2    C2 7765   1.521   3.865   9.805 -0.2251 -0.4411  0.5794
  523MPD2    C3 7766   1.469   3.987   9.847  0.1591 -0.2176 -0.1477
  523MPD2    C4 7767   1.441   4.006   9.981  0.6146 -0.9807 -0.3080
  523MPD2    C5 7768   1.459   3.902  10.069 -0.2076  0.5009 -0.6734
  523MPD2     H 7769   1.531   3.845   9.699  2.9205  1.0823  0.5905
  523MPD2    H1 7770   1.402   4.098  10.024  1.4468 -1.0615  0.6266
  523MPD2    H2 7771   1.531   3.710  10.106 -0.3776 -2.4598 -2.0933
  523MPD2    H3 7772   1.429   3.921  10.171 -1.8654  0.1861 -1.1131
  523MPD2     N 7773   1.452   4.097   9.757  0.1436 -0.1374  0.0370
  523MPD2    H5 7774   1.428   4.183   9.805  0.6853  0.6503 -1.0965
  523MPD2    N1 7775   1.580   3.636   9.860  0.3306  0.2546 -0.3558
  523MPD2    H7 7776   1.578   3.565   9.932 -0.2263  0.7864  0.1494
  524TMC3    C1 7777   1.400   4.223   9.560  0.3414 -0.1238 -0.6403
  524TMC3    C2 7778   1.380   4.215   9.422 -0.3229 -0.3518 -0.1602
  524TMC3    C3 7779   1.334   4.333   9.364 -0.7359 -0.2310 -0.0928
  524TMC3    C4 7780   1.390   4.342   9.634  0.8482 -0.9440  0.2743
  524TMC3    C5 7781   1.330   4.449   9.572 -0.4205  0.2347 -0.1099
  524TMC3    C6 7782   1.314   4.449   9.434 -0.1194  0.3025 -0.0211
  524TMC3     C 7783   1.429   4.088   9.616  0.0633  0.6004 -0.1310
  524TMC3     O 7784   1.434   3.988   9.541 -0.0329  0.7367 -0.7625
  524TMC3     H 7785   1.373   4.119   9.373 -0.5447 -0.0334 -0.7480
  524TMC3    H1 7786   1.411   4.342   9.740 -1.2772 -0.9725  0.6831
  524TMC3    H2 7787   1.266   4.524   9.372  1.1419  1.6120  0.5929
  524TMC3    C7 7788   1.259   4.550   9.648 -0.5187  0.0636  0.1795
  524TMC3    C8 7789   1.249   4.318   9.242 -0.0112  0.4776 -0.7166
  524TMC3    O1 7790   1.281   4.547   9.769 -0.0356 -0.0979  0.2828
  524TMC3    O2 7791   1.171   4.409   9.213 -0.0513  0.1208  0.4434
  525MPD2     C 7792   4.153   0.559  14.340 -0.0995 -0.2040  0.1721
  525MPD2    C1 7793   4.232   0.633  14.425 -0.4621 -0.1978 -0.3677
  525MPD2    C2 7794   4.291   0.749  14.379 -0.3721 -0.2366  0.1364
  525MPD2    C3 7795   4.257   0.793  14.251 -0.3746  0.1820 -0.2932
  525MPD2    C4 7796   4.165   0.721  14.179  0.8532  0.1812  0.2740
  525MPD2    C5 7797   4.113   0.602  14.224 -0.0345 -0.0896 -0.0689
  525MPD2     H 7798   4.351   0.815  14.442 -2.5873  0.0471  1.9467
  525MPD2    H1 7799   4.146   0.749  14.076  0.5651  1.5075  0.6873
  525MPD2    H2 7800   4.105   0.468  14.374  5.1650 -1.7573  3.4323
  525MPD2    H3 7801   4.048   0.541  14.162  0.3042 -1.0974  0.5571
  525MPD2     N 7802   4.298   0.912  14.194  0.7224  0.1294 -0.0171
  525MPD2    H5 7803   4.263   0.935  14.101  0.9339  1.2893  0.1893
  525MPD2    N1 7804   4.258   0.584  14.553  0.4683 -0.3712 -0.4532
  525MPD2    H7 7805   4.319   0.645  14.608  0.8626 -2.2885  1.2482
  526TMC3    C1 7806   4.216   0.489  14.765  0.1137  0.7289  0.3625
  526TMC3    C2 7807   4.117   0.460  14.856 -0.1411 -0.1648  0.8442
  526TMC3    C3 7808   4.154   0.415  14.976 -0.0200 -0.3472 -0.2202
  526TMC3    C4 7809   4.351   0.454  14.783 -0.2379 -0.0642 -0.8949
  526TMC3    C5 7810   4.377   0.395  14.901 -0.1341  0.0435  0.1276
  526TMC3    C6 7811   4.282   0.369  14.997 -0.2687  0.3069  0.1573
  526TMC3     C 7812   4.184   0.488  14.626 -0.7646 -0.7024 -0.1660
  526TMC3     O 7813   4.082   0.431  14.595 -0.4776  0.5777  0.2481
  526TMC3     H 7814   4.011   0.471  14.834  0.2177  1.0044 -0.2649
  526TMC3    H1 7815   4.430   0.473  14.711 -0.6519 -0.3657 -1.4274
  526TMC3    H2 7816   4.311   0.329  15.093  1.7347  1.6882  0.1001
  526TMC3    C7 7817   4.495   0.321  14.924  0.5811  0.2499  0.6360
  526TMC3    C8 7818   4.117   0.506  15.083  0.4904  0.0998 -0.8169
  526TMC3    O1 7819   4.520   0.300  15.041  0.0202  0.0109 -0.2700
  526TMC3    O2 7820   4.196   0.522  15.175 -0.4429  0.1826 -0.3199
  527MPD2     C 7821   2.413   3.925   1.070 -0.0492  0.6876  0.2024
  527MPD2    C1 7822   2.476   3.888   1.190  0.0574  0.4079 -0.0661
  527MPD2    C2 7823   2.589   3.809   1.181 -0.1597  0.3469  0.2492
  527MPD2    C3 7824   2.637   3.767   1.062  0.2549 -0.4021  0.1547
  527MPD2    C4 7825   2.574   3.803   0.941  0.8351 -0.2207 -0.3237
  527MPD2    C5 7826   2.462   3.882   0.952  0.7999  0.7345  1.3548
  527MPD2     H 7827   2.637   3.772   1.270 -3.6429  2.8286  3.1798
  527MPD2    H1 7828   2.618   3.804   0.843  0.6429 -1.2927 -0.4170
  527MPD2    H2 7829   2.319   3.978   1.073 -0.5293 -0.0905 -0.9967
  527MPD2    H3 7830   2.422   3.915   0.857  0.8337  1.1771  1.4944
  527MPD2     N 7831   2.756   3.696   1.065  0.4462  0.7402 -0.0916
  527MPD2    H5 7832   2.808   3.699   1.152 -0.9819  1.8617  0.7144
  527MPD2    N1 7833   2.425   3.920   1.317 -0.0796  0.0434  0.0988
  527MPD2    H7 7834   2.466   3.863   1.391 -0.7669 -0.4310  0.1148
  528TMC3    C1 7835   2.311   4.038   1.484 -0.3149  0.6757  0.6036
  528TMC3    C2 7836   2.411   4.011   1.571  0.7030  0.4129  0.0190
  528TMC3    C3 7837   2.385   4.019   1.704  0.6294  0.4065  0.8264
  528TMC3    C4 7838   2.185   4.080   1.517 -0.4399 -0.6380 -0.3233
  528TMC3    C5 7839   2.163   4.092   1.655  0.7480  0.6757  0.0189
  528TMC3    C6 7840   2.263   4.061   1.745 -0.5096  0.0474 -0.3752
  528TMC3     C 7841   2.336   4.019   1.347 -0.2909  0.0016 -0.2319
  528TMC3     O 7842   2.287   4.098   1.271 -0.1824  0.0074 -0.0894
  528TMC3     H 7843   2.504   3.971   1.533 -0.5657 -0.8388 -1.7404
  528TMC3    H1 7844   2.110   4.106   1.444 -1.3985  0.1857  0.9541
  528TMC3    H2 7845   2.252   4.048   1.852 -0.6241  4.2104  0.1390
  528TMC3    C7 7846   2.029   4.103   1.702 -0.3157 -0.1235 -0.4868
  528TMC3    C8 7847   2.485   3.980   1.807 -0.1758  0.2075  0.3519
  528TMC3    O1 7848   2.022   4.109   1.828  0.2934  0.1546  0.0027
  528TMC3    O2 7849   2.465   4.007   1.926 -0.3222  0.0303  0.1744
  529MPD2     C 7850   4.708   1.792   0.028 -0.2690  0.2601 -0.2473
  529MPD2    C1 7851   4.610   1.846   0.101 -0.2768 -0.1976  0.5284
  529MPD2    C2 7852   4.525   1.946   0.044 -0.0432 -0.0562  0.2327
  529MPD2    C3 7853   4.551   2.003  17.602  0.1879  0.1529 -0.0562
  529MPD2    C4 7854   4.656   1.945  17.535  0.1429  0.2891  0.8602
  529MPD2    C5 7855   0.006   1.841  17.591 -0.0600 -0.8740 -1.0730
  529MPD2     H 7856   4.452   1.990   0.110  0.3281  0.5677  0.2232
  529MPD2    H1 7857   4.674   1.982  17.435 -3.0728 -0.0627  0.1628
  529MPD2    H2 7858   0.052   1.707   0.049 -2.2596 -1.5722 -1.5568
  529MPD2    H3 7859   0.096   1.804  17.543  0.1244 -2.4486  0.4580
  529MPD2     N 7860   4.492   2.119  17.550 -0.0230  0.9781 -0.1889
  529MPD2    H5 7861   4.533   2.150  17.462 -2.7970  0.2800 -1.7052
  529MPD2    N1 7862   4.586   1.801   0.234 -0.4442  0.3398  0.0959
  529MPD2    H7 7863   4.511   1.844   0.288  0.9050  1.7478  0.8465
  530TMC3    C1 7864   4.581   1.664   0.427  0.5469  0.4566  0.1334
  530TMC3    C2 7865   4.586   1.770   0.511  0.6657 -0.5388  0.0668
  530TMC3    C3 7866   4.561   1.733   0.641  0.0780 -0.4350  0.4676
  530TMC3    C4 7867   4.572   1.532   0.459 -0.1672  0.1131 -0.1231
  530TMC3    C5 7868   4.554   1.507   0.589 -0.4677  0.0565 -0.2495
  530TMC3    C6 7869   4.551   1.602   0.688  0.0828  0.4981  0.8626
  530TMC3     C 7870   4.632   1.685   0.293  0.1323 -0.4787  1.0008
  530TMC3     O 7871   4.703   1.595   0.251  0.0892 -0.3538  0.0493
  530TMC3     H 7872   4.601   1.872   0.480  0.7469 -1.0502 -1.5775
  530TMC3    H1 7873   4.593   1.451   0.391  4.9032  2.9144 -1.8675
  530TMC3    H2 7874   4.527   1.583   0.792  2.7390  0.1365  1.4146
  530TMC3    C7 7875   4.567   1.366   0.625  0.3196 -0.0510 -0.0183
  530TMC3    C8 7876   4.545   1.839   0.734  0.4193  0.2730  0.7424
  530TMC3    O1 7877   4.529   1.281   0.548 -0.2027 -0.5011  0.1902
  530TMC3    O2 7878   4.474   1.930   0.701 -0.6982 -0.3166 -0.8036
  531MPD2     C 7879   3.985   4.056  12.295  1.1477 -0.2404  0.2755
  531MPD2    C1 7880   3.861   4.109  12.322 -0.5345 -0.3277 -0.7229
  531MPD2    C2 7881   3.751   4.037  12.290 -0.1740 -0.4107  0.0386
  531MPD2    C3 7882   3.760   3.911  12.247 -0.0881  0.5552 -0.3222
  531MPD2    C4 7883   3.879   3.854  12.210  0.3865  0.1154 -0.1782
  531MPD2    C5 7884   3.989   3.934  12.231  0.2988  0.1207 -0.0846
  531MPD2     H 7885   3.658   4.090  12.306  0.6475  1.3820 -1.0848
  531MPD2    H1 7886   3.894   3.754  12.170  0.1732 -0.0632  0.1893
  531MPD2    H2 7887   4.075   4.110  12.323 -0.2537  2.0503  0.3714
  531MPD2    H3 7888   4.085   3.892  12.204  0.3210 -1.0389  1.7894
  531MPD2     N 7889   3.636   3.843  12.235  0.5003  0.3985  0.8376
  531MPD2    H5 7890   3.559   3.884  12.286  0.0682 -0.3649  0.8094
  531MPD2    N1 7891   3.829   4.227  12.399 -0.5623  0.3669  0.0471
  531MPD2    H7 7892   3.729   4.244  12.396 -0.7418 -0.3089  2.4915
  532TMC3    C1 7893   3.859   4.404  12.557 -0.2141 -0.3044  0.3718
  532TMC3    C2 7894   3.722   4.433  12.554 -0.2104  0.6720  0.0895
  532TMC3    C3 7895   3.666   4.503  12.657  0.4682  0.1545  0.7105
  532TMC3    C4 7896   3.938   4.440  12.654 -0.3333  0.6116 -0.0247
  532TMC3    C5 7897   3.886   4.526  12.749 -0.4888  0.2890 -0.6309
  532TMC3    C6 7898   3.752   4.550  12.762 -0.5939  0.8921 -0.1842
  532TMC3     C 7899   3.920   4.299  12.477 -0.1639 -0.0508  0.1451
  532TMC3     O 7900   4.040   4.272  12.494  0.1791  0.2280 -0.1332
  532TMC3     H 7901   3.667   4.425  12.461 -0.9537 -1.1943  0.6806
  532TMC3    H1 7902   4.045   4.422  12.644 -0.7179 -2.4662  1.1899
  532TMC3    H2 7903   3.707   4.604  12.844 -1.8643  0.4691 -0.6030
  532TMC3    C7 7904   3.955   4.530  12.875  0.2190  0.3454  0.6995
  532TMC3    C8 7905   3.527   4.494  12.684 -0.0732 -0.5300  0.0877
  532TMC3    O1 7906   3.966   4.636  12.932  0.8633 -0.2213  0.1278
  532TMC3    O2 7907   3.489   4.544  12.787 -0.8056  0.4903  0.4176
  533TMC3    C1 7908   4.408   1.109  14.167  0.0982  0.0805 -0.4427
  533TMC3    C2 7909   4.526   1.177  14.196 -0.1331 -0.4693  0.1600
  533TMC3    C3 7910   4.526   1.312  14.179  0.1301 -0.8662 -0.1075
  533TMC3    C4 7911   4.295   1.174  14.130 -0.1706 -0.1568 -0.4317
  533TMC3    C5 7912   4.305   1.312  14.128  0.3205 -0.0299 -0.1960
  533TMC3    C6 7913   4.420   1.382  14.143  0.2399  0.0207  0.3936
  533TMC3     C 7914   4.399   0.992  14.243 -0.5455 -0.1758 -0.4286
  533TMC3     O 7915   4.477   0.984  14.337  0.1321  0.7694  0.3120
  533TMC3     H 7916   4.612   1.119  14.228 -0.5938  0.8075  3.7618
  533TMC3    H1 7917   4.202   1.123  14.105  0.9586 -2.0226 -0.7608
  533TMC3    H2 7918   4.421   1.486  14.114  2.7543  0.2234  1.1862
  533TMC3    C7 7919   4.204   1.359  14.217 -0.1524 -0.2167  0.4747
  533TMC3    C8 7920   4.648   1.393  14.219  0.6253  0.5524  0.2279
  533TMC3    O1 7921   4.132   1.267  14.252 -0.0378 -0.5350  0.5845
  533TMC3    O2 7922   0.002   1.338  14.297  0.3328 -0.4036  0.2651
  534MPD2     C 7923   1.873   3.178   2.104  0.4823 -0.3019  0.6623
  534MPD2    C1 7924   1.954   3.198   1.998 -0.1061 -0.0001 -0.5467
  534MPD2    C2 7925   1.928   3.134   1.882 -0.4462 -0.5892 -0.1737
  534MPD2    C3 7926   1.813   3.069   1.862  0.4581  0.3724 -0.0553
  534MPD2    C4 7927   1.733   3.042   1.973 -0.0754 -0.3369 -0.3663
  534MPD2    C5 7928   1.758   3.104   2.091  0.4519 -0.6743 -0.3318
  534MPD2     H 7929   1.992   3.145   1.795  0.0578 -1.2315  0.1192
  534MPD2    H1 7930   1.645   2.979   1.967 -1.4894  1.3379  2.9916
  534MPD2    H2 7931   1.908   3.212   2.201  0.8549 -0.5841  0.6280
  534MPD2    H3 7932   1.697   3.085   2.178  0.5305 -1.2564 -0.4054
  534MPD2     N 7933   1.783   3.008   1.739 -0.0077  0.2453  0.2658
  534MPD2    H5 7934   1.689   2.974   1.722 -0.6774  2.1383  0.1593
  534MPD2    N1 7935   2.062   3.286   2.004  0.4849 -0.9539  0.0246
  534MPD2    H7 7936   2.107   3.307   1.916  0.8061 -0.7306  0.2460
  535TMC3    C1 7937   1.817   2.949   1.517  0.4988  0.0384  0.5607
  535TMC3    C2 7938   1.684   2.957   1.492 -0.0686 -0.2591 -0.8695
  535TMC3    C3 7939   1.640   2.889   1.386 -0.1865  0.3922  0.3558
  535TMC3    C4 7940   1.908   2.908   1.428  0.3902  0.4246 -0.1931
  535TMC3    C5 7941   1.861   2.855   1.313 -0.2348 -0.6163 -0.2545
  535TMC3    C6 7942   1.727   2.836   1.294 -0.1355 -0.8239  0.5177
  535TMC3     C 7943   1.869   3.008   1.635  0.4714  0.2089  0.7666
  535TMC3     O 7944   1.989   3.033   1.621 -0.4405 -0.7247 -0.0495
  535TMC3     H 7945   1.618   3.011   1.559  1.6281 -0.4963  0.9520
  535TMC3    H1 7946   2.013   2.893   1.450 -0.4512 -1.8038  2.1814
  535TMC3    H2 7947   1.688   2.786   1.206 -0.1604  1.4841 -0.7904
  535TMC3    C7 7948   1.954   2.834   1.206 -0.3695  0.2655 -0.2614
  535TMC3    C8 7949   1.501   2.850   1.366  0.1919  0.3451  0.1756
  535TMC3    O1 7950   1.964   2.722   1.155  0.4105  0.7859 -0.2870
  535TMC3    O2 7951   1.465   2.757   1.297 -0.0563 -0.3294 -0.5675
  536MPD2     C 7952   0.854   0.977  16.208 -0.5683  0.1940 -0.4957
  536MPD2    C1 7953   0.736   0.922  16.241 -0.2427 -0.0158 -0.5113
  536MPD2    C2 7954   0.643   0.896  16.137 -0.5302 -0.7641  0.0494
  536MPD2    C3 7955   0.678   0.915  16.003  0.1274  0.0251 -0.1289
  536MPD2    C4 7956   0.801   0.974  15.970  0.1423  0.5629 -0.1094
  536MPD2    C5 7957   0.882   1.005  16.080  0.3661  0.0133  0.4437
  536MPD2     H 7958   0.546   0.852  16.158 -0.9540  1.3985  2.6337
  536MPD2    H1 7959   0.843   0.983  15.871 -2.1504  2.5271 -0.8930
  536MPD2    H2 7960   0.925   0.999  16.286  0.2355 -0.3421 -1.0710
  536MPD2    H3 7961   0.980   1.048  16.064 -0.2909  0.5553 -1.9842
  536MPD2     N 7962   0.600   0.873  15.896  0.2746  0.4962  0.0649
  536MPD2    H5 7963   0.631   0.904  15.805  0.9504 -0.2148  0.0558
  536MPD2    N1 7964   0.716   0.892  16.377  0.1746  0.5722  0.5110
  536MPD2    H7 7965   0.794   0.907  16.441 -1.6062  2.5226  2.2526
  537TMC3    C1 7966   0.605   0.815  16.567  0.1507  1.0203  0.4494
  537TMC3    C2 7967   0.690   0.894  16.641 -0.0191 -0.4806  0.0174
  537TMC3    C3 7968   0.706   0.870  16.773  0.4709 -0.5872  0.1087
  537TMC3    C4 7969   0.535   0.711  16.622 -0.2900 -0.2477 -0.7629
  537TMC3    C5 7970   0.565   0.682  16.754  0.0170 -0.5868  0.4223
  537TMC3    C6 7971   0.646   0.761  16.834  0.2250 -0.5967  0.3026
  537TMC3     C 7972   0.598   0.838  16.428 -0.1052  0.3542 -0.4391
  537TMC3     O 7973   0.510   0.778  16.365 -0.0502  0.1961  0.2827
  537TMC3     H 7974   0.718   0.988  16.595 -0.2699 -1.2677 -1.7311
  537TMC3    H1 7975   0.462   0.661  16.560 -0.7619 -0.3941 -0.0883
  537TMC3    H2 7976   0.657   0.753  16.941 -0.5620 -1.3349  0.3315
  537TMC3    C7 7977   0.495   0.574  16.827 -0.1412 -0.5052  0.4839
  537TMC3    C8 7978   0.744   0.977  16.864  0.5635  0.1524 -0.0332
  537TMC3    O1 7979   0.373   0.566  16.815 -0.3794  0.6376  0.2131
  537TMC3    O2 7980   0.799   0.943  16.968  0.4760  0.0537  0.6266
  538TMC3    C1 7981   2.426   3.741  10.891 -0.2672 -0.1107  0.9122
  538TMC3    C2 7982   2.485   3.764  10.763 -0.6162 -0.2075  0.0926
  538TMC3    C3 7983   2.416   3.835  10.673  0.2116  1.2696 -0.6618
  538TMC3    C4 7984   2.298   3.788  10.918  0.2530  0.2861  0.3935
  538TMC3    C5 7985   2.240   3.864  10.821 -0.1373  0.0101  0.1153
  538TMC3    C6 7986   2.289   3.879  10.694  0.2297 -0.9131  0.3095
  538TMC3     C 7987   2.447   3.608  10.950 -0.6184 -0.8590 -1.0042
  538TMC3     O 7988   2.344   3.540  10.971 -0.0752 -0.4002 -0.2814
  538TMC3     H 7989   2.587   3.734  10.741 -1.3616 -0.2560 -3.3190
  538TMC3    H1 7990   2.265   3.763  11.018  1.6528  2.2514  1.3638
  538TMC3    H2 7991   2.230   3.932  10.619  0.2179 -1.6478 -0.2018
  538TMC3    C7 7992   2.119   3.940  10.839 -0.5846  0.0066 -0.3883
  538TMC3    C8 7993   2.478   3.854  10.544  0.2334 -0.5001 -0.9172
  538TMC3    O1 7994   2.076   4.018  10.753 -0.0804 -0.0648 -0.0458
  538TMC3    O2 7995   2.595   3.881  10.534  0.4385 -0.0913 -0.4885
  539MPD2     C 7996   2.307   3.485  11.292  0.4968 -0.4508  0.3969
  539MPD2    C1 7997   2.188   3.414  11.277  0.0577  0.7850  0.5105
  539MPD2    C2 7998   2.071   3.482  11.305  0.3518 -0.0913  0.5914
  539MPD2    C3 7999   2.070   3.614  11.344 -0.4282 -0.0876 -0.4157
  539MPD2    C4 8000   2.191   3.679  11.365  0.4279  0.6014  0.7999
  539MPD2    C5 8001   2.307   3.616  11.330 -0.1385 -0.4408  0.2944
  539MPD2     H 8002   1.971   3.439  11.304  1.1711 -1.8803 -2.1955
  539MPD2    H1 8003   2.192   3.780  11.404 -0.0039  1.4993 -1.5060
  539MPD2    H2 8004   2.402   3.436  11.272  1.8145  1.6061  1.6608
  539MPD2    H3 8005   2.401   3.666  11.349 -0.4332 -0.1410  0.9367
  539MPD2     N 8006   1.951   3.688  11.364  0.1930 -0.1719 -0.2363
  539MPD2    H5 8007   1.960   3.780  11.405  0.9304 -0.1807 -0.3757
  539MPD2    N1 8008   2.172   3.279  11.241 -0.0991  0.2609 -0.1532
  539MPD2    H7 8009   2.075   3.248  11.241  0.1205 -0.4129  0.7495
  540TMC3    C1 8010   1.742   3.766  11.304  1.1240 -0.5810  0.5629
  540TMC3    C2 8011   1.674   3.781  11.188 -0.3196  0.1029 -0.2034
  540TMC3    C3 8012   1.576   3.866  11.186 -0.2793  0.3185  0.2116
  540TMC3    C4 8013   1.704   3.823  11.422 -0.3473 -0.4911  0.1949
  540TMC3    C5 8014   1.597   3.913  11.418  1.0112 -0.6581 -0.5053
  540TMC3    C6 8015   1.541   3.939  11.297 -1.0114  0.0768  0.3979
  540TMC3     C 8016   1.836   3.651  11.310  0.4795 -0.8986  0.1741
  540TMC3     O 8017   1.809   3.559  11.225 -0.5266 -0.4391 -0.4292
  540TMC3     H 8018   1.712   3.734  11.098 -0.2073 -0.7021  0.2645
  540TMC3    H1 8019   1.750   3.787  11.513 -1.1861 -2.2906 -0.0961
  540TMC3    H2 8020   1.457   4.007  11.298  0.6104  2.0561  2.0931
  540TMC3    C7 8021   1.517   3.931  11.530  0.1140  0.3290 -0.4034
  540TMC3    C8 8022   1.492   3.873  11.072  0.0753 -0.0214  0.2756
  540TMC3    O1 8023   1.482   3.822  11.578  0.3866  0.2375  0.4354
  540TMC3    O2 8024   1.435   3.981  11.058 -0.0097  0.1774 -0.1528
  541MPD2     C 8025   0.469   4.629  13.444  0.1732  0.6472  0.4091
  541MPD2    C1 8026   0.443   4.527  13.358  0.2274  0.2455  0.1790
  541MPD2    C2 8027   0.417   4.569  13.227  0.2492  0.1085  0.5132
  541MPD2    C3 8028   0.400   4.696  13.190 -0.0816  0.0085  0.3250
  541MPD2    C4 8029   0.426   0.076  13.285 -0.2659 -0.2710  0.2290
  541MPD2    C5 8030   0.453   0.037  13.413  0.6299  0.0032 -0.8023
  541MPD2     H 8031   0.402   4.486  13.158  2.0409  0.2184 -0.0149
  541MPD2    H1 8032   0.425   0.179  13.253 -0.3061  0.2932  2.0985
  541MPD2    H2 8033   0.486   4.599  13.547 -1.5014 -0.6501  0.3079
  541MPD2    H3 8034   0.471   0.110  13.492 -1.0876  0.3838 -0.7539
  541MPD2     N 8035   0.349   0.010  13.059  0.0525 -0.1493  0.1723
  541MPD2    H5 8036   0.346   0.110  13.045 -0.4562  0.1089  2.1343
  541MPD2    N1 8037   0.461   4.390  13.374  0.0280  0.0665 -1.1933
  541MPD2    H7 8038   0.474   4.334  13.291 -0.1814  1.1842 -1.9893
  542TMC3    C1 8039   0.267   4.713  12.839  0.3901 -0.7993 -0.6064
  542TMC3    C2 8040   0.297   4.646  12.719  0.3822  0.0636 -0.1975
  542TMC3    C3 8041   0.257   4.699  12.602 -0.2389  0.0246  0.1256
  542TMC3    C4 8042   0.194   0.102  12.847 -0.7736 -0.4061  0.4039
  542TMC3    C5 8043   0.144   0.151  12.729 -0.2636  0.7760 -0.1531
  542TMC3    C6 8044   0.171   0.087  12.612 -0.2016  0.0589 -0.5843
  542TMC3     C 8045   0.315   4.643  12.957  0.1019  0.3944 -0.3531
  542TMC3     O 8046   0.323   4.521  12.946  0.9904 -0.2185  0.4382
  542TMC3     H 8047   0.355   4.555  12.719  1.0630  0.4933  0.9523
  542TMC3    H1 8048   0.166   0.151  12.940 -0.1390  1.2392 -0.2676
  542TMC3    H2 8049   0.159   0.146  12.522  1.1752  0.6418 -0.3765
  542TMC3    C7 8050   0.064   0.275  12.726  0.2328 -0.1044 -0.3754
  542TMC3    C8 8051   0.292   4.636  12.480 -0.2959  0.0343  0.1606
  542TMC3    O1 8052   4.688   0.273  12.651 -0.0743 -0.1131  0.2456
  542TMC3    O2 8053   0.237   4.687  12.382  0.3165  0.0455  0.4210
  543TMC3    C1 8054   4.173   0.850  17.306 -0.2051 -0.7049 -0.8189
  543TMC3    C2 8055   4.153   0.715  17.331  0.4622 -0.4872 -0.1024
  543TMC3    C3 8056   4.149   0.673  17.465  0.4100  0.1724  1.2067
  543TMC3    C4 8057   4.181   0.943  17.406 -0.5488 -0.1806  0.3744
  543TMC3    C5 8058   4.190   0.903  17.532  0.7256  0.3932  0.2667
  543TMC3    C6 8059   4.167   0.767  17.563 -0.2102 -0.3216  0.2728
  543TMC3     C 8060   4.179   0.902  17.164  0.4950  0.5208 -0.8807
  543TMC3     O 8061   4.236   0.826  17.084 -0.3859  0.0590  0.0737
  543TMC3     H 8062   4.166   0.639  17.254 -1.0395  0.6012 -1.4229
  543TMC3    H1 8063   4.180   1.049  17.383 -1.6192 -0.0591  0.9610
  543TMC3    H2 8064   4.195   0.743  17.665 -1.6030 -0.8303  0.5306
  543TMC3    C7 8065   4.220   0.993  17.643  0.0972  0.3637 -0.9341
  543TMC3    C8 8066   4.160   0.534  17.505 -0.3505 -0.6880  0.2895
  543TMC3    O1 8067   4.190   0.961   0.073  0.6860  0.2285  0.1313
  543TMC3    O2 8068   4.196   0.461  17.413 -0.2282 -0.3876 -0.5117
  544MPD2     C 8069   4.128   0.155   0.163 -0.4770 -0.0657  0.0981
  544MPD2    C1 8070   4.156   0.148   0.024  0.4154 -0.3499 -0.1267
  544MPD2    C2 8071   4.152   0.264  17.633 -0.1022 -0.0786 -0.3746
  544MPD2    C3 8072   4.107   0.387   0.006 -0.1245 -0.3937  0.0277
  544MPD2    C4 8073   4.074   0.388   0.141  0.5682 -0.2090  0.4204
  544MPD2    C5 8074   4.084   0.275   0.215 -0.3109 -0.4365 -0.2362
  544MPD2     H 8075   4.185   0.252  17.530  0.6009 -0.3433 -0.1214
  544MPD2    H1 8076   4.052   0.478   0.198  1.4476  2.0112 -2.7325
  544MPD2    H2 8077   4.152   0.071   0.228  1.3240  0.5381  0.2115
  544MPD2    H3 8078   4.067   0.294   0.320 -2.8112 -0.2237 -0.6845
  544MPD2     N 8079   4.119   0.511  17.628 -0.1332 -0.1603 -0.6266
  544MPD2    H5 8080   4.098   0.589   0.003 -1.7104 -3.0700  2.6021
  544MPD2    N1 8081   4.198   0.021  17.653 -0.0149 -0.4342 -0.5080
  544MPD2    H7 8082   4.229   4.671   0.034 -1.4458 -1.4824 -0.9731
  545TMC3    C1 8083   4.246   4.575  17.493 -0.7749 -0.2193 -0.4679
  545TMC3    C2 8084   4.203   4.527  17.374  0.3733  0.2624  0.1059
  545TMC3    C3 8085   4.237   4.403  17.334  0.2743  0.4727 -0.0508
  545TMC3    C4 8086   4.330   4.506  17.572  0.0729  0.8085 -0.6629
  545TMC3    C5 8087   4.369   4.385  17.527  0.3851 -0.6114 -0.2488
  545TMC3    C6 8088   4.319   4.323  17.409 -0.8713  0.5150  0.0465
  545TMC3     C 8089   4.215   4.715  17.516  0.1521 -0.7018  0.5329
  545TMC3     O 8090   4.201   0.056  17.413  0.1957 -0.0281  0.5166
  545TMC3     H 8091   4.131   4.583  17.316 -0.7080  1.1743  2.2992
  545TMC3    H1 8092   4.358   4.544  17.669 -1.2680  1.2839 -0.4577
  545TMC3    H2 8093   4.352   4.225  17.378  0.4662  1.1997 -0.6985
  545TMC3    C7 8094   4.448   4.303  17.620  0.8390  1.1737 -1.1257
  545TMC3    C8 8095   4.166   4.345  17.228  0.3422 -0.1204  0.6092
  545TMC3    O1 8096   4.435   4.180  17.610 -0.1609 -0.0138  0.4076
  545TMC3    O2 8097   4.060   4.397  17.214 -0.4417 -0.5078 -0.2487
  546MPD2     C 8098   0.967   1.508  17.500  0.4308 -0.3212 -0.5499
  546MPD2    C1 8099   0.880   1.539  17.398  0.5863 -0.1519 -0.5663
  546MPD2    C2 8100   0.921   1.628  17.305  0.4249  0.3473 -0.8728
  546MPD2    C3 8101   1.034   1.710  17.318  0.2618 -1.1397  0.2921
  546MPD2    C4 8102   1.120   1.681  17.423  0.2427  0.7174 -0.3097
  546MPD2    C5 8103   1.089   1.579  17.508  0.2755 -0.3495 -0.2799
  546MPD2     H 8104   0.850   1.661  17.231 -0.3600 -0.4674 -0.4815
  546MPD2    H1 8105   1.208   1.738  17.450  0.0640  0.1177  1.5534
  546MPD2    H2 8106   0.940   1.442  17.581  4.6374 -0.6790  0.5482
  546MPD2    H3 8107   1.158   1.553  17.587 -0.8621  0.0962  0.8589
  546MPD2     N 8108   1.068   1.805  17.218 -0.4269 -0.2461 -0.2809
  546MPD2    H5 8109   1.161   1.843  17.235 -1.1825  1.1960  0.5609
  546MPD2    N1 8110   0.763   1.458  17.383  0.0068 -0.1274 -0.2874
  546MPD2    H7 8111   0.757   1.369  17.432  0.8532 -0.3369 -0.5590
  547TMC3    C1 8112   0.581   1.362  17.279  0.4142 -0.0981  0.0366
  547TMC3    C2 8113   0.533   1.353  17.148  0.2306 -0.0969  0.0810
  547TMC3    C3 8114   0.409   1.291  17.139  0.1341 -0.8285 -0.5521
  547TMC3    C4 8115   0.517   1.316  17.388 -0.2414 -0.2700 -0.0314
  547TMC3    C5 8116   0.393   1.265  17.370 -0.3599 -0.7250 -0.2383
  547TMC3    C6 8117   0.340   1.250  17.251 -0.1177 -0.5236  0.0222
  547TMC3     C 8118   0.663   1.479  17.294  0.2611 -0.2036 -0.3409
  547TMC3     O 8119   0.624   1.572  17.224  0.8021  0.2500  0.0475
  547TMC3     H 8120   0.590   1.394  17.066  1.6612 -1.1249  0.5638
  547TMC3    H1 8121   0.557   1.330  17.488  0.0335 -3.9236  0.3650
  547TMC3    H2 8122   0.239   1.216  17.232  0.2397 -1.3356 -0.4163
  547TMC3    C7 8123   0.351   1.180  17.483  0.8212 -0.3415  0.0829
  547TMC3    C8 8124   0.336   1.303  17.015  0.8718  0.2121  0.4172
  547TMC3    O1 8125   0.386   1.231  17.590 -0.2331  0.4226  0.0911
  547TMC3    O2 8126   0.225   1.256  17.014  0.1568 -0.7171 -0.1962
  548MPD2     C 8127   0.874   1.924  12.435 -0.0767  0.0286 -0.0866
  548MPD2    C1 8128   0.818   1.803  12.467 -0.2654  0.3434 -0.7255
  548MPD2    C2 8129   0.877   1.690  12.415 -0.3101  0.6860  0.4315
  548MPD2    C3 8130   1.003   1.697  12.354 -0.5754  0.1244  0.8863
  548MPD2    C4 8131   1.060   1.819  12.326 -0.0821 -0.1846  0.2039
  548MPD2    C5 8132   0.987   1.929  12.362  0.1115 -0.8783 -0.3263
  548MPD2     H 8133   0.841   1.590  12.432  2.2069 -0.1176  0.9649
  548MPD2    H1 8134   1.155   1.822  12.273 -0.0745 -0.5324  0.1990
  548MPD2    H2 8135   0.834   2.014  12.481 -0.8524 -1.9516  3.0753
  548MPD2    H3 8136   1.027   2.026  12.336 -1.2500 -0.7201 -1.8597
  548MPD2     N 8137   1.071   1.576  12.309  0.1837 -0.0098  0.0698
  548MPD2    H5 8138   1.159   1.595  12.262 -0.3689 -0.1325 -1.0071
  548MPD2    N1 8139   0.702   1.800  12.554  0.1036 -0.1020  0.0454
  548MPD2    H7 8140   0.669   1.891  12.585  3.3586  0.8707  0.6225
  549TMC3    C1 8141   0.552   1.702  12.706 -0.3611 -0.3882 -0.2636
  549TMC3    C2 8142   0.451   1.789  12.676 -0.6321 -0.3954  0.3881
  549TMC3    C3 8143   0.331   1.777  12.736 -0.3062 -0.2991 -0.2030
  549TMC3    C4 8144   0.520   1.597  12.780 -0.1926 -0.7474 -0.2805
  549TMC3    C5 8145   0.398   1.589  12.840  0.0443 -0.0115  0.0155
  549TMC3    C6 8146   0.299   1.684  12.823  0.5241 -0.4094  1.1641
  549TMC3     C 8147   0.644   1.683  12.598 -0.2345 -0.5913 -0.1562
  549TMC3     O 8148   0.670   1.565  12.567  0.1576  0.0227  0.1808
  549TMC3     H 8149   0.471   1.870  12.606 -1.7728 -0.9173 -0.5492
  549TMC3    H1 8150   0.592   1.518  12.799 -0.2082 -0.3648  1.3204
  549TMC3    H2 8151   0.201   1.680  12.871  0.7070 -0.5286  1.5311
  549TMC3    C7 8152   0.367   1.496  12.948  0.0788  0.4997  0.4961
  549TMC3    C8 8153   0.223   1.825  12.662  0.0075 -0.1085  0.2061
  549TMC3    O1 8154   0.308   1.536  13.052  0.2192 -0.1493  0.1288
  549TMC3    O2 8155   0.112   1.777  12.672 -0.6127 -0.5740 -0.4765
  550TMC3    C1 8156   4.377   4.126  12.055 -0.1346 -0.0613 -0.3790
  550TMC3    C2 8157   4.379   4.189  12.173 -0.0479  0.1339  0.1903
  550TMC3    C3 8158   4.281   4.270  12.204  0.6015  0.3330 -0.2328
  550TMC3    C4 8159   4.279   4.138  11.962  0.3604 -0.2573  0.1072
  550TMC3    C5 8160   4.179   4.225  12.003  0.7900  0.2294  0.7691
  550TMC3    C6 8161   4.178   4.293  12.117  0.2306 -0.4294 -0.2047
  550TMC3     C 8162   4.481   4.032  12.023  0.4178 -0.4528  0.5750
  550TMC3     O 8163   4.544   3.992  12.115  0.7014 -0.8401  0.2059
  550TMC3     H 8164   4.475   4.196  12.223 -0.7655 -0.6820  1.7072
  550TMC3    H1 8165   4.267   4.071  11.877  1.3803 -0.7530  0.3626
  550TMC3    H2 8166   4.086   4.336  12.155  0.8443  1.1703 -0.5019
  550TMC3    C7 8167   4.052   4.215  11.934 -0.1300  0.0075 -0.3167
  550TMC3    C8 8168   4.285   4.366  12.305  0.1276 -0.0297  0.7979
  550TMC3    O1 8169   4.038   4.113  11.862  0.1556 -0.2381  0.1603
  550TMC3    O2 8170   4.223   4.466  12.278 -0.5038 -0.7381 -0.2395
  551TMC3    C1 8171   1.749   2.501  13.375 -0.4604  0.0081  0.8930
  551TMC3    C2 8172   1.849   2.547  13.289  0.1359  0.1263  0.1183
  551TMC3    C3 8173   1.969   2.587  13.349  0.6885 -0.2649 -1.0142
  551TMC3    C4 8174   1.761   2.515  13.515 -0.0609 -1.2267  0.2946
  551TMC3    C5 8175   1.890   2.547  13.561  0.3121 -0.1391 -0.3923
  551TMC3    C6 8176   1.995   2.574  13.476 -0.5093 -0.1531 -0.0602
  551TMC3     C 8177   1.663   2.397  13.308 -0.6571  0.6808  0.1021
  551TMC3     O 8178   1.674   2.380  13.188  0.6749  0.1128  0.2423
  551TMC3     H 8179   1.835   2.531  13.183  0.2640 -2.5223  0.4963
  551TMC3    H1 8180   1.677   2.492  13.579  1.4052 -3.3386  1.4793
  551TMC3    H2 8181   2.087   2.602  13.525  0.3432 -1.2339 -1.0738
  551TMC3    C7 8182   1.901   2.593  13.702  0.7546 -0.9104 -0.7060
  551TMC3    C8 8183   2.087   2.622  13.265  0.3434 -0.1927  0.3147
  551TMC3    O1 8184   1.978   2.537  13.774  0.0139 -1.1758 -0.5120
  551TMC3    O2 8185   2.194   2.595  13.319  0.2219 -0.3524  0.1130
  552MPD2     C 8186   3.849   4.517  13.413  0.0235 -1.0074  0.2802
  552MPD2    C1 8187   3.821   4.385  13.411  0.3401  0.3139  0.3451
  552MPD2    C2 8188   3.893   4.300  13.497 -0.0851 -0.4465 -0.5188
  552MPD2    C3 8189   3.982   4.360  13.590  0.2484 -0.3174 -0.0354
  552MPD2    C4 8190   4.014   4.490  13.578  0.5579  0.3829 -0.1923
  552MPD2    C5 8191   3.941   4.568  13.503 -0.4768 -0.3681  0.0182
  552MPD2     H 8192   3.870   4.195  13.509 -2.1069 -0.0992 -1.4245
  552MPD2    H1 8193   4.088   4.533  13.645  0.2583 -0.1997  0.5197
  552MPD2    H2 8194   3.817   4.592  13.342  0.6046 -1.3119 -0.3027
  552MPD2    H3 8195   3.959   4.674  13.490  2.1126 -0.4653  2.8756
  552MPD2     N 8196   4.055   4.286  13.683  0.3201  0.8373  0.2616
  552MPD2    H5 8197   4.146   4.323  13.706  1.3424 -1.9896  0.7919
  552MPD2    N1 8198   3.730   4.326  13.317 -0.0159  0.1323 -0.3099
  552MPD2    H7 8199   3.711   4.227  13.324  1.1298 -0.1589 -1.3375
  553TMC3    C1 8200   3.600   4.294  13.122 -0.7297 -0.2212 -0.3478
  553TMC3    C2 8201   3.635   4.297  12.988 -0.0456 -0.3664 -0.3054
  553TMC3    C3 8202   3.588   4.194  12.912  0.1055 -0.0294 -0.3454
  553TMC3    C4 8203   3.535   4.189  13.184 -0.4005  1.1055 -0.5557
  553TMC3    C5 8204   3.496   4.088  13.105 -0.3677 -1.2706 -0.1057
  553TMC3    C6 8205   3.522   4.092  12.969  0.2840 -0.4845 -0.1876
  553TMC3     C 8206   3.680   4.385  13.209  0.4020  0.0691  0.4081
  553TMC3     O 8207   3.706   4.492  13.160  0.0880  0.1413  0.2858
  553TMC3     H 8208   3.701   4.374  12.952 -0.0661  0.0675  0.5753
  553TMC3    H1 8209   3.503   4.188  13.288  5.9191 -2.2016  1.3468
  553TMC3    H2 8210   3.492   4.008  12.908 -0.9868  0.1434 -0.4283
  553TMC3    C7 8211   3.447   3.965  13.152 -0.4226  0.2517  0.1567
  553TMC3    C8 8212   3.687   4.143  12.814  1.2591  0.0600  0.1275
  553TMC3    O1 8213   3.325   3.956  13.163  0.3287  0.3250  0.2611
  553TMC3    O2 8214   3.788   4.208  12.811  0.4403  0.2314  0.2964
  554TMC3    C1 8215   1.003   3.395  11.411 -0.6461  0.6797 -0.0256
  554TMC3    C2 8216   1.006   3.322  11.296  0.7727  0.1440 -0.2826
  554TMC3    C3 8217   1.091   3.355  11.197  0.2233 -0.2139 -0.3700
  554TMC3    C4 8218   1.074   3.507  11.423 -0.3654  0.4379 -0.4819
  554TMC3    C5 8219   1.164   3.539  11.324  0.3286 -0.2953 -0.0525
  554TMC3    C6 8220   1.176   3.461  11.211  0.0870 -0.2814  0.0567
  554TMC3     C 8221   0.916   3.338  11.515  0.9366 -0.8058 -0.0496
  554TMC3     O 8222   0.801   3.316  11.478  0.0604 -0.0174  0.2416
  554TMC3     H 8223   0.937   3.238  11.296  1.9428 -0.8170 -0.1091
  554TMC3    H1 8224   1.072   3.552  11.521  1.6006 -0.8552  0.1500
  554TMC3    H2 8225   1.236   3.491  11.127 -1.5127  0.2316 -0.8968
  554TMC3    C7 8226   1.210   3.677  11.314 -0.7341  0.5917 -0.3703
  554TMC3    C8 8227   1.051   3.327  11.063  0.0978  0.0492  0.2018
  554TMC3    O1 8228   1.299   3.698  11.234 -0.1576 -0.5657  0.0148
  554TMC3    O2 8229   1.088   3.394  10.973 -0.4557  1.2376  0.3941
  555TMC3    C1 8230   4.508   3.354  14.806  0.6618  0.9563  0.0480
  555TMC3    C2 8231   4.551   3.429  14.913 -0.4820 -0.6087  0.4873
  555TMC3    C3 8232   4.589   3.364  15.022 -0.5748 -0.7700 -0.7447
  555TMC3    C4 8233   4.511   3.219  14.809  0.8300  0.3333  0.3788
  555TMC3    C5 8234   4.557   3.160  14.928 -0.4601  0.1341 -0.2267
  555TMC3    C6 8235   4.584   3.230  15.038 -0.0019  0.4247  0.1660
  555TMC3     C 8236   4.485   3.423  14.680 -0.4387 -0.4255 -0.2451
  555TMC3     O 8237   4.549   3.528  14.656  0.0608 -0.2851  0.2023
  555TMC3     H 8238   4.556   3.536  14.893 -1.3812 -0.6701 -0.0650
  555TMC3    H1 8239   4.489   3.166  14.717  0.9725  1.3652 -0.2575
  555TMC3    H2 8240   4.610   3.180  15.130  1.2024  0.2178 -0.2835
  555TMC3    C7 8241   4.538   3.017  14.939  0.0849 -0.9743  1.2911
  555TMC3    C8 8242   4.590   3.447  15.140 -0.1321  0.1924 -0.1273
  555TMC3    O1 8243   4.506   2.971  15.044  0.0897 -0.3800  0.0066
  555TMC3    O2 8244   4.546   3.562  15.119  0.4484 -0.1195  0.2551
  556MPD2     C 8245   2.848   4.718  10.342 -0.2305  0.4965 -0.4511
  556MPD2    C1 8246   2.831   4.601  10.412  0.6954  0.6996 -0.2048
  556MPD2    C2 8247   2.842   4.482  10.339 -0.6053  0.8026  0.1753
  556MPD2    C3 8248   2.872   4.480  10.201  0.0277  0.2623 -0.6244
  556MPD2    C4 8249   2.886   4.599  10.135  0.4061  0.5213  0.0124
  556MPD2    C5 8250   2.885   4.716  10.206 -0.1281  0.0929  0.2356
  556MPD2     H 8251   2.841   4.386  10.390  0.9211  0.9627  0.5234
  556MPD2    H1 8252   2.912   4.604  10.030  0.4507 -0.9253 -0.0433
  556MPD2    H2 8253   2.852   0.095  10.390 -0.4635 -1.1793  2.9501
  556MPD2    H3 8254   2.901   0.084  10.145 -0.2570  0.2296  0.3984
  556MPD2     N 8255   2.891   4.359  10.133  0.2188  0.3119  0.2180
  556MPD2    H5 8256   2.852   4.277  10.179 -0.4446  0.8459  0.6047
  556MPD2    N1 8257   2.830   4.603  10.555 -0.1194 -0.0505 -0.1901
  556MPD2    H7 8258   2.818   4.695  10.595 -0.6142  0.1175 -0.7263
  557TMC3    C1 8259   2.934   4.204   9.950 -0.0355  0.4327 -0.6103
  557TMC3    C2 8260   3.014   4.175   9.840 -0.6308 -0.1060 -0.0502
  557TMC3    C3 8261   2.970   4.073   9.759  0.1822  0.1300  0.3595
  557TMC3    C4 8262   2.817   4.132   9.965  0.0078  0.4462  0.4312
  557TMC3    C5 8263   2.793   4.023   9.885  0.0005 -0.2180 -0.1617
  557TMC3    C6 8264   2.860   3.991   9.776 -0.3927  0.6972 -0.7087
  557TMC3     C 8265   2.957   4.334  10.013 -0.5169  0.3737  0.1426
  557TMC3     O 8266   3.025   4.411   9.949  0.1198 -0.1659 -0.6020
  557TMC3     H 8267   3.110   4.224   9.832 -1.0521  1.0348  1.9374
  557TMC3    H1 8268   2.744   4.161  10.040 -0.8522  0.9997 -0.6173
  557TMC3    H2 8269   2.837   3.897   9.727  0.1112  0.4889 -0.5450
  557TMC3    C7 8270   2.665   3.952   9.913  0.0961  0.6014 -0.3938
  557TMC3    C8 8271   3.036   4.071   9.633 -0.1316 -0.0498  0.4277
  557TMC3    O1 8272   2.595   3.941   9.820 -0.4468 -0.3724  0.4616
  557TMC3    O2 8273   3.141   4.134   9.614 -0.7856  0.2133 -0.1958
  558TMC3    C1 8274   0.109   2.793   9.917  0.3613 -0.4016  0.0488
  558TMC3    C2 8275   0.043   2.770  10.036  0.3151  0.2219  0.0057
  558TMC3    C3 8276   4.670   2.670  10.040  0.0507  0.5259  0.5461
  558TMC3    C4 8277   0.078   2.723   9.806 -0.6826 -0.0322  0.0475
  558TMC3    C5 8278   4.717   2.624   9.811 -0.5401  0.4033 -0.3836
  558TMC3    C6 8279   4.645   2.593   9.921  0.2094 -0.3284  0.3620
  558TMC3     C 8280   0.255   2.785   9.928  0.1680  0.5862  0.3333
  558TMC3     O 8281   0.298   2.681   9.879  0.3436 -0.3043 -0.0047
  558TMC3     H 8282   0.086   2.818  10.123 -0.2292  0.2641  0.2513
  558TMC3    H1 8283   0.138   2.736   9.717 -0.7388 -0.1659 -0.0099
  558TMC3    H2 8284   4.574   2.513   9.942 -1.5392  1.1398  0.0330
  558TMC3    C7 8285   4.720   2.531   9.697  0.2589 -0.4866 -0.1170
  558TMC3    C8 8286   4.667   2.607  10.168  0.5346 -0.0218 -0.2472
  558TMC3    O1 8287   0.105   2.534   9.639  0.3407 -0.6473 -0.5145
  558TMC3    O2 8288   0.051   2.617  10.227 -0.9377  0.4459 -0.1311
  559MPD2     C 8289   0.631   2.820  10.484 -0.9179 -0.0107 -0.9409
  559MPD2    C1 8290   0.592   2.728  10.577  0.2003 -0.1441 -0.3257
  559MPD2    C2 8291   0.674   2.706  10.683  0.1951 -0.2910 -0.5501
  559MPD2    C3 8292   0.784   2.784  10.706  0.5324 -0.2452  0.3676
  559MPD2    C4 8293   0.826   2.873  10.617 -0.8463  0.3482 -0.2875
  559MPD2    C5 8294   0.745   2.896  10.508 -1.0968 -0.0848  0.6915
  559MPD2     H 8295   0.634   2.632  10.752 -1.8959 -0.7245 -2.2335
  559MPD2    H1 8296   0.918   2.931  10.627 -0.3586 -0.4712  0.0127
  559MPD2    H2 8297   0.564   2.851  10.405 -0.2196 -1.0377 -1.9367
  559MPD2    H3 8298   0.773   2.980  10.445  0.4751  0.0090  1.5069
  559MPD2     N 8299   0.853   2.755  10.829  0.5420 -0.1488  0.3035
  559MPD2    H5 8300   0.810   2.699  10.902 -1.0851  2.0090  0.9804
  559MPD2    N1 8301   0.459   2.661  10.557  0.0054  0.1146  0.2938
  559MPD2    H7 8302   0.410   2.680  10.470  2.5434  0.3699 -1.0874
  560TMC3    C1 8303   1.030   2.729  10.974  0.1346 -0.2134 -0.5837
  560TMC3    C2 8304   0.990   2.598  10.990 -0.0579 -0.1227  0.2423
  560TMC3    C3 8305   1.046   2.537  11.095  0.0853 -0.2266 -0.2837
  560TMC3    C4 8306   1.133   2.781  11.037  0.7853  0.2913 -0.2729
  560TMC3    C5 8307   1.202   2.709  11.126  0.8423 -0.2577 -1.0328
  560TMC3    C6 8308   1.150   2.587  11.166  0.3825  0.0297  0.0956
  560TMC3     C 8309   0.979   2.798  10.862 -0.1206  0.4046 -0.5746
  560TMC3     O 8310   1.062   2.855  10.793 -0.2333  0.3406 -0.2453
  560TMC3     H 8311   0.925   2.548  10.918  1.2502  0.1064 -1.1029
  560TMC3    H1 8312   1.142   2.889  11.031  2.1584  0.2683  1.3656
  560TMC3    H2 8313   1.205   2.527  11.238  1.9609 -0.0149 -1.1731
  560TMC3    C7 8314   1.321   2.763  11.180 -0.9771 -0.2402  0.4244
  560TMC3    C8 8315   0.973   2.423  11.149  0.7285  0.0132 -0.3227
  560TMC3    O1 8316   1.350   2.709  11.284  0.4341  0.1106  0.0707
  560TMC3    O2 8317   1.032   2.350  11.226 -0.0086  0.7159 -0.0297
  561TMC3    C1 8318   2.918   2.240  11.351 -0.2169  0.2251  0.0922
  561TMC3    C2 8319   2.867   2.257  11.480  0.1642  0.5185  0.3168
  561TMC3    C3 8320   2.866   2.384  11.529  0.4242 -0.6027 -0.4144
  561TMC3    C4 8321   2.964   2.342  11.278 -0.3361  0.5231 -0.2950
  561TMC3    C5 8322   2.955   2.464  11.332 -0.4915  0.3254  0.5609
  561TMC3    C6 8323   2.911   2.490  11.456  0.2583 -0.4905  0.6309
  561TMC3     C 8324   2.911   2.105  11.301 -0.5165  0.1623  0.0942
  561TMC3     O 8325   2.828   2.034  11.356 -0.3279  0.6487 -0.0453
  561TMC3     H 8326   2.826   2.170  11.530  1.3060 -1.0008 -1.3866
  561TMC3    H1 8327   2.971   2.332  11.170 -0.5872  0.8925 -0.3486
  561TMC3    H2 8328   2.917   2.591  11.493 -0.2380 -0.2085 -0.0423
  561TMC3    C7 8329   2.989   2.579  11.253  0.6261  0.3562 -0.1886
  561TMC3    C8 8330   2.885   2.407  11.672 -0.4686 -0.1077 -0.2927
  561TMC3    O1 8331   2.947   2.686  11.293  0.3956 -0.5774  0.7420
  561TMC3    O2 8332   2.979   2.477  11.703 -0.3263  0.5649  0.4964
  562TMC3    C1 8333   4.221   3.697  15.868 -0.3556 -0.0783 -0.2651
  562TMC3    C2 8334   4.113   3.767  15.837  0.0743  0.2231 -0.8956
  562TMC3    C3 8335   4.057   3.751  15.717 -0.1180 -0.5099  0.4527
  562TMC3    C4 8336   4.278   3.613  15.776  0.5261  0.0854 -0.2073
  562TMC3    C5 8337   4.215   3.588  15.652 -0.0871 -0.2735 -0.5237
  562TMC3    C6 8338   4.097   3.652  15.623 -0.0347  0.2052  0.2343
  562TMC3     C 8339   4.269   3.714  16.003  0.5896  0.2658 -0.1605
  562TMC3     O 8340   4.213   3.807  16.070 -0.2430 -0.0198 -0.2984
  562TMC3     H 8341   4.062   3.830  15.909 -1.6493 -1.1219 -0.9314
  562TMC3    H1 8342   4.374   3.563  15.787  1.1436  1.0789 -0.9982
  562TMC3    H2 8343   4.050   3.634  15.527 -0.9648 -0.7972  0.8816
  562TMC3    C7 8344   4.255   3.480  15.562  0.9711  1.2126  0.3775
  562TMC3    C8 8345   3.938   3.836  15.689  1.0489 -0.5129  0.9112
  562TMC3    O1 8346   4.219   3.490  15.450  0.0023 -0.4670 -0.3433
  562TMC3    O2 8347   3.902   3.921  15.768 -0.3830  0.3583  0.2144
  563MPD2     C 8348   1.803   4.421  15.621 -0.5743  0.7376 -0.1128
  563MPD2    C1 8349   1.812   4.376  15.753  0.3886 -0.0559 -0.9214
  563MPD2    C2 8350   1.939   4.342  15.795  0.3565  0.4113  0.3372
  563MPD2    C3 8351   2.048   4.346  15.720  0.4412 -0.4578 -0.7617
  563MPD2    C4 8352   2.041   4.389  15.593  0.2340  0.7352 -0.0389
  563MPD2    C5 8353   1.919   4.422  15.551 -0.0005 -0.0366 -0.2777
  563MPD2     H 8354   1.946   4.311  15.899 -0.7490  0.2581  0.3658
  563MPD2    H1 8355   2.123   4.382  15.523 -0.6699  0.8027 -1.1119
  563MPD2    H2 8356   1.708   4.455  15.581 -1.4943 -0.4003  1.0903
  563MPD2    H3 8357   1.915   4.456  15.448  2.1561  1.2079  0.0496
  563MPD2     N 8358   2.157   4.286  15.789  0.5919 -0.5661  0.3647
  563MPD2    H5 8359   2.140   4.262  15.886  0.3203 -0.6463  0.2982
  563MPD2    N1 8360   1.696   4.373  15.836 -0.7709  0.7387 -0.0242
  563MPD2    H7 8361   1.616   4.424  15.801 -1.7534  0.9463  2.4788
  564TMC3    C1 8362   1.570   4.314  16.041 -0.1817  0.3140 -0.3259
  564TMC3    C2 8363   1.460   4.243  15.991 -0.8778  0.3842  0.0329
  564TMC3    C3 8364   1.391   4.161  16.075 -0.6330 -0.7288  0.4284
  564TMC3    C4 8365   1.613   4.288  16.164  0.1565  1.3375 -0.4989
  564TMC3    C5 8366   1.546   4.200  16.247 -0.4412  0.3035 -0.2389
  564TMC3    C6 8367   1.428   4.147  16.209 -0.2103 -0.7963 -0.1544
  564TMC3     C 8368   1.693   4.314  15.962  0.6963  0.0599  0.3435
  564TMC3     O 8369   1.772   4.233  16.011  0.6208 -0.4785  0.0633
  564TMC3     H 8370   1.443   4.250  15.884  2.1004  0.8317 -0.3945
  564TMC3    H1 8371   1.710   4.325  16.195  0.2739  1.8548 -1.4742
  564TMC3    H2 8372   1.375   4.081  16.277  0.3523 -0.7274  0.3524
  564TMC3    C7 8373   1.637   4.088  16.278  0.4950 -0.1157  0.8098
  564TMC3    C8 8374   1.332   4.040  16.022 -0.0347  0.6156 -0.2717
  564TMC3    O1 8375   1.742   4.109  16.335  0.8267  0.2794 -0.1263
  564TMC3    O2 8376   1.337   3.946  16.102  0.5186  0.0768 -0.0948
  565TMC3    C1 8377   2.048   1.308   9.733  0.2000  0.1478 -0.4945
  565TMC3    C2 8378   2.049   1.205   9.832  0.1273 -0.7745 -0.5085
  565TMC3    C3 8379   1.929   1.161   9.887 -0.3377 -0.0541  0.4890
  565TMC3    C4 8380   1.932   1.356   9.679  0.3367  0.7321 -0.6653
  565TMC3    C5 8381   1.815   1.299   9.728 -0.4192 -0.7502  0.1673
  565TMC3    C6 8382   1.808   1.207   9.832 -1.1171 -0.0078  0.1782
  565TMC3     C 8383   2.161   1.355   9.658  0.6418  0.6947 -0.0693
  565TMC3     O 8384   2.136   1.426   9.563  0.5322  0.1121 -0.3264
  565TMC3     H 8385   2.139   1.165   9.879 -1.2936  0.5323  3.3716
  565TMC3    H1 8386   1.928   1.427   9.597  2.7997 -0.0460 -1.4598
  565TMC3    H2 8387   1.725   1.198   9.900 -0.7718  0.0119  0.6019
  565TMC3    C7 8388   1.697   1.329   9.647 -0.5857  0.0147 -0.4487
  565TMC3    C8 8389   1.934   1.066   9.986 -0.2393 -0.2291  0.1944
  565TMC3    O1 8390   1.703   1.404   9.550  0.2047  0.3030  0.0162
  565TMC3    O2 8391   2.040   1.067  10.047  0.7278 -0.5281 -0.1693
  566MPD2     C 8392   3.600   2.581  14.066 -0.1463 -0.1985 -0.2009
  566MPD2    C1 8393   3.565   2.694  13.990  0.2758  1.0185  0.1458
  566MPD2    C2 8394   3.440   2.685  13.924  0.5530 -0.7753  0.7656
  566MPD2    C3 8395   3.357   2.576  13.934 -0.0928  0.4020 -0.2673
  566MPD2    C4 8396   3.383   2.484  14.032 -0.3530  0.0176  0.2717
  566MPD2    C5 8397   3.506   2.483  14.094 -0.7582 -0.4493  0.5845
  566MPD2     H 8398   3.426   2.761  13.847 -0.1330 -1.6874 -0.0186
  566MPD2    H1 8399   3.314   2.406  14.061 -0.3211  0.1266  0.6414
  566MPD2    H2 8400   3.691   2.570  14.124  0.4065 -1.1766 -1.2589
  566MPD2    H3 8401   3.529   2.403  14.164  0.2613  0.7481  1.6093
  566MPD2     N 8402   3.252   2.539  13.846  0.4072 -0.7027 -0.4827
  566MPD2    H5 8403   3.205   2.449  13.857 -0.0527 -0.4888 -0.7167
  566MPD2    N1 8404   3.660   2.803  13.964 -0.1858  0.3742  0.9988
  566MPD2    H7 8405   3.756   2.788  13.995 -0.4333  0.8312  1.9754
  567TMC3    C1 8406   3.759   2.970  13.847  0.5526 -0.2403 -0.0124
  567TMC3    C2 8407   3.754   3.040  13.729  0.0784  0.1277 -0.0897
  567TMC3    C3 8408   3.871   3.079  13.673 -0.1920  0.0658 -0.0323
  567TMC3    C4 8409   3.875   2.944  13.917  0.1433 -0.8105 -0.2227
  567TMC3    C5 8410   3.991   2.993  13.853 -0.0668  0.1479  0.3194
  567TMC3    C6 8411   3.993   3.059  13.732  0.3175 -0.2728  0.1841
  567TMC3     C 8412   3.634   2.913  13.891  0.4700  0.3982 -0.1183
  567TMC3     O 8413   3.531   2.960  13.856 -0.0554 -0.2500 -0.0829
  567TMC3     H 8414   3.664   3.051  13.669  0.8607  1.5698 -0.9804
  567TMC3    H1 8415   3.880   2.928  14.024 -2.0824  0.2988  0.0481
  567TMC3    H2 8416   4.092   3.081  13.694  0.4442 -1.8647 -0.3807
  567TMC3    C7 8417   4.118   3.014  13.938 -0.2443 -0.1594  0.1547
  567TMC3    C8 8418   3.852   3.105  13.531 -0.0345 -0.1060  0.1482
  567TMC3    O1 8419   4.215   3.071  13.893 -0.0537 -0.1304 -0.3862
  567TMC3    O2 8420   3.748   3.069  13.479 -0.0475 -0.5982 -0.0813
  568MPD2     C 8421   2.147   3.318  16.320  0.0613 -0.1650  0.1830
  568MPD2    C1 8422   2.043   3.297  16.408 -0.3609  0.1095  0.3868
  568MPD2    C2 8423   1.918   3.294  16.358 -0.0175  0.3194 -0.5229
  568MPD2    C3 8424   1.902   3.311  16.222  0.5944  0.4811 -0.0794
  568MPD2    C4 8425   2.009   3.330  16.135 -0.6727 -0.3415 -0.5693
  568MPD2    C5 8426   2.134   3.336  16.189 -0.1929 -0.4074  0.5917
  568MPD2     H 8427   1.827   3.279  16.414 -0.3655  2.6656 -0.4631
  568MPD2    H1 8428   1.995   3.344  16.028  1.7318 -1.4491 -1.0198
  568MPD2    H2 8429   2.251   3.316  16.349  0.2826  4.6710 -0.3031
  568MPD2    H3 8430   2.216   3.345  16.120 -1.3664  0.4678 -0.6989
  568MPD2     N 8431   1.769   3.306  16.172 -0.1297 -0.5512 -0.7215
  568MPD2    H5 8432   1.700   3.274  16.239  0.6416 -2.4114 -0.8330
  568MPD2    N1 8433   2.074   3.271  16.539  0.0832 -0.0747 -0.3225
  568MPD2    H7 8434   2.172   3.253  16.561  0.4942  1.8051 -0.5976
  569TMC3    C1 8435   1.583   3.345  16.063  0.2466 -0.3891  0.4625
  569TMC3    C2 8436   1.524   3.411  16.171 -0.4411  0.3344  0.1304
  569TMC3    C3 8437   1.392   3.435  16.165 -0.2276 -0.3967 -0.4577
  569TMC3    C4 8438   1.510   3.326  15.946 -0.2945  0.6814 -0.0958
  569TMC3    C5 8439   1.375   3.349  15.940  0.6452  0.0006  0.8823
  569TMC3    C6 8440   1.316   3.406  16.047 -0.4573  0.3999  0.3886
  569TMC3     C 8441   1.720   3.336  16.045 -0.4384 -0.2890  0.1677
  569TMC3     O 8442   1.768   3.360  15.936  0.4461  0.0677 -0.0567
  569TMC3     H 8443   1.594   3.448  16.245  0.6258 -0.3395 -0.5570
  569TMC3    H1 8444   1.557   3.273  15.864  0.3976 -0.4049  1.0097
  569TMC3    H2 8445   1.210   3.428  16.040 -0.4621 -0.8055 -3.1745
  569TMC3    C7 8446   1.354   3.433  15.821  0.0536 -0.3083  0.3509
  569TMC3    C8 8447   1.326   3.544  16.238 -0.5237  0.3299  0.9104
  569TMC3    O1 8448   1.399   3.405  15.709 -0.7259  0.2783  0.5610
  569TMC3    O2 8449   1.206   3.561  16.213 -0.4018  1.0150  0.5997
  570TMC3    C1 8450   0.923   1.996  16.020  0.4600 -0.4817  0.4580
  570TMC3    C2 8451   1.020   1.961  15.924  0.4965 -0.3057  0.4770
  570TMC3    C3 8452   1.055   2.058  15.834  0.1281 -0.1425 -0.2778
  570TMC3    C4 8453   0.869   2.119  16.033 -0.7012  0.5730  0.3141
  570TMC3    C5 8454   0.913   2.218  15.952 -0.0344  0.1989 -0.3478
  570TMC3    C6 8455   1.006   2.194  15.849  0.2441  0.0167  0.3774
  570TMC3     C 8456   0.884   1.888  16.116  0.2936  0.2189  0.5990
  570TMC3     O 8457   0.897   1.773  16.066  0.0186 -0.2851 -0.0711
  570TMC3     H 8458   1.050   1.857  15.917  3.5184  0.7280 -1.6946
  570TMC3    H1 8459   0.780   2.142  16.091 -2.1047 -0.4003 -1.4308
  570TMC3    H2 8460   1.059   2.277  15.805 -1.5454  0.5310 -0.8411
  570TMC3    C7 8461   0.840   2.350  15.952 -0.2849 -0.0223  0.5316
  570TMC3    C8 8462   1.185   2.059  15.775 -0.3941  0.3206  0.4136
  570TMC3    O1 8463   0.750   2.356  16.035 -0.5972 -0.4820  0.4817
  570TMC3    O2 8464   1.235   2.167  15.739 -0.0745 -0.5909 -0.1439
  571MPD2     C 8465   4.072   3.453  17.288 -0.5278  0.4084 -1.0446
  571MPD2    C1 8466   3.987   3.535  17.366  0.0038  0.3369 -0.2643
  571MPD2    C2 8467   4.042   3.638  17.441 -0.2577  0.7134  0.0738
  571MPD2    C3 8468   4.176   3.651  17.455  0.6873 -0.2956  0.3776
  571MPD2    C4 8469   4.260   3.568  17.382 -0.4853  0.1665 -0.1583
  571MPD2    C5 8470   4.211   3.472  17.303 -0.3281 -0.0053 -0.6720
  571MPD2     H 8471   3.982   3.716  17.487  0.9598  0.9550  1.2341
  571MPD2    H1 8472   4.367   3.587  17.390 -0.5435  1.2500 -1.8941
  571MPD2    H2 8473   4.037   3.377  17.219 -0.0218 -1.2480  0.5370
  571MPD2    H3 8474   4.281   3.407  17.252 -1.6988 -0.9157 -1.4066
  571MPD2     N 8475   4.214   3.752  17.544  0.7374  0.4932 -0.4208
  571MPD2    H5 8476   4.145   3.803  17.598 -0.0588  0.4438 -1.3872
  571MPD2    N1 8477   3.840   3.530  17.354 -0.0433 -0.9118  0.3474
  571MPD2    H7 8478   3.798   3.483  17.275 -0.1102  1.0322 -0.7643
  572TMC3    C1 8479   4.344   3.879  17.677 -0.5144 -0.2753 -0.7405
  572TMC3    C2 8480   4.416   3.839   0.105 -0.6691  0.0713 -0.3948
  572TMC3    C3 8481   4.381   3.903   0.218  0.5281  0.7496  0.2669
  572TMC3    C4 8482   4.252   3.975  17.669  0.8346  0.5887  0.5096
  572TMC3    C5 8483   4.232   4.039   0.099  0.0015 -0.3233  1.5333
  572TMC3    C6 8484   4.294   4.011   0.216  0.0895  0.0815 -0.0514
  572TMC3     C 8485   4.340   3.767  17.590 -0.5488 -0.5052  0.6723
  572TMC3     O 8486   4.437   3.690  17.588 -0.3907 -0.1717 -0.0981
  572TMC3     H 8487   4.451   3.741   0.133  0.0880  0.5225  0.2272
  572TMC3    H1 8488   4.206   4.018  17.581  2.0053  0.6503 -0.0773
  572TMC3    H2 8489   4.289   4.077   0.302  0.4089 -0.9601  0.7628
  572TMC3    C7 8490   4.143   4.148   0.103  0.3662  0.1308 -0.0906
  572TMC3    C8 8491   4.458   3.880   0.332  0.2917 -0.7052  0.8574
  572TMC3    O1 8492   4.141   4.213  17.685  0.5739  0.4106  0.0217
  572TMC3    O2 8493   4.568   3.820   0.322  0.3720 -0.0559 -0.1860
  573MPD2     C 8494   0.829   4.517   1.000  0.3256  0.0205  0.3921
  573MPD2    C1 8495   0.823   4.639   0.939 -0.3348 -0.5097  0.2797
  573MPD2    C2 8496   0.771   4.656   0.814  0.2310  0.1567 -0.0821
  573MPD2    C3 8497   0.727   4.553   0.731  0.3995  0.4668  0.3746
  573MPD2    C4 8498   0.726   4.431   0.789 -0.0070 -0.7081 -0.0081
  573MPD2    C5 8499   0.779   4.409   0.920  0.1973 -0.0315  0.0588
  573MPD2     H 8500   0.783   0.041   0.790  0.6981 -0.1110 -1.0105
  573MPD2    H1 8501   0.684   4.347   0.735  3.3198 -2.1358 -0.4196
  573MPD2    H2 8502   0.875   4.504   1.097 -0.0751 -1.7866  0.3422
  573MPD2    H3 8503   0.794   4.304   0.944  1.0469  0.0376 -0.1669
  573MPD2     N 8504   0.672   4.568   0.601 -1.2385  0.3441 -0.7350
  573MPD2    H5 8505   0.646   4.483   0.551 -0.4449  0.1410 -0.8023
  573MPD2    N1 8506   0.877   0.023   1.021 -0.1306  0.2176  0.3595
  573MPD2    H7 8507   0.915   4.715   1.111 -0.3089 -1.0175  0.0538
  574TMC3    C1 8508   0.604   4.671   0.402  0.4816  0.3755 -0.3103
  574TMC3    C2 8509   0.511   4.572   0.384  0.0424  0.0182  0.1828
  574TMC3    C3 8510   0.462   4.557   0.254  0.3876  0.3653 -0.1151
  574TMC3    C4 8511   0.650   0.020   0.290  0.1947  0.8854 -0.0580
  574TMC3    C5 8512   0.590   0.005   0.164 -0.0502  0.4161 -0.6082
  574TMC3    C6 8513   0.492   4.632   0.145 -0.0592  0.5956 -0.2487
  574TMC3     C 8514   0.666   4.688   0.529  0.1876 -0.0545  0.6542
  574TMC3     O 8515   0.737   0.067   0.554 -0.0433 -0.1994  0.1092
  574TMC3     H 8516   0.472   4.505   0.460 -0.6135 -1.0782 -1.1331
  574TMC3    H1 8517   0.733   0.089   0.302  1.2233 -0.0437 -1.8487
  574TMC3    H2 8518   0.443   4.616   0.050  1.2458 -0.2682 -0.7752
  574TMC3    C7 8519   0.613   0.104   0.055  1.0292 -0.9818 -0.2372
  574TMC3    C8 8520   0.390   4.440   0.228 -0.0264  0.0325 -0.1319
  574TMC3    O1 8521   0.532   0.099  17.646 -0.1473 -0.5932 -0.2918
  574TMC3    O2 8522   0.436   4.331   0.263  0.1784 -0.0379 -0.2785
  575TMC3    C1 8523   2.374   0.829  10.654 -0.2424 -0.1830  0.4076
  575TMC3    C2 8524   2.352   0.733  10.743  0.4548 -0.5299 -0.4972
  575TMC3    C3 8525   2.218   0.694  10.747 -0.3198  0.1502  0.2528
  575TMC3    C4 8526   2.280   0.865  10.564  0.0260 -0.5965 -0.8586
  575TMC3    C5 8527   2.153   0.824  10.560 -0.4664 -0.4238 -0.1811
  575TMC3    C6 8528   2.117   0.739  10.663 -0.1212  0.3728 -0.0556
  575TMC3     C 8529   2.507   0.881  10.634  0.0836 -0.4843  0.3258
  575TMC3     O 8530   2.535   0.918  10.520  0.1834  0.6636  0.0588
  575TMC3     H 8531   2.431   0.696  10.806 -0.7052  0.3794  1.4931
  575TMC3    H1 8532   2.319   0.938  10.494  1.1594 -1.1852 -0.8429
  575TMC3    H2 8533   2.015   0.716  10.691  0.8076 -2.4161  1.0430
  575TMC3    C7 8534   2.060   0.870  10.461  0.9312 -0.0870  0.1936
  575TMC3    C8 8535   2.179   0.591  10.842  0.1225  0.3751  0.5018
  575TMC3    O1 8536   2.097   0.965  10.394 -0.3141 -0.4287 -0.3307
  575TMC3    O2 8537   2.062   0.552  10.835  0.2815 -0.1561 -0.3568
  576MPD2     C 8538   1.825   2.569  12.685  0.5611 -0.1528  0.1368
  576MPD2    C1 8539   1.858   2.626  12.563  0.2982 -0.4912 -0.9369
  576MPD2    C2 8540   1.793   2.738  12.526 -0.1340 -0.4678  0.2383
  576MPD2    C3 8541   1.694   2.794  12.605  0.0221 -0.3977 -0.2881
  576MPD2    C4 8542   1.656   2.732  12.724  0.7383  0.4619 -0.0371
  576MPD2    C5 8543   1.725   2.618  12.768 -0.3786 -0.7064  0.5736
  576MPD2     H 8544   1.837   2.787  12.440 -2.1460  0.0950 -0.4696
  576MPD2    H1 8545   1.578   2.765  12.792  1.1563 -1.5268  1.4110
  576MPD2    H2 8546   1.888   2.485  12.713  0.2609 -0.7699 -1.0447
  576MPD2    H3 8547   1.704   2.568  12.862 -0.4479  0.6230  1.2729
  576MPD2     N 8548   1.639   2.910  12.554 -0.0602  0.1879 -0.5737
  576MPD2    H5 8549   1.666   2.948  12.463  1.5894  1.2537  0.3572
  576MPD2    N1 8550   1.961   2.574  12.478  0.0609  0.4369  0.3042
  576MPD2    H7 8551   1.977   2.624  12.392  1.8588 -0.5915  0.0528
  577TMC3    C1 8552   2.119   2.430  12.387 -0.0283 -0.4632 -0.4341
  577TMC3    C2 8553   2.257   2.423  12.385  0.1668 -0.0403 -0.1127
  577TMC3    C3 8554   2.329   2.477  12.281 -0.1424  0.0656 -0.3329
  577TMC3    C4 8555   2.053   2.476  12.283  0.3304  0.1896  0.4107
  577TMC3    C5 8556   2.128   2.540  12.190 -0.8508  0.3160 -0.6198
  577TMC3    C6 8557   2.266   2.547  12.182  0.2526 -0.3652 -0.9736
  577TMC3     C 8558   2.045   2.467  12.505 -0.0455  0.1627 -0.6681
  577TMC3     O 8559   2.070   2.404  12.609  0.2489 -0.3088  0.1427
  577TMC3     H 8560   2.324   2.387  12.462 -2.0133 -0.8016  1.4187
  577TMC3    H1 8561   1.945   2.471  12.274  0.4488 -0.3924 -0.7096
  577TMC3    H2 8562   2.311   2.615  12.111 -0.5912 -1.0127 -2.1313
  577TMC3    C7 8563   2.053   2.648  12.133 -0.2306  0.3026  0.3931
  577TMC3    C8 8564   2.472   2.459  12.267 -0.3329  0.6289 -0.2244
  577TMC3    O1 8565   1.957   2.683  12.198  0.2772  0.5399 -0.1064
  577TMC3    O2 8566   2.539   2.409  12.357 -0.2758  0.3257  0.1879
  578MPD2     C 8567   4.715   2.400   1.041 -0.3711  0.0243  0.0638
  578MPD2    C1 8568   0.086   2.338   0.961 -0.3590 -0.2989 -0.3550
  578MPD2    C2 8569   0.224   2.348   0.989  0.0225 -0.2539 -0.4214
  578MPD2    C3 8570   0.269   2.434   1.084  0.0067  0.0268 -0.7666
  578MPD2    C4 8571   0.171   2.499   1.161 -0.0968  0.4978 -0.4211
  578MPD2    C5 8572   0.041   2.475   1.143  0.0235  0.5480 -0.9172
  578MPD2     H 8573   0.296   2.300   0.924  1.0481 -0.4834  0.8870
  578MPD2    H1 8574   0.196   2.564   1.244 -2.2853 -0.9771  1.3583
  578MPD2    H2 8575   4.608   2.388   1.034 -0.5900  1.3815  1.0610
  578MPD2    H3 8576   4.691   2.533   1.202  0.1548 -0.4150  0.1780
  578MPD2     N 8577   0.410   2.448   1.104 -0.5477 -0.0494 -0.3655
  578MPD2    H5 8578   0.466   2.396   1.037  0.6124  0.8888 -0.1173
  578MPD2    N1 8579   0.037   2.267   0.848 -0.1617 -0.2017  0.3950
  578MPD2    H7 8580   4.661   2.277   0.817 -0.0795 -0.7303 -0.0450
  579TMC3    C1 8581   0.619   2.530   1.175  0.5723 -0.1117 -0.7276
  579TMC3    C2 8582   0.681   2.640   1.222 -0.3360  0.2303  0.5896
  579TMC3    C3 8583   0.797   2.620   1.284 -0.0587  1.0118  0.1893
  579TMC3    C4 8584   0.670   2.408   1.192 -0.4622 -0.0104  0.4535
  579TMC3    C5 8585   0.797   2.396   1.240 -0.8661 -0.2540  0.0833
  579TMC3    C6 8586   0.870   2.502   1.282  0.6775  0.3285 -0.4307
  579TMC3     C 8587   0.474   2.542   1.184 -0.5164 -0.3531  0.3076
  579TMC3     O 8588   0.425   2.632   1.250 -0.7068 -0.1939  0.0948
  579TMC3     H 8589   0.634   2.738   1.224  1.0995  0.9013  0.8628
  579TMC3    H1 8590   0.607   2.323   1.170 -0.8922  1.0268 -2.2761
  579TMC3    H2 8591   0.951   2.489   1.353  1.4764 -2.8242 -1.9462
  579TMC3    C7 8592   0.847   2.269   1.288  0.5074  0.6677  0.9715
  579TMC3    C8 8593   0.849   2.740   1.353  0.2121 -0.9131 -0.8126
  579TMC3    O1 8594   0.946   2.267   1.356  0.6810  0.2754 -0.0462
  579TMC3    O2 8595   0.780   2.840   1.352  0.0405  0.1982  0.6304
  580TMC3    C1 8596   4.523   1.110  12.094 -0.2428 -0.1800  0.3936
  580TMC3    C2 8597   4.465   1.069  11.979  0.1177  0.2339 -0.1743
  580TMC3    C3 8598   4.472   0.940  11.945  0.7325  0.3516 -0.2462
  580TMC3    C4 8599   4.581   1.029  12.191 -0.1851  1.1436  0.6444
  580TMC3    C5 8600   4.587   0.891  12.153  0.5424  0.4530 -0.3132
  580TMC3    C6 8601   4.533   0.848  12.029  0.2713 -0.3850  0.2710
  580TMC3     C 8602   4.573   1.241  12.064 -0.8260  0.5142 -0.5789
  580TMC3     O 8603   4.610   1.249  11.950  0.3353  0.0297 -0.0693
  580TMC3     H 8604   4.395   1.135  11.928  0.4602 -0.9405 -2.1835
  580TMC3    H1 8605   4.629   1.067  12.280 -0.4973  3.8558 -0.3669
  580TMC3    H2 8606   4.562   0.750  11.992  1.4192 -0.0557  0.2982
  580TMC3    C7 8607   4.685   0.814  12.211  0.0620 -0.4213  0.4009
  580TMC3    C8 8608   4.511   0.925  11.805  0.5929  0.4368 -0.4150
  580TMC3    O1 8609   0.027   0.875  12.299  0.0879  0.0784  0.0376
  580TMC3    O2 8610   4.472   0.824  11.746 -0.0536 -0.0600  0.0667
  581MPD2     C 8611   2.969   0.892  14.909  0.4125  0.3472 -0.2838
  581MPD2    C1 8612   2.920   0.931  15.025  0.3454 -0.2468 -0.2532
  581MPD2    C2 8613   2.790   0.965  15.028 -0.0040 -0.3064 -0.1751
  581MPD2    C3 8614   2.697   0.932  14.925  0.1886 -0.3406 -0.3201
  581MPD2    C4 8615   2.748   0.874  14.809 -0.1116 -0.2884  0.0998
  581MPD2    C5 8616   2.884   0.860  14.804  0.3299  0.5691 -0.5873
  581MPD2     H 8617   2.744   1.007  15.116 -1.4348 -2.4263  0.0910
  581MPD2    H1 8618   2.684   0.851  14.725 -1.0841  0.3621  0.6536
  581MPD2    H2 8619   3.075   0.879  14.894 -0.0111 -0.6398 -2.5520
  581MPD2    H3 8620   2.928   0.822  14.713 -2.5496  1.5593 -2.4163
  581MPD2     N 8621   2.563   0.971  14.928  0.3336 -0.3459  0.3149
  581MPD2    H5 8622   2.551   1.039  15.002 -1.4599 -0.5672  0.2409
  581MPD2    N1 8623   3.006   0.942  15.136  0.4558  0.3201  0.1551
  581MPD2    H7 8624   3.101   0.907  15.129  0.0041 -1.1424  1.2890
  582TMC3    C1 8625   3.058   0.928  15.358 -0.5469 -0.2388  0.2378
  582TMC3    C2 8626   3.028   0.962  15.487  0.3843 -0.0618  0.6367
  582TMC3    C3 8627   3.072   0.875  15.585  0.1941 -0.6443  0.5824
  582TMC3    C4 8628   3.135   0.820  15.320 -1.0999 -0.0715  0.9405
  582TMC3    C5 8629   3.158   0.728  15.423  0.5828  0.2218 -0.1159
  582TMC3    C6 8630   3.129   0.757  15.555 -1.0962  0.4991 -0.8549
  582TMC3     C 8631   2.975   0.986  15.257 -0.2708  0.2975  0.3292
  582TMC3     O 8632   2.877   1.047  15.293 -0.9541  0.2146 -0.1123
  582TMC3     H 8633   2.972   1.052  15.508  1.9773  1.0998 -0.1470
  582TMC3    H1 8634   3.163   0.772  15.227 -0.1764  3.7897 -0.7838
  582TMC3    H2 8635   3.133   0.678  15.630 -1.7846  2.7176  1.5360
  582TMC3    C7 8636   3.210   0.591  15.398  0.1734 -0.7058  0.3595
  582TMC3    C8 8637   3.065   0.914  15.728 -0.0375  0.0749  0.5171
  582TMC3    O1 8638   3.312   0.560  15.463 -0.0024 -0.0437  0.5038
  582TMC3    O2 8639   3.005   1.014  15.757  0.5392  0.0429  0.0735
  583MPD2     C 8640   3.063   2.513  16.707 -0.3254 -0.2453  0.4764
  583MPD2    C1 8641   3.030   2.634  16.646 -0.2945  0.3292  0.4089
  583MPD2    C2 8642   2.957   2.734  16.718 -0.0696 -0.2474  0.5652
  583MPD2    C3 8643   2.928   2.702  16.853  0.3642  0.0468  0.0962
  583MPD2    C4 8644   2.977   2.592  16.912  0.5230 -0.1084 -1.0022
  583MPD2    C5 8645   3.033   2.491  16.838  0.4544 -0.4644 -0.4814
  583MPD2     H 8646   2.919   2.821  16.666  1.7398  1.0770  1.4602
  583MPD2    H1 8647   2.966   2.567  17.017  0.8701 -2.1122 -1.4299
  583MPD2    H2 8648   3.121   2.434  16.661 -1.5922 -0.7034 -0.3160
  583MPD2    H3 8649   3.075   2.402  16.884  0.9787 -0.3483 -0.7393
  583MPD2     N 8650   2.865   2.806  16.931  0.6936 -0.6668 -0.4830
  583MPD2    H5 8651   2.834   2.897  16.898  0.3263 -0.2826  0.9487
  583MPD2    N1 8652   3.058   2.657  16.511 -0.6805  0.8342 -0.3941
  583MPD2    H7 8653   3.033   2.746  16.469  0.8255  1.1015 -0.7210
  584TMC3    C1 8654   2.784   2.912  17.125 -0.2020 -0.3449 -0.1902
  584TMC3    C2 8655   2.783   3.035  17.059 -0.4290  0.1895 -0.3480
  584TMC3    C3 8656   2.751   3.149  17.128 -0.4298 -0.1065  0.7047
  584TMC3    C4 8657   2.750   2.913  17.258  0.1643  0.3967 -0.3406
  584TMC3    C5 8658   2.741   3.022  17.331 -0.4065  0.4197 -0.1178
  584TMC3    C6 8659   2.734   3.148  17.268 -0.6727  0.0743  0.4065
  584TMC3     C 8660   2.831   2.790  17.064 -0.2698  0.2418  0.9927
  584TMC3     O 8661   2.856   2.698  17.141  0.6761  0.4106  0.0414
  584TMC3     H 8662   2.772   3.039  16.951  1.2892  3.9225 -0.3754
  584TMC3    H1 8663   2.765   2.819  17.310  1.0073 -0.0431 -1.3797
  584TMC3    H2 8664   2.677   3.222  17.324 -1.2788  0.9760 -1.4055
  584TMC3    C7 8665   2.693   3.013  17.467 -0.9876 -0.7861  0.5362
  584TMC3    C8 8666   2.718   3.274  17.060  0.0960 -1.1428 -0.4270
  584TMC3    O1 8667   2.704   3.112  17.534  0.5245  0.2454  0.3397
  584TMC3    O2 8668   2.698   3.258  16.942  0.2367 -0.0498 -0.9939
  585MPD2     C 8669   2.041   2.242   0.745  0.4939 -0.1683 -0.5943
  585MPD2    C1 8670   2.163   2.234   0.682  0.6471 -0.5462 -0.2373
  585MPD2    C2 8671   2.166   2.152   0.568 -0.1831  0.6768 -0.2826
  585MPD2    C3 8672   2.075   2.081   0.519  0.2093  0.2273  0.1784
  585MPD2    C4 8673   1.952   2.081   0.584  0.4811  0.2403  0.3421
  585MPD2    C5 8674   1.932   2.165   0.696  0.4787 -0.1816  0.1198
  585MPD2     H 8675   2.259   2.165   0.513 -0.2823 -0.2703 -0.6648
  585MPD2    H1 8676   1.874   2.015   0.547  1.1073 -0.9437  1.1188
  585MPD2    H2 8677   2.009   2.312   0.821 -0.7226 -1.7478  0.3582
  585MPD2    H3 8678   1.843   2.162   0.757  0.4429 -0.7241  0.0381
  585MPD2     N 8679   2.087   2.010   0.401  0.4106  0.1304  0.0834
  585MPD2    H5 8680   2.006   1.954   0.377  1.8151 -1.1216 -1.8421
  585MPD2    N1 8681   2.262   2.328   0.717 -0.3962 -0.4117 -0.5906
  585MPD2    H7 8682   2.228   2.409   0.768  0.4427 -0.6882  0.3959
  586TMC3    C1 8683   2.184   1.933   0.190  0.8885 -0.0679 -0.3023
  586TMC3    C2 8684   2.305   1.889   0.135 -0.3671  0.1281 -0.3171
  586TMC3    C3 8685   2.305   1.855   0.004 -0.4741  0.6188 -0.2267
  586TMC3    C4 8686   2.063   1.940   0.125  0.3846  0.1152  0.9812
  586TMC3    C5 8687   2.064   1.882  17.681  0.0130 -0.8062 -0.2679
  586TMC3    C6 8688   2.186   1.850  17.622 -0.3835  0.2698  0.9824
  586TMC3     C 8689   2.204   1.990   0.326 -0.4036  0.8394  0.3260
  586TMC3     O 8690   2.319   2.026   0.352  0.1108 -0.3014 -0.2720
  586TMC3     H 8691   2.396   1.883   0.194 -2.0959 -2.2171  2.0760
  586TMC3    H1 8692   1.972   1.977   0.170  0.8959  1.1484  1.1641
  586TMC3    H2 8693   2.186   1.783  17.537  0.8851  2.6737 -0.9157
  586TMC3    C7 8694   1.949   1.835  17.613 -0.3001 -0.4239  0.3773
  586TMC3    C8 8695   2.407   1.770  17.634 -0.1293  0.3111  0.1258
  586TMC3    O1 8696   1.856   1.804   0.001  0.2258 -0.0441 -0.5340
  586TMC3    O2 8697   2.456   1.688   0.023  0.2615  0.3271 -0.7850
  587TMC3    C1 8698   4.706   0.158  16.688 -0.7170  0.4475 -0.3913
  587TMC3    C2 8699   4.659   0.271  16.636  0.8534  0.7555  0.0671
  587TMC3    C3 8700   0.025   0.378  16.625  0.5252  0.7098  0.2357
  587TMC3    C4 8701   0.122   0.148  16.725  0.3880  0.0035  0.3533
  587TMC3    C5 8702   0.204   0.262  16.717  0.4320  0.5568  0.3469
  587TMC3    C6 8703   0.151   0.376  16.666 -0.7517 -1.0216 -0.0213
  587TMC3     C 8704   4.616   0.039  16.714  0.4809  0.0955 -0.0654
  587TMC3     O 8705   4.659   4.651  16.750 -0.0406  0.0006  0.4341
  587TMC3     H 8706   4.561   0.263  16.592  0.0046 -0.7883  2.2308
  587TMC3    H1 8707   0.160   0.058  16.773  1.8982 -0.6344 -2.0388
  587TMC3    H2 8708   0.221   0.458  16.651 -0.8508 -0.7425  1.0069
  587TMC3    C7 8709   0.347   0.235  16.726 -0.7617  0.4664 -0.1882
  587TMC3    C8 8710   4.696   0.492  16.552 -0.3771  0.0990 -0.8902
  587TMC3    O1 8711   0.383   0.133  16.782 -0.0835  0.3801  0.7196
  587TMC3    O2 8712   0.057   0.564  16.501  0.0766 -0.6374 -0.7053
  588TMC3    C1 8713   2.007   2.926   9.342 -0.0880 -0.1822  0.0840
  588TMC3    C2 8714   2.002   2.789   9.347  0.4802  0.2148 -0.0523
  588TMC3    C3 8715   2.035   2.726   9.467  0.0325 -0.0760 -0.3853
  588TMC3    C4 8716   2.038   2.998   9.453  0.1554  0.6516 -0.4601
  588TMC3    C5 8717   2.062   2.930   9.569  0.2654 -0.4328 -0.5803
  588TMC3    C6 8718   2.065   2.797   9.579  0.3736 -1.0765 -0.5309
  588TMC3     C 8719   1.960   3.003   9.219 -0.2981 -0.1154 -0.0899
  588TMC3     O 8720   1.881   2.948   9.142  0.4595 -0.2051 -0.1300
  588TMC3     H 8721   1.970   2.735   9.258  2.8179 -0.6944 -0.3255
  588TMC3    H1 8722   2.018   3.105   9.452 -1.2485  0.3908 -0.3508
  588TMC3    H2 8723   2.088   2.756   9.677 -5.0601  1.4085  1.8166
  588TMC3    C7 8724   2.067   3.007   9.695  0.0611 -0.1982 -0.1950
  588TMC3    C8 8725   1.997   2.585   9.471 -0.2949  0.0911 -0.2114
  588TMC3    O1 8726   2.025   2.957   9.798  0.3976  0.1870 -0.1513
  588TMC3    O2 8727   1.947   2.542   9.368  0.8417  0.4853 -0.4487
  589TMC3    C1 8728   2.141   0.511   1.399 -0.0544  1.3223 -0.0350
  589TMC3    C2 8729   2.224   0.601   1.470  0.4451  0.5858  0.3364
  589TMC3    C3 8730   2.359   0.584   1.455  0.4873 -0.0381  0.6248
  589TMC3    C4 8731   2.199   0.428   1.303 -0.0557  0.5991  0.7854
  589TMC3    C5 8732   2.340   0.430   1.292  0.6389 -0.4296 -0.4106
  589TMC3    C6 8733   2.422   0.490   1.379  0.7061 -0.5258  0.1075
  589TMC3     C 8734   2.013   0.550   1.362 -0.4283  0.3412  0.0978
  589TMC3     O 8735   1.985   0.542   1.245  0.1137 -0.5378 -0.2832
  589TMC3     H 8736   2.190   0.668   1.548  2.0470  2.7818 -0.8682
  589TMC3    H1 8737   2.149   0.378   1.221  0.0025 -1.0390  1.7406
  589TMC3    H2 8738   2.524   0.519   1.354  0.3629  1.0101  0.4755
  589TMC3    C7 8739   2.399   0.326   1.215 -0.2891 -0.0042  0.3547
  589TMC3    C8 8740   2.445   0.666   1.540 -0.2811  0.0528  0.1743
  589TMC3    O1 8741   2.341   0.291   1.112  0.3378 -1.2685  0.1756
  589TMC3    O2 8742   2.398   0.689   1.650  0.0590  0.5020  0.0196
  590MPD2     C 8743   0.540   3.284  16.482  0.4298  0.0749  0.2762
  590MPD2    C1 8744   0.527   3.416  16.443  0.0120  0.8943  0.0836
  590MPD2    C2 8745   0.601   3.468  16.334 -0.1740  0.2671  0.2074
  590MPD2    C3 8746   0.698   3.388  16.270  0.0505 -0.0157 -0.0683
  590MPD2    C4 8747   0.699   3.251  16.301  0.8317 -0.1429 -0.3994
  590MPD2    C5 8748   0.621   3.208  16.404 -0.0594  0.0145  0.1542
  590MPD2     H 8749   0.574   3.569  16.306  0.4330  0.8813  1.8836
  590MPD2    H1 8750   0.767   3.181  16.252  2.8607  1.3603  0.2510
  590MPD2    H2 8751   0.488   3.235  16.564  0.9189 -1.4203 -0.3088
  590MPD2    H3 8752   0.617   3.102  16.427  1.4533  0.1697  1.0989
  590MPD2     N 8753   0.770   3.454  16.167 -0.2911 -0.4201  0.1068
  590MPD2    H5 8754   0.759   3.552  16.143  0.3504 -0.3805 -0.0270
  590MPD2    N1 8755   0.437   3.514  16.510 -0.1311  0.0865  0.1022
  590MPD2    H7 8756   0.451   3.610  16.479 -2.5034  0.4573  0.1304
  591TMC3    C1 8757   0.919   3.482  15.984 -0.3644 -0.0294 -0.8029
  591TMC3    C2 8758   0.927   3.442  15.855 -0.1981 -0.5142  0.7712
  591TMC3    C3 8759   0.951   3.538  15.760  0.5160 -0.1422 -0.7877
  591TMC3    C4 8760   0.944   3.608  16.022  0.2791  0.3927  0.8154
  591TMC3    C5 8761   0.957   3.701  15.922  0.0666 -0.1107  0.0620
  591TMC3    C6 8762   0.954   3.669  15.787 -0.2147 -0.8506 -0.4639
  591TMC3     C 8763   0.856   3.388  16.081 -0.4182 -0.0076  0.0632
  591TMC3     O 8764   0.883   3.269  16.071  0.2520 -0.5161  0.0049
  591TMC3     H 8765   0.907   3.339  15.827  0.3636 -0.4890  0.2710
  591TMC3    H1 8766   0.940   3.640  16.126 -1.3347  1.0515  0.5496
  591TMC3    H2 8767   0.979   3.746  15.715 -0.7095 -0.5562 -0.3239
  591TMC3    C7 8768   0.968   3.840  15.966  0.3646 -0.0542  0.7030
  591TMC3    C8 8769   1.020   3.489  15.648  0.1123  1.1260  0.6206
  591TMC3    O1 8770   0.936   3.923  15.881 -0.0645  0.5682 -0.0875
  591TMC3    O2 8771   1.057   3.371  15.656  0.2806 -0.0322  0.0399
  592MPD2     C 8772   0.964   0.924  11.193  0.4051  0.0534 -0.3904
  592MPD2    C1 8773   1.033   0.916  11.314 -0.5365 -0.4955 -0.8723
  592MPD2    C2 8774   0.982   0.837  11.408 -0.4303  0.9289  0.5063
  592MPD2    C3 8775   0.855   0.780  11.385  0.2163 -0.3850 -0.5737
  592MPD2    C4 8776   0.789   0.798  11.263 -0.3941  0.0848 -0.3413
  592MPD2    C5 8777   0.841   0.868  11.162  0.0095 -1.0724  0.6628
  592MPD2     H 8778   1.029   0.808  11.501 -1.1126  1.4696  1.0209
  592MPD2    H1 8779   0.699   0.745  11.235 -0.8326  0.7919 -0.2405
  592MPD2    H2 8780   0.996   0.993  11.116 -0.9159  0.9718 -0.1143
  592MPD2    H3 8781   0.801   0.876  11.062  0.6143  0.5590  0.5604
  592MPD2     N 8782   0.811   0.685  11.481  0.0096 -0.9586 -0.2106
  592MPD2    H5 8783   0.875   0.682  11.559  0.2305 -0.6763 -0.3774
  592MPD2    N1 8784   1.152   0.994  11.337 -0.3942  0.3116 -0.3816
  592MPD2    H7 8785   1.173   1.054  11.258 -0.2893  2.0164  0.9569
  593TMC3    C1 8786   1.344   1.090  11.446 -0.2612 -0.7588  0.4538
  593TMC3    C2 8787   1.426   1.090  11.551  0.0068 -0.2119 -0.1966
  593TMC3    C3 8788   1.520   1.191  11.560  0.4949  0.1105  0.0274
  593TMC3    C4 8789   1.349   1.191  11.354  0.1504  0.6379 -0.1851
  593TMC3    C5 8790   1.430   1.295  11.382 -0.0263  0.4844 -0.1332
  593TMC3    C6 8791   1.521   1.305  11.484  0.1256 -0.1042 -0.2576
  593TMC3     C 8792   1.222   1.001  11.458  0.9880 -0.0328  0.2059
  593TMC3     O 8793   1.228   0.928  11.558  0.5880 -0.0811 -0.0413
  593TMC3     H 8794   1.421   1.015  11.629  1.0558 -0.3708 -0.2950
  593TMC3    H1 8795   1.256   1.202  11.300  0.9461 -2.1799 -2.0846
  593TMC3    H2 8796   1.592   1.386  11.494  0.1429 -0.0961 -0.4555
  593TMC3    C7 8797   1.435   1.402  11.281 -0.2956  0.1197  0.0953
  593TMC3    C8 8798   1.584   1.205  11.697 -0.4668  0.2874 -0.4791
  593TMC3    O1 8799   1.526   1.483  11.288 -0.2415  0.4449  0.9832
  593TMC3    O2 8800   1.607   1.106  11.765  0.3408  0.1260 -0.0388
  594MPD2     C 8801   0.055   3.970  13.995 -0.1119 -0.2551  0.5213
  594MPD2    C1 8802   4.686   4.069  13.965 -0.1297  0.5483  0.4879
  594MPD2    C2 8803   0.006   4.197  13.992 -0.0900 -0.2004 -0.7090
  594MPD2    C3 8804   0.130   4.220  14.052  0.6327 -0.3758 -0.6036
  594MPD2    C4 8805   0.225   4.116  14.070 -0.1684 -0.6612 -0.0288
  594MPD2    C5 8806   0.186   3.990  14.033  0.5432  0.0799  0.0467
  594MPD2     H 8807   4.657   4.279  13.982  0.3374  0.7908  4.3441
  594MPD2    H1 8808   0.326   4.129  14.107 -0.6595 -0.2124  1.1801
  594MPD2    H2 8809   0.029   3.869  13.968 -0.0031 -0.1914  0.1812
  594MPD2    H3 8810   0.258   3.909  14.034 -1.1545 -1.3806  1.7537
  594MPD2     N 8811   0.155   4.359  14.092  0.0449  0.1401 -0.9665
  594MPD2    H5 8812   0.079   4.426  14.091 -1.8861 -2.0097  0.2197
  594MPD2    N1 8813   4.560   4.033  13.916 -0.0681 -0.3977  0.0924
  594MPD2    H7 8814   4.532   3.938  13.937  1.0601 -0.4825  1.1599
  595TMC3    C1 8815   0.418   4.693  14.296 -0.1509 -0.4954  0.0922
  595TMC3    C2 8816   0.405   4.569  14.238 -0.0368  0.1906  0.4159
  595TMC3    C3 8817   0.280   4.539  14.195 -0.0657  0.4622 -0.5072
  595TMC3    C4 8818   0.310   0.051  14.329  0.3888 -0.4021 -0.2376
  595TMC3    C5 8819   0.185   0.018  14.282  0.0061  0.0124 -0.0726
  595TMC3    C6 8820   0.168   4.620  14.208 -0.2378  0.1080 -0.5504
  595TMC3     C 8821   0.517   4.704  14.398  1.0143 -0.3716 -0.0923
  595TMC3     O 8822   0.568   0.095  14.408  0.6045  0.2773 -0.1288
  595TMC3     H 8823   0.494   4.508  14.229 -0.0182  0.2351  0.2972
  595TMC3    H1 8824   0.325   0.151  14.368  0.1390 -0.4683  0.0231
  595TMC3    H2 8825   0.071   4.578  14.185  0.6699 -1.2246 -1.9606
  595TMC3    C7 8826   0.086   0.038  14.390 -0.2559  0.3747  0.0591
  595TMC3    C8 8827   0.281   4.407  14.131  0.2838 -0.0278  0.3130
  595TMC3    O1 8828   4.688   0.041  14.367  0.0921  0.3027  0.3666
  595TMC3    O2 8829   0.386   4.346  14.142 -0.0395 -0.2793  0.3808
  596MPD2     C 8830   3.811   2.494  16.762  0.1887 -0.1961 -0.4946
  596MPD2    C1 8831   3.818   2.613  16.690 -0.2851 -0.7666 -0.1194
  596MPD2    C2 8832   3.843   2.608  16.549 -0.1983  0.2473 -0.5580
  596MPD2    C3 8833   3.819   2.491  16.480 -0.6170 -0.6003 -0.2218
  596MPD2    C4 8834   3.833   2.373  16.552  0.4785  0.0449 -0.9310
  596MPD2    C5 8835   3.826   2.376  16.693  0.4985 -0.1912 -0.0893
  596MPD2     H 8836   3.853   2.703  16.497  2.2172 -0.7112 -1.8301
  596MPD2    H1 8837   3.824   2.278  16.499 -1.4707 -0.7116  0.7804
  596MPD2    H2 8838   3.801   2.493  16.870  1.0334  0.6485 -0.4021
  596MPD2    H3 8839   3.816   2.281  16.745 -0.2368  0.2116  0.4805
  596MPD2     N 8840   3.795   2.490  16.342 -0.0004 -0.6934 -0.8146
  596MPD2    H5 8841   3.777   2.399  16.300 -1.1980  0.4057 -2.6692
  596MPD2    N1 8842   3.803   2.745  16.752 -0.2986  0.4663  0.1724
  596MPD2    H7 8843   3.819   2.821  16.687 -0.5083 -0.2290 -0.6775
  597TMC3    C1 8844   3.739   2.917  16.892 -0.7030 -0.6092  0.2775
  597TMC3    C2 8845   3.797   3.005  16.805  0.1176 -0.3129  0.1046
  597TMC3    C3 8846   3.742   3.126  16.790  0.2060 -0.8289  0.2143
  597TMC3    C4 8847   3.622   2.945  16.951  0.0687 -0.4789 -0.1504
  597TMC3    C5 8848   3.568   3.073  16.940 -0.0020 -0.1565 -0.3845
  597TMC3    C6 8849   3.631   3.170  16.862  0.4564 -0.4004 -0.1887
  597TMC3     C 8850   3.755   2.773  16.878  0.6783  0.2031  0.3017
  597TMC3     O 8851   3.711   2.696  16.956  0.0262 -0.0792  0.0051
  597TMC3     H 8852   3.896   2.983  16.764  0.9551  1.4787  1.1879
  597TMC3    H1 8853   3.573   2.884  17.026  2.5550 -0.0376  1.8255
  597TMC3    H2 8854   3.598   3.271  16.845  1.6650 -0.1224 -0.7861
  597TMC3    C7 8855   3.449   3.105  17.009 -0.4126 -0.2791 -0.1042
  597TMC3    C8 8856   3.809   3.232  16.712 -0.3191  0.1498  0.2467
  597TMC3    O1 8857   3.387   3.020  17.066  0.2602 -0.3223 -0.6491
  597TMC3    O2 8858   3.796   3.345  16.752 -0.4463 -0.2863 -0.1677
  598TMC3    C1 8859   1.462   4.105  15.155 -0.5124  0.9871 -1.0380
  598TMC3    C2 8860   1.368   4.009  15.128 -0.7215  0.2242 -0.7184
  598TMC3    C3 8861   1.346   3.997  14.996  0.2740 -0.3574  0.0853
  598TMC3    C4 8862   1.526   4.174  15.063 -0.1839 -0.1799 -0.4067
  598TMC3    C5 8863   1.498   4.147  14.934  0.5533  0.2692 -0.2809
  598TMC3    C6 8864   1.400   4.068  14.894 -0.3268  0.5449 -0.0106
  598TMC3     C 8865   1.503   4.115  15.288 -0.0198 -0.2214  0.0516
  598TMC3     O 8866   1.533   4.223  15.336 -0.1460  0.6864 -0.3347
  598TMC3     H 8867   1.305   3.961  15.203 -2.3107  0.9650 -1.5909
  598TMC3    H1 8868   1.599   4.250  15.089  0.3861 -0.7153 -0.4621
  598TMC3    H2 8869   1.376   4.053  14.790 -1.7026 -0.0178  0.3804
  598TMC3    C7 8870   1.585   4.197  14.826 -0.3038  0.2497 -0.1374
  598TMC3    C8 8871   1.264   3.888  14.975 -0.3928 -0.1101 -0.2092
  598TMC3    O1 8872   1.559   4.158  14.717  0.0476  0.2926 -0.0422
  598TMC3    O2 8873   1.285   3.783  15.036 -0.4874 -0.3367  0.1931
  599MPD2     C 8874   1.978   1.820  15.830 -0.0038  0.5134 -0.1808
  599MPD2    C1 8875   1.899   1.710  15.846 -0.5383 -0.3239  0.5507
  599MPD2    C2 8876   1.766   1.722  15.880  0.0136  0.1458  0.2568
  599MPD2    C3 8877   1.712   1.843  15.917 -0.1795  0.2154  0.4247
  599MPD2    C4 8878   1.795   1.953  15.906  0.0910 -0.1232  0.3869
  599MPD2    C5 8879   1.923   1.946  15.863  0.0120 -0.0818  0.2283
  599MPD2     H 8880   1.712   1.629  15.893 -0.9055  0.5006 -0.9700
  599MPD2    H1 8881   1.753   2.048  15.936 -0.7981 -0.2617 -0.4334
  599MPD2    H2 8882   2.083   1.807  15.804 -0.4559  0.6860 -2.1197
  599MPD2    H3 8883   1.983   2.035  15.848 -1.4716  0.9293  0.3134
  599MPD2     N 8884   1.578   1.870  15.959  0.2353  0.1917  0.6364
  599MPD2    H5 8885   1.552   1.968  15.957 -1.9229 -0.3838  0.5867
  599MPD2    N1 8886   1.974   1.588  15.828  0.0935 -0.0929 -0.9249
  599MPD2    H7 8887   2.075   1.587  15.821  0.0342 -1.1537 -1.6807
  600TMC3    C1 8888   1.368   1.815  16.069  0.0138  0.2135  0.0235
  600TMC3    C2 8889   1.294   1.710  16.131  0.0386 -0.6975 -0.2744
  600TMC3    C3 8890   1.206   1.755  16.232 -0.5718  0.2180 -0.4326
  600TMC3    C4 8891   1.337   1.946  16.085 -0.2790  0.3109 -0.3853
  600TMC3    C5 8892   1.244   1.978  16.185  0.3385 -0.7520 -0.5621
  600TMC3    C6 8893   1.183   1.886  16.262  0.5690 -0.0985  0.2776
  600TMC3     C 8894   1.492   1.771  16.004  0.3449  0.2939 -0.2648
  600TMC3     O 8895   1.514   1.652  16.008 -0.1030  0.1175  0.0593
  600TMC3     H 8896   1.306   1.603  16.116  1.0152 -0.6493  0.1023
  600TMC3    H1 8897   1.386   2.023  16.025  0.2738  0.3320  0.0960
  600TMC3    H2 8898   1.111   1.911  16.339  0.9031  1.0105  0.2376
  600TMC3    C7 8899   1.192   2.110  16.200 -0.3186 -0.9013 -0.3148
  600TMC3    C8 8900   1.155   1.661  16.330 -0.9559 -0.1494 -0.3735
  600TMC3    O1 8901   1.091   2.119  16.270 -0.1713 -0.7624 -0.0437
  600TMC3    O2 8902   1.135   1.713  16.441 -0.1070 -0.2564  0.2973
  601MPD2     C 8903   3.853   4.462   0.404 -0.6771 -0.1189 -0.2818
  601MPD2    C1 8904   3.892   4.472   0.270 -0.1055  0.5790 -0.0287
  601MPD2    C2 8905   3.963   4.370   0.211 -0.2724 -0.4522  0.2044
  601MPD2    C3 8906   3.998   4.257   0.279 -0.1164  0.2845  0.4940
  601MPD2    C4 8907   3.948   4.239   0.408  0.6044  0.5345 -0.2177
  601MPD2    C5 8908   3.873   4.340   0.468 -0.6758 -0.1137 -0.1589
  601MPD2     H 8909   3.995   4.381   0.108 -2.0895 -1.3268 -0.4523
  601MPD2    H1 8910   3.954   4.145   0.462 -0.1451  0.0875 -0.9233
  601MPD2    H2 8911   3.803   4.538   0.462  0.1062 -1.3337  1.9786
  601MPD2    H3 8912   3.819   4.333   0.562  1.0796  1.1853  0.9444
  601MPD2     N 8913   4.070   4.147   0.222  0.0927  0.3117  0.5479
  601MPD2    H5 8914   4.092   4.074   0.288  1.5769  0.1351 -0.1415
  601MPD2    N1 8915   3.861   4.587   0.188  0.3610 -0.7506 -0.2082
  601MPD2    H7 8916   3.879   4.581   0.089  0.9047 -1.3166 -0.0744
  602TMC3    C1 8917   3.724   0.058   0.145 -0.6884  0.0196 -0.7307
  602TMC3    C2 8918   3.717   0.191   0.160  0.4966 -0.0427  0.2671
  602TMC3    C3 8919   3.613   0.260   0.096  0.4897 -0.7068 -0.2367
  602TMC3    C4 8920   3.638   4.707   0.068 -0.3145  0.0534  0.0704
  602TMC3    C5 8921   3.540   0.059   0.005  0.1703 -0.1036 -0.3298
  602TMC3    C6 8922   3.524   0.192   0.021  0.1029 -0.1109 -0.0104
  602TMC3     C 8923   3.809   4.703   0.238  0.2020 -0.2065  0.1019
  602TMC3     O 8924   3.826   0.020   0.353 -0.1503 -0.2357  0.2945
  602TMC3     H 8925   3.796   0.239   0.215 -1.9107  1.9747  1.9609
  602TMC3    H1 8926   3.643   4.601   0.047 -0.1993  0.2238 -0.7951
  602TMC3    H2 8927   3.472   0.251  17.632  1.3256  0.2517 -0.5820
  602TMC3    C7 8928   3.444   4.697  17.620  0.3981  0.5315 -0.3310
  602TMC3    C8 8929   3.585   0.399   0.121 -0.1260 -0.5742  0.2802
  602TMC3    O1 8930   3.466   4.583  17.593  0.1851  0.5073  0.5841
  602TMC3    O2 8931   3.673   0.466   0.172  0.6382 -0.6976  0.6933
  603TMC3    C1 8932   1.735   0.422  11.383  0.4832 -0.6371 -0.0645
  603TMC3    C2 8933   1.827   0.342  11.446  0.5050 -0.1993 -0.2085
  603TMC3    C3 8934   1.959   0.363  11.427 -0.3920  0.6611  0.2956
  603TMC3    C4 8935   1.779   0.527  11.303  0.7254  0.0060  0.1529
  603TMC3    C5 8936   1.910   0.544  11.290  0.5271  0.1872  0.3014
  603TMC3    C6 8937   2.006   0.477  11.363  0.1405 -0.5778  0.6679
  603TMC3     C 8938   1.603   0.398  11.413 -0.0225  0.0578 -0.0585
  603TMC3     O 8939   1.568   0.335  11.513 -0.1443  0.2579 -0.6890
  603TMC3     H 8940   1.786   0.258  11.501 -0.5482  1.5288  1.6505
  603TMC3    H1 8941   1.713   0.603  11.262  1.1047 -0.8662 -2.0767
  603TMC3    H2 8942   2.107   0.473  11.325 -1.1631 -0.9092 -2.6999
  603TMC3    C7 8943   1.951   0.654  11.209  1.0117  0.5102 -0.5081
  603TMC3    C8 8944   2.049   0.272  11.495 -0.2852 -0.0448 -1.0350
  603TMC3    O1 8945   2.065   0.694  11.224  0.4554 -0.0914  0.7626
  603TMC3    O2 8946   1.998   0.165  11.517  0.2303 -0.5983 -1.0546
  604MPD2     C 8947   2.788   3.808  16.344  0.4000 -0.4370  0.2932
  604MPD2    C1 8948   2.710   3.755  16.244  0.2396 -0.0213 -0.5710
  604MPD2    C2 8949   2.757   3.766  16.112  0.0283 -0.0438  0.8789
  604MPD2    C3 8950   2.888   3.803  16.090 -0.2918 -0.0582  0.4630
  604MPD2    C4 8951   2.967   3.855  16.189  0.0046  0.0552 -0.2002
  604MPD2    C5 8952   2.917   3.855  16.320 -0.0387  0.3021  0.1813
  604MPD2     H 8953   2.692   3.738  16.030 -1.2346 -0.7824  2.1301
  604MPD2    H1 8954   3.064   3.902  16.176  0.1709 -0.7182 -1.6802
  604MPD2    H2 8955   2.757   3.800  16.448  1.7431 -1.4421  0.6311
  604MPD2    H3 8956   2.979   3.897  16.398 -0.8748  0.7273  0.6222
  604MPD2     N 8957   2.929   3.821  15.955  0.2225 -0.4194 -0.7739
  604MPD2    H5 8958   2.859   3.811  15.883  0.4922 -0.2600 -1.0573
  604MPD2    N1 8959   2.586   3.702  16.281  0.3572  0.2341 -0.6150
  604MPD2    H7 8960   2.575   3.685  16.381 -2.1922 -1.0787 -1.1271
  605TMC3    C1 8961   2.391   3.585  16.277 -0.1194  0.1926  0.7259
  605TMC3    C2 8962   2.430   3.567  16.405 -0.5070  0.3191  0.2195
  605TMC3    C3 8963   2.351   3.593  16.515 -0.0501  0.3873  0.0768
  605TMC3    C4 8964   2.272   3.636  16.250  0.0958  0.1973 -0.3269
  605TMC3    C5 8965   2.193   3.674  16.356 -0.5198  0.3645  0.1752
  605TMC3    C6 8966   2.227   3.647  16.487  0.1062 -0.0807  0.2424
  605TMC3     C 8967   2.493   3.644  16.196  0.2832  0.3964 -0.8377
  605TMC3     O 8968   2.482   3.651  16.074 -0.1621  0.4246  0.1946
  605TMC3     H 8969   2.506   3.491  16.419 -1.9193 -1.1309 -0.1427
  605TMC3    H1 8970   2.248   3.659  16.147  0.3991  1.0583 -0.2095
  605TMC3    H2 8971   2.149   3.676  16.556 -0.6869 -0.9412 -0.2900
  605TMC3    C7 8972   2.072   3.744  16.328 -0.0389  0.1988 -0.0081
  605TMC3    C8 8973   2.438   3.686  16.590 -0.2041 -0.2762 -0.0607
  605TMC3    O1 8974   2.025   3.819  16.415 -0.4163  0.0739 -0.6555
  605TMC3    O2 8975   2.555   3.673  16.562 -0.2928 -0.1007 -0.1060
  606TMC3    C1 8976   4.256   2.241  16.888 -0.6938 -0.0579 -0.3189
  606TMC3    C2 8977   4.139   2.207  16.827 -0.1714  0.8188 -0.8400
  606TMC3    C3 8978   4.083   2.081  16.848 -0.1309 -0.3550 -0.3371
  606TMC3    C4 8979   4.309   2.146  16.969 -0.1119 -0.3229 -1.0800
  606TMC3    C5 8980   4.258   2.018  16.981  0.3930  0.1168 -0.3093
  606TMC3    C6 8981   4.151   1.973  16.908 -0.1323 -0.1995 -0.7006
  606TMC3     C 8982   4.290   2.377  16.898 -0.3571  0.2253 -0.4009
  606TMC3     O 8983   4.375   2.409  16.982  1.1516 -0.0336  0.2268
  606TMC3     H 8984   4.071   2.279  16.783 -1.2350  0.1006 -0.3786
  606TMC3    H1 8985   4.378   2.182  17.045 -3.6900  0.8059  1.6590
  606TMC3    H2 8986   4.101   1.877  16.920 -0.2555  0.1855  1.8599
  606TMC3    C7 8987   4.282   1.960  17.114  0.2114 -0.4822  0.5698
  606TMC3    C8 8988   3.955   2.048  16.793 -0.6911 -0.1938 -0.3204
  606TMC3    O1 8989   4.379   1.996  17.179  0.2596 -0.6950  0.0154
  606TMC3    O2 8990   3.952   2.032  16.671  0.4229 -0.4702  0.0443
  607MPD2     C 8991   1.238   0.374  11.937 -0.1422 -0.0457 -0.5045
  607MPD2    C1 8992   1.360   0.409  11.980 -0.0325 -0.7951 -0.3659
  607MPD2    C2 8993   1.416   0.341  12.081 -0.9194 -0.5561 -0.1571
  607MPD2    C3 8994   1.371   0.215  12.121  0.1848 -0.7074  1.1719
  607MPD2    C4 8995   1.250   0.174  12.069 -0.7411  0.0981 -0.6499
  607MPD2    C5 8996   1.180   0.258  11.985  0.3193  0.5306  0.4649
  607MPD2     H 8997   1.509   0.370  12.129 -1.8107 -2.0087  2.4836
  607MPD2    H1 8998   1.203   0.080  12.094  0.2791 -0.7802 -2.0113
  607MPD2    H2 8999   1.186   0.416  11.852 -1.4894  0.5490  0.6271
  607MPD2    H3 9000   1.082   0.236  11.943  0.4849  1.1726 -0.2496
  607MPD2     N 9001   1.440   0.143  12.223 -0.1483  0.0978  0.2630
  607MPD2    H5 9002   1.535   0.171  12.246 -0.0350  0.1770 -0.3099
  607MPD2    N1 9003   1.440   0.508  11.922  0.1556  0.7043 -0.5826
  607MPD2    H7 9004   1.533   0.516  11.962  0.5449  1.8951 -1.7325
  608TMC3    C1 9005   1.528   0.599  11.729  0.4737 -0.1700  0.6338
  608TMC3    C2 9006   1.640   0.538  11.770  0.6680  0.8682  0.0720
  608TMC3    C3 9007   1.756   0.584  11.719  0.1339 -0.0130  0.2231
  608TMC3    C4 9008   1.526   0.710  11.646  0.7641 -0.8462  0.0719
  608TMC3    C5 9009   1.651   0.745  11.587 -0.4451 -0.2751 -0.8065
  608TMC3    C6 9010   1.768   0.687  11.628 -0.1070 -0.2700  0.0459
  608TMC3     C 9011   1.416   0.561  11.799  0.4336 -0.0746 -0.0681
  608TMC3     O 9012   1.320   0.564  11.724  0.1653  0.6260 -0.2428
  608TMC3     H 9013   1.633   0.437  11.810 -0.7816 -0.0275 -2.3954
  608TMC3    H1 9014   1.434   0.742  11.599  1.0501  0.2239  0.2290
  608TMC3    H2 9015   1.858   0.701  11.569  0.0951  1.1731  0.6920
  608TMC3    C7 9016   1.661   0.853  11.496 -0.3219  0.6497  0.3072
  608TMC3    C8 9017   1.879   0.527  11.765  0.4835  0.1607  0.5088
  608TMC3    O1 9018   1.586   0.861  11.402 -0.1233  0.0906 -0.1171
  608TMC3    O2 9019   1.985   0.536  11.706  0.4476 -0.1230 -0.5094
  609TMC3    C1 9020   0.234   4.688   9.152 -0.4866  0.5288 -1.0081
  609TMC3    C2 9021   0.191   0.002   9.019 -0.6024 -0.1602  0.2887
  609TMC3    C3 9022   0.260   4.668   8.921 -0.6045  0.2775  0.6527
  609TMC3    C4 9023   0.334   4.589   9.165  0.2756 -0.4095  0.5423
  609TMC3    C5 9024   0.394   4.536   9.056  0.4327 -0.2994 -0.3262
  609TMC3    C6 9025   0.354   4.572   8.931 -1.2447  0.8773  0.0855
  609TMC3     C 9026   0.140   4.697   9.258  0.7383 -0.7871 -0.4745
  609TMC3     O 9027   0.153   4.626   9.355 -0.2835  0.1432  0.3974
  609TMC3     H 9028   0.129   0.087   8.992 -2.4741 -1.2937  0.9893
  609TMC3    H1 9029   0.370   4.557   9.262 -1.6811 -0.4626  1.2690
  609TMC3    H2 9030   0.405   4.527   8.846  0.0436  2.8104 -0.1464
  609TMC3    C7 9031   0.523   4.482   9.091  0.2089 -0.6125 -0.2594
  609TMC3    C8 9032   0.224   4.691   8.782 -0.4381 -0.4314  0.7225
  609TMC3    O1 9033   0.558   4.500   9.205  0.4239 -0.4372 -0.1400
  609TMC3    O2 9034   0.224   4.598   8.700  0.0924 -0.2543  0.1216
  610TMC3    C1 9035   1.068   0.470  12.592  0.7460  0.2361  0.5562
  610TMC3    C2 9036   1.101   0.567  12.685 -0.3785  0.6263 -0.2585
  610TMC3    C3 9037   1.220   0.551  12.749  0.1440  0.0322 -0.3929
  610TMC3    C4 9038   1.154   0.368  12.561 -0.0492 -0.0560 -0.3287
  610TMC3    C5 9039   1.267   0.355  12.640 -0.0570  0.6169  0.9673
  610TMC3    C6 9040   1.298   0.440  12.743 -0.2310  0.7561 -0.0159
  610TMC3     C 9041   0.941   0.474  12.518 -0.3851 -0.2022  0.0372
  610TMC3     O 9042   0.902   0.368  12.469 -0.2810 -0.2280  0.3565
  610TMC3     H 9043   1.030   0.644  12.712 -2.5462 -1.0438 -1.1580
  610TMC3    H1 9044   1.116   0.299  12.487  0.5132  0.3630 -0.9938
  610TMC3    H2 9045   1.359   0.403  12.825 -2.1808  0.8053  1.4633
  610TMC3    C7 9046   1.330   0.222  12.652 -0.7481 -0.4346 -0.2791
  610TMC3    C8 9047   1.256   0.641  12.853 -0.0319 -0.1973  0.1721
  610TMC3    O1 9048   1.434   0.219  12.711  0.7591  0.4889 -0.5310
  610TMC3    O2 9049   1.167   0.719  12.893 -0.1779  0.0921  0.0428
  611MPD2     C 9050   0.891   0.686  10.725 -0.1547 -0.1740 -0.0585
  611MPD2    C1 9051   0.896   0.702  10.589 -0.0017 -0.2267  0.0330
  611MPD2    C2 9052   1.009   0.752  10.539  0.1038  0.0133  0.1177
  611MPD2    C3 9053   1.118   0.777  10.622 -0.1772 -0.8840 -0.4381
  611MPD2    C4 9054   1.113   0.766  10.752 -0.0749 -0.2761  0.3050
  611MPD2    C5 9055   1.001   0.714  10.806 -1.0905 -0.3366 -0.2091
  611MPD2     H 9056   1.020   0.771  10.433  3.1061 -0.2011  0.3731
  611MPD2    H1 9057   1.194   0.793  10.819  1.5587 -1.6018 -1.1543
  611MPD2    H2 9058   0.798   0.653  10.769  0.9134 -1.0647  1.5237
  611MPD2    H3 9059   0.983   0.705  10.912  0.0115 -0.1381 -0.0147
  611MPD2     N 9060   1.236   0.844  10.575  0.2895 -0.1461  0.0100
  611MPD2    H5 9061   1.295   0.898  10.638 -0.7625  2.0405 -0.8885
  611MPD2    N1 9062   0.789   0.655  10.513  0.4961  0.1289  0.2085
  611MPD2    H7 9063   0.714   0.608  10.562 -0.6678  0.8955 -0.8524
  612TMC3    C1 9064   1.389   0.940  10.447 -0.4461 -0.1441  0.2480
  612TMC3    C2 9065   1.492   0.924  10.534  0.4276  0.9975  0.9171
  612TMC3    C3 9066   1.601   1.002  10.512  0.1097  0.8590 -0.0363
  612TMC3    C4 9067   1.395   1.014  10.335 -0.0334 -0.0934 -1.2823
  612TMC3    C5 9068   1.496   1.102  10.326  0.5399  0.1808 -0.3073
  612TMC3    C6 9069   1.599   1.098  10.417 -0.3907  0.0760  0.5002
  612TMC3     C 9070   1.285   0.838  10.450 -1.1108  0.5014  0.2394
  612TMC3     O 9071   1.243   0.774  10.355  0.0348 -0.2282  0.0608
  612TMC3     H 9072   1.489   0.853  10.615  2.6954 -1.5886 -1.2655
  612TMC3    H1 9073   1.305   1.030  10.276 -1.9758  0.5084  1.8308
  612TMC3    H2 9074   1.687   1.160  10.409  0.0292 -0.5953 -0.0882
  612TMC3    C7 9075   1.505   1.199  10.214  0.2597 -0.3652  0.1870
  612TMC3    C8 9076   1.713   1.010  10.604 -0.0321 -0.1790  0.7514
  612TMC3    O1 9077   1.412   1.189  10.136 -0.1591 -0.3841 -0.6363
  612TMC3    O2 9078   1.777   1.116  10.605 -0.2959 -0.2455  0.2987
  613MPD2     C 9079   0.246   3.005  16.485 -0.0072 -0.2333 -0.4641
  613MPD2    C1 9080   0.191   3.080  16.385  0.6558 -0.0763 -0.3385
  613MPD2    C2 9081   0.103   3.016  16.301  0.0755 -0.1319 -0.0758
  613MPD2    C3 9082   0.086   2.878  16.305  0.4670  0.1169 -0.0406
  613MPD2    C4 9083   0.160   2.800  16.398 -0.0000 -0.0424 -0.2175
  613MPD2    C5 9084   0.230   2.873  16.492  0.8240  0.5359  0.0423
  613MPD2     H 9085   0.053   3.073  16.224  1.2050  0.1816 -0.5824
  613MPD2    H1 9086   0.162   2.692  16.393 -0.6409 -0.0890  0.4164
  613MPD2    H2 9087   0.306   3.048  16.565  1.7451 -0.8503 -1.4404
  613MPD2    H3 9088   0.287   2.811  16.561  2.8860  0.7804 -1.4539
  613MPD2     N 9089   0.029   2.813  16.209 -0.0529 -0.1136 -0.3202
  613MPD2    H5 9090   0.028   2.715  16.237 -1.3186 -0.5740 -1.9802
  613MPD2    N1 9091   0.213   3.223  16.383 -0.4983  0.1046  0.5239
  613MPD2    H7 9092   0.249   3.253  16.473  0.7596 -4.4258  1.5091
  614TMC3    C1 9093   0.207   3.250  16.139  0.1329 -0.0735  0.1193
  614TMC3    C2 9094   0.286   3.145  16.099  0.5604  0.1355 -0.6729
  614TMC3    C3 9095   0.287   3.115  15.963 -0.6484 -0.7699 -0.2862
  614TMC3    C4 9096   0.137   3.327  16.050  0.6790  0.3991 -0.2138
  614TMC3    C5 9097   0.138   3.286  15.919  0.8417  0.0719  0.0143
  614TMC3    C6 9098   0.211   3.187  15.870 -0.2250  0.5943 -0.1587
  614TMC3     C 9099   0.212   3.308  16.266 -0.2139 -0.6129 -0.2062
  614TMC3     O 9100   0.213   3.429  16.273 -0.1913  0.0709 -0.1360
  614TMC3     H 9101   0.350   3.093  16.169  1.5391 -0.1108 -1.7477
  614TMC3    H1 9102   0.072   3.400  16.096  0.1855 -1.0291  1.3499
  614TMC3    H2 9103   0.209   3.145  15.770  0.9118  2.7430 -1.0892
  614TMC3    C7 9104   0.058   3.372  15.840  0.4501 -0.2754  0.6787
  614TMC3    C8 9105   0.321   2.982  15.924  0.1451  0.1692  0.0167
  614TMC3    O1 9106   4.703   3.445  15.898  0.9340 -0.3249 -0.5400
  614TMC3    O2 9107   0.307   2.903  16.014  0.2495  0.0062 -1.1975
  615MPD2     C 9108   4.498   3.976  16.082 -0.0904  0.3611  0.3737
  615MPD2    C1 9109   4.433   4.097  16.074 -0.2386 -0.1069  0.2575
  615MPD2    C2 9110   4.414   4.141  15.945 -0.3990 -0.4632 -0.1537
  615MPD2    C3 9111   4.428   4.055  15.835  0.6977 -0.0972 -0.4507
  615MPD2    C4 9112   4.487   3.933  15.848 -0.7920 -0.4354 -0.5754
  615MPD2    C5 9113   4.522   3.897  15.969 -0.2053 -0.9718  0.2040
  615MPD2     H 9114   4.372   4.240  15.933 -0.7715 -0.4956  0.9344
  615MPD2    H1 9115   4.507   3.867  15.765  0.2818 -1.7880  0.7676
  615MPD2    H2 9116   4.533   3.943  16.179  0.9939 -1.1737 -0.5381
  615MPD2    H3 9117   4.580   3.809  15.997  0.4939 -0.6011 -0.1048
  615MPD2     N 9118   4.375   4.109  15.713 -0.7566  0.4415  0.2647
  615MPD2    H5 9119   4.353   4.207  15.725 -0.7896  0.6390 -1.3824
  615MPD2    N1 9120   4.393   4.182  16.181  0.3596  0.2661 -0.1649
  615MPD2    H7 9121   4.372   4.279  16.162  1.3834  0.2589 -1.3620
  616TMC3    C1 9122   4.350   4.263  16.394 -0.4209  0.4022 -0.3235
  616TMC3    C2 9123   4.407   4.388  16.372 -0.4477  0.3422 -0.4502
  616TMC3    C3 9124   4.330   4.499  16.411 -0.3595 -0.2147  0.7372
  616TMC3    C4 9125   4.227   4.254  16.447 -0.4432 -0.5608  0.3459
  616TMC3    C5 9126   4.155   4.365  16.481 -0.4316 -0.1262  0.7000
  616TMC3    C6 9127   4.200   4.489  16.453  0.3004 -0.2738 -0.1559
  616TMC3     C 9128   4.392   4.150  16.315  0.0769  0.0915 -0.5786
  616TMC3     O 9129   4.387   4.038  16.365  0.0943  0.5462  0.0245
  616TMC3     H 9130   4.502   4.393  16.320  0.0254  0.4957  0.4377
  616TMC3    H1 9131   4.185   4.156  16.464  0.0024 -1.2214 -2.3301
  616TMC3    H2 9132   4.143   4.575  16.487 -0.8091 -0.5793 -1.2464
  616TMC3    C7 9133   4.018   4.350  16.518  0.4388 -0.0706  0.0313
  616TMC3    C8 9134   4.393   4.629  16.401 -0.1817  0.8547  0.0771
  616TMC3    O1 9135   3.988   4.240  16.563  0.2000  0.0798 -0.2091
  616TMC3    O2 9136   4.318   0.004  16.402 -0.1521  0.4008 -0.1781
  617MPD2     C 9137   2.280   2.110  13.690 -0.5106  0.3402 -0.3204
  617MPD2    C1 9138   2.326   2.059  13.809  0.3784 -0.2733 -0.3462
  617MPD2    C2 9139   2.239   2.038  13.917  0.6452 -0.2382  0.7223
  617MPD2    C3 9140   2.110   2.082  13.915  0.3386  1.0470  0.6322
  617MPD2    C4 9141   2.064   2.144  13.795 -0.2097  0.2587  0.4124
  617MPD2    C5 9142   2.149   2.160  13.686 -0.0266  0.6761  0.5291
  617MPD2     H 9143   2.285   2.012  14.012  3.0960 -0.0048 -0.3780
  617MPD2    H1 9144   1.959   2.166  13.779  0.1988  1.8022 -0.0870
  617MPD2    H2 9145   2.338   2.127  13.600  0.5662 -0.9282  0.1409
  617MPD2    H3 9146   2.118   2.211  13.595 -0.3600 -1.0365 -0.3196
  617MPD2     N 9147   2.017   2.067  14.022  0.1350 -0.6147 -0.2293
  617MPD2    H5 9148   1.923   2.100  14.001  0.0076  0.0023  1.3540
  617MPD2    N1 9149   2.463   2.021  13.815 -0.1472 -0.0632 -0.4432
  617MPD2    H7 9150   2.521   2.048  13.737  1.5826 -1.0070  0.5293
  618TMC3    C1 9151   2.652   1.917  13.874  0.5180 -0.1096 -1.1005
  618TMC3    C2 9152   2.690   1.785  13.873  1.0196  0.1169  0.1957
  618TMC3    C3 9153   2.775   1.744  13.779 -0.0512  0.4712 -0.0026
  618TMC3    C4 9154   2.710   2.011  13.794  0.3494 -0.0779 -0.0100
  618TMC3    C5 9155   2.799   1.959  13.701  0.0111  0.3177  0.0142
  618TMC3    C6 9156   2.831   1.830  13.689 -0.8452  0.0415 -0.1609
  618TMC3     C 9157   2.518   1.938  13.909 -0.2830 -0.3860  0.0151
  618TMC3     O 9158   2.478   1.895  14.015 -0.2918 -0.1236  0.0550
  618TMC3     H 9159   2.647   1.702  13.928 -0.8894 -0.4243 -2.1358
  618TMC3    H1 9160   2.692   2.117  13.786  2.8477  0.3532 -0.0497
  618TMC3    H2 9161   2.887   1.803  13.600  2.0007  0.5794  1.4787
  618TMC3    C7 9162   2.815   2.048  13.591 -0.1137  0.0430 -0.2460
  618TMC3    C8 9163   2.762   1.605  13.739  0.1604 -0.6149  0.0753
  618TMC3    O1 9164   2.878   2.144  13.612  0.1551  0.4876  0.6781
  618TMC3    O2 9165   2.650   1.558  13.768  0.3376  0.1465 -0.6747
  619MPD2     C 9166   3.908   3.536  13.436  0.1906 -0.8413 -0.1707
  619MPD2    C1 9167   3.876   3.569  13.306 -0.1008  0.9986 -0.0898
  619MPD2    C2 9168   3.738   3.568  13.281 -0.4358  0.5450  0.5048
  619MPD2    C3 9169   3.641   3.528  13.367  0.1409  0.2027  0.5637
  619MPD2    C4 9170   3.684   3.484  13.487  0.2580 -0.0909 -0.0771
  619MPD2    C5 9171   3.816   3.488  13.525 -0.2293  0.3390 -0.4375
  619MPD2     H 9172   3.721   3.599  13.178  0.4916  1.3136  0.5768
  619MPD2    H1 9173   3.612   3.440  13.555  0.9454 -0.0274  0.6972
  619MPD2    H2 9174   4.009   3.526  13.473 -0.4093 -1.3559  1.3457
  619MPD2    H3 9175   3.846   3.457  13.624  0.4015 -1.5409 -1.2274
  619MPD2     N 9176   3.505   3.516  13.335 -0.4448 -0.3881  0.1882
  619MPD2    H5 9177   3.441   3.483  13.407 -0.9646 -0.7181 -0.4233
  619MPD2    N1 9178   3.963   3.611  13.204  0.0865 -0.1902  0.2730
  619MPD2    H7 9179   3.926   3.626  13.111  1.7198 -1.0133 -0.5142
  620TMC3    C1 9180   4.169   3.673  13.110  0.8877 -0.3596  0.2007
  620TMC3    C2 9181   4.141   3.609  12.993 -0.5376 -0.4288  1.0688
  620TMC3    C3 9182   4.198   3.658  12.879 -0.1208  0.8078  0.0525
  620TMC3    C4 9183   4.245   3.782  13.121  0.4791 -1.1734 -0.1254
  620TMC3    C5 9184   4.285   3.834  12.998 -0.1769  0.5373  0.0663
  620TMC3    C6 9185   4.266   3.775  12.878 -0.5019  0.1785 -0.3062
  620TMC3     C 9186   4.097   3.625  13.222  0.0907 -1.1054  0.1745
  620TMC3     O 9187   4.154   3.637  13.325  0.3571  0.4779 -0.1219
  620TMC3     H 9188   4.079   3.520  12.990 -0.3363 -0.4512 -2.5494
  620TMC3    H1 9189   4.272   3.821  13.218 -0.2146  3.7351 -1.9251
  620TMC3    H2 9190   4.303   3.811  12.783 -1.7354 -1.9661 -1.5978
  620TMC3    C7 9191   4.243   3.973  12.987  0.0789  0.2474  0.6169
  620TMC3    C8 9192   4.125   3.660  12.762 -0.5073  0.1384 -0.2460
  620TMC3    O1 9193   4.205   3.999  12.874  0.3923 -0.4644  0.3205
  620TMC3    O2 9194   4.076   3.552  12.740  0.9986 -0.1573  0.2975
  621MPD2     C 9195   4.595   3.805   9.226 -0.4963 -0.3482  0.6339
  621MPD2    C1 9196   4.607   3.777   9.361 -0.2675 -0.0040 -0.4808
  621MPD2    C2 9197   4.689   3.862   9.436 -0.3277 -0.5153 -0.0966
  621MPD2    C3 9198   0.031   3.970   9.383  0.0145 -0.2188 -0.2525
  621MPD2    C4 9199   0.009   4.000   9.250 -0.4106  0.1452  0.7523
  621MPD2    C5 9200   4.661   3.915   9.170  0.3162  0.3605 -0.1682
  621MPD2     H 9201   4.699   3.841   9.542 -1.6748  2.1972  0.5689
  621MPD2    H1 9202   0.045   4.090   9.200 -0.7461 -0.6520 -0.9490
  621MPD2    H2 9203   4.517   3.762   9.165 -0.4814  1.0487 -0.3798
  621MPD2    H3 9204   4.628   3.945   9.071 -0.0463  0.8215  0.0929
  621MPD2     N 9205   0.109   4.052   9.473  0.5345 -0.1214 -0.7828
  621MPD2    H5 9206   0.108   4.025   9.571 -0.0841 -0.5735 -0.9152
  621MPD2    N1 9207   4.543   3.667   9.429 -0.2136 -0.1325  0.4255
  621MPD2    H7 9208   4.551   3.672   9.530  2.4449 -0.7398  0.2283
  622TMC3    C1 9209   4.376   3.511   9.469  0.5680 -0.3648 -0.3093
  622TMC3    C2 9210   4.405   3.531   9.604 -0.0349  0.2825 -0.1260
  622TMC3    C3 9211   4.321   3.456   9.689 -0.5666 -0.5921 -0.4177
  622TMC3    C4 9212   4.282   3.424   9.421 -0.2529 -0.8334 -0.3859
  622TMC3    C5 9213   4.205   3.364   9.516  0.2126  0.2706 -0.4698
  622TMC3    C6 9214   4.229   3.369   9.650 -0.0037 -0.4189 -0.9518
  622TMC3     C 9215   4.457   3.582   9.368 -0.0751 -0.2340 -0.4261
  622TMC3     O 9216   4.423   3.568   9.253  0.0386  0.1330 -0.2314
  622TMC3     H 9217   4.494   3.582   9.640 -0.3133  0.0710  0.8778
  622TMC3    H1 9218   4.255   3.426   9.316 -0.3689  2.7976 -0.2708
  622TMC3    H2 9219   4.177   3.311   9.726 -1.1704 -0.8400 -2.0720
  622TMC3    C7 9220   4.091   3.285   9.482 -1.0711 -0.9332 -0.2521
  622TMC3    C8 9221   4.332   3.480   9.835 -0.8774 -0.6789 -0.5161
  622TMC3    O1 9222   4.046   3.203   9.564 -0.2324  0.1464  0.5404
  622TMC3    O2 9223   4.442   3.490   9.888 -0.2620 -0.2493 -0.1272
  623MPD2     C 9224   2.958   4.189  15.956  0.2737  0.7299 -0.5458
  623MPD2    C1 9225   2.863   4.163  16.049 -0.5784 -0.1376  0.5291
  623MPD2    C2 9226   2.896   4.171  16.182 -0.3271  0.2408  0.1989
  623MPD2    C3 9227   3.021   4.200  16.227 -0.2803  0.8548  0.5116
  623MPD2    C4 9228   3.118   4.224  16.133 -0.5647  0.0412 -0.0181
  623MPD2    C5 9229   3.080   4.218  16.000 -0.1237 -0.5798 -0.0422
  623MPD2     H 9230   2.819   4.154  16.256  0.1717 -0.1872  0.6203
  623MPD2    H1 9231   3.216   4.245  16.175 -0.1095  1.5102 -1.7859
  623MPD2    H2 9232   2.950   4.184  15.848 -0.8513 -1.7476 -0.3413
  623MPD2    H3 9233   3.158   4.227  15.925  0.1094 -2.2935  0.0110
  623MPD2     N 9234   3.041   4.199  16.366  0.0821 -0.3703  0.3207
  623MPD2    H5 9235   2.960   4.171  16.419  0.0439  0.2123  0.5660
  623MPD2    N1 9236   2.731   4.130  16.020 -0.2628 -0.1409 -0.5098
  623MPD2    H7 9237   2.683   4.095  16.102  0.4576  1.5596  0.6423
  624TMC3    C1 9238   3.187   3.986  16.709 -0.0342  0.2832  0.1967
  624TMC3    C2 9239   3.062   3.992  16.761 -0.3031  0.0102 -0.4996
  624TMC3    C3 9240   2.971   4.086  16.714 -0.3245 -0.0145 -0.2188
  624TMC3    C4 9241   3.225   4.067  16.608  0.4171 -0.1713 -0.0013
  624TMC3    C5 9242   3.138   4.162  16.566  0.5073  0.4156  0.3819
  624TMC3    C6 9243   3.015   4.178  16.625  0.2209  0.0765 -0.1824
  624TMC3     C 9244   3.282   3.915  16.788  0.3513 -0.4284 -0.4324
  624TMC3     O 9245   3.272   3.947  16.907  0.2503  0.1193  0.1499
  624TMC3     H 9246   3.029   3.923  16.837 -0.1587  0.2235 -0.2462
  624TMC3    H1 9247   3.324   4.061  16.563 -0.4794  2.6514 -2.3919
  624TMC3    H2 9248   2.938   4.251  16.602 -0.1189 -1.3325 -3.5563
  624TMC3    C7 9249   3.153   4.225  16.437 -0.4632  0.3325  1.2589
  624TMC3    C8 9250   2.841   4.026  16.693 -0.3133  1.0194 -0.7790
  624TMC3    O1 9251   3.270   4.245  16.396 -0.2633  0.1343 -0.4046
  624TMC3    O2 9252   2.850   3.907  16.687 -1.0131  0.0104 -0.1200
  625MPD2     C 9253   2.977   0.309   0.628 -0.1207 -0.7469 -0.2703
  625MPD2    C1 9254   3.070   0.401   0.673 -0.0162 -1.2419  0.0087
  625MPD2    C2 9255   3.183   0.359   0.743  0.5234  0.0478 -0.1108
  625MPD2    C3 9256   3.217   0.224   0.744  0.1197 -0.4241 -0.5776
  625MPD2    C4 9257   3.128   0.133   0.699  0.4005  0.0057  0.2885
  625MPD2    C5 9258   3.013   0.173   0.638 -0.6087 -0.2058  0.1911
  625MPD2     H 9259   3.254   0.428   0.786 -1.4207  2.1711 -0.3178
  625MPD2    H1 9260   3.142   0.025   0.706  0.1169  0.0401  1.3021
  625MPD2    H2 9261   2.886   0.327   0.571  0.1710  1.2624 -0.0900
  625MPD2    H3 9262   2.948   0.096   0.598 -1.3251  0.0713  0.8115
  625MPD2     N 9263   3.340   0.195   0.802 -0.3582 -0.2108 -0.3213
  625MPD2    H5 9264   3.392   0.279   0.824  0.4595 -1.2164  1.6369
  625MPD2    N1 9265   3.041   0.541   0.666 -0.8091  0.4585  0.6469
  625MPD2    H7 9266   3.111   0.603   0.707  0.3764 -0.4322 -0.0390
  626TMC3    C1 9267   2.952   0.744   0.607 -0.5169 -0.7691  0.2815
  626TMC3    C2 9268   2.938   0.801   0.485  1.0190 -0.5992 -0.3143
  626TMC3    C3 9269   3.021   0.910   0.468  0.1352  0.0005 -0.3690
  626TMC3    C4 9270   3.036   0.791   0.702 -0.6874  1.2448 -0.5394
  626TMC3    C5 9271   3.127   0.884   0.674  0.7029  0.3486 -0.6315
  626TMC3    C6 9272   3.116   0.949   0.554  0.5145  0.5794 -0.1250
  626TMC3     C 9273   2.936   0.600   0.606  0.5404  0.2400 -0.6789
  626TMC3     O 9274   2.850   0.549   0.534 -0.2979  0.6438  0.4063
  626TMC3     H 9275   2.892   0.745   0.405  0.0499  1.2494 -1.0521
  626TMC3    H1 9276   3.034   0.754   0.804 -1.3237  1.9257 -0.3070
  626TMC3    H2 9277   3.191   1.022   0.524  2.3216 -1.2014  0.0952
  626TMC3    C7 9278   3.258   0.837   0.712  1.0604 -0.6586  0.7181
  626TMC3    C8 9279   3.025   0.977   0.343  0.4428  0.0519  0.3975
  626TMC3    O1 9280   3.275   0.716   0.726  0.0547 -0.1266 -0.5954
  626TMC3    O2 9281   2.990   0.914   0.243 -0.1898 -0.4979 -0.0953
  627MPD2     C 9282   1.864   0.908  14.443 -0.2884  0.0570 -0.1763
  627MPD2    C1 9283   1.888   0.856  14.567  0.1971 -0.2141 -0.2443
  627MPD2    C2 9284   1.814   0.748  14.618  0.4233  0.3755 -0.0076
  627MPD2    C3 9285   1.710   0.703  14.545  0.1124  0.3211  0.4130
  627MPD2    C4 9286   1.685   0.757  14.419  0.0292  0.1245  0.2130
  627MPD2    C5 9287   1.772   0.856  14.369 -0.7122 -0.7065  0.1173
  627MPD2     H 9288   1.843   0.700  14.710  0.3441  1.0413  0.3651
  627MPD2    H1 9289   1.602   0.716  14.363 -0.3652  2.1297 -0.6687
  627MPD2    H2 9290   1.926   0.979  14.391  1.7281 -1.6915 -0.1727
  627MPD2    H3 9291   1.746   0.906  14.277  0.4465  2.2641  1.3937
  627MPD2     N 9292   1.631   0.598  14.586 -0.9737 -0.5375 -0.3159
  627MPD2    H5 9293   1.561   0.561  14.523  1.6432 -2.9312 -1.8004
  627MPD2    N1 9294   1.999   0.897  14.645 -0.2822 -0.4249 -0.1077
  627MPD2    H7 9295   2.025   0.845  14.728  0.8404  0.6077  0.1923
  628TMC3    C1 9296   2.162   1.063  14.708 -0.0771 -0.0170 -0.8562
  628TMC3    C2 9297   2.246   0.971  14.761 -0.9531 -0.1254  0.1808
  628TMC3    C3 9298   2.340   1.005  14.849 -0.6776 -0.3624 -0.1372
  628TMC3    C4 9299   2.167   1.195  14.750 -0.0521  0.2422  0.0256
  628TMC3    C5 9300   2.261   1.224  14.844  0.8766  0.1679  0.0704
  628TMC3    C6 9301   2.352   1.131  14.890  0.7256  0.5161 -0.5371
  628TMC3     C 9302   2.043   1.026  14.642 -0.1090 -0.3763  0.5537
  628TMC3     O 9303   1.983   1.118  14.592  0.1880 -1.0968 -0.5788
  628TMC3     H 9304   2.252   0.871  14.720  2.3440  0.1012  0.0792
  628TMC3    H1 9305   2.097   1.267  14.709  0.1972  0.7817  0.5492
  628TMC3    H2 9306   2.445   1.170  14.930 -0.5364  1.9404  1.0372
  628TMC3    C7 9307   2.281   1.363  14.882 -0.0043 -0.1962  0.1022
  628TMC3    C8 9308   2.460   0.924  14.848 -0.3318 -0.0496  0.2052
  628TMC3    O1 9309   2.370   1.382  14.964 -0.3644 -1.1208 -0.0697
  628TMC3    O2 9310   2.459   0.836  14.765 -0.1813  0.1705  0.0636
  629MPD2     C 9311   0.061   0.238  16.322  0.1126 -0.7199  0.0001
  629MPD2    C1 9312   0.123   0.114  16.351  0.1051  0.5633 -0.2479
  629MPD2    C2 9313   0.034   0.007  16.368  0.2803  0.6340  0.6428
  629MPD2    C3 9314   4.616   0.023  16.368  0.4056  0.1651 -0.6660
  629MPD2    C4 9315   4.563   0.142  16.328 -0.1941  0.1755 -0.6617
  629MPD2    C5 9316   4.646   0.246  16.298 -0.2346 -1.1174 -1.0875
  629MPD2     H 9317   0.074   4.631  16.397  1.7462  0.7441 -1.0066
  629MPD2    H1 9318   4.457   0.155  16.313 -0.1414 -0.8013 -1.8725
  629MPD2    H2 9319   0.127   0.322  16.302  0.4446 -0.3314  2.6865
  629MPD2    H3 9320   4.602   0.335  16.255  0.3535 -0.1593  0.2919
  629MPD2     N 9321   4.535   4.631  16.403 -0.2335 -0.0238 -0.0397
  629MPD2    H5 9322   4.581   4.545  16.430  0.1678 -0.0001 -0.6305
  629MPD2    N1 9323   0.261   0.102  16.360 -0.0294  0.0845 -0.3184
  629MPD2    H7 9324   0.318   0.178  16.323  1.0309 -1.3226 -1.6010
  630TMC3    C1 9325   0.469   4.703  16.381 -0.5922  0.6550  0.4333
  630TMC3    C2 9326   0.528   0.054  16.276 -0.0264 -0.7213  0.3100
  630TMC3    C3 9327   0.652   0.030  16.235 -0.1956 -0.4586  0.2776
  630TMC3    C4 9328   0.551   4.618  16.454 -0.2675 -0.4513 -0.5259
  630TMC3    C5 9329   0.685   4.595  16.411  0.0372 -0.5097 -0.1660
  630TMC3    C6 9330   0.738   4.662  16.299  0.6684  0.4419  0.2672
  630TMC3     C 9331   0.330   4.714  16.408 -0.3578 -0.8888 -0.8510
  630TMC3     O 9332   0.285   4.613  16.463 -0.5603 -0.1514  0.1455
  630TMC3     H 9333   0.463   0.123  16.222  0.1740 -0.8278 -0.0695
  630TMC3    H1 9334   0.507   4.575  16.543  0.3641 -0.4905 -0.2320
  630TMC3    H2 9335   0.833   4.642  16.251 -0.9891 -1.5972 -2.1457
  630TMC3    C7 9336   0.779   4.572  16.518  0.0271 -0.0651  0.6616
  630TMC3    C8 9337   0.727   0.143  16.193 -0.3543  0.4109 -0.0144
  630TMC3    O1 9338   0.737   4.526  16.622 -0.1236 -0.3145  0.2448
  630TMC3    O2 9339   0.841   0.140  16.240 -0.2863 -0.6114 -0.6690
  631MPD2     C 9340   3.847   4.162  14.763 -0.1057 -0.4257  0.0623
  631MPD2    C1 9341   3.773   4.192  14.877 -0.4406 -0.5195 -0.5823
  631MPD2    C2 9342   3.841   4.174  15.000  0.1241 -0.0024  0.1408
  631MPD2    C3 9343   3.970   4.138  15.003 -0.5396 -0.4562  0.0328
  631MPD2    C4 9344   4.039   4.107  14.888  0.8434 -0.3515  0.2893
  631MPD2    C5 9345   3.972   4.111  14.771  0.2611 -0.0218  0.7273
  631MPD2     H 9346   3.799   4.213  15.092  0.3143 -2.4014  1.2560
  631MPD2    H1 9347   4.142   4.072  14.881  1.3370  0.5924  2.9490
  631MPD2    H2 9348   3.800   4.182  14.668 -1.4289 -0.2867  0.7386
  631MPD2    H3 9349   4.016   4.084  14.676 -0.4926 -0.7396  0.5800
  631MPD2     N 9350   4.029   4.149  15.124 -0.7519 -0.2029 -0.1458
  631MPD2    H5 9351   3.964   4.183  15.194  0.5139 -0.0789  0.9767
  631MPD2    N1 9352   3.647   4.251  14.866  0.6806  0.8169  0.0773
  631MPD2    H7 9353   3.627   4.315  14.791  0.5528 -0.7441 -1.2324
  632TMC3    C1 9354   3.435   4.329  14.960  0.9380  0.5030  0.0581
  632TMC3    C2 9355   3.363   4.320  15.076  0.0364  0.2187 -0.1131
  632TMC3    C3 9356   3.269   4.419  15.096  0.1185  0.0381 -0.3716
  632TMC3    C4 9357   3.418   4.429  14.869  0.2055 -0.5078 -0.0095
  632TMC3    C5 9358   3.317   4.523  14.892  0.2576  0.7078 -0.9200
  632TMC3    C6 9359   3.244   4.515  15.003 -0.3339 -0.5860  0.3059
  632TMC3     C 9360   3.551   4.239  14.969 -0.1894 -0.7513  0.1216
  632TMC3     O 9361   3.573   4.202  15.083  0.2717 -0.2292  0.1649
  632TMC3     H 9362   3.374   4.239  15.147 -2.1784 -0.2159 -0.2562
  632TMC3    H1 9363   3.489   4.441  14.787  2.2212  3.1867  2.2655
  632TMC3    H2 9364   3.171   4.590  15.032 -1.5632 -1.5165 -0.3995
  632TMC3    C7 9365   3.308   4.643  14.813 -0.9212  0.0885 -0.1703
  632TMC3    C8 9366   3.240   4.444  15.236  0.8180  0.4390 -0.2113
  632TMC3    O1 9367   3.257   0.025  14.861 -0.2099  0.7341  0.1752
  632TMC3    O2 9368   3.129   4.490  15.252 -0.1801 -0.5377 -0.1478
  633MPD2     C 9369   3.304   2.522  17.401 -0.1468  1.2815 -0.0584
  633MPD2    C1 9370   3.360   2.442  17.302  0.0461 -0.4326  0.4472
  633MPD2    C2 9371   3.403   2.318  17.336 -0.0669  0.4417 -0.6282
  633MPD2    C3 9372   3.382   2.266  17.465 -0.2340 -0.0177  0.3083
  633MPD2    C4 9373   3.326   2.343  17.560  0.1425 -0.2665  0.0169
  633MPD2    C5 9374   3.281   2.467  17.525  0.0090 -0.0350  0.0377
  633MPD2     H 9375   3.461   2.257  17.267 -0.1901 -0.1696 -0.1945
  633MPD2    H1 9376   3.305   2.299  17.657  1.5801  0.0743  0.4709
  633MPD2    H2 9377   3.278   2.626  17.387  1.0197  1.7759  1.4251
  633MPD2    H3 9378   3.225   2.534  17.590 -0.3156 -0.3660  0.1001
  633MPD2     N 9379   3.407   2.132  17.496  0.3885  0.0762  0.1811
  633MPD2    H5 9380   3.413   2.115  17.596 -0.9527 -0.3358  0.1989
  633MPD2    N1 9381   3.350   2.470  17.164  0.5346 -0.2026 -0.4602
  633MPD2    H7 9382   3.396   2.409  17.097 -0.6399 -0.5474 -0.9440
  634TMC3    C1 9383   3.322   2.602  16.975  0.5112 -0.3222 -0.2056
  634TMC3    C2 9384   3.362   2.495  16.896  0.9162 -0.1257  0.1027
  634TMC3    C3 9385   3.405   2.520  16.767  0.4220 -0.6359 -0.4746
  634TMC3    C4 9386   3.326   2.723  16.923  0.2547  1.2797  0.0219
  634TMC3    C5 9387   3.359   2.743  16.794 -0.0693 -0.0041  0.3938
  634TMC3    C6 9388   3.409   2.639  16.710  0.4329 -1.0479 -0.1702
  634TMC3     C 9389   3.298   2.592  17.116  0.1763 -0.5232  0.5197
  634TMC3     O 9390   3.239   2.687  17.166 -0.0406 -0.0864 -0.0314
  634TMC3     H 9391   3.351   2.395  16.937 -0.0161 -0.5789 -1.2397
  634TMC3    H1 9392   3.294   2.804  16.987 -0.8963  0.1357  0.9041
  634TMC3    H2 9393   3.454   2.659  16.614 -1.8165  1.8437 -0.6151
  634TMC3    C7 9394   3.315   2.864  16.723  0.2672  0.2334  0.1760
  634TMC3    C8 9395   3.463   2.399  16.699  0.1348 -0.3893  0.1845
  634TMC3    O1 9396   3.348   2.878  16.606 -0.1888 -0.0368  0.2858
  634TMC3    O2 9397   3.482   2.302  16.775  0.4328  0.1151 -0.3440
  635TMC3    C1 9398   3.612   3.542  17.422  0.0040 -0.7149 -0.3609
  635TMC3    C2 9399   3.587   3.407  17.412 -0.4720 -0.0182 -0.5282
  635TMC3    C3 9400   3.463   3.364  17.425  0.3105 -0.3965  0.3324
  635TMC3    C4 9401   3.517   3.626  17.465 -0.1728  0.3065  0.5286
  635TMC3    C5 9402   3.393   3.581  17.479 -0.2491 -0.0913 -0.2410
  635TMC3    C6 9403   3.365   3.445  17.465 -0.4791 -0.9151  0.6840
  635TMC3     C 9404   3.748   3.587  17.444 -0.2488 -0.2452  0.4522
  635TMC3     O 9405   3.763   3.685  17.518 -0.4055  0.1521  0.4749
  635TMC3     H 9406   3.675   3.344  17.408  1.1275  2.2563 -0.8253
  635TMC3    H1 9407   3.547   3.730  17.474  0.6073  0.1230 -0.0191
  635TMC3    H2 9408   3.270   3.400  17.488 -0.5456 -1.6493 -1.0125
  635TMC3    C7 9409   3.294   3.651  17.555 -0.1310 -0.1442  0.2773
  635TMC3    C8 9410   3.444   3.221  17.430 -0.3997  0.5379 -0.1382
  635TMC3    O1 9411   3.184   3.598  17.552  0.4119  0.4511  0.2166
  635TMC3    O2 9412   3.339   3.174  17.474  0.0543  0.5665 -0.4163
  636MPD2     C 9413   4.398   3.246  15.424  0.3450 -0.2861 -0.3513
  636MPD2    C1 9414   4.390   3.265  15.561  0.6130  0.1962  0.4395
  636MPD2    C2 9415   4.428   3.165  15.649 -0.2251 -0.1335 -0.6056
  636MPD2    C3 9416   4.492   3.051  15.597  0.0806  0.1862  0.0895
  636MPD2    C4 9417   4.503   3.034  15.459 -0.1384 -0.3086  0.3958
  636MPD2    C5 9418   4.440   3.125  15.376 -0.1894  0.1053  0.0621
  636MPD2     H 9419   4.417   3.180  15.756 -1.3613 -0.9554 -0.6103
  636MPD2    H1 9420   4.538   2.942  15.414  1.4345 -0.3763  1.7422
  636MPD2    H2 9421   4.374   3.325  15.353  3.0133  0.5187 -0.3609
  636MPD2    H3 9422   4.451   3.117  15.269  1.3602 -3.2217  0.4609
  636MPD2     N 9423   4.528   2.949  15.688  0.1184  0.9945 -0.2642
  636MPD2    H5 9424   4.504   2.962  15.786  1.9466  0.2143  0.2895
  636MPD2    N1 9425   4.337   3.384  15.624  0.4783  0.2186  0.2297
  636MPD2    H7 9426   4.354   3.398  15.723  0.0216 -0.0986  0.3505
  637TMC3    C1 9427   4.598   2.748  15.775  0.0110  0.3361 -0.0960
  637TMC3    C2 9428   4.572   2.809  15.900  0.2682  0.2997  0.1492
  637TMC3    C3 9429   4.657   2.767  15.995 -0.7703 -0.5013  0.4499
  637TMC3    C4 9430   4.691   2.644  15.763 -0.1800  0.2781 -0.4058
  637TMC3    C5 9431   0.038   2.602  15.871  0.0716 -0.8052  0.1085
  637TMC3    C6 9432   0.023   2.658  15.987  0.1124 -0.2008 -1.1876
  637TMC3     C 9433   4.585   2.829  15.662  0.2635  0.4498  0.0512
  637TMC3     O 9434   4.619   2.775  15.557 -0.7473 -0.2661  0.2428
  637TMC3     H 9435   4.490   2.877  15.922 -0.0492 -0.1380  0.3221
  637TMC3    H1 9436   4.693   2.573  15.681 -0.9116 -0.0910 -0.1020
  637TMC3    H2 9437   0.090   2.638  16.070  0.5862 -0.8323 -1.7191
  637TMC3    C7 9438   0.161   2.524  15.849  0.1282 -0.9078  0.8310
  637TMC3    C8 9439   4.685   2.865  16.098  0.0211 -0.4149  0.4725
  637TMC3    O1 9440   0.230   2.493  15.940 -0.2784  0.3584  0.5516
  637TMC3    O2 9441   4.632   2.976  16.092 -0.1420  0.2492  0.6850
  638MPD2     C 9442   4.286   1.584  14.489  0.8136  0.4569  0.1429
  638MPD2    C1 9443   4.252   1.471  14.432  0.2401 -0.0444  0.4240
  638MPD2    C2 9444   4.215   1.370  14.519  0.6856  0.5768 -0.7539
  638MPD2    C3 9445   4.226   1.386  14.661  0.1988  0.1297 -0.0583
  638MPD2    C4 9446   4.276   1.500  14.716 -0.0375 -0.2127 -0.4267
  638MPD2    C5 9447   4.297   1.602  14.625 -0.2955 -0.4473 -0.3278
  638MPD2     H 9448   4.195   1.271  14.480 -0.2070  1.1231 -1.6755
  638MPD2    H1 9449   4.281   1.513  14.824  2.1481  1.9135 -0.7895
  638MPD2    H2 9450   4.323   1.673  14.439 -0.8676  0.6237 -0.8015
  638MPD2    H3 9451   4.324   1.703  14.654 -1.1405  0.2042 -1.8036
  638MPD2     N 9452   4.194   1.273  14.735 -0.1378 -0.3219  0.2422
  638MPD2    H5 9453   4.186   1.193  14.673  1.1081 -1.3856  1.4622
  638MPD2    N1 9454   4.249   1.464  14.288  0.1132 -0.0777  0.4944
  638MPD2    H7 9455   4.300   1.539  14.242  0.6407 -0.5687  0.2848
  639TMC3    C1 9456   4.173   1.112  14.889  0.2642  0.3251  0.2262
  639TMC3    C2 9457   4.092   1.046  14.800  0.2920 -0.1482  0.5322
  639TMC3    C3 9458   4.101   0.908  14.791 -0.5672 -0.6040  0.7387
  639TMC3    C4 9459   4.272   1.047  14.961 -0.4663  0.9197  0.6005
  639TMC3    C5 9460   4.257   0.913  14.962  0.2050  0.1760 -1.0770
  639TMC3    C6 9461   4.178   0.833  14.882 -0.0749 -0.1921 -0.2409
  639TMC3     C 9462   4.203   1.252  14.866 -0.0165  0.4210 -0.4183
  639TMC3     O 9463   4.254   1.321  14.954 -0.3603  0.2193 -0.7865
  639TMC3     H 9464   4.021   1.100  14.738 -0.5671 -2.5607 -0.6242
  639TMC3    H1 9465   4.337   1.101  15.029  1.2676  1.6186 -1.6134
  639TMC3    H2 9466   4.178   0.725  14.895 -1.3879 -0.2150 -0.4142
  639TMC3    C7 9467   4.350   0.847  15.047 -0.5166 -0.3653  0.3030
  639TMC3    C8 9468   4.029   0.851  14.676  0.1691 -0.3933 -0.4399
  639TMC3    O1 9469   4.361   0.886  15.164 -0.0689 -0.0906 -0.1090
  639TMC3    O2 9470   3.976   0.741  14.687  0.0632  0.3166  0.2350
  640MPD2     C 9471   0.060   0.214  10.181  0.5108  0.4424  0.0513
  640MPD2    C1 9472   0.097   0.299  10.081  0.0932  0.2727 -0.0186
  640MPD2    C2 9473   0.042   0.428  10.080 -0.0509 -0.6139  0.3710
  640MPD2    C3 9474   4.669   0.470  10.173 -0.4001  0.6255 -0.3923
  640MPD2    C4 9475   4.631   0.373  10.268 -0.7142 -0.3826  0.2524
  640MPD2    C5 9476   4.687   0.251  10.271  0.2430 -0.2468  0.5880
  640MPD2     H 9477   0.061   0.489   9.992 -1.9578 -0.5017  0.0343
  640MPD2    H1 9478   4.559   0.403  10.344 -1.2386  3.5018 -1.7790
  640MPD2    H2 9479   0.093   0.111  10.175 -2.0859 -0.1869 -3.5893
  640MPD2    H3 9480   4.657   0.173  10.340  0.0404 -0.3649  0.3685
  640MPD2     N 9481   4.610   0.594  10.180 -0.2692  0.4547  0.4959
  640MPD2    H5 9482   4.538   0.604  10.250  0.6277  0.2622  1.4447
  640MPD2    N1 9483   0.203   0.257   9.991  0.4482  0.3045  0.3803
  640MPD2    H7 9484   0.251   0.169  10.005 -0.6092  0.2494  3.8370
  641TMC3    C1 9485   0.352   0.259   9.811 -0.3089 -0.2113 -0.0413
  641TMC3    C2 9486   0.420   0.147   9.845  0.0729 -0.3428 -0.3156
  641TMC3    C3 9487   0.465   0.058   9.753  0.1683 -0.2002 -0.5838
  641TMC3    C4 9488   0.357   0.301   9.678 -0.0065 -0.1027  0.6354
  641TMC3    C5 9489   0.409   0.212   9.589  0.4466 -0.3835  0.7810
  641TMC3    C6 9490   0.452   0.089   9.617  0.0189 -0.1993 -0.8247
  641TMC3     C 9491   0.258   0.337   9.893  0.2657 -0.6521  0.3613
  641TMC3     O 9492   0.229   0.446   9.845 -0.2160 -0.2955 -1.0344
  641TMC3     H 9493   0.424   0.127   9.952  1.1664 -0.0315 -0.2949
  641TMC3    H1 9494   0.315   0.392   9.638  0.9343  0.4096  0.8194
  641TMC3    H2 9495   0.467   0.018   9.537  0.3936 -1.7325  0.6237
  641TMC3    C7 9496   0.409   0.256   9.448  0.1436  0.4987 -0.2053
  641TMC3    C8 9497   0.538   4.663   9.789  0.3270  0.4493  0.6802
  641TMC3    O1 9498   0.344   0.359   9.427  0.1962  0.2204  0.6377
  641TMC3    O2 9499   0.542   4.580   9.704 -0.1345  0.3790  0.8495
  642TMC3    C1 9500   1.102   1.353  12.275  0.4507 -0.3068  0.2939
  642TMC3    C2 9501   1.238   1.366  12.296  0.1231 -0.1868  0.4178
  642TMC3    C3 9502   1.311   1.251  12.269  0.1476  0.0198 -0.4376
  642TMC3    C4 9503   1.039   1.240  12.235  0.0165  0.1093 -0.9229
  642TMC3    C5 9504   1.119   1.131  12.207  0.0186  0.0754 -0.2781
  642TMC3    C6 9505   1.256   1.135  12.225  0.4146 -0.4700  0.1442
  642TMC3     C 9506   1.016   1.458  12.304  0.8597 -0.6123  0.4346
  642TMC3     O 9507   0.897   1.440  12.272 -0.5258  0.3183  0.8482
  642TMC3     H 9508   1.283   1.457  12.334 -2.0674  0.8197  0.5524
  642TMC3    H1 9509   0.933   1.216  12.226 -0.4895  2.2056 -0.7202
  642TMC3    H2 9510   1.319   1.051  12.200 -0.8106 -1.5548  0.6729
  642TMC3    C7 9511   1.064   1.010  12.147  0.4110  0.3173 -0.4441
  642TMC3    C8 9512   1.447   1.250  12.323 -0.0533 -0.3033  0.0192
  642TMC3    O1 9513   0.958   1.018  12.085  0.1854  0.4084 -0.0116
  642TMC3    O2 9514   1.467   1.340  12.402 -0.0874  0.0459  0.7515
  643TMC3    C1 9515   0.268   1.239   0.476 -0.4669  0.2048 -0.6965
  643TMC3    C2 9516   0.142   1.279   0.439  0.0887 -0.2541 -0.6269
  643TMC3    C3 9517   0.055   1.182   0.402 -0.3155  0.3574  0.7859
  643TMC3    C4 9518   0.299   1.108   0.475 -0.9207 -0.8690  0.6849
  643TMC3    C5 9519   0.224   1.016   0.423 -0.1443  0.3358 -0.8252
  643TMC3    C6 9520   0.090   1.047   0.410  0.6126 -0.0046 -0.2654
  643TMC3     C 9521   0.346   1.344   0.525  0.5123 -0.0670 -0.1643
  643TMC3     O 9522   0.310   1.458   0.499 -0.2616  0.8670  0.5249
  643TMC3     H 9523   0.116   1.384   0.431  4.3999  0.8279 -0.2927
  643TMC3    H1 9524   0.398   1.076   0.505  0.9829  3.0849 -1.3713
  643TMC3    H2 9525   0.023   0.974   0.365 -0.6366  1.0709 -0.1418
  643TMC3    C7 9526   0.273   0.978   0.292 -0.5825  0.3494 -0.5293
  643TMC3    C8 9527   0.002   1.208   0.271  0.0751  0.0634 -0.1727
  643TMC3    O1 9528   0.357   1.062   0.260  0.2500  0.5447  0.4359
  643TMC3    O2 9529   4.626   1.142   0.244 -0.5148 -0.5863 -0.1759
  644MPD2     C 9530   0.136   0.564   9.281  0.6316 -0.1155  0.5162
  644MPD2    C1 9531   0.246   0.634   9.231 -0.2817 -0.4281 -0.2999
  644MPD2    C2 9532   0.211   0.746   9.162 -0.0039 -0.7980  0.3941
  644MPD2    C3 9533   0.081   0.794   9.155  0.8503  0.1027 -0.2182
  644MPD2    C4 9534   4.707   0.719   9.204  0.4575 -0.1638  0.1376
  644MPD2    C5 9535   0.007   0.599   9.269  0.1990  0.7617 -0.7163
  644MPD2     H 9536   0.289   0.813   9.128 -0.1543 -0.3990  0.8253
  644MPD2    H1 9537   4.603   0.751   9.210  0.6837  0.1634  2.3892
  644MPD2    H2 9538   0.155   0.464   9.319  0.7382 -0.5715 -0.7396
  644MPD2    H3 9539   4.645   0.539   9.304 -0.3978  1.8000 -0.3557
  644MPD2     N 9540   0.063   0.923   9.104 -0.2683 -0.1886  0.2749
  644MPD2    H5 9541   0.148   0.972   9.079 -1.4270  1.5000 -0.3393
  644MPD2    N1 9542   0.378   0.579   9.257 -1.0619  0.2733 -0.1470
  644MPD2    H7 9543   0.382   0.502   9.322 -3.1321 -0.7096 -1.2017
  645TMC3    C1 9544   4.661   1.127   9.087 -0.3153 -0.2736  0.3149
  645TMC3    C2 9545   0.043   1.196   9.151  0.4457 -0.4304  0.4461
  645TMC3    C3 9546   0.022   1.325   9.191  0.5162  0.7101  1.3536
  645TMC3    C4 9547   4.555   1.195   9.046  0.0601 -0.4496 -1.1641
  645TMC3    C5 9548   4.545   1.330   9.079 -0.1063 -0.5084  0.0606
  645TMC3    C6 9549   4.638   1.395   9.151 -0.1879 -1.4234  0.5837
  645TMC3     C 9550   4.657   0.983   9.082  0.4829  0.4171 -0.5470
  645TMC3     O 9551   4.547   0.931   9.062  0.5758  0.0106 -0.9272
  645TMC3     H 9552   0.133   1.145   9.183  0.6522  0.7526  1.7604
  645TMC3    H1 9553   4.469   1.149   8.997 -1.9449  1.2539  0.7673
  645TMC3    H2 9554   4.628   1.503   9.161 -0.9721 -1.5260  0.9297
  645TMC3    C7 9555   4.417   1.397   9.032 -0.1844 -0.7403 -0.0538
  645TMC3    C8 9556   0.142   1.410   9.225 -0.1648 -0.1800  0.3039
  645TMC3    O1 9557   4.358   1.340   8.943  0.0183 -0.3238  0.2450
  645TMC3    O2 9558   0.137   1.523   9.184  0.2587 -0.2120 -0.3813
  646MPD2     C 9559   4.283   0.014  14.289 -0.6049  0.1828  0.4731
  646MPD2    C1 9560   4.210   0.042  14.398  0.5307 -0.3952 -0.2541
  646MPD2    C2 9561   4.089   0.108  14.378 -0.4232  0.0322  0.1873
  646MPD2    C3 9562   4.045   0.129  14.247 -0.4527 -0.8914  1.1350
  646MPD2    C4 9563   4.119   0.093  14.142 -0.0392 -0.4739  0.6969
  646MPD2    C5 9564   4.240   0.042  14.159 -0.3265 -0.1231  0.4269
  646MPD2     H 9565   4.027   0.140  14.460 -0.9310  0.8905 -0.5293
  646MPD2    H1 9566   4.081   0.108  14.041 -3.8636 -0.1652  2.1803
  646MPD2    H2 9567   4.375   4.677  14.287 -1.0284 -0.4512 -0.6798
  646MPD2    H3 9568   4.291   4.714  14.076 -0.8384 -0.1327  0.1232
  646MPD2     N 9569   3.922   0.192  14.234 -0.0948 -0.6277  0.1806
  646MPD2    H5 9570   3.881   0.240  14.313  0.8703  1.0502 -0.3554
  646MPD2    N1 9571   4.261   0.002  14.525 -0.2339  0.0264  0.4009
  646MPD2    H7 9572   4.352   4.677  14.523  0.3820  1.1655  2.8747
  647TMC3    C1 9573   4.281   4.685  14.757 -0.2029 -0.0101  0.1075
  647TMC3    C2 9574   4.218   4.714  14.876 -0.4854  0.2513 -0.3005
  647TMC3    C3 9575   4.297   4.698  14.982 -0.1139  0.2443 -0.0920
  647TMC3    C4 9576   4.416   4.652  14.743 -0.7855 -0.1301  0.2922
  647TMC3    C5 9577   4.486   4.644  14.864 -1.0432  0.3050 -0.3369
  647TMC3    C6 9578   4.429   4.662  14.985  0.3011 -0.1449  0.2059
  647TMC3     C 9579   4.198   0.009  14.642 -0.0984  0.2572  0.5201
  647TMC3     O 9580   4.083   0.044  14.660  0.1759 -0.1408 -0.3222
  647TMC3     H 9581   4.121   0.040  14.888 -0.1183  0.8498  0.4128
  647TMC3    H1 9582   4.458   4.625  14.646  1.3332  2.4537  0.4755
  647TMC3    H2 9583   4.496   4.682  15.068 -1.6887 -2.1894  2.3188
  647TMC3    C7 9584   4.604   4.563  14.884 -0.1052 -0.5194 -0.0109
  647TMC3    C8 9585   4.237   4.693  15.114  0.4095 -0.3177  0.4813
  647TMC3    O1 9586   4.649   4.536  14.996  0.1454 -0.1556 -0.1387
  647TMC3    O2 9587   4.129   0.022  15.145 -0.0835  0.1293 -0.4872
  648TMC3    C1 9588   3.771   2.563  16.113 -0.9389  0.3970 -0.5125
  648TMC3    C2 9589   3.765   2.439  16.062 -1.0663  0.1425 -0.0234
  648TMC3    C3 9590   3.775   2.422  15.921  0.1614  0.1181 -0.3750
  648TMC3    C4 9591   3.766   2.668  16.026  0.5323  0.2134  0.3037
  648TMC3    C5 9592   3.738   2.645  15.894 -0.3996  0.0220  0.2661
  648TMC3    C6 9593   3.752   2.519  15.835  0.0368 -0.5931 -0.2685
  648TMC3     C 9594   3.801   2.596  16.251  0.3103  0.3229  0.0497
  648TMC3     O 9595   3.829   2.715  16.270 -0.3736 -0.7810 -0.4616
  648TMC3     H 9596   3.782   2.359  16.133 -0.5299  0.9980  0.8103
  648TMC3    H1 9597   3.783   2.772  16.052  3.1424  0.1934 -1.2799
  648TMC3    H2 9598   3.766   2.520  15.728 -0.3123 -0.9902 -0.3199
  648TMC3    C7 9599   3.704   2.760  15.809  0.2529 -0.1276 -0.7629
  648TMC3    C8 9600   3.854   2.310  15.886  0.2970 -0.5926  0.0461
  648TMC3    O1 9601   3.739   2.767  15.694  0.7861  0.0017  0.1527
  648TMC3    O2 9602   3.849   2.216  15.963 -1.1240  0.6018 -0.0472
  649TMC3    C1 9603   2.350   3.589  12.300  0.4898  0.2186  0.2472
  649TMC3    C2 9604   2.434   3.694  12.284 -0.1880 -0.9434 -0.7246
  649TMC3    C3 9605   2.478   3.747  12.401  0.3425  0.9650  0.0938
  649TMC3    C4 9606   2.315   3.535  12.416 -0.4887 -0.4736  0.6542
  649TMC3    C5 9607   2.361   3.584  12.530  0.1731  0.5379 -0.3280
  649TMC3    C6 9608   2.436   3.698  12.527  0.0324  0.5610 -0.2935
  649TMC3     C 9609   2.256   3.549  12.196 -0.1725  0.8219  0.1492
  649TMC3     O 9610   2.159   3.493  12.236 -0.4931 -0.1577  0.1062
  649TMC3     H 9611   2.450   3.747  12.191 -0.0155  0.7547  0.2882
  649TMC3    H1 9612   2.251   3.448  12.419  0.1075 -0.9261  0.1655
  649TMC3    H2 9613   2.454   3.757  12.616  1.1137 -0.4672  0.1713
  649TMC3    C7 9614   2.315   3.527  12.654  0.3717  0.0050 -0.0533
  649TMC3    C8 9615   2.558   3.866  12.402 -0.1928 -0.1180 -0.6399
  649TMC3    O1 9616   2.386   3.533  12.754 -0.4772 -0.6116  0.5116
  649TMC3    O2 9617   2.539   3.951  12.490  0.1719  0.1598  0.5211
  650TMC3    C1 9618   0.639   0.532  12.823  0.0453 -0.2870 -0.4315
  650TMC3    C2 9619   0.611   0.665  12.853 -0.3410  0.5169  0.0596
  650TMC3    C3 9620   0.489   0.718  12.808  0.3366  0.0668  0.0523
  650TMC3    C4 9621   0.557   0.459  12.735 -0.3881  0.0061  0.3734
  650TMC3    C5 9622   0.448   0.523  12.673 -0.3063  0.1473  0.5474
  650TMC3    C6 9623   0.410   0.651  12.719 -0.0313  0.5940 -0.1670
  650TMC3     C 9624   0.768   0.481  12.856  0.3183  0.5080  0.0379
  650TMC3     O 9625   0.853   0.561  12.889 -0.0666  0.0752 -0.0774
  650TMC3     H 9626   0.673   0.712  12.928 -1.8141 -1.5065  2.5307
  650TMC3    H1 9627   0.576   0.354  12.716 -1.0490 -0.1517  0.5641
  650TMC3    H2 9628   0.331   0.710  12.674 -0.2614  0.1239 -0.3770
  650TMC3    C7 9629   0.370   0.443  12.579  1.1497  0.0922  0.0931
  650TMC3    C8 9630   0.462   0.862  12.828  0.3471 -0.6199 -1.0565
  650TMC3    O1 9631   0.364   0.322  12.592 -0.3923 -0.0423  0.3697
  650TMC3    O2 9632   0.422   0.926  12.732  0.1671  0.0054  0.5940
  651MPD2     C 9633   4.239   2.232  10.958 -0.5831  0.0355  0.5104
  651MPD2    C1 9634   4.218   2.322  10.857  0.4329 -0.0440 -1.1286
  651MPD2    C2 9635   4.326   2.389  10.808 -0.1857  0.5447  0.5423
  651MPD2    C3 9636   4.454   2.361  10.842 -0.9222 -0.4625  0.4113
  651MPD2    C4 9637   4.475   2.270  10.944  0.1450  0.5890  0.0872
  651MPD2    C5 9638   4.365   2.207  11.000 -0.3811 -0.0812 -0.0690
  651MPD2     H 9639   4.315   2.462  10.729  0.2976 -0.1779 -0.2060
  651MPD2    H1 9640   4.575   2.250  10.981  0.4713  2.1428  0.0367
  651MPD2    H2 9641   4.154   2.183  11.005  1.1317 -2.8089  0.6591
  651MPD2    H3 9642   4.387   2.136  11.079 -2.6610 -0.9456 -0.2237
  651MPD2     N 9643   4.560   2.424  10.765  0.6074 -0.1482 -0.1551
  651MPD2    H5 9644   4.534   2.492  10.694 -0.1322  1.1114  1.3138
  651MPD2    N1 9645   4.088   2.360  10.818  0.5524 -0.5990 -0.4005
  651MPD2    H7 9646   4.084   2.443  10.760  0.6464 -0.5131 -0.2819
  652TMC3    C1 9647   0.255   2.574  10.622 -0.0337  0.7663 -0.1827
  652TMC3    C2 9648   0.187   2.471  10.676 -0.1536  0.0477  0.2147
  652TMC3    C3 9649   0.048   2.483  10.690  0.1476  0.4231  0.3434
  652TMC3    C4 9650   0.205   2.682  10.572 -0.3043 -0.3491 -0.5604
  652TMC3    C5 9651   0.072   2.688  10.573  0.4334 -0.0462  0.0309
  652TMC3    C6 9652   4.710   2.594  10.629  0.6255 -0.4227  0.1557
  652TMC3     C 9653   0.393   2.584  10.647 -0.5752 -0.1991  0.7781
  652TMC3     O 9654   0.436   2.517  10.741  0.0988  0.3261 -0.6158
  652TMC3     H 9655   0.232   2.386  10.726 -0.3348 -0.9666 -1.3301
  652TMC3    H1 9656   0.255   2.774  10.545  1.3535 -1.0484  0.0857
  652TMC3    H2 9657   4.604   2.620  10.636 -0.1710 -2.7645 -3.5708
  652TMC3    C7 9658   4.719   2.795  10.501 -0.1331  1.1637 -0.6271
  652TMC3    C8 9659   4.694   2.403  10.776  0.2259  0.0379  0.1869
  652TMC3    O1 9660   4.605   2.768  10.464 -0.2845  0.5311  0.2953
  652TMC3    O2 9661   0.025   2.329  10.855  0.2110 -0.3671 -0.4175
  653MPD2     C 9662   3.005   2.620   0.011  0.1548  0.0168  0.0067
  653MPD2    C1 9663   3.009   2.702  17.586 -0.2965 -0.5409  0.4036
  653MPD2    C2 9664   2.964   2.650  17.463 -0.0168 -0.6130  0.3067
  653MPD2    C3 9665   2.914   2.523  17.448 -0.1000  1.0701  1.1772
  653MPD2    C4 9666   2.910   2.438  17.557  0.5326 -0.5525 -0.3645
  653MPD2    C5 9667   2.959   2.488  17.673 -1.0820  0.3528 -0.3810
  653MPD2     H 9668   2.939   2.708  17.375  0.4740  1.0565  1.2731
  653MPD2    H1 9669   2.875   2.336  17.560  0.5697 -0.5600 -0.2142
  653MPD2    H2 9670   3.046   2.654   0.105 -0.6066  1.5539 -0.2108
  653MPD2    H3 9671   2.967   2.422   0.074 -0.5466  0.4777 -0.3337
  653MPD2     N 9672   2.884   2.481  17.318 -0.4935 -0.1570  1.1841
  653MPD2    H5 9673   2.860   2.553  17.252  0.1781 -2.0892 -1.1714
  653MPD2    N1 9674   3.033   2.843  17.593  0.1175 -1.1590  0.0267
  653MPD2    H7 9675   3.023   2.903  17.511 -0.4796 -0.5538  0.5404
  654TMC3    C1 9676   2.793   2.325  17.164 -0.2831 -0.4358  0.7540
  654TMC3    C2 9677   2.718   2.432  17.106 -0.9177 -0.3392 -0.2235
  654TMC3    C3 9678   2.693   2.422  16.976  0.4525  0.0423  0.8104
  654TMC3    C4 9679   2.842   2.224  17.095  0.6456  0.2572  0.0313
  654TMC3    C5 9680   2.819   2.228  16.953 -1.2417 -0.1609  0.0197
  654TMC3    C6 9681   2.739   2.324  16.897 -0.7286 -0.5011 -0.2550
  654TMC3     C 9682   2.856   2.350  17.292  0.5173  0.4725  0.3358
  654TMC3     O 9683   2.884   2.253  17.360  0.6552  0.2472 -0.4533
  654TMC3     H 9684   2.682   2.514  17.168 -1.2712 -1.2371  0.7710
  654TMC3    H1 9685   2.908   2.151  17.142 -1.1373 -1.0995  0.4507
  654TMC3    H2 9686   2.715   2.312  16.792  3.0548  1.2183 -1.3191
  654TMC3    C7 9687   2.847   2.110  16.877 -0.0863 -0.1677 -0.2694
  654TMC3    C8 9688   2.596   2.518  16.929  0.1138  0.2347 -0.5460
  654TMC3    O1 9689   2.843   2.132  16.756 -0.1691 -0.0956 -0.1349
  654TMC3    O2 9690   2.507   2.565  17.001  0.4397  0.3275 -0.1107
  655MPD2     C 9691   4.233   2.740  15.633 -0.2894 -0.0409  0.4079
  655MPD2    C1 9692   4.186   2.852  15.572 -0.5489  0.2639  0.3513
  655MPD2    C2 9693   4.176   2.861  15.434 -0.6613 -0.3614  0.0710
  655MPD2    C3 9694   4.222   2.757  15.350 -0.0312 -0.9234  0.0523
  655MPD2    C4 9695   4.272   2.649  15.417  0.1198 -0.2778 -0.3469
  655MPD2    C5 9696   4.268   2.635  15.557  0.6509 -0.6534 -0.4389
  655MPD2     H 9697   4.151   2.957  15.389 -2.5745 -0.5411  0.7533
  655MPD2    H1 9698   4.328   2.568  15.372  0.1031 -0.0047 -0.8633
  655MPD2    H2 9699   4.238   2.742  15.741 -1.6677  2.5323  0.4309
  655MPD2    H3 9700   4.308   2.546  15.604  0.7340  0.1383  0.9629
  655MPD2     N 9701   4.227   2.746  15.206  0.1357  0.5688 -0.3696
  655MPD2    H5 9702   4.269   2.662  15.168 -1.6278 -0.4023 -0.1875
  655MPD2    N1 9703   4.140   2.965  15.646 -0.5810  0.0500 -0.0512
  655MPD2    H7 9704   4.085   3.032  15.592 -2.6039 -0.6949  1.0636
  656TMC3    C1 9705   4.086   3.104  15.833 -0.6612  0.0155 -0.2788
  656TMC3    C2 9706   4.032   3.100  15.961 -0.4875 -0.2978  0.1206
  656TMC3    C3 9707   3.952   3.201  15.999  0.1998 -0.4620 -0.5646
  656TMC3    C4 9708   4.052   3.205  15.751 -0.3537 -0.0226 -0.5817
  656TMC3    C5 9709   3.970   3.312  15.792 -0.4621 -0.3861 -0.1844
  656TMC3    C6 9710   3.915   3.303  15.914  0.3806  0.3331  0.6655
  656TMC3     C 9711   4.151   2.984  15.782  0.1973 -0.0594 -0.0387
  656TMC3     O 9712   4.221   2.929  15.867 -0.2080  0.4263  0.3071
  656TMC3     H 9713   4.057   3.017  16.027 -1.2448  0.0775  0.8854
  656TMC3    H1 9714   4.103   3.211  15.655 -1.6514  0.1523 -1.2534
  656TMC3    H2 9715   3.854   3.380  15.960 -0.0840 -0.1394  0.8343
  656TMC3    C7 9716   3.913   3.381  15.675  0.0394 -0.1301  0.4868
  656TMC3    C8 9717   3.862   3.163  16.101 -0.1601  0.3767 -0.3454
  656TMC3    O1 9718   3.973   3.367  15.569  0.2731 -0.2295 -0.0065
  656TMC3    O2 9719   3.861   3.040  16.119 -0.0940 -0.1816 -0.0796
  657TMC3    C1 9720   3.561   2.267  14.882 -0.4854  0.5681  0.6665
  657TMC3    C2 9721   3.595   2.198  14.994  0.4971  0.4796 -0.5532
  657TMC3    C3 9722   3.665   2.272  15.091  0.0745  0.0835 -0.1758
  657TMC3    C4 9723   3.602   2.393  14.860  0.6259  0.2471  0.7605
  657TMC3    C5 9724   3.676   2.457  14.955 -0.5524 -0.2436 -0.2333
  657TMC3    C6 9725   3.712   2.399  15.070 -0.5022 -0.2446 -0.2805
  657TMC3     C 9726   3.494   2.205  14.769  0.1839  0.5375  0.0325
  657TMC3     O 9727   3.499   2.256  14.654 -0.0861  0.9551 -0.1906
  657TMC3     H 9728   3.568   2.098  15.025 -2.9173  1.6735  0.3561
  657TMC3    H1 9729   3.600   2.430  14.759  3.8857  1.2908  1.0604
  657TMC3    H2 9730   3.755   2.454  15.153 -1.9450 -0.0418  0.3373
  657TMC3    C7 9731   3.742   2.584  14.928 -0.9652 -0.1197  0.4911
  657TMC3    C8 9732   3.708   2.216  15.220  0.2265 -0.5410 -0.5027
  657TMC3    O1 9733   3.833   2.608  15.000 -0.8251 -0.3401 -0.8884
  657TMC3    O2 9734   3.772   2.287  15.295  0.4026  0.3160  0.6445
  658MPD2     C 9735   4.320   3.034  14.393  0.5004 -0.1923  0.0120
  658MPD2    C1 9736   4.216   2.943  14.401  0.5982 -0.0477 -0.5973
  658MPD2    C2 9737   4.159   2.911  14.278  0.2427 -0.7016 -0.2659
  658MPD2    C3 9738   4.191   2.978  14.166  0.1445  0.3468 -0.1840
  658MPD2    C4 9739   4.295   3.070  14.161 -0.0643 -0.7394 -0.2906
  658MPD2    C5 9740   4.361   3.093  14.280  0.4070  0.2356 -0.9329
  658MPD2     H 9741   4.073   2.846  14.286 -0.2268 -0.1269 -0.6632
  658MPD2    H1 9742   4.340   3.127  14.080 -1.0944  0.1066 -0.2801
  658MPD2    H2 9743   4.368   3.069  14.484  1.7951 -1.4755 -0.1717
  658MPD2    H3 9744   4.448   3.158  14.272  1.0498 -0.3028  1.7101
  658MPD2     N 9745   4.113   2.954  14.058  0.4374  0.2288  0.4679
  658MPD2    H5 9746   4.041   2.883  14.066  1.3686 -0.5748  1.5147
  658MPD2    N1 9747   4.174   2.883  14.522 -0.2183  0.1438 -0.4585
  658MPD2    H7 9748   4.101   2.812  14.524  1.6467 -1.7663  0.0665
  659TMC3    C1 9749   4.182   2.830  14.757 -0.6203  0.1925  0.0687
  659TMC3    C2 9750   4.197   2.875  14.886  0.5179 -0.6716 -0.0944
  659TMC3    C3 9751   4.173   2.791  14.989  0.6837 -0.6439  0.7033
  659TMC3    C4 9752   4.154   2.706  14.732 -0.3614 -0.9924  0.4490
  659TMC3    C5 9753   4.117   2.623  14.835  0.1981  0.2032 -0.2436
  659TMC3    C6 9754   4.132   2.662  14.965  0.2453 -0.3818 -0.1284
  659TMC3     C 9755   4.228   2.911  14.642 -0.0725  0.4530  0.1341
  659TMC3     O 9756   4.276   3.015  14.675 -0.2639  0.1070  0.2460
  659TMC3     H 9757   4.219   2.979  14.905 -0.2358 -0.5709  0.2428
  659TMC3    H1 9758   4.167   2.666  14.632  0.2158  1.4092 -0.4258
  659TMC3    H2 9759   4.100   2.595  15.044 -1.6290 -0.9691 -1.3751
  659TMC3    C7 9760   4.091   2.481  14.804  0.1582  0.1172  0.2825
  659TMC3    C8 9761   4.172   2.843  15.119  0.3773  0.3161  0.2369
  659TMC3    O1 9762   4.116   2.451  14.686  0.1357  0.1165  0.0063
  659TMC3    O2 9763   4.148   2.962  15.127 -0.7482  0.0968 -0.5002
  660MPD2     C 9764   2.262   0.812  12.761  0.0709  0.4189  0.2020
  660MPD2    C1 9765   2.196   0.930  12.757  0.4804 -0.5540  0.0281
  660MPD2    C2 9766   2.120   0.971  12.868 -0.0132  0.4897 -0.5363
  660MPD2    C3 9767   2.112   0.891  12.978 -0.3316 -0.9905  0.6916
  660MPD2    C4 9768   2.187   0.772  12.986  0.0078  0.1817  0.0602
  660MPD2    C5 9769   2.265   0.739  12.880  0.4976 -0.8529 -0.6518
  660MPD2     H 9770   2.086   1.074  12.864 -2.4299 -0.2907 -0.2491
  660MPD2    H1 9771   2.176   0.719  13.080 -0.9908  0.2987  0.0154
  660MPD2    H2 9772   2.319   0.768  12.680 -0.5238  0.1434 -0.0649
  660MPD2    H3 9773   2.325   0.649  12.884  3.1691  0.8397 -2.9729
  660MPD2     N 9774   2.038   0.922  13.093 -0.0357  0.2099 -0.2530
  660MPD2    H5 9775   2.040   0.855  13.170  1.1469  0.4564 -0.0699
  660MPD2    N1 9776   2.206   1.009  12.639 -0.0082 -0.1517 -0.3415
  660MPD2    H7 9777   2.270   0.967  12.572 -2.2882 -1.0954 -1.9401
  661TMC3    C1 9778   2.144   1.155  12.461 -0.3731 -0.1682  0.0364
  661TMC3    C2 9779   2.227   1.092  12.372 -1.3675  0.2308  0.4578
  661TMC3    C3 9780   2.212   1.129  12.236 -0.2517 -0.2186  0.7394
  661TMC3    C4 9781   2.044   1.237  12.419  0.2868  0.5134  0.2047
  661TMC3    C5 9782   2.031   1.264  12.280  0.5050  0.4495 -0.0741
  661TMC3    C6 9783   2.124   1.222  12.189  0.0244  0.1715  0.0295
  661TMC3     C 9784   2.143   1.125  12.603  0.2319  0.3448 -0.4387
  661TMC3     O 9785   2.067   1.190  12.673 -0.1451  0.1635  0.4046
  661TMC3     H 9786   2.290   1.007  12.397 -0.2453  1.2327  1.0038
  661TMC3    H1 9787   1.961   1.264  12.483  0.0805 -1.4776  0.7773
  661TMC3    H2 9788   2.109   1.236  12.083  1.4964  4.8775  0.4662
  661TMC3    C7 9789   1.921   1.358  12.239  0.1984  0.0386  0.3496
  661TMC3    C8 9790   2.327   1.097  12.149  0.3042  0.1398  0.0495
  661TMC3    O1 9791   1.896   1.443  12.321 -0.3625  0.4443  0.6604
  661TMC3    O2 9792   2.369   0.986  12.164  0.0576  0.0305  0.2264
  662MPD2     C 9793   2.589   1.544  17.217 -0.0178  0.2842 -0.4596
  662MPD2    C1 9794   2.551   1.480  17.334  0.5460  0.0413 -0.1752
  662MPD2    C2 9795   2.504   1.559  17.436  0.4670  0.0425  0.5180
  662MPD2    C3 9796   2.478   1.700  17.410  0.0674 -0.1176  0.4456
  662MPD2    C4 9797   2.500   1.743  17.286  0.0422  0.4491 -0.2032
  662MPD2    C5 9798   2.561   1.672  17.189  0.0134 -0.3727 -0.0739
  662MPD2     H 9799   2.481   1.523  17.535  0.1481  1.3515  0.9249
  662MPD2    H1 9800   2.470   1.844  17.263  0.6904  0.7675  0.3597
  662MPD2    H2 9801   2.624   1.477  17.139  0.4039  1.2143 -1.0726
  662MPD2    H3 9802   2.579   1.717  17.091 -0.3481  2.8994  1.3441
  662MPD2     N 9803   2.427   1.796  17.499  0.3191  1.1188 -0.3070
  662MPD2    H5 9804   2.387   1.882  17.463  1.6263  1.3923 -1.0904
  662MPD2    N1 9805   2.560   1.344  17.362  0.0450  0.2353 -0.1787
  662MPD2    H7 9806   2.506   1.309  17.441  0.8400 -0.4288  0.0684
  663TMC3    C1 9807   2.557   1.118  17.318  0.7480 -0.1310 -0.4363
  663TMC3    C2 9808   2.521   1.088  17.451 -0.9887 -0.3477  0.1563
  663TMC3    C3 9809   2.400   1.030  17.478  0.0039  0.5289 -0.6230
  663TMC3    C4 9810   2.497   1.052  17.213  0.0999  0.3826 -0.2451
  663TMC3    C5 9811   2.399   0.969  17.243  0.0684 -0.7559 -0.1592
  663TMC3    C6 9812   2.352   0.946  17.377 -0.1715 -0.1265 -0.3738
  663TMC3     C 9813   2.595   1.248  17.275 -0.1233 -0.2926  0.3227
  663TMC3     O 9814   2.627   1.260  17.157 -0.8148 -0.3764  0.2326
  663TMC3     H 9815   2.561   1.146  17.533  2.3927 -0.0506 -1.6946
  663TMC3    H1 9816   2.538   1.052  17.113  1.4132  0.5033  0.2846
  663TMC3    H2 9817   2.250   0.912  17.384 -0.1528 -0.2553 -0.7257
  663TMC3    C7 9818   2.369   0.878  17.129  0.3691 -0.4374  1.2146
  663TMC3    C8 9819   2.297   1.129  17.516  0.7106 -0.1186  0.2260
  663TMC3    O1 9820   2.366   0.933  17.019 -0.4894  0.2314 -0.4398
  663TMC3    O2 9821   2.200   1.148  17.445  0.2922 -0.4069 -0.2903
  664MPD2     C 9822   0.727   4.386   0.004  0.2141  0.8850 -0.0677
  664MPD2    C1 9823   0.815   4.489  17.672  0.1350 -0.1471  0.4171
  664MPD2    C2 9824   0.876   4.546   0.095 -0.3238  0.3838  0.2225
  664MPD2    C3 9825   0.877   4.477   0.216  0.3872 -0.2380 -0.6796
  664MPD2    C4 9826   0.800   4.361   0.227  0.1199 -0.2575  0.0462
  664MPD2    C5 9827   0.720   4.320   0.125  0.1743 -0.0507 -0.5734
  664MPD2     H 9828   0.945   4.628   0.082  0.3513 -0.1500  0.3783
  664MPD2    H1 9829   0.797   4.296   0.314 -1.4332 -2.1016 -1.3875
  664MPD2    H2 9830   0.664   4.350  17.609 -2.6970  0.0362  2.6159
  664MPD2    H3 9831   0.657   4.232   0.140  1.3416 -0.8586 -0.4240
  664MPD2     N 9832   0.952   4.532   0.326  0.4681  0.6439  0.3413
  664MPD2    H5 9833   1.006   4.617   0.316  1.3093 -0.0769 -1.2718
  664MPD2    N1 9834   0.828   4.563  17.545 -0.4480  0.1469 -0.1248
  664MPD2    H7 9835   0.894   4.641  17.543 -1.8822  1.3906  0.6241
  665TMC3    C1 9836   1.029   4.546   0.550 -0.3808  0.5915 -0.1675
  665TMC3    C2 9837   1.107   4.480   0.640 -0.1571 -0.3246  0.2830
  665TMC3    C3 9838   1.200   4.546   0.707  0.6841  0.5645 -0.1042
  665TMC3    C4 9839   1.035   4.683   0.533  0.3538 -0.7796  0.3726
  665TMC3    C5 9840   1.137   0.028   0.600 -0.2913  0.1223 -0.3031
  665TMC3    C6 9841   1.222   4.677   0.682  0.6070 -1.0750 -0.6621
  665TMC3     C 9842   0.958   4.468   0.452 -0.2448  0.2681  0.2997
  665TMC3     O 9843   0.911   4.363   0.495  0.3730  0.6721 -0.1282
  665TMC3     H 9844   1.083   4.376   0.657  1.1646 -0.6075  0.4118
  665TMC3    H1 9845   0.949   0.012   0.489  0.9410  1.1663  1.3938
  665TMC3    H2 9846   1.306   0.008   0.728 -1.7279  2.0506  0.1317
  665TMC3    C7 9847   1.096   0.157   0.648  0.1212 -0.3179  0.6782
  665TMC3    C8 9848   1.216   4.523   0.852 -0.8025 -0.3756  0.2340
  665TMC3    O1 9849   1.018   0.225   0.578  0.4122 -0.0401 -0.0120
  665TMC3    O2 9850   1.266   4.612   0.921 -0.2363  0.3700 -0.3908
  666TMC3    C1 9851   0.223   4.235   9.563  0.6144 -0.4172  0.4183
  666TMC3    C2 9852   0.281   4.158   9.662 -0.2002 -0.7261 -0.1728
  666TMC3    C3 9853   0.313   4.230   9.777  0.8719  0.7469  0.9944
  666TMC3    C4 9854   0.226   4.372   9.566  0.6762 -0.6158  0.1478
  666TMC3    C5 9855   0.266   4.440   9.685  0.4555  0.1759 -0.0368
  666TMC3    C6 9856   0.325   4.366   9.788  0.6122 -0.6632 -0.1783
  666TMC3     C 9857   0.165   4.176   9.447  0.7586  0.1058  0.2623
  666TMC3     O 9858   0.177   4.232   9.338  0.4461 -0.1745  0.1157
  666TMC3     H 9859   0.297   4.051   9.654  3.0769 -0.2816  0.1040
  666TMC3    H1 9860   0.184   4.428   9.482 -3.3133 -3.1098  0.5016
  666TMC3    H2 9861   0.351   4.411   9.884 -0.8016 -3.5514  1.5471
  666TMC3    C7 9862   0.203   4.567   9.725 -0.1867 -0.2899  0.0374
  666TMC3    C8 9863   0.366   4.148   9.882  0.0218  0.0841  0.2813
  666TMC3    O1 9864   0.193   4.576   9.846  0.1221  0.3212  0.1987
  666TMC3    O2 9865   0.326   4.034   9.891  0.5359 -0.1504 -0.5597
  667MPD2     C 9866   1.217   4.287  14.159  0.7677 -0.1622  0.0223
  667MPD2    C1 9867   1.228   4.203  14.270 -0.5830 -0.2133  0.6919
  667MPD2    C2 9868   1.166   4.084  14.269  0.0686  0.3714 -0.3711
  667MPD2    C3 9869   1.088   4.051  14.169 -0.2394  0.2811 -0.2107
  667MPD2    C4 9870   1.077   4.140  14.063 -0.3023 -0.6975  0.6247
  667MPD2    C5 9871   1.134   4.263  14.053 -0.4456  0.7716  0.3811
  667MPD2     H 9872   1.192   4.025  14.356  0.8630 -0.1986 -0.9868
  667MPD2    H1 9873   0.997   4.123  13.991  0.0342  0.4616 -0.0158
  667MPD2    H2 9874   1.258   4.386  14.172 -0.8460  0.5689 -0.5073
  667MPD2    H3 9875   1.106   4.331  13.974  0.4152  2.1874  1.2999
  667MPD2     N 9876   1.028   3.925  14.153  0.4315 -0.4839  0.3624
  667MPD2    H5 9877   1.000   3.898  14.059  1.5888 -1.2499  0.2301
  667MPD2    N1 9878   1.300   4.239  14.385  0.0097 -0.2164  0.3788
  667MPD2    H7 9879   1.288   4.176  14.464  1.0234  0.4185  1.0393
  668TMC3    C1 9880   1.377   4.370  14.553  0.2995 -0.3188  0.1745
  668TMC3    C2 9881   1.449   4.481  14.593  0.4086  0.3979  0.2268
  668TMC3    C3 9882   1.432   4.524  14.718 -0.1997 -0.5513  0.0764
  668TMC3    C4 9883   1.280   4.315  14.636 -0.2117  0.1061  0.0080
  668TMC3    C5 9884   1.269   4.369  14.760  0.0421 -0.1830  0.2480
  668TMC3    C6 9885   1.342   4.474  14.802  0.0757  0.9659 -0.9115
  668TMC3     C 9886   1.361   4.356  14.410  0.1700 -0.3578  0.3203
  668TMC3     O 9887   1.396   4.444  14.336 -0.0837 -0.5825  0.1991
  668TMC3     H 9888   1.530   4.519  14.532  0.2204  0.1950 -0.1566
  668TMC3    H1 9889   1.213   4.232  14.614 -0.7749  0.3250  0.8920
  668TMC3    H2 9890   1.345   4.508  14.905  0.3112 -0.4641 -0.4494
  668TMC3    C7 9891   1.161   4.321  14.846 -0.0070  0.7315 -0.7547
  668TMC3    C8 9892   1.539   4.601  14.786  0.0556 -0.4484 -0.4333
  668TMC3    O1 9893   1.137   4.197  14.835  0.2802 -0.0145 -0.1773
  668TMC3    O2 9894   1.533   4.604  14.909 -0.3212  0.2478  0.1781
  669TMC3    C1 9895   4.174   3.983  14.003  0.7270 -0.3070  0.5061
  669TMC3    C2 9896   4.075   4.037  13.923 -0.2569 -0.2640  0.7791
  669TMC3    C3 9897   4.118   4.115  13.821  0.2753  0.2120  0.3544
  669TMC3    C4 9898   4.305   4.009  13.975 -0.5451  0.0370  0.4652
  669TMC3    C5 9899   4.340   4.062  13.856  0.4106 -0.2296 -1.0840
  669TMC3    C6 9900   4.243   4.114  13.772  0.0198  0.1061  0.0905
  669TMC3     C 9901   4.134   3.957  14.146  0.3584  0.2694 -0.7407
  669TMC3     O 9902   4.014   3.956  14.169  0.4101  0.5197 -0.5002
  669TMC3     H 9903   3.980   4.063  13.969 -1.4407 -1.7677 -0.8560
  669TMC3    H1 9904   4.374   3.999  14.057 -3.4452 -0.0788  2.8634
  669TMC3    H2 9905   4.266   4.160  13.677 -2.0761 -1.6049 -1.2320
  669TMC3    C7 9906   4.474   4.119  13.857 -0.1693 -0.1202 -0.0217
  669TMC3    C8 9907   4.011   4.168  13.744 -0.1958 -0.6756  0.2980
  669TMC3    O1 9908   4.506   4.211  13.780 -0.0135  0.0878 -0.1741
  669TMC3    O2 9909   3.898   4.122  13.761  0.3437  0.0191 -0.0927
  670MPD2     C 9910   1.772   1.818  13.486  0.0121 -0.3431 -0.7036
  670MPD2    C1 9911   1.903   1.860  13.489 -0.0939  0.3124  0.4208
  670MPD2    C2 9912   1.972   1.861  13.606  0.2073  0.2866  1.0110
  670MPD2    C3 9913   1.915   1.800  13.715  0.1308 -0.5884 -0.3466
  670MPD2    C4 9914   1.782   1.759  13.706  0.1990  1.2156  0.2891
  670MPD2    C5 9915   1.716   1.762  13.594 -0.3587  0.0336  0.1534
  670MPD2     H 9916   2.074   1.898  13.617  0.7028 -0.7829  0.0761
  670MPD2    H1 9917   1.719   1.716  13.784 -0.1688  1.8810  0.3598
  670MPD2    H2 9918   1.706   1.823  13.401 -0.9750  0.8315  0.1336
  670MPD2    H3 9919   1.616   1.721  13.590 -0.4772  0.0420  2.7905
  670MPD2     N 9920   1.988   1.777  13.836  0.4808  0.2012 -0.4666
  670MPD2    H5 9921   2.071   1.834  13.851 -0.4499  1.3499  0.3651
  670MPD2    N1 9922   1.970   1.912  13.378 -0.2831  0.4997 -0.0503
  670MPD2    H7 9923   2.067   1.939  13.387 -0.4762  1.4281 -0.7362
  671TMC3    C1 9924   2.029   1.689  14.057 -0.5781 -0.6096 -0.4241
  671TMC3    C2 9925   2.163   1.709  14.044  0.4459  0.1604  0.6768
  671TMC3    C3 9926   2.231   1.666  14.152 -0.0324  0.5159 -0.2825
  671TMC3    C4 9927   1.971   1.643  14.173 -0.3110  0.1445 -0.4012
  671TMC3    C5 9928   2.041   1.606  14.284 -0.4914  0.0086  0.0193
  671TMC3    C6 9929   2.179   1.625  14.268  0.8971  0.3484 -0.5441
  671TMC3     C 9930   1.943   1.693  13.935 -0.3665 -0.9015 -0.1537
  671TMC3     O 9931   1.849   1.612  13.938  0.0189 -0.2150 -0.0221
  671TMC3     H 9932   2.211   1.715  13.947 -2.2534 -1.0401 -0.7499
  671TMC3    H1 9933   1.866   1.618  14.167 -0.3501  1.1633 -4.4697
  671TMC3    H2 9934   2.248   1.601  14.348  1.5842  2.3663 -0.5565
  671TMC3    C7 9935   1.983   1.487  14.346  0.0584  0.0264 -0.6143
  671TMC3    C8 9936   2.348   1.593  14.119 -0.4776  0.4332  0.1464
  671TMC3    O1 9937   1.862   1.471  14.340  0.1077  0.0825 -0.3509
  671TMC3    O2 9938   2.326   1.530  14.016 -0.4070 -0.6615  0.2198
  672MPD2     C 9939   3.234   2.088   1.314 -0.1197  0.2076 -0.0306
  672MPD2    C1 9940   3.261   2.178   1.219 -0.1561 -0.0223  0.0597
  672MPD2    C2 9941   3.289   2.305   1.271 -0.0866 -0.3075  0.5985
  672MPD2    C3 9942   3.304   2.348   1.401  0.4998  0.3276 -0.2096
  672MPD2    C4 9943   3.281   2.244   1.491  0.4968 -0.7308 -0.2801
  672MPD2    C5 9944   3.250   2.116   1.446 -0.1412  0.1702  0.1314
  672MPD2     H 9945   3.311   2.376   1.192  0.1661 -0.9664  0.0690
  672MPD2    H1 9946   3.292   2.268   1.597  1.9833  2.4897 -1.1840
  672MPD2    H2 9947   3.214   1.982   1.300 -0.1692  0.0238  1.5094
  672MPD2    H3 9948   3.235   2.035   1.517  0.6704  1.3662  1.6534
  672MPD2     N 9949   3.334   2.474   1.442  0.8599 -0.3696  0.0470
  672MPD2    H5 9950   3.362   2.483   1.539  0.9374  0.0667 -0.0135
  672MPD2    N1 9951   3.242   2.165   1.083 -0.2298 -0.0506  0.0144
  672MPD2    H7 9952   3.256   2.247   1.024  3.1212 -0.3738  0.3569
  673TMC3    C1 9953   3.234   2.045   0.886  0.0787  0.0102  0.2608
  673TMC3    C2 9954   3.293   1.932   0.832  0.1545 -0.3041  0.5288
  673TMC3    C3 9955   3.328   1.946   0.705  0.9816 -0.3449 -0.2020
  673TMC3    C4 9956   3.213   2.162   0.819 -0.8206  0.1599  0.0151
  673TMC3    C5 9957   3.249   2.164   0.686  0.2754 -0.0849 -0.3282
  673TMC3    C6 9958   3.308   2.058   0.629  0.0222 -0.2203 -0.5544
  673TMC3     C 9959   3.208   2.044   1.030  0.1050  0.7523  0.2104
  673TMC3     O 9960   3.205   1.933   1.074 -0.1800 -0.1038 -0.5433
  673TMC3     H 9961   3.326   1.844   0.885  0.4558 -1.0240 -0.8602
  673TMC3    H1 9962   3.164   2.249   0.860 -0.2038  0.5929 -0.1567
  673TMC3    H2 9963   3.359   2.066   0.534  0.1579 -1.2144 -0.5674
  673TMC3    C7 9964   3.307   2.289   0.632  0.2604  0.2765  0.0401
  673TMC3    C8 9965   3.448   1.881   0.663 -0.5108 -0.2099 -0.3460
  673TMC3    O1 9966   3.404   2.274   0.560 -0.0217  0.1842  0.4111
  673TMC3    O2 9967   3.460   1.855   0.545 -0.7976  0.4120 -0.1858
  674MPD2     C 9968   3.170   2.356   0.258  0.5249  0.8318  0.2505
  674MPD2    C1 9969   3.086   2.246   0.286 -0.0575  0.4343  0.7110
  674MPD2    C2 9970   2.972   2.281   0.352  0.0760  0.4680 -0.0687
  674MPD2    C3 9971   2.940   2.411   0.398 -0.0698 -0.4329  0.2128
  674MPD2    C4 9972   3.025   2.509   0.357 -0.8665  0.3322 -0.5857
  674MPD2    C5 9973   3.139   2.486   0.288 -0.3963  0.2222  0.3246
  674MPD2     H 9974   2.905   2.206   0.394 -0.6813  1.5216  0.5997
  674MPD2    H1 9975   3.017   2.611   0.391 -1.7598  0.7326 -1.9981
  674MPD2    H2 9976   3.262   2.325   0.208 -0.2943 -0.7962 -0.2340
  674MPD2    H3 9977   3.204   2.568   0.260  0.2656 -0.5400 -0.3928
  674MPD2     N 9978   2.831   2.426   0.486  0.1547 -0.0359 -0.2926
  674MPD2    H5 9979   2.782   2.347   0.528  0.2846  0.2409  0.3873
  674MPD2    N1 9980   3.125   2.113   0.247  0.0111  0.1193  0.2449
  674MPD2    H7 9981   3.216   2.084   0.212 -0.5125  2.1379 -2.8096
  675TMC3    C1 9982   3.106   1.884   0.272 -0.5368 -0.3044 -0.1005
  675TMC3    C2 9983   3.065   1.815   0.384  0.8060  0.4320  0.5523
  675TMC3    C3 9984   3.135   1.704   0.406 -0.0326  0.0097 -0.3388
  675TMC3    C4 9985   3.204   1.836   0.190  0.2910 -0.0234  0.0554
  675TMC3    C5 9986   3.271   1.722   0.214 -0.9666 -0.5894  0.3622
  675TMC3    C6 9987   3.243   1.653   0.332  0.2395  0.3930 -0.1277
  675TMC3     C 9988   3.038   2.009   0.244 -0.2804 -0.2209 -0.3765
  675TMC3     O 9989   2.920   2.014   0.266 -0.4706  0.3154 -0.6597
  675TMC3     H 9990   2.983   1.849   0.446 -0.1013 -0.2211 -0.2984
  675TMC3    H1 9991   3.225   1.887   0.096 -2.8398  1.4093  0.1260
  675TMC3    H2 9992   3.253   1.545   0.339 -2.0140  0.1759 -0.2901
  675TMC3    C7 9993   3.294   1.639   0.100  0.1865  0.4177  0.3790
  675TMC3    C8 9994   3.126   1.662   0.539  0.1578  0.3549  0.4174
  675TMC3    O1 9995   3.243   1.675  17.679  0.9733 -0.2655 -0.1880
  675TMC3    O2 9996   3.046   1.716   0.610 -0.3394 -0.5453 -0.2421
  676MPD2     C 9997   0.159   0.625  11.056  0.3932 -0.5419 -0.3955
  676MPD2    C1 9998   0.165   0.520  11.142 -0.7795  0.1839 -0.9039
  676MPD2    C2 9999   0.207   0.395  11.100 -0.1719 -0.4355 -0.0679
  676MPD2    C310000   0.253   0.381  10.975  0.8211 -0.0809 -0.1099
  676MPD2    C410001   0.259   0.491  10.891  0.3147  0.1324  0.4689
  676MPD2    C510002   0.209   0.610  10.932  0.0588 -0.6481 -0.1107
  676MPD2     H10003   0.208   0.313  11.171  0.1486 -0.0218  0.4099
  676MPD2    H110004   0.299   0.474  10.791  1.8459 -0.4349  1.1791
  676MPD2    H210005   0.106   0.717  11.078 -1.6244 -1.5398 -1.0386
  676MPD2    H310006   0.204   0.691  10.861 -2.0270 -0.6044  0.0658
  676MPD2     N10007   0.284   0.258  10.922  0.5441 -0.1424 -0.0297
  676MPD2    H510008   0.315   0.256  10.825  0.1942 -0.1168 -0.1397
  676MPD2    N110009   0.111   0.542  11.273  0.3334  0.4964  0.2875
  676MPD2    H710010   0.113   0.467  11.341  0.4626 -0.8721 -1.2544
  677TMC3    C110011   0.055   0.661  11.460  0.8430 -0.3590 -0.0610
  677TMC3    C210012   4.680   0.571  11.493 -0.1283  0.3268 -0.0046
  677TMC3    C310013   4.645   0.561  11.624 -0.5674 -0.7645 -0.3118
  677TMC3    C410014   0.124   0.741  11.549  0.3094  0.5482 -0.2212
  677TMC3    C510015   0.097   0.705  11.679  0.1531  0.5372  0.6793
  677TMC3    C610016   4.707   0.628  11.719  0.2615  0.2857 -0.2648
  677TMC3     C10017   0.099   0.665  11.327  0.1646  0.4903 -1.1076
  677TMC3     O10018   0.137   0.774  11.290  0.0079 -0.3696 -0.2849
  677TMC3     H10019   4.620   0.525  11.416  1.2377  0.2241 -1.0207
  677TMC3    H110020   0.209   0.799  11.516  1.0257 -0.2637  0.1816
  677TMC3    H210021   4.678   0.614  11.823  1.7456 -2.7579 -0.2536
  677TMC3    C710022   0.164   0.774  11.792  0.7623 -0.5510  0.7509
  677TMC3    C810023   4.533   0.476  11.665  0.4311  0.4569  0.8825
  677TMC3    O110024   0.118   0.749  11.906  0.1323  0.2192 -0.3089
  677TMC3    O210025   4.433   0.503  11.599 -0.8675  0.0125 -0.1508
  678MPD2     C10026   2.799   1.022   1.625 -0.4526 -0.1170 -0.7245
  678MPD2    C110027   2.805   0.982   1.492  0.3553 -0.6074 -0.1553
  678MPD2    C210028   2.722   0.881   1.443  0.3649 -1.0750  0.2770
  678MPD2    C310029   2.632   0.826   1.528  0.1918  0.1192 -0.0734
  678MPD2    C410030   2.631   0.857   1.662  0.2456 -0.4084  0.0153
  678MPD2    C510031   2.709   0.966   1.705 -0.4599  0.1418 -0.2694
  678MPD2     H10032   2.732   0.858   1.338  1.7738 -1.7304  0.5573
  678MPD2    H110033   2.563   0.803   1.727 -1.1656  0.1544 -0.9839
  678MPD2    H210034   2.876   1.087   1.665 -0.0842 -0.8153 -0.2961
  678MPD2    H310035   2.709   0.991   1.810  0.1060  0.8438 -0.4410
  678MPD2     N10036   2.556   0.725   1.472  0.9292 -0.4452  0.2020
  678MPD2    H510037   2.566   0.711   1.372  1.4554  2.1857 -0.1135
  678MPD2    N110038   2.888   1.040   1.395  0.2765 -0.3415  0.4230
  678MPD2    H710039   2.894   0.997   1.303 -1.1164 -0.4521  0.3921
  679TMC3    C110040   3.064   1.076   1.095  0.3708 -0.1128  0.1615
  679TMC3    C210041   3.074   1.080   1.228 -0.6250  0.3885  0.9112
  679TMC3    C310042   3.021   1.195   1.294  0.5168  0.5844  0.0455
  679TMC3    C410043   3.028   1.182   1.019 -0.1740 -1.0170  0.5257
  679TMC3    C510044   2.992   1.296   1.081 -0.1990 -0.8317 -0.2622
  679TMC3    C610045   2.983   1.302   1.217  0.6796  0.2802  0.7664
  679TMC3     C10046   3.015   0.941   1.039  0.2722  0.1225 -0.0018
  679TMC3     O10047   3.082   0.841   1.067  0.2041 -0.0820 -0.6666
  679TMC3     H10048   3.108   0.994   1.284 -0.5735 -1.0737 -1.3939
  679TMC3    H110049   3.038   1.179   0.911  1.7647 -0.3215  0.6945
  679TMC3    H210050   2.916   1.371   1.267  0.6475  1.7570 -1.3605
  679TMC3    C710051   2.917   1.388   1.007 -0.3753  0.6173 -0.2664
  679TMC3    C810052   2.945   1.162   1.406  0.3994 -0.5664  0.3812
  679TMC3    O110053   2.870   1.345   0.902 -0.3057 -0.0139  0.7377
  679TMC3    O210054   2.918   1.248   1.488  0.4691  0.0848  0.4594
  680MPD2     C10055   2.693   3.442  13.654 -0.2993  0.1381 -0.0022
  680MPD2    C110056   2.573   3.483  13.601 -0.4446 -0.6333  0.4225
  680MPD2    C210057   2.545   3.615  13.605 -0.1822  0.2247 -0.0857
  680MPD2    C310058   2.633   3.704  13.664  0.6534  0.4445 -0.3334
  680MPD2    C410059   2.753   3.665  13.707 -0.2960  0.0986  0.0589
  680MPD2    C510060   2.786   3.533  13.703  0.3129  0.2048  0.4666
  680MPD2     H10061   2.449   3.647  13.565 -0.1989 -0.6644 -0.7379
  680MPD2    H110062   2.822   3.738  13.748 -1.5072  2.3241 -1.8958
  680MPD2    H210063   2.713   3.337  13.671  0.1010 -0.0642 -1.7459
  680MPD2    H310064   2.874   3.486  13.745 -1.0148 -1.5474  1.2919
  680MPD2     N10065   2.600   3.841  13.690  0.2703  0.1315 -0.1333
  680MPD2    H510066   2.671   3.893  13.741  0.7541 -1.0816  0.4190
  680MPD2    N110067   2.468   3.395  13.557 -0.1773 -0.7207 -0.4625
  680MPD2    H710068   2.390   3.431  13.504  0.2520  3.1584  1.5186
  681TMC3    C110069   2.338   3.210  13.504  0.3723  0.0019  0.1658
  681TMC3    C210070   2.224   3.206  13.576  0.0528 -0.2809  0.4531
  681TMC3    C310071   2.102   3.229  13.506 -1.2367 -0.0252 -0.4854
  681TMC3    C410072   2.331   3.243  13.375 -0.0280 -0.1228  0.2398
  681TMC3    C510073   2.212   3.276  13.312  0.3159 -0.3176 -0.0158
  681TMC3    C610074   2.094   3.261  13.378  0.0218 -0.0615  0.0645
  681TMC3     C10075   2.454   3.256  13.577  0.2326  0.1623  0.4913
  681TMC3     O10076   2.508   3.174  13.653 -0.0596 -0.0220 -0.1436
  681TMC3     H10077   2.229   3.180  13.681  0.5410 -1.9345  0.0299
  681TMC3    H110078   2.416   3.282  13.321 -1.4118 -0.4633 -2.2108
  681TMC3    H210079   1.998   3.286  13.335 -0.2787 -2.7056 -0.8320
  681TMC3    C710080   2.218   3.323  13.173  0.4767 -0.7070 -0.2123
  681TMC3    C810081   1.977   3.221  13.572 -0.3719 -0.4113  0.1611
  681TMC3    O110082   2.312   3.392  13.140 -0.0181  0.6227 -0.0933
  681TMC3    O210083   1.886   3.169  13.507  0.3284 -0.1364 -0.0013
  682MPD2     C10084   4.241   0.557  10.614 -0.1709 -0.2785 -0.2760
  682MPD2    C110085   4.239   0.422  10.615  0.2236  0.1702 -0.9313
  682MPD2    C210086   4.202   0.347  10.725 -0.0436  0.2911  0.1955
  682MPD2    C310087   4.162   0.414  10.843 -0.2137 -0.3097 -0.3540
  682MPD2    C410088   4.151   0.556  10.844 -0.0880  0.4727  0.4343
  682MPD2    C510089   4.192   0.624  10.730  0.1288 -1.0651  0.6406
  682MPD2     H10090   4.206   0.239  10.719  0.0966  0.2632  0.7244
  682MPD2    H110091   4.114   0.610  10.930  1.9640  1.9536  0.4002
  682MPD2    H210092   4.254   0.615  10.523  0.6928  0.0337  0.0493
  682MPD2    H310093   4.189   0.732  10.728  0.9406 -1.0222  1.6833
  682MPD2     N10094   4.119   0.345  10.958  0.4666  0.0912  0.1297
  682MPD2    H510095   4.103   0.406  11.037 -3.8182 -1.3246  0.3545
  682MPD2    N110096   4.261   0.355  10.490  0.5107  0.1510  0.0857
  682MPD2    H710097   4.260   0.254  10.503 -2.3931  0.4200  1.9459
  683TMC3    C110098   4.020   0.206  11.344  0.2937 -0.1210  0.2511
  683TMC3    C210099   3.979   0.076  11.360  0.4876 -0.9989 -0.3372
  683TMC3    C310100   4.000   4.719  11.248  0.4958 -0.3316  0.1488
  683TMC3    C410101   4.072   0.252  11.222 -0.5198 -0.4087  0.2733
  683TMC3    C510102   4.070   0.174  11.115  0.1905  0.4287  0.3215
  683TMC3    C610103   4.042   0.044  11.123  0.6998 -0.2295 -0.1096
  683TMC3     C10104   4.038   0.293  11.460 -0.0949  0.3782 -0.1161
  683TMC3     O10105   4.058   0.409  11.437 -0.1215 -0.2485  0.5769
  683TMC3     H10106   3.954   0.028  11.454 -0.9950 -1.8216 -1.1492
  683TMC3    H110107   4.106   0.355  11.212 -1.4872  0.0384  1.5717
  683TMC3    H210108   4.029   4.702  11.036 -1.5135 -1.0073  0.7891
  683TMC3    C710109   4.106   0.210  10.976 -0.8964  0.4886  0.7835
  683TMC3    C810110   3.926   4.595  11.241  0.8872  0.6148  0.4906
  683TMC3    O110111   4.094   0.124  10.885  0.1264 -0.1771  0.2765
  683TMC3    O210112   3.819   4.585  11.302  0.2990 -0.2330  0.8719
  684MPD2     C10113   2.426   4.448  16.418  0.5877  0.1127 -0.5569
  684MPD2    C110114   2.416   4.488  16.284  0.1217  0.3040  0.5087
  684MPD2    C210115   2.431   4.622  16.260  0.2721  0.1427 -0.2729
  684MPD2    C310116   2.462   4.706  16.361  0.1185 -0.2731 -0.0777
  684MPD2    C410117   2.460   4.669  16.490 -0.1003  0.1273  0.2139
  684MPD2    C510118   2.447   4.535  16.523  1.2126  0.4424  0.1965
  684MPD2     H10119   2.439   4.656  16.158  2.1367  2.0358  0.5108
  684MPD2    H110120   2.488   0.017  16.569 -0.4448  1.2160 -0.6204
  684MPD2    H210121   2.426   4.342  16.443 -0.5297 -0.0479 -1.2249
  684MPD2    H310122   2.458   4.492  16.622 -1.7183  0.3232  0.4578
  684MPD2     N10123   2.501   0.117  16.337  0.5192  0.4025 -1.2899
  684MPD2    H510124   2.505   0.170  16.424 -2.4403 -0.9006 -0.3744
  684MPD2    N110125   2.406   4.400  16.179  0.2498 -0.1445  0.0825
  684MPD2    H710126   2.402   4.440  16.086  0.5939 -1.1313 -0.3507
  685TMC3    C110127   2.399   4.187  16.071  0.0684 -0.2779  0.2594
  685TMC3    C210128   2.321   4.246  15.977 -0.4626 -0.7167 -0.3164
  685TMC3    C310129   2.366   4.225  15.849 -0.0125  0.0050 -0.1886
  685TMC3    C410130   2.492   4.092  16.039 -0.2824  0.2493 -0.0704
  685TMC3    C510131   2.532   4.086  15.907  0.4176 -0.4438 -0.0302
  685TMC3    C610132   2.466   4.148  15.811 -0.6834 -0.0319  0.0700
  685TMC3     C10133   2.425   4.266  16.189  0.9519 -0.0765 -0.6222
  685TMC3     O10134   2.490   4.203  16.272  0.6438  0.2397 -0.0197
  685TMC3     H10135   2.245   4.317  16.007  0.4190 -0.2590  0.8610
  685TMC3    H110136   2.535   4.038  16.123 -0.0190 -1.5303 -1.3328
  685TMC3    H210137   2.507   4.140  15.711  1.0976 -1.4794  0.9241
  685TMC3    C710138   2.673   4.115  15.900  1.0298 -0.4311 -0.4183
  685TMC3    C810139   2.284   4.272  15.742 -0.4897  0.5163 -0.2728
  685TMC3    O110140   2.726   4.138  15.788 -0.6599 -0.9222 -0.0697
  685TMC3    O210141   2.338   4.279  15.632  0.2941 -0.0005  0.2159
  686MPD2     C10142   3.694   0.052  15.566 -0.5906  0.7592  0.1414
  686MPD2    C110143   3.737   4.682  15.655  0.4473  0.2328 -0.7037
  686MPD2    C210144   3.821   4.577  15.617  0.2365 -0.0875 -0.3070
  686MPD2    C310145   3.867   4.576  15.485 -0.1278 -0.3665 -0.0034
  686MPD2    C410146   3.833   4.675  15.399 -0.6460 -0.3918  0.1088
  686MPD2    C510147   3.746   0.054  15.438  0.2781  0.0375  0.3610
  686MPD2     H10148   3.853   4.502  15.688  1.6841  0.1396 -0.7106
  686MPD2    H110149   3.897   4.690  15.313 -3.9628 -1.4750 -2.5651
  686MPD2    H210150   3.624   0.128  15.599  0.7182  1.9374  0.1947
  686MPD2    H310151   3.737   0.139  15.370  2.1141 -1.1590 -1.3583
  686MPD2     N10152   3.966   4.485  15.444 -0.1395 -0.1694 -0.1540
  686MPD2    H510153   3.982   4.480  15.344  0.6243 -0.3401 -0.0169
  686MPD2    N110154   3.689   4.687  15.787  0.9083  0.0153  0.2488
  686MPD2    H710155   3.601   0.018  15.794  1.9440  1.7335  0.7029
  687TMC3    C110156   4.149   4.318  15.458 -0.3426  0.5141 -0.8099
  687TMC3    C210157   4.131   4.285  15.324 -0.0248 -0.1526 -0.0729
  687TMC3    C310158   4.192   4.173  15.290 -0.0188  0.2615  0.2479
  687TMC3    C410159   4.224   4.248  15.544  0.2448 -0.2081 -0.1210
  687TMC3    C510160   4.278   4.129  15.503 -0.7763 -0.5319  0.3632
  687TMC3    C610161   4.263   4.096  15.373  0.0552 -0.3115 -0.3135
  687TMC3     C10162   4.048   4.403  15.528  0.2910  0.2309 -0.5329
  687TMC3     O10163   4.031   4.372  15.644 -0.3324  0.1846  0.0130
  687TMC3     H10164   4.084   4.354  15.255 -2.1984 -0.7806  0.7542
  687TMC3    H110165   4.246   4.289  15.642 -0.2439  0.7882 -0.4316
  687TMC3    H210166   4.283   3.995  15.339  0.5418 -0.6751  1.0757
  687TMC3    C710167   4.362   4.051  15.586  0.8067 -0.4414 -0.5420
  687TMC3    C810168   4.165   4.128  15.156  0.1486  1.0753  0.4456
  687TMC3    O110169   4.418   3.953  15.540 -0.1544 -0.1876  0.3441
  687TMC3    O210170   4.254   4.061  15.108 -0.0754 -0.1121  0.0322
  688MPD2     C10171   3.072   3.423  17.178 -0.3535  0.6860 -0.0498
  688MPD2    C110172   3.131   3.311  17.233  0.1276  0.2310  0.3818
  688MPD2    C210173   3.231   3.251  17.169  0.5272 -0.5228 -0.4813
  688MPD2    C310174   3.274   3.290  17.043 -1.0330 -0.3699  0.3895
  688MPD2    C410175   3.213   3.407  16.993  0.1021  0.2799 -0.5822
  688MPD2    C510176   3.111   3.470  17.059 -0.0902  0.7377  0.1218
  688MPD2     H10177   3.275   3.165  17.219  0.7504 -0.2012 -0.1261
  688MPD2    H110178   3.238   3.445  16.895 -2.1116 -2.2261 -2.1288
  688MPD2    H210179   2.997   3.486  17.225  0.1005  1.5750 -0.5287
  688MPD2    H310180   3.072   3.556  17.006 -0.6086 -0.0003 -0.6772
  688MPD2     N10181   3.390   3.230  16.986 -0.5780  0.7370 -0.1614
  688MPD2    H510182   3.419   3.277  16.901  4.0271  1.7068  1.9756
  688MPD2    N110183   3.090   3.267  17.362 -0.7817 -0.3165 -0.6832
  688MPD2    H710184   3.144   3.194  17.406 -1.2198 -1.8094 -2.5993
  689TMC3    C110185   2.997   3.249  17.569  0.8733 -0.2004  0.1105
  689TMC3    C210186   2.991   3.326  17.683  0.5934  0.0061  0.8386
  689TMC3    C310187   3.043   3.267   0.106  0.5683  0.2179 -1.1370
  689TMC3    C410188   3.036   3.117  17.573  0.7036  0.5892  1.1035
  689TMC3    C510189   3.067   3.058   0.005  0.3551 -0.0957  0.0080
  689TMC3    C610190   3.066   3.129   0.123 -0.6855 -0.4010 -0.3532
  689TMC3     C10191   2.991   3.316  17.443 -0.6457  0.6107 -0.0665
  689TMC3     O10192   2.905   3.404  17.433  0.7295  0.2952  0.4190
  689TMC3     H10193   2.971   3.431   0.008  1.0922  0.0823  1.0467
  689TMC3    H110194   3.023   3.060  17.482  1.3706 -0.8691  1.9241
  689TMC3    H210195   3.127   3.088   0.203  2.3340 -0.6039 -2.7689
  689TMC3    C710196   3.065   2.914   0.025  0.4022  0.4623 -0.3135
  689TMC3    C810197   3.078   3.352   0.221  0.0358 -0.0608 -0.4852
  689TMC3    O110198   3.104   2.873   0.132  0.3649  0.4538  0.4058
  689TMC3    O210199   3.066   3.310   0.337  0.2287 -0.4651 -0.2155
  690MPD2     C10200   1.040   0.553  15.569 -0.2801 -0.2923  0.1272
  690MPD2    C110201   0.993   0.569  15.438 -0.0871  0.6413  0.2265
  690MPD2    C210202   1.085   0.595  15.338 -0.5984  0.5272 -0.2909
  690MPD2    C310203   1.219   0.596  15.370 -0.3196 -0.2745 -0.3996
  690MPD2    C410204   1.265   0.590  15.496 -0.1533 -0.1997 -0.0718
  690MPD2    C510205   1.173   0.561  15.600 -0.0403 -0.1567  0.4541
  690MPD2     H10206   1.056   0.616  15.236 -0.3213  0.6843 -0.3390
  690MPD2    H110207   1.372   0.589  15.517 -0.0202  1.6433 -0.7077
  690MPD2    H210208   0.973   0.548  15.654 -1.7621 -0.9638 -1.0774
  690MPD2    H310209   1.193   0.545  15.705 -1.3374 -1.6182  0.4768
  690MPD2     N10210   1.303   0.638  15.258  0.1863  0.3336  0.1914
  690MPD2    H510211   1.261   0.656  15.167 -0.9729  1.4216  0.9339
  690MPD2    N110212   0.853   0.557  15.397  0.2911 -0.2078  0.3798
  690MPD2    H710213   0.827   0.546  15.300  0.7929  1.2507  0.0772
  691TMC3    C110214   0.623   0.525  15.416 -0.3148 -0.5845  0.1873
  691TMC3    C210215   0.513   0.557  15.499 -0.4110  0.1532 -1.0323
  691TMC3    C310216   0.389   0.523  15.453 -0.0011 -0.2005 -0.5466
  691TMC3    C410217   0.607   0.459  15.297 -0.3402 -0.1351  0.6195
  691TMC3    C510218   0.476   0.423  15.255 -0.4167 -0.1253 -0.0069
  691TMC3    C610219   0.365   0.462  15.334 -0.6661  0.0465 -0.0841
  691TMC3     C10220   0.752   0.551  15.487  0.1839 -0.5338 -0.0434
  691TMC3     O10221   0.746   0.569  15.607 -0.3591 -0.3844  0.2652
  691TMC3     H10222   0.528   0.604  15.595  1.4437 -0.7055 -0.8958
  691TMC3    H110223   0.693   0.411  15.253 -0.6143 -0.0671  0.0081
  691TMC3    H210224   0.264   0.438  15.300 -1.2066  0.5715  1.1611
  691TMC3    C710225   0.477   0.298  15.185  0.4352  0.6428  0.3280
  691TMC3    C810226   0.273   0.563  15.538 -0.2426 -0.1123 -0.7287
  691TMC3    O110227   0.576   0.266  15.111  0.4072  0.0232 -0.2909
  691TMC3    O210228   0.297   0.563  15.661  0.6188 -0.2781  0.1087
  692TMC3    C110229   2.029   1.375  15.868  0.3723  0.4237  0.6236
  692TMC3    C210230   2.125   1.421  15.962  0.0605 -0.3554 -0.2241
  692TMC3    C310231   2.232   1.334  15.996 -0.4936 -0.2121  0.0782
  692TMC3    C410232   2.035   1.265  15.793  0.4062  0.3992  0.5801
  692TMC3    C510233   2.151   1.195  15.815  0.0300  0.3728  0.3390
  692TMC3    C610234   2.234   1.218  15.924 -0.9071  0.8686 -0.1580
  692TMC3     C10235   1.919   1.465  15.845  0.5452  0.3911 -0.7555
  692TMC3     O10236   1.805   1.423  15.857  0.1183 -0.5815  0.2516
  692TMC3     H10237   2.091   1.499  16.030  0.3970 -1.8203  1.6329
  692TMC3    H110238   1.970   1.231  15.713  0.9171  0.4297  0.1503
  692TMC3    H210239   2.330   1.168  15.926 -0.9536  0.7425 -0.9838
  692TMC3    C710240   2.155   1.060  15.756 -0.3005  0.1573 -0.6301
  692TMC3    C810241   2.270   1.318  16.135 -0.1935  0.2031 -0.6720
  692TMC3    O110242   2.097   1.039  15.646 -0.4817 -0.2418  0.3625
  692TMC3    O210243   2.297   1.202  16.162 -0.1503 -0.0640  0.2207
  693MPD2     C10244   1.772   4.151  11.145  0.1860 -0.3336 -0.1135
  693MPD2    C110245   1.756   4.120  11.012 -0.4726  0.2737  0.5150
  693MPD2    C210246   1.852   4.044  10.953 -0.4389  0.1864 -0.1539
  693MPD2    C310247   1.962   3.993  11.026 -0.4974 -0.0738 -0.2431
  693MPD2    C410248   1.965   4.017  11.158 -0.3314  0.5538  0.1614
  693MPD2    C510249   1.868   4.087  11.220 -0.2792  0.0070 -0.6555
  693MPD2     H10250   1.838   4.015  10.849 -1.4460  1.1565 -0.2939
  693MPD2    H110251   2.042   3.971  11.219 -0.2262  0.0353 -0.3608
  693MPD2    H210252   1.691   4.206  11.191  0.2475  0.6999 -1.2288
  693MPD2    H310253   1.870   4.087  11.329  0.0986 -2.6113 -0.6734
  693MPD2     N10254   2.077   3.934  10.971 -0.9311  0.1842 -0.0530
  693MPD2    H510255   2.136   3.900  11.046  1.5993  1.9191 -1.2581
  693MPD2    N110256   1.641   4.173  10.951 -0.4168 -0.0000 -0.2678
  693MPD2    H710257   1.569   4.211  11.011  2.3690  0.5958  2.7201
  694TMC3    C110258   1.451   4.183  10.816  0.1159  0.5485  0.1181
  694TMC3    C210259   1.378   4.153  10.703 -0.2955  0.3328 -0.5082
  694TMC3    C310260   1.242   4.175  10.691 -0.7304 -0.7530  0.1242
  694TMC3    C410261   1.384   4.249  10.916  0.4199  0.3898 -0.5899
  694TMC3    C510262   1.255   4.277  10.906  0.7139  0.4284  0.1916
  694TMC3    C610263   1.178   4.232  10.799  0.2154  0.6054  0.2685
  694TMC3     C10264   1.591   4.133  10.830  0.1183  0.5974 -0.4773
  694TMC3     O10265   1.643   4.080  10.726 -0.0651  0.1412 -0.1880
  694TMC3     H10266   1.414   4.076  10.636  0.2040 -0.4520  0.6746
  694TMC3    H110267   1.438   4.280  11.004 -1.7872  2.4820  0.0418
  694TMC3    H210268   1.075   4.265  10.792 -0.8121 -2.2998  1.8817
  694TMC3    C710269   1.189   4.271  11.030 -0.1027  0.8252 -0.7049
  694TMC3    C810270   1.157   4.109  10.599 -0.6465  0.1274 -0.4687
  694TMC3    O110271   1.116   4.362  11.061  0.1678  0.0046  0.4142
  694TMC3    O210272   1.049   4.082  10.643 -0.2067  0.5820 -0.6209
  695MPD2     C10273   2.428   1.107  13.413 -0.0662  0.0965  0.7782
  695MPD2    C110274   2.445   1.164  13.540 -0.4923  0.6081 -0.3679
  695MPD2    C210275   2.341   1.231  13.596 -0.3211  0.8160  0.2393
  695MPD2    C310276   2.221   1.253  13.534 -0.0066  1.3600  0.5702
  695MPD2    C410277   2.216   1.216  13.404 -0.1715  0.0480  0.9465
  695MPD2    C510278   2.316   1.136  13.351 -0.8618 -0.0315 -0.1200
  695MPD2     H10279   2.356   1.262  13.699 -1.4081 -0.7691  0.8893
  695MPD2    H110280   2.127   1.228  13.343  0.1397  0.2285  0.5266
  695MPD2    H210281   2.499   1.054  13.350  0.2398  1.5367 -0.0685
  695MPD2    H310282   2.297   1.101  13.250 -0.9629  0.2286 -0.1926
  695MPD2     N10283   2.112   1.303  13.613 -0.2887  0.1466 -0.1358
  695MPD2    H510284   2.127   1.316  13.712  0.9346 -2.3538  0.0113
  695MPD2    N110285   2.564   1.141  13.619  0.1347  0.0788  0.1401
  695MPD2    H710286   2.557   1.182  13.712  3.1339  2.6120 -0.7421
  696TMC3    C110287   1.888   1.315  13.669  0.3867  0.0268 -0.2419
  696TMC3    C210288   1.909   1.224  13.769 -0.2188 -0.5722  0.0017
  696TMC3    C310289   1.803   1.188  13.846 -0.2872 -0.4276  0.1597
  696TMC3    C410290   1.769   1.357  13.630  0.7029 -0.0633 -1.3383
  696TMC3    C510291   1.657   1.306  13.701  0.4911  0.6871 -0.1104
  696TMC3    C610292   1.675   1.238  13.816 -0.5059  0.4911 -0.1916
  696TMC3     C10293   1.985   1.330  13.567 -0.6353  0.3509 -0.4653
  696TMC3     O10294   1.941   1.325  13.453  0.1227 -0.3413  0.1116
  696TMC3     H10295   1.997   1.164  13.786  1.2473  1.4823 -0.3912
  696TMC3    H110296   1.759   1.407  13.534  0.1587  1.0434 -0.7121
  696TMC3    H210297   1.592   1.210  13.880  0.7891 -3.1973 -0.1254
  696TMC3    C710298   1.541   1.400  13.701 -0.3220  0.2248 -0.1973
  696TMC3    C810299   1.813   1.166  13.983 -0.0825  0.1703  0.2125
  696TMC3    O110300   1.513   1.453  13.595 -0.2231 -0.1354  0.2723
  696TMC3    O210301   1.735   1.230  14.048  0.2199 -0.2607 -0.3422
  697MPD2     C10302   1.751   2.910  15.667  1.1348  0.0704  0.3719
  697MPD2    C110303   1.814   2.884  15.548 -0.2413 -0.5085 -0.1203
  697MPD2    C210304   1.836   2.982  15.446  0.0513 -0.4735  0.3903
  697MPD2    C310305   1.794   3.113  15.474  0.0356 -0.1559  0.1521
  697MPD2    C410306   1.733   3.137  15.597 -0.1638  0.0283  0.4410
  697MPD2    C510307   1.706   3.035  15.686  0.7054 -0.3721  0.4059
  697MPD2     H10308   1.897   2.963  15.359 -1.1930 -1.2906 -0.2934
  697MPD2    H110309   1.689   3.234  15.619  0.2618 -0.0079  1.4354
  697MPD2    H210310   1.728   2.834  15.740 -1.3486  1.2289  0.8110
  697MPD2    H310311   1.646   3.070  15.769 -0.2547 -1.9011  0.3436
  697MPD2     N10312   1.821   3.224  15.392  0.1806 -0.1586 -0.1998
  697MPD2    H510313   1.872   3.209  15.305  1.0709 -1.4304  0.5233
  697MPD2    N110314   1.866   2.750  15.524 -0.3962 -0.2033  0.2550
  697MPD2    H710315   1.909   2.736  15.433 -0.0353  2.9148 -0.0611
  698TMC3    C110316   1.840   3.433  15.292 -0.0101 -0.4110  0.1913
  698TMC3    C210317   1.917   3.540  15.326 -0.0003 -0.4628  0.1520
  698TMC3    C310318   1.950   3.628  15.227 -0.5729 -0.5936  0.1158
  698TMC3    C410319   1.794   3.414  15.169  0.0477 -0.3993 -0.5050
  698TMC3    C510320   1.840   3.495  15.071  0.1154 -0.0272 -0.6789
  698TMC3    C610321   1.920   3.609  15.094 -0.3227 -0.4578 -0.5679
  698TMC3     C10322   1.794   3.356  15.409 -0.2885  0.2496 -0.4802
  698TMC3     O10323   1.754   3.419  15.506  0.2219  0.3821  0.0272
  698TMC3     H10324   1.943   3.566  15.428  2.9382  0.0868 -0.7514
  698TMC3    H110325   1.725   3.333  15.150  0.1242 -0.1852 -1.7279
  698TMC3    H210326   1.941   3.676  15.012 -0.4864 -0.9009 -0.9672
  698TMC3    C710327   1.797   3.465  14.937  0.3286  0.2067 -0.5372
  698TMC3    C810328   2.009   3.753  15.271 -0.1821  0.0769  0.2251
  698TMC3    O110329   1.684   3.427  14.919 -0.1833  0.2083 -0.5429
  698TMC3    O210330   1.984   3.787  15.386 -0.5453  0.1866  0.1406
  699TMC3    C110331   1.900   1.042  13.242 -0.0392 -0.6389  0.4774
  699TMC3    C210332   1.967   0.977  13.340 -0.0590  0.1739 -0.3799
  699TMC3    C310333   1.895   0.968  13.460  0.5876 -0.7393  0.9859
  699TMC3    C410334   1.773   1.091  13.243 -0.2263 -0.2274 -0.1762
  699TMC3    C510335   1.710   1.079  13.359 -0.4233  0.7018 -0.4501
  699TMC3    C610336   1.766   1.015  13.469 -0.2104 -0.0814 -0.0592
  699TMC3     C10337   1.954   1.028  13.107 -0.1860  0.2970 -0.1410
  699TMC3     O10338   1.906   1.101  13.027  0.6184 -0.5643 -0.0527
  699TMC3     H10339   2.073   0.962  13.320  0.1378 -2.1294  2.3994
  699TMC3    H110340   1.725   1.137  13.158  0.3071  1.3282  0.3748
  699TMC3    H210341   1.713   1.004  13.563  2.6781 -1.0940  1.4563
  699TMC3    C710342   1.576   1.137  13.381  0.1746 -0.3618 -0.4924
  699TMC3    C810343   1.952   0.924  13.583 -0.2327 -0.1707 -0.2804
  699TMC3    O110344   1.516   1.099  13.482 -0.1086  0.1465  0.2353
  699TMC3    O210345   1.868   0.907  13.678  0.8909 -0.0611  0.4028
  700TMC3    C110346   1.005   3.636  17.048  0.3456 -0.2199 -0.8284
  700TMC3    C210347   1.076   3.522  17.019 -0.6024  0.8501 -0.1105
  700TMC3    C310348   1.188   3.501  17.106 -0.6311 -0.0180  0.3059
  700TMC3    C410349   1.032   3.724  17.156 -0.2712 -0.7090 -0.5349
  700TMC3    C510350   1.136   3.691  17.240 -0.1164  0.6876  0.3860
  700TMC3    C610351   1.215   3.587  17.213 -0.3811  0.7843  0.0076
  700TMC3     C10352   0.946   3.698  16.934  0.2930 -0.0817  0.2147
  700TMC3     O10353   0.912   3.625  16.840 -0.2929  0.0838  0.6275
  700TMC3     H10354   1.062   3.481  16.920  0.5572  1.6240 -0.6098
  700TMC3    H110355   0.958   3.802  17.174  0.5432 -0.7008  2.7651
  700TMC3    H210356   1.302   3.564  17.274 -2.5827 -1.7171  2.2434
  700TMC3    C710357   1.151   3.787  17.352  0.1702  0.4010  0.1811
  700TMC3    C810358   1.289   3.397  17.072 -0.4584 -0.0374 -1.0738
  700TMC3    O110359   1.090   3.893  17.352  0.1420 -0.6006  0.3373
  700TMC3    O210360   1.394   3.416  17.126  0.6196 -0.0972  0.4085
  701TMC3    C110361   1.066   2.047  15.431 -0.6726 -0.1211 -0.3160
  701TMC3    C210362   1.086   1.931  15.363 -0.2596 -0.1001  0.1552
  701TMC3    C310363   1.217   1.917  15.322 -0.6939 -0.5265  0.0293
  701TMC3    C410364   1.161   2.146  15.443 -0.2592 -0.4574  0.0072
  701TMC3    C510365   1.287   2.128  15.396  0.1994  0.3238 -0.0951
  701TMC3    C610366   1.310   2.012  15.324 -0.9957 -0.4734 -0.1704
  701TMC3     C10367   0.934   2.061  15.490  0.1278 -0.6755 -0.2829
  701TMC3     O10368   0.856   1.969  15.498  0.0237  0.0699  0.2750
  701TMC3     H10369   1.023   1.844  15.377  2.4644 -2.2552 -0.8917
  701TMC3    H110370   1.144   2.232  15.506 -0.1798 -1.1365  0.9671
  701TMC3    H210371   1.402   1.997  15.268 -1.1256  0.1694 -0.5568
  701TMC3    C710372   1.377   2.242  15.398 -0.0193 -0.5908  0.2661
  701TMC3    C810373   1.246   1.811  15.234  0.5240  0.3598 -0.3108
  701TMC3    O110374   1.453   2.265  15.300 -0.2098  0.1618  0.3299
  701TMC3    O210375   1.363   1.774  15.226  0.0504 -0.1967  0.1447
  702MPD2     C10376   0.785   0.027  10.507 -0.2467  0.2805  0.4711
  702MPD2    C110377   0.661   0.070  10.496 -0.2327  0.3571  0.5750
  702MPD2    C210378   0.633   0.152  10.388  0.1557 -0.2258  0.7023
  702MPD2    C310379   0.731   0.190  10.301 -0.0106 -0.1051 -0.0937
  702MPD2    C410380   0.860   0.138  10.316  0.4778 -0.4627 -0.2705
  702MPD2    C510381   0.885   0.057  10.420 -0.6011  0.3363 -0.5257
  702MPD2     H10382   0.532   0.190  10.379 -0.0843 -1.1135 -0.3463
  702MPD2    H110383   0.934   0.173  10.246  0.2014 -2.1531 -1.3989
  702MPD2    H210384   0.816   4.691  10.594 -1.1736 -1.1766 -0.1512
  702MPD2    H310385   0.987   0.025  10.438 -0.6098  0.7534  0.2896
  702MPD2     N10386   0.703   0.281  10.192 -0.3666 -0.1778 -0.5781
  702MPD2    H510387   0.773   0.336  10.143  2.3183 -3.0223  0.0621
  702MPD2    N110388   0.562   0.031  10.591  0.4932  0.0291 -0.3786
  702MPD2    H710389   0.471   0.076  10.585 -1.1414 -3.1351  0.9583
  703TMC3    C110390   0.559   0.458  10.158 -0.0331 -0.5068  0.5595
  703TMC3    C210391   0.433   0.483  10.212  0.1518  0.6990 -0.3232
  703TMC3    C310392   0.435   0.539  10.334 -0.0301  0.4033 -0.4378
  703TMC3    C410393   0.676   0.514  10.205  1.2104 -0.1757 -0.4097
  703TMC3    C510394   0.667   0.573  10.323  0.4310 -0.4689 -0.8118
  703TMC3    C610395   0.548   0.594  10.388  0.5509 -0.2071  0.0525
  703TMC3     C10396   0.576   0.311  10.146  0.1950  0.6708 -0.2623
  703TMC3     O10397   0.477   0.243  10.157  0.0150  0.1963  0.3522
  703TMC3     H10398   0.352   0.426  10.169  0.8143  0.6759 -1.5410
  703TMC3    H110399   0.769   0.509  10.149  0.1301  1.6323 -2.3710
  703TMC3    H210400   0.536   0.638  10.486 -1.3812  0.4963 -0.5039
  703TMC3    C710401   0.795   0.628  10.376  0.2825  0.0400 -0.1328
  703TMC3    C810402   0.353   0.466  10.429  0.8559 -1.0431  0.2185
  703TMC3    O110403   0.893   0.636  10.300  0.3819 -0.6099  0.1189
  703TMC3    O210404   0.357   0.506  10.543 -0.3422 -0.0116 -0.7881
  704TMC3    C110405   2.885   2.749  12.479 -0.5706  0.2810 -0.0219
  704TMC3    C210406   3.009   2.750  12.419  0.5706  0.2503  0.2258
  704TMC3    C310407   3.087   2.645  12.431 -0.1415 -0.2184 -0.3146
  704TMC3    C410408   2.847   2.652  12.566  0.0270 -0.5345 -0.1077
  704TMC3    C510409   2.937   2.549  12.576 -0.0664  0.2407  0.0175
  704TMC3    C610410   3.058   2.544  12.519 -0.4363 -0.4082  0.0356
  704TMC3     C10411   2.775   2.780  12.388  0.0364 -0.9228  0.0737
  704TMC3     O10412   2.666   2.803  12.435 -0.1961 -0.0825  0.5153
  704TMC3     H10413   3.038   2.829  12.351  0.5494  0.8275  0.8887
  704TMC3    H110414   2.745   2.645  12.601 -0.6303  0.5920 -1.8272
  704TMC3    H210415   3.124   2.459  12.527 -0.1848 -0.1617  0.5444
  704TMC3    C710416   2.885   2.413  12.581  0.6206 -0.9150  0.2717
  704TMC3    C810417   3.163   2.606  12.320 -0.1055 -0.6231  0.1710
  704TMC3    O110418   2.922   2.344  12.486 -0.6633 -0.1566 -0.0249
  704TMC3    O210419   3.122   2.618  12.205 -0.1408  0.0705  0.1947
  705MPD2     C10420   2.307   0.737  16.446  0.3540 -0.2578 -0.3126
  705MPD2    C110421   2.319   0.857  16.513 -0.0345 -0.1680 -0.1348
  705MPD2    C210422   2.212   0.897  16.592  0.1883  0.0520 -0.3232
  705MPD2    C310423   2.093   0.826  16.599  0.0502  0.4256  0.1031
  705MPD2    C410424   2.086   0.699  16.539  0.0760  0.0989 -0.9791
  705MPD2    C510425   2.194   0.657  16.465  0.1442  0.3657  0.5722
  705MPD2     H10426   2.229   0.976  16.664 -0.3076  0.1259 -0.2870
  705MPD2    H110427   1.997   0.636  16.535 -0.2754  0.6223 -1.3734
  705MPD2    H210428   2.384   0.710  16.374 -0.3395 -0.9473 -0.8009
  705MPD2    H310429   2.182   0.574  16.396 -0.6539  1.5432 -0.6708
  705MPD2     N10430   1.971   0.890  16.644 -0.3976  0.4830 -0.2792
  705MPD2    H510431   1.888   0.831  16.638 -0.8826  1.1122  0.1984
  705MPD2    N110432   2.429   0.948  16.497 -0.1314 -0.3322  0.3013
  705MPD2    H710433   2.424   1.040  16.539  0.8689 -0.1703  0.0732
  706TMC3    C110434   2.860   1.082  16.377  0.5478  0.1481 -0.1140
  706TMC3    C210435   2.836   1.211  16.409  0.6686 -0.7372 -0.2434
  706TMC3    C310436   2.707   1.247  16.440  0.1211 -0.2952 -0.5833
  706TMC3    C410437   2.766   0.979  16.376 -0.6831  0.2541 -0.5304
  706TMC3    C510438   2.641   1.024  16.415 -0.8133  0.9602 -0.3830
  706TMC3    C610439   2.611   1.153  16.453  0.2014 -0.0707 -0.0731
  706TMC3     C10440   2.999   1.039  16.343 -0.2882 -0.2810 -0.3499
  706TMC3     O10441   3.104   1.091  16.391  0.4120  0.0730 -0.0310
  706TMC3     H10442   2.910   1.289  16.402 -0.8573  0.5580 -1.9732
  706TMC3    H110443   2.782   0.875  16.349 -1.7222  0.3372 -1.5152
  706TMC3    H210444   2.510   1.184  16.475 -0.0275 -0.8210 -0.0562
  706TMC3    C710445   2.542   0.915  16.424  0.0669 -0.1931  0.1666
  706TMC3    C810446   2.674   1.388  16.457  1.1712 -0.0830 -0.0207
  706TMC3    O110447   2.579   0.805  16.390  0.3047  0.0221 -0.0898
  706TMC3    O210448   2.739   1.463  16.385 -0.4684 -0.2839  0.3735
  707TMC3    C110449   0.428   0.611   1.890 -0.1219 -0.5198 -0.9966
  707TMC3    C210450   0.494   0.537   1.984 -0.0510 -0.0292  0.1563
  707TMC3    C310451   0.422   0.495   2.092  0.1436 -1.1776  0.5152
  707TMC3    C410452   0.301   0.656   1.908  0.7053 -0.1426 -0.7294
  707TMC3    C510453   0.235   0.619   2.020 -0.7225 -0.0285  0.1930
  707TMC3    C610454   0.299   0.548   2.120 -0.4158  0.2779  0.6181
  707TMC3     C10455   0.485   0.631   1.760  0.5874 -0.4787 -0.1870
  707TMC3     O10456   0.603   0.596   1.746 -0.3284 -0.2320  0.0177
  707TMC3     H10457   0.591   0.497   1.956 -0.2730  1.0744 -2.1114
  707TMC3    H110458   0.241   0.701   1.829 -1.8091 -0.8122  0.7981
  707TMC3    H210459   0.239   0.510   2.201  0.2243  1.7734  1.8010
  707TMC3    C710460   0.091   0.621   2.032  0.4529 -0.5797  0.3838
  707TMC3    C810461   0.452   0.360   2.145  0.2182 -0.2906  0.0753
  707TMC3    O110462   0.056   0.609   2.144 -0.6408 -0.4342  0.4005
  707TMC3    O210463   0.383   0.315   2.233 -0.2965  0.3000  0.0212
  708MPD2     C10464   0.899   4.624  13.688  0.1210  0.1604  0.5295
  708MPD2    C110465   0.860   4.530  13.785 -0.1102  0.6720 -0.2311
  708MPD2    C210466   0.911   4.538  13.911  0.1252 -0.5430  0.4783
  708MPD2    C310467   0.993   4.638  13.950 -0.0235 -0.8765  0.2027
  708MPD2    C410468   1.031   0.012  13.857  0.3380 -1.1113  0.7740
  708MPD2    C510469   0.978   0.008  13.731 -0.2330 -0.1700 -0.2138
  708MPD2     H10470   0.898   4.457  13.982 -1.5752 -1.0895 -0.4660
  708MPD2    H110471   1.090   0.096  13.892 -2.5142  1.5524 -0.8115
  708MPD2    H210472   0.855   4.645  13.591  0.0620  0.1773  0.5598
  708MPD2    H310473   1.003   0.084  13.658  2.0603  1.3160  2.1146
  708MPD2     N10474   1.048   4.645  14.076 -0.3295 -0.4094  0.2200
  708MPD2    H510475   1.119   4.717  14.078 -0.9962  0.2638 -0.2400
  708MPD2    N110476   0.774   4.428  13.745 -0.1094  0.3591  0.3626
  708MPD2    H710477   0.761   4.403  13.648 -0.3713 -0.8652  0.7022
  709TMC3    C110478   0.639   4.244  13.779 -0.3545 -0.6582 -0.5422
  709TMC3    C210479   0.715   4.164  13.704 -0.5714  0.0798 -0.6470
  709TMC3    C310480   0.706   4.028  13.720  0.0647  0.0814  0.5834
  709TMC3    C410481   0.546   4.190  13.868 -0.4929 -0.3398 -0.0147
  709TMC3    C510482   0.543   4.054  13.886  0.2730  0.4723 -0.2215
  709TMC3    C610483   0.623   3.967  13.807 -0.4998  0.2642 -0.1859
  709TMC3     C10484   0.697   4.363  13.833  0.5234  0.4396  0.7682
  709TMC3     O10485   0.691   4.365  13.954 -0.0293  0.8338  0.2014
  709TMC3     H10486   0.799   4.206  13.651 -2.2778  1.0616 -2.5475
  709TMC3    H110487   0.488   4.258  13.930  0.8019  1.0476 -0.3160
  709TMC3    H210488   0.629   3.862  13.830  0.2099  0.2002 -0.6578
  709TMC3    C710489   0.533   4.017  14.026 -0.2098  0.2084  0.2553
  709TMC3    C810490   0.730   3.942  13.600  0.7690  0.3246 -0.0646
  709TMC3    O110491   0.532   3.897  14.055 -0.7781 -0.2023 -0.1599
  709TMC3    O210492   0.708   3.821  13.615  0.1879 -0.9813  0.1456
  710TMC3    C110493   2.166   1.735   0.704 -0.5196 -0.4363 -0.2716
  710TMC3    C210494   2.128   1.644   0.610 -0.0824 -0.0683  0.0752
  710TMC3    C310495   2.223   1.582   0.541  0.1144 -0.4322  0.1717
  710TMC3    C410496   2.304   1.752   0.737  0.5071 -0.0726  0.0544
  710TMC3    C510497   2.393   1.677   0.666  0.4851 -1.0179  0.4568
  710TMC3    C610498   2.355   1.588   0.566 -0.3431  0.3462 -0.2679
  710TMC3     C10499   2.060   1.798   0.782  0.6801  0.1766  0.7471
  710TMC3     O10500   1.943   1.777   0.746 -0.2211 -0.0841  0.2019
  710TMC3     H10501   2.023   1.645   0.583  0.0081 -3.1332 -0.4282
  710TMC3    H110502   2.334   1.803   0.828 -1.8397 -3.8057  2.9660
  710TMC3    H210503   2.428   1.549   0.496  0.2127  1.8831 -0.5454
  710TMC3    C710504   2.522   1.653   0.733 -0.5992 -0.0463  0.0163
  710TMC3    C810505   2.187   1.580   0.404 -0.1888  0.4141 -0.1100
  710TMC3    O110506   2.585   1.549   0.711 -0.4467  0.3351 -0.2068
  710TMC3    O210507   2.082   1.639   0.377  0.1704  0.2762  0.0867
  711TMC3    C110508   1.753   1.723  15.029 -0.6430 -0.6008 -0.4293
  711TMC3    C210509   1.769   1.797  15.139  0.3622  0.2306 -0.5523
  711TMC3    C310510   1.878   1.788  15.214  0.0322  0.2913  0.1174
  711TMC3    C410511   1.838   1.620  15.007 -0.4791 -0.2926  0.5126
  711TMC3    C510512   1.945   1.608  15.084  0.2552 -0.2759  0.4723
  711TMC3    C610513   1.973   1.696  15.187  0.1511 -0.2959  0.1461
  711TMC3     C10514   1.642   1.743  14.942 -0.5103 -0.2538  0.4166
  711TMC3     O10515   1.616   1.646  14.868  0.2544  1.0434  0.0621
  711TMC3     H10516   1.692   1.871  15.157 -1.7097 -2.1380  0.4188
  711TMC3    H110517   1.814   1.562  14.919  0.1206 -0.1430  0.2545
  711TMC3    H210518   2.068   1.687  15.238 -0.3518 -1.9401  0.8079
  711TMC3    C710519   2.013   1.482  15.102 -0.9851 -0.4859  0.8274
  711TMC3    C810520   1.905   1.901  15.301 -0.5777 -0.3332  0.2128
  711TMC3    O110521   2.122   1.485  15.158 -0.2098 -0.3274 -0.8133
  711TMC3    O210522   1.838   1.997  15.273  0.2568  0.1663 -0.7916
  712MPD2     C10523   2.919   2.943  13.629 -0.1948 -0.1296  0.1313
  712MPD2    C110524   2.855   2.992  13.514 -1.1142 -0.9730  0.3166
  712MPD2    C210525   2.914   3.109  13.453  0.2558  0.0371 -0.0117
  712MPD2    C310526   3.025   3.172  13.506  0.3454 -0.2189 -0.6348
  712MPD2    C410527   3.085   3.115  13.614 -0.0377 -0.5902  0.0628
  712MPD2    C510528   3.024   3.008  13.679  0.4597 -1.2632  0.4153
  712MPD2     H10529   2.870   3.141  13.360 -1.3266 -1.4977  0.2019
  712MPD2    H110530   3.180   3.155  13.649 -1.6676  3.0547  0.3377
  712MPD2    H210531   2.886   2.859  13.689  0.6635 -0.8127 -0.3517
  712MPD2    H310532   3.065   2.975  13.774 -1.2808 -2.6692  0.6772
  712MPD2     N10533   3.084   3.282  13.447  0.0988  0.2784  0.2153
  712MPD2    H510534   3.171   3.320  13.484  0.4072 -0.7245  0.5243
  712MPD2    N110535   2.727   2.954  13.466  0.0362 -0.2151  0.1431
  712MPD2    H710536   2.680   3.016  13.401 -0.2245 -0.9069 -0.3386
  713TMC3    C110537   3.100   3.470  13.291  0.8509  0.8683  0.1325
  713TMC3    C210538   3.241   3.475  13.299 -0.8196  0.0609 -0.2165
  713TMC3    C310539   3.308   3.552  13.209  0.4426  0.1217 -0.5072
  713TMC3    C410540   3.031   3.549  13.197 -0.6274  0.2084 -0.1891
  713TMC3    C510541   3.101   3.637  13.125 -0.4169 -0.5384  0.1144
  713TMC3    C610542   3.238   3.641  13.131  0.0776 -1.0144  0.9690
  713TMC3     C10543   3.021   3.370  13.357 -0.2706 -0.3388 -0.0624
  713TMC3     O10544   2.898   3.368  13.330  0.5406 -0.1502 -0.2265
  713TMC3     H10545   3.294   3.390  13.340 -0.9530  0.2366  0.3231
  713TMC3    H110546   2.924   3.541  13.186 -0.9335  0.9092  2.4084
  713TMC3    H210547   3.285   3.705  13.057 -0.4306  1.0857  2.4611
  713TMC3    C710548   3.038   3.729  13.033 -0.2335  0.7451  0.2395
  713TMC3    C810549   3.452   3.548  13.207  1.0245  0.0262  0.1804
  713TMC3    O110550   3.114   3.792  12.962  0.0853  0.1206 -0.1152
  713TMC3    O210551   3.497   3.586  13.100  0.1669  0.4543 -0.0991
  714MPD2     C10552   4.648   2.054   1.184  0.5761  0.4937 -0.4111
  714MPD2    C110553   0.014   1.948   1.163  0.0045 -0.3264  0.1539
  714MPD2    C210554   0.013   1.881   1.043  0.0148  0.0530 -0.6813
  714MPD2    C310555   4.640   1.914   0.948  1.1055 -0.3497  0.1156
  714MPD2    C410556   4.552   2.023   0.963 -0.4224 -0.2769 -0.2890
  714MPD2    C510557   4.572   2.100   1.077 -0.0310 -0.3563 -0.2444
  714MPD2     H10558   0.079   1.799   1.019 -1.0277 -0.5037 -1.6381
  714MPD2    H110559   4.481   2.057   0.888 -0.4533 -0.2684 -0.2559
  714MPD2    H210560   4.649   2.111   1.276 -1.7408 -0.6334  0.3013
  714MPD2    H310561   4.515   2.189   1.100  0.4117 -0.3711  0.9171
  714MPD2     N10562   4.635   1.828   0.837 -0.3098  0.4211 -0.6233
  714MPD2    H510563   4.705   1.754   0.834 -0.0298  0.6590  0.0037
  714MPD2    N110564   0.102   1.912   1.272 -0.3820 -0.0504  0.4261
  714MPD2    H710565   0.114   1.968   1.355  1.6628  1.2151 -0.7236
  715TMC3    C110566   0.282   1.797   1.375  0.2907 -0.0290 -0.3482
  715TMC3    C210567   0.330   1.676   1.411  0.2623  1.1043 -0.5485
  715TMC3    C310568   0.439   1.676   1.499 -0.4262  0.5160  0.1802
  715TMC3    C410569   0.338   1.917   1.415 -0.0239  0.0978 -0.1337
  715TMC3    C510570   0.449   1.905   1.499  0.2861 -1.0271 -0.2460
  715TMC3    C610571   0.499   1.789   1.544 -0.5538  0.1370 -0.3706
  715TMC3     C10572   0.164   1.793   1.286 -0.5207  0.3244  0.6614
  715TMC3     O10573   0.139   1.688   1.229 -0.2088  0.7917  0.5340
  715TMC3     H10574   0.289   1.587   1.365  0.4229 -0.6763  2.7835
  715TMC3    H110575   0.318   2.011   1.365  0.1879  0.4307  0.4097
  715TMC3    H210576   0.582   1.795   1.614 -0.1659 -0.9804 -0.7327
  715TMC3    C710577   0.510   2.028   1.550  0.4968  0.4069 -0.3510
  715TMC3    C810578   0.519   1.558   1.491  0.5537  0.1623  0.4068
  715TMC3    O110579   0.619   2.017   1.606  0.1965  0.7130  0.1447
  715TMC3    O210580   0.495   1.475   1.405  0.2511  0.0860 -0.2300
  716MPD2     C10581   0.759   4.593  10.072  0.5971 -0.7142  0.3587
  716MPD2    C110582   0.715   4.591   9.944 -0.1765 -0.6267 -0.3847
  716MPD2    C210583   0.778   4.510   9.853 -0.9104 -0.0000  0.1843
  716MPD2    C310584   0.887   4.429   9.893  0.5156  0.6560 -0.5796
  716MPD2    C410585   0.934   4.441  10.021 -0.1026  0.0173  0.0987
  716MPD2    C510586   0.867   4.520  10.114  0.1402 -0.0837 -0.1510
  716MPD2     H10587   0.743   4.504   9.751 -0.2820  1.5729 -0.1299
  716MPD2    H110588   1.019   4.386  10.058 -1.6616 -3.2437 -1.0941
  716MPD2    H210589   0.706   4.649  10.148  0.5589  1.2340 -1.1128
  716MPD2    H310590   0.910   4.537  10.212  2.2843 -2.7526 -0.6350
  716MPD2     N10591   0.935   4.340   9.797 -0.1484 -0.2574 -0.7226
  716MPD2    H510592   0.896   4.352   9.704 -1.9784  0.4973  0.1517
  716MPD2    N110593   0.599   4.665   9.914  0.2037 -0.2311  0.3541
  716MPD2    H710594   0.565   0.006   9.986  0.4421 -0.4435  0.6517
  717TMC3    C110595   1.051   4.175   9.692  0.5879  0.2615 -0.0944
  717TMC3    C210596   1.013   4.234   9.573 -0.2105 -1.3522 -0.5158
  717TMC3    C310597   0.999   4.156   9.459 -0.9472 -0.3090  0.1756
  717TMC3    C410598   1.085   4.044   9.700  0.0220  0.6106  0.6148
  717TMC3    C510599   1.076   3.969   9.583 -0.4815 -0.1113  0.1025
  717TMC3    C610600   1.031   4.021   9.469  0.7639 -0.2154 -0.3432
  717TMC3     C10601   1.022   4.239   9.818 -0.4258  0.6316 -0.5463
  717TMC3     O10602   1.056   4.193   9.928  0.0885  0.3188  0.4195
  717TMC3     H10603   0.987   4.339   9.565 -0.3191 -1.3333  0.1195
  717TMC3    H110604   1.107   3.996   9.795  0.5400 -0.5475 -0.0941
  717TMC3    H210605   1.017   3.958   9.382  1.2685 -1.4387  0.4641
  717TMC3    C710606   1.098   3.826   9.586 -0.8128 -0.0249 -0.1813
  717TMC3    C810607   0.933   4.208   9.340  0.8325  0.1677  0.2061
  717TMC3    O110608   1.047   3.755   9.500 -0.1552  0.0485  0.3498
  717TMC3    O210609   0.893   4.323   9.344 -0.3569  0.0292  0.0103
  718MPD2     C10610   4.542   3.624  12.640  0.1424  0.3272 -1.1330
  718MPD2    C110611   4.498   3.581  12.515  0.2986 -0.3677 -0.3591
  718MPD2    C210612   4.413   3.474  12.512 -0.7517  0.2518  0.2970
  718MPD2    C310613   4.381   3.410  12.628  0.1014  0.2604  0.1334
  718MPD2    C410614   4.435   3.443  12.747  0.3639  0.1224 -0.6886
  718MPD2    C510615   4.506   3.559  12.762 -0.2266  0.4779  0.1782
  718MPD2     H10616   4.390   3.441  12.411 -0.0501 -0.9325  0.5220
  718MPD2    H110617   4.396   3.399  12.838 -0.6794 -0.6415 -1.5036
  718MPD2    H210618   4.596   3.718  12.651  0.1407  0.0269  1.4896
  718MPD2    H310619   4.553   3.586  12.856  0.5730  0.4560 -0.2094
  718MPD2     N10620   4.284   3.313  12.611 -0.2356 -0.0920 -0.0022
  718MPD2    H510621   4.259   3.289  12.516  0.1711 -0.5717  0.0116
  718MPD2    N110622   4.539   3.630  12.387  0.4718 -0.7199 -0.0885
  718MPD2    H710623   4.505   3.591  12.300  0.3451 -0.9770  0.0799
  719TMC3    C110624   4.649   3.739  12.234  0.7285 -0.5397  0.7355
  719TMC3    C210625   4.535   3.701  12.170 -0.4912  0.0251 -0.3907
  719TMC3    C310626   4.531   3.621  12.063 -0.4208 -0.2953 -0.2930
  719TMC3    C410627   0.044   3.677  12.196 -0.0988  0.0030  0.1873
  719TMC3    C510628   0.042   3.593  12.090  0.1605 -0.0366  0.0293
  719TMC3    C610629   4.646   3.568  12.019  0.2748  0.4813 -0.6007
  719TMC3     C10630   4.631   3.723  12.369  0.7445  0.5238 -0.1322
  719TMC3     O10631   4.717   3.770  12.443 -1.0628 -0.1883 -0.0289
  719TMC3     H10632   4.444   3.750  12.203 -0.9871 -0.6861 -0.6954
  719TMC3    H110633   0.124   3.676  12.269 -0.0802 -1.7837  0.1434
  719TMC3    H210634   4.649   3.514  11.925  2.3124  1.4854 -1.1123
  719TMC3    C710635   0.154   3.505  12.052 -0.1745  0.5129  0.9344
  719TMC3    C810636   4.416   3.532  12.068  0.4226  0.3126 -0.5143
  719TMC3    O110637   0.163   3.485  11.933  0.0990 -0.6134 -0.2092
  719TMC3    O210638   4.339   3.551  12.160 -0.4699 -0.0336 -0.3929
  720MPD2     C10639   3.316   4.384  13.348  1.0595  0.1775  0.0856
  720MPD2    C110640   3.393   4.501  13.330  0.0997  0.6629  0.4965
  720MPD2    C210641   3.452   4.561  13.440  0.7170  0.0528  0.4405
  720MPD2    C310642   3.460   4.494  13.558 -0.1785  0.4491 -1.1589
  720MPD2    C410643   3.398   4.374  13.562  0.3383  0.0195 -0.1791
  720MPD2    C510644   3.322   4.319  13.465  0.6920  0.1904 -0.0183
  720MPD2     H10645   3.494   4.661  13.434  0.6106  0.1166  0.7331
  720MPD2    H110646   3.399   4.315  13.654  2.3707 -0.2946 -0.4066
  720MPD2    H210647   3.278   4.330  13.262  1.9038 -1.3083  0.6404
  720MPD2    H310648   3.262   4.229  13.474  1.9451 -0.9632 -3.2772
  720MPD2     N10649   3.519   4.558  13.664  0.2281  0.0655  0.0457
  720MPD2    H510650   3.565   4.648  13.653 -0.5647  0.4926  0.2472
  720MPD2    N110651   3.366   4.582  13.213  0.3618 -0.4567  0.0809
  720MPD2    H710652   3.402   4.677  13.212 -0.7763 -0.0417 -1.2869
  721TMC3    C110653   3.581   4.604  13.883 -0.4433 -0.4658  0.1151
  721TMC3    C210654   3.527   4.621  14.003  0.3301  0.2944 -0.4907
  721TMC3    C310655   3.611   4.594  14.100 -0.0005  1.4991 -0.0654
  721TMC3    C410656   3.712   4.569  13.855 -0.2114 -0.0735  0.3871
  721TMC3    C510657   3.784   4.527  13.965 -0.1285 -0.0228  0.1683
  721TMC3    C610658   3.741   4.547  14.089  1.0290  0.4007 -0.4228
  721TMC3     C10659   3.495   4.523  13.795 -0.0540  0.1679 -0.8152
  721TMC3     O10660   3.426   4.437  13.851  0.3932 -0.5029 -0.3712
  721TMC3     H10661   3.423   4.644  14.019  1.0431  2.0830  1.6312
  721TMC3    H110662   3.758   4.554  13.758 -1.4907 -1.3440 -0.0150
  721TMC3    H210663   3.805   4.531  14.175 -0.4966  1.7353  0.9591
  721TMC3    C710664   3.928   4.523  13.944  0.5620  0.2723 -0.4168
  721TMC3    C810665   3.578   4.641  14.236  0.3877  0.7822 -0.4188
  721TMC3    O110666   3.977   4.591  13.857 -0.3253 -0.7601  0.1033
  721TMC3    O210667   3.637   4.589  14.335 -0.4527 -0.8055  0.9152
  722MPD2     C10668   1.865   3.581  13.397  1.0118 -0.1812  0.4784
  722MPD2    C110669   1.822   3.582  13.265  0.2845  0.6173 -0.7682
  722MPD2    C210670   1.692   3.551  13.242  0.4465  0.1283  0.1490
  722MPD2    C310671   1.615   3.496  13.342 -0.4786 -0.3679 -0.2120
  722MPD2    C410672   1.664   3.485  13.471  0.3422  0.2034  0.3916
  722MPD2    C510673   1.784   3.547  13.499  0.2434 -0.6560 -0.3644
  722MPD2     H10674   1.650   3.564  13.143  0.7308 -0.1314 -0.0089
  722MPD2    H110675   1.598   3.454  13.551  0.4072 -1.7911 -0.3378
  722MPD2    H210676   1.962   3.618  13.427  0.8916 -0.7881  1.6056
  722MPD2    H310677   1.830   3.557  13.597 -1.1948  0.6106  0.1821
  722MPD2     N10678   1.483   3.466  13.302 -0.1209  0.1515 -0.3753
  722MPD2    H510679   1.463   3.481  13.203 -2.1198  0.7205  0.1112
  722MPD2    N110680   1.899   3.626  13.154 -0.0402 -0.0749 -0.3260
  722MPD2    H710681   1.845   3.623  13.068 -0.5832  2.0389 -0.0537
  723TMC3    C110682   1.263   3.496  13.307 -0.0344 -0.5357 -0.2306
  723TMC3    C210683   1.256   3.438  13.183  0.2993  0.7947  0.3510
  723TMC3    C310684   1.232   3.516  13.073 -0.1388  0.7602  0.5301
  723TMC3    C410685   1.261   3.633  13.323 -0.1300  0.6438  0.0374
  723TMC3    C510686   1.243   3.706  13.214  0.0271 -0.7722 -1.1224
  723TMC3    C610687   1.220   3.656  13.090 -0.6246  0.1302  0.3537
  723TMC3     C10688   1.374   3.454  13.389  0.6722 -0.3750 -0.9237
  723TMC3     O10689   1.368   3.468  13.511 -0.1068  0.1187  0.2780
  723TMC3     H10690   1.266   3.331  13.173 -0.2805  1.0131 -2.6318
  723TMC3    H110691   1.293   3.671  13.419  1.5862  1.2152 -0.7660
  723TMC3    H210692   1.195   3.717  13.003  0.5995 -0.7244 -0.6048
  723TMC3    C710693   1.282   3.844  13.224  0.1776  0.1702 -0.5315
  723TMC3    C810694   1.228   3.466  12.937 -0.2811  0.5797 -0.3677
  723TMC3    O110695   1.278   3.897  13.335  0.1993 -0.6748 -0.0016
  723TMC3    O210696   1.245   3.556  12.854  0.0627 -0.0072  0.3421
  724TMC3    C110697   2.363   1.364  10.160  0.4991 -0.5189  0.2879
  724TMC3    C210698   2.295   1.467  10.098 -0.9336 -0.4804  0.3808
  724TMC3    C310699   2.340   1.525   9.984 -0.7181  0.4572 -0.0528
  724TMC3    C410700   2.498   1.351  10.134 -0.0152  0.5623 -0.3692
  724TMC3    C510701   2.548   1.418  10.024 -0.1978  0.2565 -0.4127
  724TMC3    C610702   2.471   1.496   9.940  0.3445  0.1198  0.5274
  724TMC3     C10703   2.316   1.306  10.283  0.0544 -0.4361  0.6885
  724TMC3     O10704   2.366   1.200  10.327 -0.1050  0.3704  0.6393
  724TMC3     H10705   2.192   1.491  10.120  0.0858  1.9584  2.5678
  724TMC3    H110706   2.555   1.288  10.202 -1.3447 -0.0164  0.2040
  724TMC3    H210707   2.509   1.542   9.850  1.0878 -1.1495  0.1983
  724TMC3    C710708   2.687   1.411   9.979 -0.2154 -0.4857  0.4568
  724TMC3    C810709   2.252   1.601   9.899  0.5028 -1.2582  0.9220
  724TMC3    O110710   2.734   1.498   9.909  0.4823  0.0646  0.2863
  724TMC3    O210711   2.131   1.571   9.905 -0.5168  0.6097  0.1598
  725TMC3    C110712   4.182   0.362  12.821 -0.8102  0.1267  0.1610
  725TMC3    C210713   4.058   0.359  12.877 -0.2717 -0.5809  0.2599
  725TMC3    C310714   3.967   0.272  12.826  0.1332 -0.0816  0.0378
  725TMC3    C410715   4.223   0.277  12.717  0.0426  0.5522  0.2804
  725TMC3    C510716   4.128   0.183  12.684 -0.2360  0.1996 -0.0835
  725TMC3    C610717   3.999   0.178  12.730  0.1774  0.1768  0.1579
  725TMC3     C10718   4.227   0.494  12.817  0.6090  0.4622  0.0288
  725TMC3     O10719   4.201   0.575  12.906 -0.0458 -0.3011 -0.0690
  725TMC3     H10720   4.018   0.443  12.933 -1.3645 -1.8767  1.4142
  725TMC3    H110721   4.326   0.249  12.700 -0.1984  0.5864 -1.2635
  725TMC3    H210722   3.913   0.124  12.692  0.6308 -0.0953 -0.4594
  725TMC3    C710723   4.189   0.060  12.636 -0.4780 -0.3648 -0.2244
  725TMC3    C810724   3.829   0.318  12.828 -0.6299  0.0614  0.6208
  725TMC3    O110725   4.241   0.061  12.527  0.1086  0.0377  0.7384
  725TMC3    O210726   3.779   0.345  12.937 -0.1839  0.2681 -0.1241
  726MPD2     C10727   1.603   1.899  10.221  0.3315 -0.1501  0.0652
  726MPD2    C110728   1.536   2.017  10.224  0.4422 -0.0353  0.2312
  726MPD2    C210729   1.417   2.023  10.294 -0.6675 -0.1647  0.3303
  726MPD2    C310730   1.369   1.923  10.376  0.4561 -0.4681 -0.3555
  726MPD2    C410731   1.443   1.810  10.382 -0.0979  0.8403 -1.0249
  726MPD2    C510732   1.545   1.794  10.294  0.3423  0.1298  1.0460
  726MPD2     H10733   1.365   2.118  10.290  0.2099  0.4366  3.2692
  726MPD2    H110734   1.411   1.729  10.447 -0.8082  1.5137 -0.5479
  726MPD2    H210735   1.695   1.880  10.166  1.0659 -1.0470  1.5851
  726MPD2    H310736   1.597   1.699  10.298  1.0338  0.5622  2.1807
  726MPD2     N10737   1.249   1.945  10.448  0.5157  0.4421  0.7347
  726MPD2    H510738   1.193   2.026  10.424  2.3336  1.8468  1.2942
  726MPD2    N110739   1.587   2.139  10.183  0.0163 -0.0779  0.4764
  726MPD2    H710740   1.535   2.225  10.197 -1.4624 -0.5520 -1.9973
  727TMC3    C110741   1.739   2.290  10.117  0.0806 -0.0669  0.7435
  727TMC3    C210742   1.865   2.333  10.136 -0.4830  0.0504 -0.4766
  727TMC3    C310743   1.912   2.439  10.061 -0.2068 -0.6538 -0.3614
  727TMC3    C410744   1.662   2.340  10.014  0.1228  0.9224 -0.4615
  727TMC3    C510745   1.707   2.446   9.940  0.2219 -0.3253 -0.5055
  727TMC3    C610746   1.832   2.493   9.958 -0.5491 -0.5056  0.3866
  727TMC3     C10747   1.720   2.156  10.154 -0.1327  0.5327  0.1185
  727TMC3     O10748   1.808   2.071  10.139 -0.2157  0.1247  0.1328
  727TMC3     H10749   1.917   2.301  10.226 -1.0170 -2.6210 -1.1432
  727TMC3    H110750   1.558   2.312  10.002  0.2766  0.7518 -1.3961
  727TMC3    H210751   1.876   2.561   9.886  1.3455  0.3248  2.3335
  727TMC3    C710752   1.631   2.470   9.823 -0.2920 -0.4484 -0.1668
  727TMC3    C810753   2.028   2.507  10.107 -0.2063  0.0239 -0.8264
  727TMC3    O110754   1.540   2.392   9.800  0.4865  0.3597  0.3143
  727TMC3    O210755   2.094   2.448  10.191  0.4686 -0.1520  0.3194
  728TMC3    C110756   1.512   0.686  15.154 -0.0759 -0.3670 -0.5956
  728TMC3    C210757   1.593   0.791  15.190  0.2533 -0.6254 -0.0811
  728TMC3    C310758   1.590   0.899  15.111  0.1686 -0.0852 -0.2661
  728TMC3    C410759   1.445   0.694  15.032  0.3265 -0.3467  0.4743
  728TMC3    C510760   1.442   0.808  14.953  0.3820 -0.9600 -0.2610
  728TMC3    C610761   1.514   0.920  14.996  0.1108  0.3861 -0.2071
  728TMC3     C10762   1.444   0.633  15.263 -1.1933 -0.4827  0.1699
  728TMC3     O10763   1.520   0.588  15.348  0.0913 -0.0790  0.0042
  728TMC3     H10764   1.653   0.789  15.280 -3.3304  0.8160  2.3251
  728TMC3    H110765   1.382   0.616  14.991  1.6924 -2.4992  2.4543
  728TMC3    H210766   1.533   1.010  14.939 -0.4855  0.5303 -0.1748
  728TMC3    C710767   1.392   0.803  14.812 -0.1873  0.3078  0.2832
  728TMC3    C810768   1.641   1.017  15.185 -0.3539 -0.4238 -0.0702
  728TMC3    O110769   1.386   0.696  14.759  0.0179 -0.1479 -0.5806
  728TMC3    O210770   1.720   0.994  15.273 -0.1264 -0.0950  0.2545
  729MPD2     C10771   3.323   1.568  16.744 -0.2940 -0.6141  0.1355
  729MPD2    C110772   3.452   1.575  16.783 -0.5132 -0.1898  0.1067
  729MPD2    C210773   3.484   1.607  16.920 -0.4772  0.0850  0.0305
  729MPD2    C310774   3.384   1.618  17.011  0.4287 -0.5270  0.2540
  729MPD2    C410775   3.256   1.595  16.969  0.4718  0.5166 -0.5736
  729MPD2    C510776   3.220   1.561  16.835 -0.3092 -0.3345 -0.2956
  729MPD2     H10777   3.585   1.632  16.951 -0.9423  1.7057  0.2265
  729MPD2    H110778   3.172   1.589  17.036  0.9617 -0.5469 -0.0648
  729MPD2    H210779   3.305   1.534  16.643 -0.3685  0.6393 -0.2756
  729MPD2    H310780   3.118   1.545  16.804 -0.3398  1.7375 -1.2148
  729MPD2     N10781   3.398   1.645  17.149  0.6182  0.4053  0.4755
  729MPD2    H510782   3.311   1.645  17.202  0.1116  0.1830 -0.3493
  729MPD2    N110783   3.552   1.568  16.680 -0.4883 -0.0352 -0.1658
  729MPD2    H710784   3.526   1.568  16.582 -0.6946  2.6786 -0.1317
  730TMC3    C110785   3.480   1.690  17.366  0.1462 -0.3210 -0.2528
  730TMC3    C210786   3.590   1.681  17.448  0.5352  0.0185 -0.3496
  730TMC3    C310787   3.613   1.776  17.547  0.5829 -0.8779  0.9653
  730TMC3    C410788   3.399   1.803  17.377  0.2243  1.2369  0.8229
  730TMC3    C510789   3.432   1.902  17.468 -0.2543 -0.3317 -0.3760
  730TMC3    C610790   3.542   1.892  17.552 -0.5771 -0.6305  0.2380
  730TMC3     C10791   3.512   1.661  17.222 -0.3537  0.2544 -0.5411
  730TMC3     O10792   3.626   1.680  17.180 -0.0749  0.3735  0.0614
  730TMC3     H10793   3.656   1.596  17.436 -0.0411 -0.4430 -0.2727
  730TMC3    H110794   3.314   1.822  17.313  2.1522  2.9262 -1.2433
  730TMC3    H210795   3.570   1.977  17.613  0.4964  0.4582 -1.7772
  730TMC3    C710796   3.417   2.031  17.404 -0.2628  0.9702  0.5269
  730TMC3    C810797   3.755   1.794  17.579  0.2948 -0.1409  0.2812
  730TMC3    O110798   3.426   2.026  17.280 -0.3181  0.6728  0.5006
  730TMC3    O210799   3.783   1.851  17.683 -0.5795  0.1930 -0.1138
  731MPD2     C10800   3.146   3.841  11.499 -0.4711  0.5031 -0.3589
  731MPD2    C110801   3.281   3.823  11.525  0.1964  0.6358 -0.7166
  731MPD2    C210802   3.309   3.772  11.653  0.4320 -0.0806 -0.2811
  731MPD2    C310803   3.214   3.770  11.751 -0.3483  0.1205  0.9070
  731MPD2    C410804   3.080   3.780  11.721 -0.4673  0.4023 -0.3183
  731MPD2    C510805   3.052   3.830  11.594  0.7046  0.0560 -0.5455
  731MPD2     H10806   3.410   3.740  11.674  0.5128 -0.7020 -1.6460
  731MPD2    H110807   3.005   3.776  11.799 -0.0884  3.1945  0.1999
  731MPD2    H210808   3.118   3.891  11.407  0.2534  1.0493 -0.2847
  731MPD2    H310809   2.955   3.870  11.563 -0.9256 -1.7679  2.2898
  731MPD2     N10810   3.262   3.736  11.877  0.2925  0.4550 -0.6334
  731MPD2    H510811   3.363   3.731  11.880  0.3869  2.5553 -0.5946
  731MPD2    N110812   3.366   3.851  11.422 -0.2198 -0.1060  0.1345
  731MPD2    H710813   3.316   3.885  11.340  1.1469 -0.0916 -0.6958
  732TMC3    C110814   3.540   3.957  11.323 -0.0551  0.3444 -0.3477
  732TMC3    C210815   3.433   3.986  11.249 -0.2997  0.7102  0.5867
  732TMC3    C310816   3.386   4.116  11.241  0.0884  0.0657 -0.4615
  732TMC3    C410817   3.596   4.062  11.389 -0.1865  0.5119 -0.2662
  732TMC3    C510818   3.546   4.190  11.387  0.3267  0.3471  0.4366
  732TMC3    C610819   3.433   4.219  11.309 -0.1347 -0.0134  0.5235
  732TMC3     C10820   3.495   3.853  11.422  0.0388  0.7986 -0.2539
  732TMC3     O10821   3.566   3.831  11.521  0.7683 -0.5044 -0.1404
  732TMC3     H10822   3.395   3.916  11.175  1.7255 -0.7458  0.9385
  732TMC3    H110823   3.667   4.035  11.467 -1.1869  2.0905  1.2003
  732TMC3    H210824   3.402   4.321  11.286  2.7249  0.4370 -1.3319
  732TMC3    C710825   3.583   4.295  11.478  0.7776 -0.4046  0.6587
  732TMC3    C810826   3.255   4.143  11.191  0.5370 -0.2097 -0.5751
  732TMC3    O110827   3.519   4.396  11.463  0.3188  0.0192  0.1019
  732TMC3    O210828   3.234   4.119  11.069 -0.6134 -0.0742 -0.6357
  733TMC3    C110829   3.935   3.023  12.627  0.3812  0.2516  0.6932
  733TMC3    C210830   4.019   3.105  12.699  0.1369  0.5638  0.4165
  733TMC3    C310831   4.135   3.145  12.638  0.3376 -0.1685  0.5114
  733TMC3    C410832   3.953   3.002  12.496  0.2258 -0.5356 -0.8032
  733TMC3    C510833   4.077   3.039  12.443  0.1251 -0.7252  0.1514
  733TMC3    C610834   4.168   3.111  12.508  0.7452  0.1027  0.1087
  733TMC3     C10835   3.802   3.009  12.668 -0.3849 -0.6255  0.3092
  733TMC3     O10836   3.724   3.039  12.580 -0.5979  0.1723  0.0651
  733TMC3     H10837   4.000   3.128  12.803 -1.5082  0.3030  0.1724
  733TMC3    H110838   3.883   2.954  12.428  1.7344 -1.3868 -1.7583
  733TMC3    H210839   4.264   3.121  12.461  1.6410 -2.0131  1.4569
  733TMC3    C710840   4.081   3.020  12.300 -0.2449 -0.4609 -0.1782
  733TMC3    C810841   4.219   3.244  12.701  0.0918  0.0308 -0.4140
  733TMC3    O110842   4.044   2.918  12.250 -0.1099 -0.0397  0.7135
  733TMC3    O210843   4.224   3.242  12.822 -0.2091 -0.2663  0.1657
  734MPD2     C10844   2.092   0.185  12.097  0.7212  0.1011 -0.1018
  734MPD2    C110845   1.963   0.216  12.141 -0.5221 -0.1278  0.3562
  734MPD2    C210846   1.892   0.299  12.063  0.1281 -0.9210 -0.1745
  734MPD2    C310847   1.941   0.362  11.947  0.7400 -0.0795  0.0267
  734MPD2    C410848   2.067   0.328  11.907 -0.9943  0.1388 -0.2860
  734MPD2    C510849   2.144   0.238  11.981  0.3257  0.0665  0.7540
  734MPD2     H10850   1.786   0.307  12.081  0.7776  1.4045  2.4880
  734MPD2    H110851   2.127   0.377  11.831  1.4347 -2.3112  0.0305
  734MPD2    H210852   2.162   0.126  12.155 -1.6751 -1.5074  1.1673
  734MPD2    H310853   2.245   0.217  11.947 -0.4891 -1.6457 -0.6259
  734MPD2     N10854   1.856   0.448  11.877 -0.2761 -0.1703 -0.4810
  734MPD2    H510855   1.771   0.466  11.929  1.1834  1.9220  1.1700
  734MPD2    N110856   1.910   0.145  12.257 -0.4259  0.0094 -0.2009
  734MPD2    H710857   1.975   0.078  12.298  1.4424  1.3418 -0.9854
  735TMC3    C110858   1.732   0.050  12.384 -0.1074  0.0751  0.4770
  735TMC3    C210859   1.595   0.069  12.384  0.0122 -0.3893  0.7038
  735TMC3    C310860   1.521   4.687  12.346  0.1225 -0.8770  0.0237
  735TMC3    C410861   1.781   4.646  12.357  0.7770  0.0459 -0.2322
  735TMC3    C510862   1.696   4.545  12.316 -0.2023  0.5096  0.5232
  735TMC3    C610863   1.566   4.564  12.308  0.4599  0.4558  0.3316
  735TMC3     C10864   1.783   0.153  12.303  0.3032  0.6192  0.0203
  735TMC3     O10865   1.705   0.243  12.277  0.2030  0.2086  0.6671
  735TMC3     H10866   1.545   0.159  12.420  0.8142 -0.1504  1.2171
  735TMC3    H110867   1.888   4.632  12.359  0.5776 -1.3361  1.1146
  735TMC3    H210868   1.503   4.490  12.261  0.4638  0.1807  0.7625
  735TMC3    C710869   1.768   4.417  12.303 -0.2232  0.8206  0.1238
  735TMC3    C810870   1.413   0.016  12.269 -0.0084  0.0809 -0.6012
  735TMC3    O110871   1.885   4.423  12.340 -0.3698 -0.0610  0.7972
  735TMC3    O210872   1.320   4.665  12.235  0.0599  0.5875  0.3098
  736MPD2     C10873   1.712   4.072  12.208  0.4176 -0.6439  0.0042
  736MPD2    C110874   1.769   4.194  12.207 -0.7820 -0.0352  0.4811
  736MPD2    C210875   1.877   4.220  12.129 -0.1829  0.1420  0.5413
  736MPD2    C310876   1.934   4.124  12.050  0.3113  0.5132  1.1107
  736MPD2    C410877   1.877   3.999  12.065  0.9033  0.3584  0.3291
  736MPD2    C510878   1.769   3.970  12.144 -0.2793  0.2609  0.0516
  736MPD2     H10879   1.922   4.317  12.142 -0.0994 -0.1543  2.5643
  736MPD2    H110880   1.921   3.924  12.001 -3.6876 -1.6371 -0.4686
  736MPD2    H210881   1.628   4.050  12.272 -0.3002 -1.3804 -1.1886
  736MPD2    H310882   1.721   3.873  12.140 -2.4467  1.3711 -0.5711
  736MPD2     N10883   2.047   4.153  11.976  0.3783 -0.0883 -0.1642
  736MPD2    H510884   2.073   4.076  11.916 -3.2830 -0.4264 -1.3641
  736MPD2    N110885   1.696   4.303  12.262  0.1114 -0.3208  0.3487
  736MPD2    H710886   1.596   4.297  12.278  0.4052 -1.8241  1.6588
  737TMC3    C110887   2.234   4.269  11.880 -0.2860 -0.5588  0.5403
  737TMC3    C210888   2.326   4.370  11.906 -1.2365 -0.5190  0.3632
  737TMC3    C310889   2.391   4.424  11.798  0.2607  0.2841 -0.6922
  737TMC3    C410890   2.216   4.214  11.760 -0.4145 -0.1549  0.1350
  737TMC3    C510891   2.302   4.249  11.661 -0.8833  0.2811  0.0955
  737TMC3    C610892   2.378   4.369  11.671 -0.5249  0.0093  0.0643
  737TMC3     C10893   2.118   4.271  11.965  0.5949 -0.3674  0.5769
  737TMC3     O10894   2.091   4.380  12.020  0.4346  0.8102  0.2382
  737TMC3     H10895   2.342   4.424  11.998 -1.6716 -0.2864  0.3009
  737TMC3    H110896   2.157   4.124  11.749 -0.1881 -0.4565  1.4943
  737TMC3    H210897   2.426   4.409  11.582 -1.4322 -0.0244 -0.4379
  737TMC3    C710898   2.294   4.169  11.540 -0.6876 -0.5335  0.1453
  737TMC3    C810899   2.427   4.564  11.803 -0.3830  0.1377 -0.1277
  737TMC3    O110900   2.239   4.059  11.545  0.1915 -0.0820 -0.4944
  737TMC3    O210901   2.485   4.599  11.906 -0.5440 -0.1079 -0.1578
  738MPD2     C10902   2.149   4.021  15.319  0.2528  0.5363 -0.4688
  738MPD2    C110903   2.163   3.945  15.208 -0.1928  0.1204  0.1548
  738MPD2    C210904   2.246   4.000  15.109  1.2469 -0.2037  0.3993
  738MPD2    C310905   2.312   4.112  15.138 -0.3480  0.8054 -0.0043
  738MPD2    C410906   2.315   4.178  15.260 -0.0870  0.1680 -0.6322
  738MPD2    C510907   2.225   4.129  15.348  0.0707  0.0169 -0.0328
  738MPD2     H10908   2.258   3.949  15.015 -2.0057  0.2862 -0.2681
  738MPD2    H110909   2.372   4.267  15.287 -1.3193  1.2627 -1.6050
  738MPD2    H210910   2.071   3.991  15.388 -0.2889 -0.5603 -1.5509
  738MPD2    H310911   2.212   4.176  15.445 -0.1445 -1.1995  0.5215
  738MPD2     N10912   2.400   4.171  15.047  0.2494 -0.6569 -0.5060
  738MPD2    H510913   2.454   4.252  15.076  1.2868 -1.9658  1.2320
  738MPD2    N110914   2.091   3.825  15.183 -0.1857 -0.0011 -0.3965
  738MPD2    H710915   2.094   3.784  15.090 -1.5050 -0.6111 -0.1675
  739TMC3    C110916   2.552   4.199  14.858 -0.1171  0.2620 -0.1962
  739TMC3    C210917   2.552   4.207  14.720 -0.1826 -0.5513  0.8613
  739TMC3    C310918   2.675   4.232  14.668  0.8965 -0.9809 -0.1896
  739TMC3    C410919   2.663   4.222  14.938 -0.6245 -0.9140 -0.4630
  739TMC3    C510920   2.780   4.255  14.870 -0.0983  0.3091  0.0148
  739TMC3    C610921   2.786   4.275  14.734  0.0556  0.2956  0.1631
  739TMC3     C10922   2.440   4.122  14.919 -0.3745 -0.6191 -0.8263
  739TMC3     O10923   2.375   4.045  14.848 -0.2091 -0.2315 -0.1174
  739TMC3     H10924   2.479   4.166  14.651  0.6850 -2.7696  1.2695
  739TMC3    H110925   2.669   4.176  15.037  0.2706  1.0012  0.3689
  739TMC3    H210926   2.878   4.311  14.691 -0.0493 -0.1377 -0.4175
  739TMC3    C710927   2.909   4.203  14.924 -0.1415 -0.4555 -0.2298
  739TMC3    C810928   2.681   4.224  14.527  0.3234 -0.0024  0.0046
  739TMC3    O110929   3.000   4.169  14.851  0.3977 -0.1137  0.0709
  739TMC3    O210930   2.578   4.204  14.464  0.1218  0.4029  0.2149
  740TMC3    C110931   3.005   0.037  14.273 -0.3069  0.0341  0.7741
  740TMC3    C210932   3.004   4.659  14.366 -0.3241 -0.0249  0.0569
  740TMC3    C310933   3.052   4.540  14.327 -0.1676  0.6428  0.3438
  740TMC3    C410934   3.041   0.016  14.140 -0.4955 -0.1429 -1.0170
  740TMC3    C510935   3.092   4.611  14.111 -0.5032  0.0469  0.3546
  740TMC3    C610936   3.086   4.509  14.200  0.3285 -0.2422  0.6011
  740TMC3     C10937   2.961   0.167  14.308 -0.0468 -0.1286 -0.4015
  740TMC3     O10938   2.995   0.266  14.244 -0.4508  0.0670 -0.2636
  740TMC3     H10939   2.983   4.672  14.472  1.4171  0.3995  0.3543
  740TMC3    H110940   3.038   0.097  14.068  0.6253 -0.6290 -1.6155
  740TMC3    H210941   3.116   4.408  14.178  0.6154 -0.4090  1.7615
  740TMC3    C710942   3.099   4.576  13.971 -0.0116  0.3039 -0.4470
  740TMC3    C810943   3.115   4.466  14.433 -0.0497 -0.5486  0.7653
  740TMC3    O110944   3.064   4.464  13.939  0.4131 -0.2930 -0.5159
  740TMC3    O210945   3.080   4.475  14.547 -1.2276 -0.3140  0.1629
  741TMC3    C110946   2.499   4.488  14.449  0.3690  0.7141 -0.2752
  741TMC3    C210947   2.406   4.417  14.369 -0.1618 -0.4286 -0.0387
  741TMC3    C310948   2.301   4.367  14.440 -0.3597  0.2474 -0.1764
  741TMC3    C410949   2.475   4.515  14.587  0.0210 -0.2577 -0.4029
  741TMC3    C510950   2.357   4.471  14.644  0.3030 -0.1813 -0.1591
  741TMC3    C610951   2.268   4.383  14.571  0.8089 -0.4776  0.2596
  741TMC3     C10952   2.580   4.586  14.379  0.2300  0.5694 -0.6314
  741TMC3     O10953   2.602   4.690  14.442  0.0647  0.2253 -0.0547
  741TMC3     H10954   2.412   4.414  14.261  1.4664 -1.4802  0.0854
  741TMC3    H110955   2.548   4.570  14.646 -0.9386  2.6467 -1.9246
  741TMC3    H210956   2.175   4.347  14.614 -0.0984 -2.0115 -3.0280
  741TMC3    C710957   2.335   4.472  14.790  0.3482  0.4801 -0.5125
  741TMC3    C810958   2.214   4.278  14.366 -0.2882 -0.2529  0.1307
  741TMC3    O110959   2.250   4.392  14.834  0.3254 -0.2699 -0.1401
  741TMC3    O210960   2.115   4.244  14.431 -0.2436 -0.5212 -0.1578
  742TMC3    C110961   3.196   2.892  14.883 -0.4620  0.6255 -0.1099
  742TMC3    C210962   3.069   2.927  14.853  0.1970  0.1124 -0.1274
  742TMC3    C310963   2.993   2.833  14.796  0.1174 -0.5012  0.7526
  742TMC3    C410964   3.252   2.773  14.834 -0.5059 -0.5738 -0.2521
  742TMC3    C510965   3.170   2.683  14.772  0.0692 -0.4118 -0.5321
  742TMC3    C610966   3.037   2.711  14.755  0.0407  0.7635  0.0952
  742TMC3     C10967   3.278   2.981  14.957  0.1875  0.0744  0.7834
  742TMC3     O10968   3.228   3.096  14.947 -0.4498  0.8734  0.3689
  742TMC3     H10969   3.031   3.012  14.908 -2.7111 -2.4775  1.8673
  742TMC3    H110970   3.359   2.757  14.841 -0.2977  1.4687  1.1056
  742TMC3    H210971   2.961   2.640  14.725  0.5848 -0.7520  2.2197
  742TMC3    C710972   3.226   2.582  14.682  0.0903  0.1166 -0.3683
  742TMC3    C810973   2.849   2.855  14.780  0.1738  0.0744 -1.1705
  742TMC3    O110974   3.346   2.568  14.682 -0.3043  0.5519 -0.2132
  742TMC3    O210975   2.780   2.758  14.753 -0.2704 -0.9719  0.0834
  743MPD2     C10976   1.416   4.617   2.129 -0.0226  0.2267 -0.1635
  743MPD2    C110977   1.421   4.587   1.994 -0.3842 -0.6853 -0.1164
  743MPD2    C210978   1.542   4.560   1.943 -0.7669 -0.6150  0.5509
  743MPD2    C310979   1.655   4.554   2.020 -0.2822 -0.3473  0.1363
  743MPD2    C410980   1.644   4.592   2.157  0.2803 -0.6397 -0.3604
  743MPD2    C510981   1.529   4.642   2.206 -0.6472  0.0137  0.3698
  743MPD2     H10982   1.557   4.529   1.840 -0.1901 -0.8101  0.6939
  743MPD2    H110983   1.737   4.603   2.212  0.9458 -0.8545 -1.4433
  743MPD2    H210984   1.320   4.652   2.165  0.7949  1.0792  1.1838
  743MPD2    H310985   1.523   4.679   2.307 -3.2529  1.6832 -0.3912
  743MPD2     N10986   1.779   4.526   1.950  0.1728  0.6831 -0.2460
  743MPD2    H510987   1.757   4.506   1.853  0.9547  0.5547 -0.3951
  743MPD2    N110988   1.301   4.575   1.915 -0.8079  0.3422 -0.0465
  743MPD2    H710989   1.210   4.611   1.946 -0.9306  0.2674 -0.3262
  744TMC3    C110990   1.168   4.540   1.721  0.7499  0.1809 -0.0299
  744TMC3    C210991   1.058   4.603   1.784 -0.4345 -0.0891 -0.6855
  744TMC3    C310992   0.951   4.634   1.705  0.4944  0.1459 -0.4152
  744TMC3    C410993   1.170   4.511   1.594 -0.1014  0.0513  0.4136
  744TMC3    C510994   1.074   4.573   1.516 -0.6753 -0.5468  0.3605
  744TMC3    C610995   0.968   4.642   1.565 -0.5973 -0.6582 -0.6953
  744TMC3     C10996   1.297   4.518   1.789 -1.0117  0.4334  0.3637
  744TMC3     O10997   1.384   4.454   1.728 -0.5176  0.0056 -0.6821
  744TMC3     H10998   1.062   4.636   1.887 -0.2509  0.0655 -0.7424
  744TMC3    H110999   1.262   4.468   1.555  0.6187  1.0555  1.0067
  744TMC3    H211000   0.902   4.697   1.500  0.8822  1.8016 -0.1264
  744TMC3    C711001   1.069   4.530   1.377 -0.3999 -0.2517  0.1514
  744TMC3    C811002   0.853   4.712   1.770  0.5272 -0.1439 -0.0429
  744TMC3    O111003   0.992   4.588   1.304  0.5124 -0.1131 -0.0700
  744TMC3    O211004   0.800   0.083   1.707 -0.1388  0.1645  0.1318
  745TMC3    C111005   2.530   2.818  13.448  0.6409  0.1440  0.0192
  745TMC3    C211006   2.439   2.806  13.542  0.1090  0.2412 -0.2564
  745TMC3    C311007   2.309   2.841  13.513  0.4598  0.7701  1.3702
  745TMC3    C411008   2.503   2.880  13.332  0.2883  0.3234 -0.3089
  745TMC3    C511009   2.377   2.918  13.295  0.1447  0.2823  0.4881
  745TMC3    C611010   2.280   2.900  13.393  0.1978  0.4063  0.5716
  745TMC3     C11011   2.661   2.839  13.511 -0.1385 -0.0342 -0.7819
  745TMC3     O11012   2.699   2.752  13.591  0.1099 -0.3067 -0.5149
  745TMC3     H11013   2.462   2.752  13.633 -0.8351  0.6298  0.2105
  745TMC3    H111014   2.585   2.894  13.262 -1.8424 -2.5661 -3.3755
  745TMC3    H211015   2.179   2.933  13.370 -0.3034 -0.7526  1.1304
  745TMC3    C711016   2.337   2.963  13.162  0.5340 -0.5839 -0.1665
  745TMC3    C811017   2.220   2.886  13.620 -0.0611 -0.2921 -0.1479
  745TMC3    O111018   2.218   2.992  13.149 -0.1032 -0.2558 -0.0298
  745TMC3    O211019   2.101   2.904  13.598  0.4378 -0.3826 -0.7033
  746TMC3    C111020   0.278   0.026  10.892  0.6189  0.3288  0.8073
  746TMC3    C211021   0.402   0.040  10.832 -0.4892  0.1096  0.2914
  746TMC3    C311022   0.443   4.652  10.761 -0.1293  0.2028  0.3122
  746TMC3    C411023   0.214   4.628  10.913 -0.1370  0.5675 -0.1795
  746TMC3    C511024   0.282   4.522  10.869 -0.2399 -0.3137 -0.2497
  746TMC3    C611025   0.399   4.527  10.797 -0.3340 -0.4184 -0.8074
  746TMC3     C11026   0.241   0.135  10.974  0.3086  0.9588 -0.2900
  746TMC3     O11027   0.162   0.121  11.068  0.1111 -0.2772 -0.1294
  746TMC3     H11028   0.464   0.129  10.842 -0.3291 -0.1701  1.7816
  746TMC3    H111029   0.123   4.613  10.970 -0.9011  2.1602 -1.0087
  746TMC3    H211030   0.432   4.438  10.744  2.5372  1.3250 -1.9303
  746TMC3    C711031   0.202   4.409  10.829  0.0340 -0.3828  0.2578
  746TMC3    C811032   0.571   4.649  10.689 -0.4221  0.5885  0.1756
  746TMC3    O111033   0.087   4.430  10.795 -0.3989 -0.9609 -0.2862
  746TMC3    O211034   0.642   4.551  10.696  0.0663 -0.8107 -0.1015
  747TMC3    C111035   2.819   4.524  10.778  0.8833  0.3514 -0.3757
  747TMC3    C211036   2.763   4.431  10.863 -0.2635 -0.0724  0.0589
  747TMC3    C311037   2.780   4.446  10.996  0.4912 -0.0472 -0.6624
  747TMC3    C411038   2.920   4.605  10.823 -0.1032 -0.0475 -0.3701
  747TMC3    C511039   2.940   4.605  10.959  0.7276  0.2425 -0.4758
  747TMC3    C611040   2.864   4.537  11.054  0.0979 -0.0421  1.0302
  747TMC3     C11041   2.802   4.494  10.638  0.6839 -0.2520  0.0738
  747TMC3     O11042   2.784   4.373  10.610  0.3138  0.6591 -0.4771
  747TMC3     H11043   2.687   4.368  10.819 -0.3064  0.6746 -0.9418
  747TMC3    H111044   2.987   4.659  10.757 -1.1958 -0.2637 -1.6518
  747TMC3    H211045   2.882   4.537  11.161  0.6495 -1.0414  0.9316
  747TMC3    C711046   3.060   4.662  11.014  0.1222  0.3017 -0.2337
  747TMC3    C811047   2.686   4.380  11.087 -0.0825 -0.2311  0.0358
  747TMC3    O111048   3.054   0.061  11.037  0.2666  0.4953  0.2166
  747TMC3    O211049   2.680   4.423  11.202  0.7545  0.3913  0.2272
  748MPD2     C11050   4.675   1.039   2.199 -0.0482  0.1216 -0.6311
  748MPD2    C111051   4.704   1.065   2.065  0.2331 -0.8551  0.4274
  748MPD2    C211052   0.110   1.043   2.019 -0.0353  0.1934 -0.3996
  748MPD2    C311053   0.211   0.994   2.102 -1.1484  0.3799 -0.0214
  748MPD2    C411054   0.187   0.966   2.240  0.5390  0.1157 -0.0203
  748MPD2    C511055   0.063   1.007   2.278  0.0601  0.0490 -0.7703
  748MPD2     H11056   0.138   1.052   1.915  2.4936 -0.9249  0.1932
  748MPD2    H111057   0.265   0.943   2.311 -0.9632  0.8069  1.8529
  748MPD2    H211058   4.575   1.033   2.240  0.2941 -0.4863  0.1352
  748MPD2    H311059   0.037   0.988   2.381 -0.2022 -1.6877 -1.1616
  748MPD2     N11060   0.333   0.979   2.036 -0.2318  0.4462  0.7026
  748MPD2    H511061   0.339   1.002   1.938 -2.9369 -0.2662  0.3559
  748MPD2    N111062   4.599   1.095   1.968 -0.4578  0.9794 -0.2308
  748MPD2    H711063   4.503   1.078   1.999  0.1257 -1.0088  0.4584
  749TMC3    C111064   0.561   0.935   2.001 -0.5928  0.6317  0.3698
  749TMC3    C211065   0.656   0.840   2.028 -0.0643  0.1231 -0.1858
  749TMC3    C311066   0.754   0.829   1.929  0.3409  0.4728 -0.7736
  749TMC3    C411067   0.568   1.028   1.897  0.2293 -0.0925 -0.3428
  749TMC3    C511068   0.675   1.013   1.812  0.1322  0.2201  0.6911
  749TMC3    C611069   0.771   0.915   1.823  0.1696  0.0310 -0.6979
  749TMC3     C11070   0.444   0.922   2.084  0.4433  0.4812  0.0062
  749TMC3     O11071   0.460   0.862   2.189 -0.4593  0.2157 -0.1252
  749TMC3     H11072   0.651   0.761   2.102  1.2394  1.6391  1.5008
  749TMC3    H111073   0.495   1.108   1.905  0.0146 -0.3973  0.7319
  749TMC3    H211074   0.856   0.910   1.757  1.3116 -0.6797  0.8367
  749TMC3    C711075   0.644   1.073   1.688  0.4348  0.2187 -0.0479
  749TMC3    C811076   0.865   0.755   1.979 -0.4192  0.4379  1.0101
  749TMC3    O111077   0.563   1.168   1.688  0.4278  0.3474 -0.3964
  749TMC3    O211078   0.867   0.713   2.090  0.1531 -0.0027 -0.3388
  750MPD2     C11079   0.479   1.756  11.228  0.1784  0.2960 -0.7722
  750MPD2    C111080   0.354   1.739  11.293 -0.2933  0.1026  0.0607
  750MPD2    C211081   0.251   1.675  11.222  0.7629 -0.0788 -0.4098
  750MPD2    C311082   0.271   1.616  11.100  0.0552  0.0425  0.4068
  750MPD2    C411083   0.399   1.617  11.047 -0.2577 -0.4296  1.1422
  750MPD2    C511084   0.497   1.680  11.115 -0.3876 -0.9703 -0.0663
  750MPD2     H11085   0.158   1.676  11.277  0.9841 -1.0245 -0.0230
  750MPD2    H111086   0.428   1.573  10.952 -1.8093 -0.9096  0.8902
  750MPD2    H211087   0.561   1.819  11.262  0.1601  0.2444 -0.6320
  750MPD2    H311088   0.599   1.673  11.079 -0.5131  0.1642 -0.6184
  750MPD2     N11089   0.172   1.548  11.022 -0.1486  0.1409 -0.0842
  750MPD2    H511090   0.211   1.499  10.943 -0.0407  1.0624 -0.6019
  750MPD2    N111091   0.336   1.808  11.414 -0.2553 -0.0763  0.6506
  750MPD2    H711092   0.417   1.862  11.445 -0.7447 -0.7009  3.0064
  751TMC3    C111093   4.699   1.443  10.958  0.2934  0.4664 -0.2795
  751TMC3    C211094   4.590   1.376  11.000 -0.5096  0.2047  0.7079
  751TMC3    C311095   4.563   1.258  10.937  0.5046 -1.0380  0.0379
  751TMC3    C411096   0.050   1.416  10.842  0.5379  0.3904  0.0551
  751TMC3    C511097   0.015   1.297  10.789 -0.7124  0.2068 -0.7962
  751TMC3    C611098   4.638   1.214  10.836  1.0691  0.6986  0.2518
  751TMC3     C11099   0.035   1.543  11.042  0.1419  0.2652 -0.4062
  751TMC3     O11100   4.690   1.586  11.137  0.2021 -0.2029 -0.2356
  751TMC3     H11101   4.540   1.410  11.091  1.2615  0.2599  1.6632
  751TMC3    H111102   0.133   1.478  10.810 -1.1623  1.8215 -1.6176
  751TMC3    H211103   4.627   1.116  10.791  0.5404  0.6012  0.6044
  751TMC3    C711104   0.117   1.249  10.694  0.6909 -0.3422  0.2518
  751TMC3    C811105   4.556   1.147  11.030  0.2271  0.0349 -0.7323
  751TMC3    O111106   0.207   1.322  10.658 -0.4536  0.0535  0.6830
  751TMC3    O211107   4.639   1.061  11.008  0.3856  0.4477 -0.1459
  752TMC3    C111108   4.113   1.443  17.426  0.0792  0.4782 -0.0742
  752TMC3    C211109   4.045   1.329  17.398 -0.3893 -0.0819 -0.1074
  752TMC3    C311110   3.948   1.281  17.484  0.2451 -0.0882 -0.2718
  752TMC3    C411111   4.107   1.501  17.547 -0.1757 -0.2921  0.4249
  752TMC3    C511112   4.009   1.445  17.634  0.0104  0.5197  0.4933
  752TMC3    C611113   3.927   1.344  17.603  0.7050 -0.6927  0.1997
  752TMC3     C11114   4.197   1.495  17.321  0.0705  0.4689 -0.1031
  752TMC3     O11115   4.303   1.543  17.365 -0.5317 -0.7139  0.7528
  752TMC3     H11116   4.060   1.286  17.300  0.9417 -4.2651  1.9665
  752TMC3    H111117   4.175   1.583  17.568  0.8473 -0.1782 -3.1946
  752TMC3    H211118   3.857   1.312  17.679 -0.3343  0.2291 -0.3702
  752TMC3    C711119   4.002   1.498   0.084  0.1028 -0.2951  0.7119
  752TMC3    C811120   3.923   1.141  17.475 -0.6230 -0.4943 -0.1918
  752TMC3    O111121   3.950   1.420   0.168  0.1314 -0.0782  0.2343
  752TMC3    O211122   3.934   1.084  17.368  0.3749 -0.2344  0.3251
  753TMC3    C111123   1.229   2.666  13.356  0.0929 -0.5418  0.0833
  753TMC3    C211124   1.274   2.648  13.485 -0.4513  0.4111  0.1831
  753TMC3    C311125   1.293   2.514  13.523 -0.0436 -0.1216 -0.0318
  753TMC3    C411126   1.193   2.565  13.278 -0.0532 -0.6664 -0.5884
  753TMC3    C511127   1.208   2.435  13.316  0.3831  1.0602  0.0295
  753TMC3    C611128   1.267   2.406  13.438 -0.6059  0.4079 -0.4774
  753TMC3     C11129   1.208   2.794  13.301 -0.2242 -0.1009  0.2802
  753TMC3     O11130   1.171   2.804  13.187 -0.3265  0.1370 -0.1049
  753TMC3     H11131   1.314   2.729  13.545 -0.0745  0.3130  0.0631
  753TMC3    H111132   1.177   2.580  13.172 -0.5181  1.6907 -0.1857
  753TMC3    H211133   1.291   2.305  13.468  2.1450  1.4993  1.0197
  753TMC3    C711134   1.153   2.333  13.240 -0.4997 -0.4053  0.0804
  753TMC3    C811135   1.368   2.481  13.648  0.2530 -0.0227 -0.1608
  753TMC3    O111136   1.142   2.357  13.118  0.3325  0.4853 -0.0468
  753TMC3    O211137   1.439   2.383  13.641  0.8449  0.2378 -0.3374
  754MPD2     C11138   4.358   1.348  13.714  0.3391  0.0412  0.2513
  754MPD2    C111139   4.368   1.225  13.654 -0.1779 -0.1497 -0.1596
  754MPD2    C211140   4.345   1.212  13.517 -0.2574 -0.2322 -0.0501
  754MPD2    C311141   4.304   1.321  13.446 -0.3523 -0.9997 -0.3378
  754MPD2    C411142   4.290   1.446  13.505  0.2576 -0.4103 -0.0235
  754MPD2    C511143   4.317   1.451  13.641  0.4525 -0.0722  0.2696
  754MPD2     H11144   4.369   1.122  13.461  0.5676 -1.4071  2.2127
  754MPD2    H111145   4.256   1.537  13.456  0.7209 -1.2703 -1.9151
  754MPD2    H211146   4.377   1.368  13.818  2.8069 -0.1605 -0.1576
  754MPD2    H311147   4.322   1.543  13.699 -2.1981 -0.3045  0.8293
  754MPD2     N11148   4.282   1.317  13.306 -0.1761  0.2074  0.5702
  754MPD2    H511149   4.271   1.407  13.260  0.2098 -1.2498 -2.3940
  754MPD2    N111150   4.421   1.123  13.728 -0.0976  0.5167  0.2265
  754MPD2    H711151   4.460   1.153  13.817 -1.7724 -0.0609  1.1530
  755MPD2     C11152   3.745   1.911  13.059 -0.0899  0.7601  0.0623
  755MPD2    C111153   3.708   1.776  13.038 -0.3223 -0.7739  0.0503
  755MPD2    C211154   3.802   1.681  13.014 -1.0556  0.0838 -0.5143
  755MPD2    C311155   3.935   1.712  13.012 -0.0901 -0.2134 -0.1530
  755MPD2    C411156   3.981   1.836  13.059 -0.2947  0.6203 -0.0934
  755MPD2    C511157   3.880   1.927  13.081 -0.4703  0.3667  0.1100
  755MPD2     H11158   3.773   1.583  12.978  0.9368 -0.2281 -1.3191
  755MPD2    H111159   4.079   1.855  13.102 -0.1006  0.5413 -0.5053
  755MPD2    H211160   3.672   1.989  13.075 -0.5036  1.2010 -3.8686
  755MPD2    H311161   3.910   2.018  13.131 -1.2633  0.5057  0.3280
  755MPD2     N11162   4.031   1.613  12.996 -0.1801 -0.3726 -0.3735
  755MPD2    H511163   4.121   1.639  13.037 -0.4512  0.6420 -0.4387
  755MPD2    N111164   3.572   1.742  13.033 -0.1981 -0.4540  0.1330
  755MPD2    H711165   3.503   1.816  13.045 -0.2782 -0.6127  0.6609
  756MPD2     C11166   4.670   2.357   9.458  0.4785 -0.1852 -0.0928
  756MPD2    C111167   4.585   2.372   9.564  0.9832 -0.7800  0.6368
  756MPD2    C211168   4.465   2.302   9.559  0.0710  0.0779  0.3730
  756MPD2    C311169   4.434   2.210   9.468  0.0509  0.1564  0.1276
  756MPD2    C411170   4.528   2.186   9.371  0.5931  0.3889 -0.4519
  756MPD2    C511171   4.637   2.266   9.361 -0.1860 -0.2627 -0.3197
  756MPD2     H11172   4.388   2.317   9.634 -0.4230 -0.5199 -0.0122
  756MPD2    H111173   4.519   2.115   9.290  0.3581 -0.4929  0.3476
  756MPD2    H211174   0.033   2.426   9.447  1.3678 -1.4244 -1.2052
  756MPD2    H311175   4.709   2.242   9.283 -0.2629  2.1377 -1.1375
  756MPD2     N11176   4.308   2.141   9.470 -0.3334  0.5622 -0.2209
  756MPD2    H511177   4.230   2.162   9.532  0.3646  1.5202  0.3335
  756MPD2    N111178   4.607   2.455   9.681  0.6085 -0.0863 -0.2633
  756MPD2    H711179   4.527   2.465   9.742 -0.3147 -2.7510 -1.0295
  757MPD2     C11180   4.110   1.194   9.175  0.0892 -0.0119  0.1803
  757MPD2    C111181   4.193   1.242   9.268 -0.9399  0.2728 -0.1284
  757MPD2    C211182   4.181   1.368   9.315  0.0999  0.0358  0.1404
  757MPD2    C311183   4.085   1.453   9.263 -0.4166 -0.0156 -0.6597
  757MPD2    C411184   4.008   1.412   9.161  0.3176  0.1323 -0.2315
  757MPD2    C511185   4.021   1.284   9.116 -0.9576  0.2228 -0.4416
  757MPD2     H11186   4.239   1.409   9.398  1.4844 -2.1337  0.2503
  757MPD2    H111187   3.939   1.480   9.112  0.5390  0.4907 -0.0476
  757MPD2    H211188   4.121   1.091   9.143 -2.7297  0.2735 -1.7455
  757MPD2    H311189   3.947   1.249   9.045 -0.7414 -1.4847  0.1594
  757MPD2     N11190   4.083   1.581   9.326 -0.8403  0.3121  0.4833
  757MPD2    H511191   4.153   1.611   9.393 -1.3267 -0.2545  1.2479
  757MPD2    N111192   4.288   1.147   9.318 -0.2638 -0.5456  0.7174
  757MPD2    H711193   4.293   1.055   9.274 -0.4160  0.3300 -1.1338
  758MPD2     C11194   4.578   1.276  15.696  0.2084  0.0779 -0.4409
  758MPD2    C111195   4.655   1.191  15.773  0.3629 -0.1372  1.2860
  758MPD2    C211196   4.628   1.188  15.910  0.6362  0.4621  0.6327
  758MPD2    C311197   4.526   1.260  15.966 -0.8238 -0.1289  0.3948
  758MPD2    C411198   4.456   1.349  15.888 -0.1523 -0.8215 -0.1615
  758MPD2    C511199   4.482   1.360  15.755  0.8011  0.2219  0.6332
  758MPD2     H11200   4.677   1.120  15.978  1.1775  1.3158  1.0923
  758MPD2    H111201   4.388   1.422  15.931  2.0267 -0.0473  1.9682
  758MPD2    H211202   4.588   1.278  15.588 -2.4758 -1.5646 -0.7204
  758MPD2    H311203   4.431   1.434  15.695  0.1812 -1.0092 -0.3443
  758MPD2     N11204   4.483   1.251  16.100  0.2693 -0.6272 -0.1597
  758MPD2    H511205   4.403   1.309  16.126 -1.2473 -3.4968  1.5957
  758MPD2    N111206   0.031   1.116  15.711  0.7594  0.2580  0.4126
  758MPD2    H711207   0.085   1.157  15.636 -0.7825 -2.4295 -2.1432
  759MPD2     C11208   3.636   4.337  10.247 -0.1214 -0.2727  0.4862
  759MPD2    C111209   3.679   4.245  10.160  0.3389  0.4001 -0.0067
  759MPD2    C211210   3.780   4.281  10.070  0.0731 -0.0166 -0.8751
  759MPD2    C311211   3.842   4.405  10.078 -0.1079  0.3763  0.0767
  759MPD2    C411212   3.799   4.502  10.165 -0.8206 -1.1523 -0.0590
  759MPD2    C511213   3.691   4.467  10.241  0.0167 -0.0050 -0.2443
  759MPD2     H11214   3.801   4.210   9.991  1.7279 -0.7096  0.1699
  759MPD2    H111215   3.847   4.598  10.181 -1.9245 -0.3601 -1.4321
  759MPD2    H211216   3.561   4.316  10.322 -0.1341 -0.1557  0.5062
  759MPD2    H311217   3.653   4.537  10.316  2.2727  1.3516 -0.3484
  759MPD2     N11218   3.945   4.423   9.980  0.0719  0.2442  0.9597
  759MPD2    H511219   3.961   4.344   9.919 -1.4568  0.7643 -0.1218
  759MPD2    N111220   3.635   4.109  10.160  0.3981  0.1639  0.5956
  759MPD2    H711221   3.676   4.045  10.093 -0.5977  0.3037 -0.1488
  760MPD2     C11222   2.982   1.339  12.030 -0.1156  0.0557 -0.1481
  760MPD2    C111223   3.111   1.369  12.015  0.2737 -0.7274 -0.2353
  760MPD2    C211224   3.208   1.267  12.041 -0.3574  0.3425  0.3537
  760MPD2    C311225   3.168   1.140  12.081 -0.2923 -0.2413 -1.0328
  760MPD2    C411226   3.034   1.119  12.094 -0.1003  0.6573  0.3345
  760MPD2    C511227   2.943   1.215  12.078  0.9122  0.4697 -0.7608
  760MPD2     H11228   3.312   1.298  12.036  0.1408 -1.0483  2.1338
  760MPD2    H111229   3.002   1.022  12.130  0.4226  0.1880 -0.4456
  760MPD2    H211230   2.910   1.417  12.009  0.3791  0.3395 -0.7892
  760MPD2    H311231   2.848   1.186  12.121  0.3367  2.4568 -0.7152
  760MPD2     N11232   3.254   1.034  12.094  0.7092  0.1288 -0.0493
  760MPD2    H511233   3.215   0.947  12.130  0.0620  0.4487  0.0279
  760MPD2    N111234   3.150   1.504  11.974 -0.2758  0.8440  0.1587
  760MPD2    H711235   3.247   1.530  11.988 -0.4928  2.3142 -1.0976
  761MPD2     C11236   4.344   0.829  11.350  0.1629 -0.3576  0.5645
  761MPD2    C111237   4.408   0.805  11.234  0.4223  0.3157  0.0978
  761MPD2    C211238   4.455   0.916  11.162  0.6633 -0.2271  0.4689
  761MPD2    C311239   4.423   1.042  11.199 -0.3369 -0.1248 -0.3310
  761MPD2    C411240   4.352   1.061  11.318 -0.0456  0.1175 -0.1208
  761MPD2    C511241   4.315   0.956  11.397  0.4417 -0.0664  0.2966
  761MPD2     H11242   4.498   0.902  11.064  1.5465 -0.8375  0.9365
  761MPD2    H111243   4.329   1.159  11.359 -0.8257  0.2002 -0.7676
  761MPD2    H211244   4.310   0.751  11.417  0.3187  0.9383  2.1604
  761MPD2    H311245   4.262   0.976  11.489  0.1886 -0.6414  0.2785
  761MPD2     N11246   4.461   1.155  11.130  0.3455  0.0120 -0.3915
  761MPD2    H511247   4.401   1.236  11.137 -0.9102 -1.0443  0.8844
  761MPD2    N111248   4.428   0.668  11.198 -0.2449 -0.4515 -0.3618
  761MPD2    H711249   4.383   0.599  11.258  0.4494  0.9222  1.7648
  762MPD2     C11250   0.105   0.060  10.615  0.0509 -0.4183 -0.3199
  762MPD2    C111251   0.086   0.196  10.652 -0.1621  0.0750 -0.1480
  762MPD2    C211252   0.153   0.293  10.577 -0.4294  0.0034 -0.7365
  762MPD2    C311253   0.243   0.252  10.473 -0.1597 -0.8595  0.9468
  762MPD2    C411254   0.253   0.119  10.439  0.1913 -0.5130  0.2766
  762MPD2    C511255   0.184   0.027  10.506  0.7330  0.0851 -0.1216
  762MPD2     H11256   0.139   0.399  10.593 -0.2636 -0.1989  0.7314
  762MPD2    H111257   0.305   0.087  10.350 -0.9525  1.9332 -1.2784
  762MPD2    H211258   0.056   4.706  10.676 -0.7577 -1.0040 -1.6773
  762MPD2    H311259   0.197   4.644  10.475  0.0957  0.6843 -2.4008
  762MPD2     N11260   0.318   0.341  10.393  0.2602 -0.0143 -0.9411
  762MPD2    H511261   0.360   0.304  10.308  4.1862  1.4048  0.3682
  762MPD2    N111262   4.711   0.225  10.752  0.6295 -0.4721  0.3860
  762MPD2    H711263   4.692   0.157  10.825  0.3748 -2.6767 -1.7243
  763MPD2     C11264   1.943   1.014  16.208 -0.2522 -0.3465 -0.0302
  763MPD2    C111265   1.890   1.089  16.113 -0.0970  0.8503  0.1929
  763MPD2    C211266   1.876   1.226  16.135  0.4965  0.1488 -0.1796
  763MPD2    C311267   1.895   1.272  16.271 -0.8485  0.5332 -0.2216
  763MPD2    C411268   1.953   1.195  16.373  0.2315  0.5878 -0.6106
  763MPD2    C511269   1.991   1.077  16.322 -0.6891  0.1806 -0.9412
  763MPD2     H11270   1.841   1.293  16.057  0.5305 -1.0392 -1.2395
  763MPD2    H111271   1.964   1.226  16.476 -0.8644  0.4856 -0.4630
  763MPD2    H211272   1.966   0.909  16.198 -0.2874 -0.3830  0.2907
  763MPD2    H311273   2.023   1.001  16.393 -1.3341 -0.1202 -0.9692
  763MPD2     N11274   1.864   1.403  16.306  0.3469  0.1689 -0.2993
  763MPD2    H511275   1.901   1.421  16.399  1.1363 -0.8763 -0.4194
  763MPD2    N111276   1.852   1.034  15.980 -0.1916  0.4502  0.7407
  763MPD2    H711277   1.796   1.094  15.921 -0.6213 -1.8232 -1.1924
  764MPD2     C11278   0.044   2.850  16.978  0.8770 -0.2856 -0.5559
  764MPD2    C111279   4.671   2.781  16.904  0.4723 -0.2406  0.5250
  764MPD2    C211280   4.602   2.680  16.975  0.2026  0.0400 -0.6190
  764MPD2    C311281   4.614   2.662  17.110  0.0452  0.4056 -0.5354
  764MPD2    C411282   4.709   2.737  17.185  0.5569 -0.5721 -0.0888
  764MPD2    C511283   0.051   2.834  17.116  0.9105  0.5036 -0.2118
  764MPD2     H11284   4.530   2.623  16.917 -0.1497 -0.5720  0.4273
  764MPD2    H111285   0.001   2.725  17.292  3.4959  1.2677 -0.2204
  764MPD2    H211286   0.116   2.911  16.924 -0.3383  0.7875 -0.9635
  764MPD2    H311287   0.137   2.881  17.164 -0.8648  1.1580  2.3747
  764MPD2     N11288   4.523   2.567  17.171  0.2059  0.5780  0.5921
  764MPD2    H511289   4.464   2.510  17.112  0.5046 -3.3121  4.0380
  764MPD2    N111290   4.650   2.801  16.769 -0.2792  0.8208 -0.7221
  764MPD2    H711291   4.588   2.738  16.719  1.0295 -0.9070 -0.1430
  765MPD2     C11292   4.521   0.735  15.627 -0.4885 -0.3921  0.4371
  765MPD2    C111293   4.582   0.809  15.528  0.0177  0.1995  0.1160
  765MPD2    C211294   4.697   0.757  15.471 -0.3587  0.3251 -0.3326
  765MPD2    C311295   0.043   0.644  15.525  0.1268 -0.0771  0.0222
  765MPD2    C411296   4.713   0.586  15.635  0.6655 -0.5747 -0.2968
  765MPD2    C511297   4.587   0.627  15.671  0.4298 -0.3465 -0.1408
  765MPD2     H11298   0.025   0.805  15.387  0.8450 -0.8185 -0.2937
  765MPD2    H111299   0.041   0.497  15.675  0.4747  0.0348  1.2878
  765MPD2    H211300   4.424   0.759  15.669 -0.4577  0.7233 -0.1451
  765MPD2    H311301   4.546   0.558  15.744 -0.5430  0.6389  0.2485
  765MPD2     N11302   0.161   0.602  15.467  0.1622  0.5540 -0.0422
  765MPD2    H511303   0.168   0.629  15.369 -0.5052 -1.5998 -0.6752
  765MPD2    N111304   4.513   0.923  15.488  0.0381  0.0248 -0.1018
  765MPD2    H711305   4.433   0.933  15.550  0.5305 -1.0129  0.6980
  766MPD2     C11306   3.868   0.931  15.218  0.6735 -0.1224 -0.5563
  766MPD2    C111307   3.998   0.891  15.248 -0.4680 -0.3112 -0.0308
  766MPD2    C211308   4.048   0.770  15.195 -0.0426 -0.2988 -0.2133
  766MPD2    C311309   3.966   0.691  15.111  0.4198 -0.2677  0.7409
  766MPD2    C411310   3.840   0.730  15.080 -0.1381  0.3853 -0.6167
  766MPD2    C511311   3.793   0.854  15.127 -0.0019  0.8141  0.2506
  766MPD2     H11312   4.149   0.742  15.223 -0.6723 -0.4890  1.8884
  766MPD2    H111313   3.783   0.675  15.007 -0.4762 -1.3484  0.9605
  766MPD2    H211314   3.831   1.029  15.248 -0.2192  0.1518 -2.5384
  766MPD2    H311315   3.699   0.893  15.088 -0.3046 -0.8353 -0.6757
  766MPD2     N11316   3.999   0.568  15.056  0.4884  0.1171  0.1611
  766MPD2    H511317   3.933   0.519  14.996  0.3818  1.1645 -0.5949
  766MPD2    N111318   4.098   0.972  15.300  0.1075  0.6953 -0.6651
  766MPD2    H711319   4.189   0.929  15.310 -0.9375 -0.9879  1.5883
  767MPD2     C11320   3.973   1.035  14.359 -0.1949 -0.1954  0.0076
  767MPD2    C111321   3.977   0.926  14.444 -0.8793 -0.2808 -0.5589
  767MPD2    C211322   3.907   0.809  14.413  0.1534 -0.4475  0.5463
  767MPD2    C311323   3.850   0.794  14.290  0.4532 -0.4809  0.0700
  767MPD2    C411324   3.841   0.899  14.208  0.2223 -0.2885  0.3810
  767MPD2    C511325   3.906   1.016  14.241  0.2002 -0.0252  0.1551
  767MPD2     H11326   3.916   0.726  14.483  2.8943  1.5964  2.6331
  767MPD2    H111327   3.789   0.891  14.113  0.4180 -0.7226  0.3085
  767MPD2    H211328   4.011   1.134  14.381  0.4663 -0.4379 -0.0683
  767MPD2    H311329   3.901   1.098  14.171 -1.2008 -1.3048 -1.2367
  767MPD2     N11330   3.790   0.670  14.264 -0.5843  0.2515  0.1107
  767MPD2    H511331   3.807   0.591  14.325 -3.2779 -0.8598 -0.5853
  767MPD2    N111332   4.034   0.938  14.572 -0.3865  0.4638 -0.2235
  767MPD2    H711333   4.094   1.018  14.588  1.0552 -0.9122  1.3176
  768MPD2     C11334   0.337   4.343  10.257 -0.3026 -0.5153  0.1812
  768MPD2    C111335   0.304   4.228  10.323  0.5365  0.7820 -0.7720
  768MPD2    C211336   0.370   4.200  10.445  0.2428 -0.4356  0.5326
  768MPD2    C311337   0.479   4.277  10.486 -0.5845 -0.7279 -1.1840
  768MPD2    C411338   0.505   4.393  10.422 -0.1855  0.1295  0.4357
  768MPD2    C511339   0.438   4.420  10.305  0.0754 -0.9147 -0.0189
  768MPD2     H11340   0.349   4.106  10.495  0.6158 -0.1028  1.3179
  768MPD2    H111341   0.590   4.458  10.443 -0.2691  0.0643  0.9846
  768MPD2    H211342   0.299   4.382  10.163 -1.7983 -3.3300 -0.3994
  768MPD2    H311343   0.475   4.500  10.243 -0.5650 -0.7014 -0.1265
  768MPD2     N11344   0.560   4.248  10.606 -0.1017 -0.1417  0.2141
  768MPD2    H511345   0.613   4.329  10.637  0.7605  0.0806 -1.8159
  768MPD2    N111346   0.198   4.147  10.281 -0.1261  0.2158  0.6757
  768MPD2    H711347   0.188   4.061  10.336  0.1266 -1.2262 -1.5407
  769MPD2     C11348   1.123   1.424  14.920 -0.6570  0.6825  0.2894
  769MPD2    C111349   1.018   1.515  14.919 -0.1819 -0.4730  0.0651
  769MPD2    C211350   1.024   1.625  15.002 -0.1425  0.4080  0.1485
  769MPD2    C311351   1.131   1.645  15.085  0.0954  0.0018 -0.4521
  769MPD2    C411352   1.227   1.548  15.094 -0.5638 -0.5060 -0.3854
  769MPD2    C511353   1.220   1.433  15.015  0.2828  0.1189  0.3872
  769MPD2     H11354   0.948   1.702  15.013 -1.3409 -0.6644 -0.5327
  769MPD2    H111355   1.311   1.554  15.162  1.4202  0.4124 -2.9166
  769MPD2    H211356   1.136   1.345  14.848 -1.7594  2.8665 -2.3063
  769MPD2    H311357   1.303   1.363  15.010 -1.0126 -1.3003 -1.0910
  769MPD2     N11358   1.134   1.763  15.168  0.0322 -0.1346  0.1082
  769MPD2    H511359   1.051   1.822  15.163  0.9139  0.9818 -1.1581
  769MPD2    N111360   0.911   1.493  14.829 -0.2262  0.3327  0.0835
  769MPD2    H711361   0.917   1.406  14.778 -0.3532 -0.3551  1.2549
  770MPD2     C11362   0.114   0.945  14.610 -0.1357  0.7515 -0.3466
  770MPD2    C111363   0.248   0.912  14.604  0.3408 -0.5390  0.5068
  770MPD2    C211364   0.347   1.005  14.590  0.0633 -0.3776  0.3835
  770MPD2    C311365   0.318   1.136  14.582 -0.2904  0.3183 -0.1657
  770MPD2    C411366   0.188   1.177  14.582  0.6856 -0.1662 -0.0578
  770MPD2    C511367   0.087   1.081  14.596 -0.6534  1.1621  0.1508
  770MPD2     H11368   0.451   0.975  14.592  0.3182  0.4730  0.0157
  770MPD2    H111369   0.145   1.276  14.573  1.5125  0.0769 -1.2854
  770MPD2    H211370   0.032   0.873  14.610  1.3370 -0.9204  1.6859
  770MPD2    H311371   4.703   1.109  14.588 -0.3651  2.4526  0.9466
  770MPD2     N11372   0.416   1.239  14.548  0.0253 -0.0455  0.1785
  770MPD2    H511373   0.380   1.324  14.507  0.1924  0.1280  0.3934
  770MPD2    N111374   0.278   0.772  14.605  0.6548 -0.5145  0.2733
  770MPD2    H711375   0.208   0.713  14.649  1.2430 -0.7065  0.9442
  771MPD2     C11376   1.887   4.709  13.981  0.3975  0.2048  0.4957
  771MPD2    C111377   1.815   0.105  13.950  0.2924  0.0953 -0.1139
  771MPD2    C211378   1.723   0.079  13.844 -0.1969 -0.1500 -0.3755
  771MPD2    C311379   1.703   4.688  13.775  0.7584  0.3361  0.1346
  771MPD2    C411380   1.773   4.582  13.817  0.3680 -0.0509  0.3515
  771MPD2    C511381   1.856   4.592  13.921 -0.2125  0.2660  0.0600
  771MPD2     H11382   1.643   0.151  13.830  0.6429  0.6397 -1.2282
  771MPD2    H111383   1.755   4.482  13.777  0.0747 -0.1714  0.7876
  771MPD2    H211384   1.974   4.711  14.046  1.9809 -0.1314 -1.6090
  771MPD2    H311385   1.915   4.509  13.960 -0.1254  0.1035 -0.4184
  771MPD2     N11386   1.601   4.693  13.679 -0.3920 -0.4552 -0.0817
  771MPD2    H511387   1.572   0.067  13.655  0.7713 -0.1083 -0.0998
  771MPD2    N111388   1.834   0.238  14.002  0.4170  0.3777 -0.6644
  771MPD2    H711389   1.769   0.305  13.963  0.4133  0.4542 -0.5254
  772MPD2     C11390   1.592   0.854  13.912  0.1771  0.7409  0.3159
  772MPD2    C111391   1.562   0.756  14.002  0.6517  0.8292  0.5801
  772MPD2    C211392   1.426   0.731  14.026  0.9827  0.8462  0.1456
  772MPD2    C311393   1.336   0.790  13.942 -0.8894 -0.2266 -0.0605
  772MPD2    C411394   1.374   0.885  13.848  0.0962 -0.3585  0.2932
  772MPD2    C511395   1.502   0.914  13.830  1.0281  0.4087  0.4882
  772MPD2     H11396   1.405   0.643  14.087 -1.5935  0.4372 -1.3553
  772MPD2    H111397   1.306   0.938  13.782 -0.9441 -1.2320  0.6548
  772MPD2    H211398   1.697   0.880  13.909  0.0134  1.3882  0.3635
  772MPD2    H311399   1.539   0.985  13.757  0.1862 -0.7686 -1.0804
  772MPD2     N11400   1.199   0.754  13.946 -0.1566  0.0740 -0.0116
  772MPD2    H511401   1.138   0.790  13.873  1.8744  0.9039 -1.3101
  772MPD2    N111402   1.661   0.686  14.075  0.0585  0.0383 -0.4433
  772MPD2    H711403   1.619   0.616  14.136  0.9018  0.1287  0.2371
  773MPD2     C11404   0.816   1.839  17.616  0.1086  0.4439 -0.3516
  773MPD2    C111405   0.703   1.763  17.638 -0.0467  0.7184  0.1531
  773MPD2    C211406   0.696   1.678   0.063 -0.0009  0.0201 -0.2080
  773MPD2    C311407   0.814   1.655   0.137 -0.0252 -0.4975  1.2403
  773MPD2    C411408   0.929   1.723   0.107  0.2531  0.4422 -0.7243
  773MPD2    C511409   0.925   1.814   0.005 -0.6855  0.4879  0.4156
  773MPD2     H11410   0.600   1.634   0.085  0.6048 -0.0270  2.3042
  773MPD2    H111411   1.023   1.712   0.159  1.0217  2.1406 -1.7727
  773MPD2    H211412   0.818   1.918  17.542 -1.4772  1.7851  1.0420
  773MPD2    H311413   1.015   1.871  17.668  0.5254 -1.8456 -0.6065
  773MPD2     N11414   0.804   1.567   0.252  0.0552  0.8272  0.2292
  773MPD2    H511415   0.719   1.516   0.275  0.4007  0.3092  0.3774
  773MPD2    N111416   0.584   1.785  17.563  0.4449 -0.1825 -0.3506
  773MPD2    H711417   0.498   1.746  17.599  0.0047  0.7243 -0.4164
  774MPD2     C11418   4.635   0.255  13.175  0.1805 -0.0868  0.1108
  774MPD2    C111419   4.596   0.259  13.309 -0.6143 -0.8408  0.0564
  774MPD2    C211420   4.513   0.363  13.347  1.1223  0.8092  0.0950
  774MPD2    C311421   4.478   0.467  13.265  0.5490 -0.1846 -0.5592
  774MPD2    C411422   4.515   0.453  13.132  0.0063  0.3715 -0.3460
  774MPD2    C511423   4.579   0.341  13.088  0.7733  0.0711 -0.2753
  774MPD2     H11424   4.486   0.363  13.452 -1.3361 -2.3633 -0.5578
  774MPD2    H111425   4.492   0.531  13.060 -2.3172  0.6680  0.7038
  774MPD2    H211426   4.703   0.183  13.132  0.9665  0.7240 -0.0041
  774MPD2    H311427   4.617   0.332  12.987  0.0303  0.3962 -0.5816
  774MPD2     N11428   4.414   0.585  13.309 -0.1283 -0.2127 -0.1376
  774MPD2    H511429   4.371   0.648  13.242 -1.1917 -1.7515 -0.9061
  774MPD2    N111430   4.631   0.152  13.392  0.0773 -0.1168  0.0553
  774MPD2    H711431   4.711   0.094  13.366  1.5142  2.2549 -0.8413
  775MPD2     C11432   1.387   1.776  15.647  0.3914  0.3836 -0.1787
  775MPD2    C111433   1.359   1.905  15.683  0.0363 -0.1862 -0.9478
  775MPD2    C211434   1.457   2.003  15.666 -0.3007 -0.4647 -0.4591
  775MPD2    C311435   1.570   1.979  15.589  0.1364  0.0756  0.1732
  775MPD2    C411436   1.593   1.846  15.550 -0.4079 -0.2233 -0.3495
  775MPD2    C511437   1.501   1.751  15.580 -0.4775 -0.1407 -0.4906
  775MPD2     H11438   1.447   2.107  15.696  2.3345 -0.2713 -0.2407
  775MPD2    H111439   1.680   1.828  15.488  0.6192  0.3322  0.9386
  775MPD2    H211440   1.308   1.702  15.642 -0.3309  1.1922 -0.7470
  775MPD2    H311441   1.502   1.652  15.535  0.2261 -0.7290  0.8292
  775MPD2     N11442   1.659   2.078  15.532  0.3866 -0.1343 -0.1453
  775MPD2    H511443   1.721   2.049  15.457 -0.3898 -0.9180 -0.4890
  775MPD2    N111444   1.233   1.940  15.741  0.0966 -0.1687  0.1679
  775MPD2    H711445   1.169   1.862  15.748  1.1678 -1.3118 -2.6189
  776MPD2     C11446   0.435   2.439  11.977  0.0775  0.1795  0.2371
  776MPD2    C111447   0.422   2.384  11.849  0.8862 -0.8073  0.9857
  776MPD2    C211448   0.461   2.457  11.737  0.1946 -0.0552 -0.1004
  776MPD2    C311449   0.516   2.580  11.762  0.6270 -0.4523 -0.7899
  776MPD2    C411450   0.515   2.636  11.885 -0.3098 -0.6818 -0.3694
  776MPD2    C511451   0.474   2.568  11.995  0.0551 -0.0289 -0.2367
  776MPD2     H11452   0.457   2.417  11.637  2.0881 -1.1961  0.2803
  776MPD2    H111453   0.560   2.734  11.897 -3.0209  0.2232  2.4988
  776MPD2    H211454   0.391   2.381  12.057 -0.6041  0.9814  0.4387
  776MPD2    H311455   0.480   2.614  12.092 -1.9158 -0.0044 -0.1304
  776MPD2     N11456   0.562   2.640  11.641 -0.0825 -0.0867  0.0956
  776MPD2    H511457   0.557   2.577  11.562  0.8699 -0.8114  0.6002
  776MPD2    N111458   0.368   2.257  11.841 -0.1722 -1.2722  0.2106
  776MPD2    H711459   0.370   2.198  11.924  0.7543 -0.9104  0.4514
  777MPD2     C11460   1.130   0.531   0.996  0.1137  0.1306  0.6988
  777MPD2    C111461   1.233   0.438   1.012 -0.8124  0.8571  0.4392
  777MPD2    C211462   1.245   0.330   0.925  0.4316 -0.6128 -0.3292
  777MPD2    C311463   1.152   0.313   0.831 -0.8220 -0.7555  0.0179
  777MPD2    C411464   1.053   0.400   0.815  0.4019 -0.3210 -0.6811
  777MPD2    C511465   1.043   0.509   0.900 -0.0605 -0.2357 -0.2411
  777MPD2     H11466   1.321   0.253   0.939  0.1675 -1.0432 -1.3129
  777MPD2    H111467   0.969   0.376   0.751  0.5796  0.4222 -1.1912
  777MPD2    H211468   1.119   0.616   1.063  2.5572  1.4070 -0.4736
  777MPD2    H311469   0.960   0.574   0.876 -0.2468 -0.4428 -0.1638
  777MPD2     N11470   1.164   0.194   0.760 -0.0285  0.1026 -0.2422
  777MPD2    H511471   1.240   0.132   0.784 -0.5166 -1.1188 -1.8037
  777MPD2    N111472   1.327   0.457   1.117 -0.0098 -0.4156  0.3534
  777MPD2    H711473   1.306   0.536   1.177 -0.8363 -1.8057  1.8966
  778MPD2     C11474   1.721   0.104  14.894  0.6487 -0.3156 -0.0961
  778MPD2    C111475   1.700   0.073  14.758  0.8312  0.2157  0.0082
  778MPD2    C211476   1.772   0.145  14.665 -0.0506 -0.5563 -0.0958
  778MPD2    C311477   1.847   0.260  14.706  0.0360  0.5351 -0.4113
  778MPD2    C411478   1.869   0.283  14.842  0.0560  0.8055 -0.1781
  778MPD2    C511479   1.803   0.205  14.931 -0.0087  0.5512 -0.2209
  778MPD2     H11480   1.763   0.121  14.560  1.0783  0.2308 -0.3645
  778MPD2    H111481   1.933   0.357  14.888  1.1374  0.6517 -1.4317
  778MPD2    H211482   1.680   0.042  14.973  1.6696 -0.3485  0.3969
  778MPD2    H311483   1.811   0.225  15.037  2.1427  0.7876 -0.4364
  778MPD2     N11484   1.929   0.318  14.612  0.2124  0.0452 -0.2651
  778MPD2    H511485   1.928   0.271  14.522  4.0253 -3.0067  1.2987
  778MPD2    N111486   1.618   4.687  14.708 -0.0008  0.0979  0.2822
  778MPD2    H711487   1.603   4.699  14.609 -3.2406  0.3137  0.7989
  779MPD2     C11488   1.159   3.626  13.944  0.0570  0.9189 -0.4545
  779MPD2    C111489   1.269   3.639  14.016  0.2106 -0.6907 -0.0588
  779MPD2    C211490   1.332   3.762  14.022 -0.0192 -0.2727 -0.0345
  779MPD2    C311491   1.290   3.870  13.942 -0.4917  0.5348  0.2555
  779MPD2    C411492   1.184   3.843  13.866 -0.6291  0.5659 -0.4554
  779MPD2    C511493   1.112   3.734  13.874 -0.5058 -0.5292  0.3130
  779MPD2     H11494   1.422   3.767  14.082 -0.3725  2.6529  0.2588
  779MPD2    H111495   1.144   3.917  13.798 -1.0610  0.2734 -0.5206
  779MPD2    H211496   1.107   3.532  13.932  3.0055 -0.4708 -2.3434
  779MPD2    H311497   1.021   3.730  13.816 -0.9943 -1.3620  1.1232
  779MPD2     N11498   1.363   3.987  13.945 -1.0452  0.1605  0.0288
  779MPD2    H511499   1.426   4.001  14.024 -2.1422 -1.5726  1.2164
  779MPD2    N111500   1.307   3.534  14.112  0.4512 -0.1223  0.1927
  779MPD2    H711501   1.395   3.551  14.161  1.5843  0.5783 -2.0506
  780MPD2     C11502   0.267   3.784   0.453 -0.1814 -0.2727  0.3214
  780MPD2    C111503   0.352   3.680   0.424 -0.7352  0.0235 -0.3880
  780MPD2    C211504   0.473   3.703   0.367 -0.5813 -0.4646 -0.5142
  780MPD2    C311505   0.514   3.832   0.341  0.6779  0.4691  0.2672
  780MPD2    C411506   0.423   3.930   0.347  0.0348  0.1087 -0.4019
  780MPD2    C511507   0.297   3.904   0.396  0.2323  0.4570  0.0975
  780MPD2     H11508   0.550   3.627   0.357  0.2539 -0.1336  3.1179
  780MPD2    H111509   0.444   4.034   0.325  0.1005 -0.3052 -2.2549
  780MPD2    H211510   0.179   3.776   0.516  1.4187 -2.1257  2.3034
  780MPD2    H311511   0.232   3.990   0.405 -0.6903 -0.4439  2.0063
  780MPD2     N11512   0.645   3.847   0.298 -0.0051  0.2728  1.3123
  780MPD2    H511513   0.699   3.767   0.268 -0.4660 -0.3285  2.0649
  780MPD2    N111514   0.332   3.546   0.471 -0.4282  0.5016 -0.5704
  780MPD2    H711515   0.397   3.475   0.439 -2.8193 -2.5804  1.3344
  781MPD2     C11516   3.269   0.839  11.796 -0.1645  0.5041 -0.2525
  781MPD2    C111517   3.299   0.703  11.802 -0.1313 -0.6299 -0.4767
  781MPD2    C211518   3.389   0.656  11.718  0.5515 -0.9072  0.5824
  781MPD2    C311519   3.438   0.733  11.608 -0.0423 -0.0917  0.9659
  781MPD2    C411520   3.396   0.860  11.590  0.5315 -0.3901 -0.5476
  781MPD2    C511521   3.311   0.916  11.690 -0.9102  0.5899 -0.7702
  781MPD2     H11522   3.419   0.554  11.739  1.5974 -0.4850  1.1360
  781MPD2    H111523   3.429   0.920  11.506 -1.8318  1.4583 -0.1516
  781MPD2    H211524   3.202   0.875  11.873  0.6796  0.4211  0.5190
  781MPD2    H311525   3.290   1.022  11.677 -0.0498  1.0273  1.4387
  781MPD2     N11526   3.527   0.685  11.507 -0.5327 -0.7344  0.4285
  781MPD2    H511527   3.556   0.746  11.433 -0.5614  0.3334  1.3012
  781MPD2    N111528   3.238   0.614  11.894 -0.5335 -0.2668  0.4701
  781MPD2    H711529   3.263   0.516  11.888 -2.0682 -0.7086  1.2066
  782MPD2     C11530   0.463   1.608  10.383  0.5977  0.2043 -0.0015
  782MPD2    C111531   0.601   1.589  10.358  0.1544  0.2116  0.4625
  782MPD2    C211532   0.697   1.682  10.385 -0.5619  0.0540 -0.2457
  782MPD2    C311533   0.658   1.793  10.462  0.2154 -0.1659  0.5804
  782MPD2    C411534   0.523   1.815  10.494 -0.2562 -0.3299 -0.7500
  782MPD2    C511535   0.427   1.722  10.452  0.0787 -0.0201  0.4116
  782MPD2     H11536   0.804   1.674  10.372 -0.1407 -1.5524  4.3437
  782MPD2    H111537   0.486   1.897  10.555 -1.2449 -1.7469  0.5665
  782MPD2    H211538   0.378   1.542  10.366  0.8244 -0.1685  0.3010
  782MPD2    H311539   0.325   1.725  10.489 -1.0785 -0.3510 -2.7364
  782MPD2     N11540   0.766   1.875  10.503 -0.1845  1.0228 -0.3124
  782MPD2    H511541   0.852   1.836  10.467  0.0598  2.5556 -1.3672
  782MPD2    N111542   0.632   1.467  10.290 -0.3402 -0.5247  0.2346
  782MPD2    H711543   0.556   1.400  10.284 -2.0664  1.5598 -1.3773
  783MPD2     C11544   0.143   0.911  10.549 -0.2073  0.6890  0.5288
  783MPD2    C111545   0.182   1.039  10.565  0.4252 -0.5306  0.1339
  783MPD2    C211546   0.286   1.092  10.492 -0.2727 -0.4649  0.7280
  783MPD2    C311547   0.353   1.013  10.398 -0.8784  0.1531  0.2708
  783MPD2    C411548   0.323   0.880  10.396 -0.4311 -0.3109  0.6707
  783MPD2    C511549   0.209   0.834  10.454 -0.0153 -0.6751  0.2822
  783MPD2     H11550   0.319   1.195  10.504  0.5094 -0.2515 -3.4703
  783MPD2    H111551   0.375   0.814  10.328 -2.8979 -1.6507  0.1064
  783MPD2    H211552   0.057   0.866  10.598 -1.3134  0.2407 -1.8430
  783MPD2    H311553   0.176   0.733  10.433  0.6659 -1.4571  2.9515
  783MPD2     N11554   0.476   1.073  10.345  0.2321 -0.3390  0.2393
  783MPD2    H511555   0.504   1.164  10.380  1.4079  0.0397 -1.7294
  783MPD2    N111556   0.104   1.116  10.656  0.0640  0.1109  0.1487
  783MPD2    H711557   0.035   1.058  10.702  0.3980 -1.1508 -0.9386
  784MPD2     C11558   3.952   1.804   0.703  0.2948 -0.2677  0.0769
  784MPD2    C111559   3.910   1.847   0.825  0.0602 -0.4358 -0.0719
  784MPD2    C211560   3.772   1.868   0.844  0.3088  0.8652 -0.0801
  784MPD2    C311561   3.679   1.840   0.742  0.1395 -0.1735  0.0062
  784MPD2    C411562   3.731   1.802   0.614  0.0555  0.0153 -0.2871
  784MPD2    C511563   3.866   1.786   0.597  0.5154  0.1370 -0.1683
  784MPD2     H11564   3.750   1.889   0.948  0.6265 -0.2048  0.2011
  784MPD2    H111565   3.663   1.771   0.536 -0.5124  0.1043  0.1725
  784MPD2    H211566   4.059   1.797   0.682  0.0398 -0.3197 -1.2399
  784MPD2    H311567   3.887   1.759   0.494 -0.9899 -0.5338 -0.2949
  784MPD2     N11568   3.541   1.866   0.765 -0.0995 -0.1792 -0.1734
  784MPD2    H511569   3.517   1.895   0.860 -3.3863 -4.6111  0.3665
  784MPD2    N111570   3.998   1.877   0.931 -0.5245  0.1998 -0.6794
  784MPD2    H711571   3.957   1.921   1.013 -0.2069 -0.7416 -0.0285
  785MPD2     C11572   3.843   4.597  10.783 -0.2815  0.0347  0.4399
  785MPD2    C111573   3.752   4.693  10.757 -0.1914 -0.1766  0.3497
  785MPD2    C211574   3.619   4.659  10.739  0.0542 -0.5332  0.3042
  785MPD2    C311575   3.593   4.522  10.722  0.4741  0.0943  0.2440
  785MPD2    C411576   3.694   4.427  10.734 -0.4593 -0.3089  0.0055
  785MPD2    C511577   3.817   4.465  10.772 -0.6036  1.1251  0.2726
  785MPD2     H11578   3.545   0.014  10.718 -1.3236 -1.5214  1.6462
  785MPD2    H111579   3.686   4.324  10.704 -1.6292 -0.2706  0.1804
  785MPD2    H211580   3.950   4.617  10.788 -0.2837 -0.0453  0.7981
  785MPD2    H311581   3.894   4.390  10.787 -0.7550  0.7525 -0.7934
  785MPD2     N11582   3.467   4.490  10.672  0.3509 -0.2630 -0.0128
  785MPD2    H511583   3.401   4.566  10.660  2.9937  1.6858 -1.9416
  785MPD2    N111584   3.792   0.105  10.780  0.7528  0.7210  0.4573
  785MPD2    H711585   3.888   0.119  10.810  1.1299 -0.0793 -0.4108
  786MPD2     C11586   2.455   3.152  14.683  0.0659 -0.1170 -0.1569
  786MPD2    C111587   2.475   3.014  14.670  1.2033  1.6095 -0.0471
  786MPD2    C211588   2.594   2.961  14.706 -0.0398 -0.1581 -0.7597
  786MPD2    C311589   2.697   3.048  14.744 -0.7075  0.1566  1.0954
  786MPD2    C411590   2.680   3.179  14.755  0.3052  0.2209  0.7305
  786MPD2    C511591   2.559   3.234  14.726 -0.9676 -0.5440  0.3297
  786MPD2     H11592   2.603   2.856  14.680 -0.5633 -0.4129  0.1333
  786MPD2    H111593   2.757   3.247  14.788  1.2922 -0.7046  0.3316
  786MPD2    H211594   2.369   3.205  14.644  0.1903 -0.3402 -0.7475
  786MPD2    H311595   2.545   3.341  14.726  0.4770 -0.3239 -3.3956
  786MPD2     N11596   2.822   2.994  14.777  0.9059  0.3721 -0.0924
  786MPD2    H511597   2.894   3.065  14.788  1.5831 -0.5174  1.2603
  786MPD2    N111598   2.382   2.927  14.612  0.4173 -0.2153 -0.3215
  786MPD2    H711599   2.409   2.830  14.621 -0.2587 -0.1099  2.7237
  787MPD2     C11600   2.267   2.398  14.962  1.3376 -0.0509 -0.0236
  787MPD2    C111601   2.272   2.386  14.824  0.5543 -0.0826  0.0818
  787MPD2    C211602   2.358   2.289  14.776  0.5026  0.4460  0.3622
  787MPD2    C311603   2.433   2.209  14.853  0.3625  0.1931 -0.0338
  787MPD2    C411604   2.428   2.223  14.992 -0.3362 -0.1052 -0.5849
  787MPD2    C511605   2.339   2.315  15.048  0.1724 -0.4130  0.6711
  787MPD2     H11606   2.358   2.261  14.672  1.5504 -2.3999  1.1220
  787MPD2    H111607   2.487   2.163  15.061 -0.7590 -1.3893 -1.3394
  787MPD2    H211608   2.196   2.467  15.008 -0.0018 -0.0171 -2.1200
  787MPD2    H311609   2.328   2.330  15.155 -1.7020 -0.0204  0.4342
  787MPD2     N11610   2.507   2.108  14.784  0.1432 -0.6337  0.2632
  787MPD2    H511611   2.507   2.104  14.683 -1.6018  0.9370  0.2143
  787MPD2    N111612   2.216   2.486  14.738 -0.5783 -0.2449  0.5432
  787MPD2    H711613   2.168   2.561  14.786 -0.5198  0.0318  0.1618
  788MPD2     C11614   3.858   0.607   1.088 -0.0132 -0.5572  0.2546
  788MPD2    C111615   3.902   0.548   0.973 -0.4227 -0.4924  1.0827
  788MPD2    C211616   4.020   0.593   0.919  0.1188 -0.0859  0.7076
  788MPD2    C311617   4.072   0.714   0.957 -0.0991 -0.0289 -1.1453
  788MPD2    C411618   4.024   0.778   1.067 -0.0693 -0.5144 -0.0957
  788MPD2    C511619   3.918   0.719   1.131 -0.8334  0.0224  0.4104
  788MPD2     H11620   4.061   0.546   0.830  0.8276 -0.3365  1.1713
  788MPD2    H111621   4.066   0.866   1.115 -2.0080 -0.0347  0.7236
  788MPD2    H211622   3.767   0.577   1.139 -0.0858  0.9766  1.0186
  788MPD2    H311623   3.879   0.772   1.218 -0.8506  1.1435 -0.2773
  788MPD2     N11624   4.171   0.789   0.888 -0.2896  0.5860  0.1324
  788MPD2    H511625   4.206   0.873   0.933 -1.1011  1.5525 -1.0571
  788MPD2    N111626   3.849   0.433   0.927  0.2547  0.0805 -0.0476
  788MPD2    H711627   3.896   0.379   0.855  0.8866  0.3619  0.1554
  789MPD2     C11628   4.545   0.689  16.370  0.1524 -0.1999  0.5204
  789MPD2    C111629   4.497   0.620  16.480  0.0103 -0.1934 -0.7693
  789MPD2    C211630   4.376   0.660  16.530  0.3848  0.1582 -0.7576
  789MPD2    C311631   4.294   0.756  16.472 -0.7741 -0.2691  0.0482
  789MPD2    C411632   4.349   0.825  16.367  0.0387  0.3080 -0.4705
  789MPD2    C511633   4.475   0.795  16.319 -0.0128  0.1896  0.4533
  789MPD2     H11634   4.348   0.608  16.621  0.9530 -0.9976 -1.2479
  789MPD2    H111635   4.284   0.901  16.324  0.3485  1.0150  0.3031
  789MPD2    H211636   4.639   0.660  16.327  1.3361  3.7765  0.3673
  789MPD2    H311637   4.524   0.845  16.236 -0.1962  1.8248  1.3279
  789MPD2     N11638   4.168   0.801  16.521 -1.1239  0.8516  0.1274
  789MPD2    H511639   4.121   0.871  16.464  1.5248  2.4901 -0.0586
  789MPD2    N111640   4.568   0.512  16.546  0.3338  0.1850  0.4706
  789MPD2    H711641   4.520   0.459  16.618  2.0575  0.7661  2.0868
  790MPD2     C11642   0.397   2.821  13.486  0.3033  0.2310 -0.1116
  790MPD2    C111643   0.463   2.703  13.494  0.0027  0.3845  0.1907
  790MPD2    C211644   0.454   2.609  13.393  0.2676  0.0280  0.3596
  790MPD2    C311645   0.367   2.634  13.286 -0.5179  0.0308 -0.1875
  790MPD2    C411646   0.322   2.764  13.270  0.4208  0.4107 -0.1949
  790MPD2    C511647   0.342   2.853  13.365 -0.2964 -0.1937 -0.9924
  790MPD2     H11648   0.505   2.514  13.405  1.9755  1.1998  2.2403
  790MPD2    H111649   0.269   2.785  13.177  1.1329  1.2024 -0.4174
  790MPD2    H211650   0.391   2.901  13.560  2.0840  0.6497 -0.4163
  790MPD2    H311651   0.304   2.953  13.349 -0.6548 -0.1116  0.3928
  790MPD2     N11652   0.334   2.527  13.199 -0.0042  0.8002 -0.1542
  790MPD2    H511653   0.382   2.438  13.199 -1.0136  0.2626  0.1451
  790MPD2    N111654   0.525   2.681  13.624  0.6524  0.1277 -0.1835
  790MPD2    H711655   0.514   2.744  13.703 -0.5776 -0.7353  0.3371
  791MPD2     C11656   4.397   2.405  12.731 -0.1314 -1.0456 -0.5916
  791MPD2    C111657   4.473   2.298  12.761  0.1680  0.1259 -0.5855
  791MPD2    C211658   4.415   2.172  12.751  0.1386  0.2646 -0.5241
  791MPD2    C311659   4.276   2.167  12.737 -0.0201 -0.3704  0.2287
  791MPD2    C411660   4.197   2.272  12.730  0.0631  0.6165  0.5417
  791MPD2    C511661   4.262   2.393  12.715 -0.5342 -0.8936 -0.3591
  791MPD2     H11662   4.474   2.081  12.744  2.0066  1.3039  1.3536
  791MPD2    H111663   4.090   2.267  12.713  0.3584 -0.9883 -0.8256
  791MPD2    H211664   4.448   2.501  12.728 -2.8965  0.4013 -1.4582
  791MPD2    H311665   4.196   2.478  12.701  0.8168  0.5593  2.0334
  791MPD2     N11666   4.222   2.040  12.728  0.4443 -0.0380 -0.3164
  791MPD2    H511667   4.284   1.960  12.728 -0.7252 -0.9253 -0.8366
  791MPD2    N111668   4.609   2.319  12.792  0.4915 -0.1160 -0.1048
  791MPD2    H711669   4.643   2.415  12.788 -0.1653  0.1018 -0.4320
  792MPD2     C11670   0.786   2.193  11.155  0.3498  0.2560 -0.3206
  792MPD2    C111671   0.759   2.308  11.091 -0.0809  0.5080 -0.2845
  792MPD2    C211672   0.647   2.318  11.014  0.7141 -0.0044 -0.6503
  792MPD2    C311673   0.567   2.203  11.002 -0.1951  0.4547 -0.1718
  792MPD2    C411674   0.587   2.087  11.074  0.2234  0.2286  0.6926
  792MPD2    C511675   0.702   2.084  11.139  0.0148  0.5827 -0.7792
  792MPD2     H11676   0.628   2.401  10.946 -2.2943 -2.2006 -2.5044
  792MPD2    H111677   0.529   1.999  11.049 -0.9387  0.6901  1.8242
  792MPD2    H211678   0.871   2.184  11.221 -1.0125 -0.2626  1.3652
  792MPD2    H311679   0.730   1.988  11.179  0.2101  1.5508  1.4036
  792MPD2     N11680   0.461   2.220  10.909 -0.3239  0.7222  0.1458
  792MPD2    H511681   0.451   2.300  10.848 -1.0775 -0.6696 -1.5570
  792MPD2    N111682   0.841   2.426  11.094  0.2288  0.0496  0.4217
  792MPD2    H711683   0.816   2.518  11.059  1.1914 -0.4013 -1.4556
  793MPD2     C11684   4.403   2.436  10.352  0.0654  0.0119 -0.3744
  793MPD2    C111685   4.531   2.457  10.302  0.5206  0.6095  0.3406
  793MPD2    C211686   4.635   2.388  10.356 -0.2984 -0.0061  0.4723
  793MPD2    C311687   4.612   2.282  10.441  0.2722  0.5061 -0.1683
  793MPD2    C411688   4.485   2.256  10.484 -0.2738 -0.0293 -0.1382
  793MPD2    C511689   4.385   2.333  10.436 -0.0377 -0.0579  0.2681
  793MPD2     H11690   0.016   2.403  10.322 -0.7205 -0.5640 -1.0656
  793MPD2    H111691   4.461   2.168  10.543  2.8918 -1.2950 -0.7158
  793MPD2    H211692   4.315   2.486  10.314 -0.8436 -2.5859 -1.7432
  793MPD2    H311693   4.282   2.301  10.452  0.0125  0.4482  1.5983
  793MPD2     N11694   0.009   2.215  10.479  0.2494 -0.1193 -0.1943
  793MPD2    H511695   0.090   2.268  10.450  1.9000 -2.8644 -0.5628
  793MPD2    N111696   4.548   2.553  10.198  0.1520  0.3478 -0.2868
  793MPD2    H711697   4.466   2.592  10.152  1.1244  2.0401 -0.5703
  794MPD2     C11698   0.063   2.233  17.027  0.2169  0.6654 -0.1868
  794MPD2    C111699   0.064   2.104  16.996 -0.4551 -0.4595 -0.0620
  794MPD2    C211700   4.710   2.055  16.892 -0.4488  0.2221 -0.2270
  794MPD2    C311701   4.653   2.143  16.807  0.3443  0.7786 -0.4827
  794MPD2    C411702   4.658   2.278  16.834  0.6029 -0.7752 -0.2145
  794MPD2    C511703   0.005   2.324  16.943 -0.3214  0.5220 -0.0091
  794MPD2     H11704   4.706   1.948  16.881  1.7932  0.4183 -3.1060
  794MPD2    H111705   4.594   2.344  16.777 -0.9277  0.0198  2.4353
  794MPD2    H211706   0.115   2.277  17.111 -3.5358  1.1204  1.8652
  794MPD2    H311707   0.004   2.428  16.975  0.3299  1.1516 -2.0314
  794MPD2     N11708   4.568   2.101  16.701  0.4296  0.0163  0.6539
  794MPD2    H511709   4.520   2.172  16.647 -1.2811 -1.3474  0.3976
  794MPD2    N111710   0.124   2.011  17.085  0.1989 -0.4253 -0.3197
  794MPD2    H711711   0.112   1.914  17.057  0.9884 -0.4788 -0.4608
  795MPD2     C11712   2.627   3.946  12.799  0.8122  0.1862  0.1022
  795MPD2    C111713   2.580   3.851  12.887  1.1444 -0.3770  0.2851
  795MPD2    C211714   2.672   3.782  12.972  0.1006 -0.5565  0.4006
  795MPD2    C311715   2.809   3.807  12.964 -0.4174 -0.1638 -0.2656
  795MPD2    C411716   2.851   3.900  12.867 -0.1526 -0.3328  0.4384
  795MPD2    C511717   2.763   3.966  12.782  1.5572 -0.1441  0.2110
  795MPD2     H11718   2.638   3.706  13.042  2.3246 -1.4953  0.4875
  795MPD2    H111719   2.953   3.934  12.854 -0.3518 -0.0077 -0.2561
  795MPD2    H211720   2.557   3.990  12.728  1.3781  1.1353  0.1235
  795MPD2    H311721   2.801   4.015  12.693 -3.1073 -0.9648 -2.2225
  795MPD2     N11722   2.900   3.738  13.043  0.1168  0.1431 -0.5101
  795MPD2    H511723   2.856   3.678  13.113  0.8435  1.1316  0.7835
  795MPD2    N111724   2.443   3.816  12.904  0.1205  0.5449  0.3217
  795MPD2    H711725   2.414   3.741  12.966 -1.3105  0.7623 -0.0872
  796MPD2     C11726   2.392   0.611  15.726  0.5890  1.2705  0.6449
  796MPD2    C111727   2.429   0.668  15.848  0.0091 -0.4974 -0.3191
  796MPD2    C211728   2.365   0.789  15.883 -0.2080  0.1214  0.1077
  796MPD2    C311729   2.280   0.851  15.795  0.2201 -0.4290  0.8931
  796MPD2    C411730   2.254   0.795  15.675  0.4205 -0.1434 -0.4741
  796MPD2    C511731   2.308   0.674  15.639 -0.0329  0.2399  0.5992
  796MPD2     H11732   2.399   0.823  15.981  1.0498  0.5698 -0.4890
  796MPD2    H111733   2.196   0.844  15.598 -1.3336 -1.5416 -0.0458
  796MPD2    H211734   2.424   0.513  15.692 -2.6555  1.2273 -2.2091
  796MPD2    H311735   2.299   0.640  15.536 -0.1818  1.9194  0.0407
  796MPD2     N11736   2.229   0.977  15.835  0.2584 -0.7280 -0.7957
  796MPD2    H511737   2.262   1.011  15.924  1.9943  0.6145 -1.9372
  796MPD2    N111738   2.506   0.587  15.925 -0.0617 -1.0073  0.2019
  796MPD2    H711739   2.527   0.498  15.880  0.0182 -0.5993 -0.5714
  797MPD2     C11740   3.242   4.634  17.416 -0.1297 -0.0391 -0.2981
  797MPD2    C111741   3.249   0.034  17.485 -0.1293  0.6480  0.9042
  797MPD2    C211742   3.164   0.141  17.455 -0.2160  0.4334 -0.6965
  797MPD2    C311743   3.076   0.138  17.346 -0.0844  0.3386 -0.1114
  797MPD2    C411744   3.079   0.014  17.279  0.0422 -0.1200 -0.2279
  797MPD2    C511745   3.152   4.625  17.318  0.5292 -0.5261  0.6843
  797MPD2     H11746   3.155   0.226  17.521 -0.0687 -1.0007  1.1793
  797MPD2    H111747   3.023   0.007  17.187 -0.1652 -0.4147 -0.0798
  797MPD2    H211748   3.299   4.547  17.446 -1.1198 -0.0565  1.5106
  797MPD2    H311749   3.143   4.535  17.259  1.8590 -0.2811  0.1047
  797MPD2     N11750   3.008   0.252  17.294 -0.5114 -0.2424 -0.0516
  797MPD2    H511751   2.964   0.239  17.204 -2.0121 -0.3672  0.6936
  797MPD2    N111752   3.339   0.056  17.592  0.0299  0.6957  0.3494
  797MPD2    H711753   3.322   0.144  17.639  0.6277  1.2714 -0.5180
  798MPD2     C11754   3.311   0.816  17.642  0.7790 -0.1981 -1.1378
  798MPD2    C111755   3.245   0.695  17.611 -0.5441 -1.1176 -0.4561
  798MPD2    C211756   3.291   0.575  17.661 -0.5749  0.1883  0.7170
  798MPD2    C311757   3.412   0.566   0.050  0.1195 -0.0387 -0.4605
  798MPD2    C411758   3.486   0.683   0.062 -0.1023 -0.1875  0.3385
  798MPD2    C511759   3.430   0.804   0.019 -0.0859  0.6083  0.0676
  798MPD2     H11760   3.232   0.485  17.657 -0.3000 -0.0308  1.6526
  798MPD2    H111761   3.588   0.680   0.100  0.0115  0.6220  0.1205
  798MPD2    H211762   3.266   0.908  17.608  1.1609 -0.6968 -2.9625
  798MPD2    H311763   3.488   0.895   0.021 -0.9013  1.2107 -3.2148
  798MPD2     N11764   3.455   0.434   0.085  0.5897  0.3799  0.1875
  798MPD2    H511765   3.388   0.357   0.077 -1.3019  1.7791  2.4964
  798MPD2    N111766   3.130   0.694  17.528 -0.0405  0.6553 -0.3206
  798MPD2    H711767   3.089   0.603  17.510  2.0455 -0.4398  0.4303
  799MPD2     C11768   2.299   1.666  14.891 -0.0866  0.8062 -0.2490
  799MPD2    C111769   2.209   1.591  14.813 -0.4477 -0.3868 -0.4077
  799MPD2    C211770   2.127   1.658  14.721  0.2476 -0.4101  0.7325
  799MPD2    C311771   2.139   1.793  14.702  0.2070 -0.1164 -0.7093
  799MPD2    C411772   2.234   1.869  14.777  0.0455 -0.2016  0.6835
  799MPD2    C511773   2.309   1.803  14.875  0.9528 -0.7428  0.2288
  799MPD2     H11774   2.067   1.601  14.652  0.5497 -1.3904  1.2791
  799MPD2    H111775   2.256   1.974  14.759  2.6475 -0.8544  0.0940
  799MPD2    H211776   2.348   1.623  14.978 -2.6235  3.9543  2.7353
  799MPD2    H311777   2.373   1.867  14.936 -1.0114 -0.5327  2.1031
  799MPD2     N11778   2.064   1.861  14.604  0.3492 -0.1125 -0.4368
  799MPD2    H511779   2.086   1.950  14.562  1.9614 -1.1902 -1.8345
  799MPD2    N111780   2.199   1.453  14.813  0.0599  0.1403 -0.4211
  799MPD2    H711781   2.123   1.417  14.756  0.6342  1.1220 -1.7997
  800MPD2     C11782   2.191   3.152  14.064 -0.4518 -0.5076 -0.2449
  800MPD2    C111783   2.315   3.095  14.058  0.8180  0.4889  0.7388
  800MPD2    C211784   2.345   3.012  13.944 -0.0886  0.0732  0.4674
  800MPD2    C311785   2.252   2.996  13.844  0.3859  0.2409 -0.7485
  800MPD2    C411786   2.122   3.036  13.864 -0.0093 -0.7205 -0.0426
  800MPD2    C511787   2.100   3.130  13.960  0.3672  0.0005 -0.3962
  800MPD2     H11788   2.449   2.983  13.930 -0.9298 -2.1672 -1.0852
  800MPD2    H111789   2.040   3.008  13.798  1.0068  2.1711 -2.5413
  800MPD2    H211790   2.161   3.226  14.137 -1.0927  2.0925 -3.1487
  800MPD2    H311791   1.999   3.165  13.978  0.4124 -0.9297  1.6545
  800MPD2     N11792   2.294   2.926  13.728 -0.6968 -0.5983 -0.6852
  800MPD2    H511793   2.391   2.896  13.729 -0.0486  1.5245 -0.6927
  800MPD2    N111794   2.411   3.142  14.148  0.4751  0.0447  0.0337
  800MPD2    H711795   2.378   3.222  14.202 -1.1927 -1.6347  1.5164
  801MPD2     C11796   2.563   3.764  14.476 -0.0447  0.3897  0.2225
  801MPD2    C111797   2.497   3.670  14.403 -0.0325 -0.1684  0.1348
  801MPD2    C211798   2.372   3.708  14.360 -0.4498 -0.0234  0.3320
  801MPD2    C311799   2.326   3.841  14.361  0.7265 -0.0125  0.7584
  801MPD2    C411800   2.405   3.936  14.417 -0.0186  0.0575 -0.0931
  801MPD2    C511801   2.520   3.892  14.474 -0.3267 -0.4015  0.4098
  801MPD2     H11802   2.305   3.635  14.317  0.3646 -0.3045 -0.4430
  801MPD2    H111803   2.376   4.039  14.436  1.0630  0.2118  0.7598
  801MPD2    H211804   2.657   3.747  14.528 -0.1564 -0.2275  0.2145
  801MPD2    H311805   2.583   3.964  14.525 -2.1812 -0.3698  2.6610
  801MPD2     N11806   2.190   3.873  14.338 -0.6536  0.1800 -0.5187
  801MPD2    H511807   2.165   3.966  14.372 -2.9999 -1.0193  1.0204
  801MPD2    N111808   2.533   3.533  14.378  0.2730 -0.0183 -0.4326
  801MPD2    H711809   2.473   3.483  14.313  0.6657 -0.3702 -0.5249
  802MPD2     C11810   2.411   3.647   0.289  0.1285  0.4434  0.1340
  802MPD2    C111811   2.293   3.626   0.226 -0.1673  0.3886  0.0304
  802MPD2    C211812   2.289   3.636   0.088 -0.6942 -0.4603  0.0870
  802MPD2    C311813   2.397   3.680   0.009 -0.2869 -0.4961 -0.1411
  802MPD2    C411814   2.521   3.695   0.071 -0.1748 -0.9089 -0.6112
  802MPD2    C511815   2.527   3.676   0.210  0.1868  0.1387 -0.7044
  802MPD2     H11816   2.200   3.595   0.042 -1.7855  2.2027 -0.1636
  802MPD2    H111817   2.613   3.711   0.016 -0.0948 -2.1042 -0.8317
  802MPD2    H211818   2.428   3.618   0.392 -0.4227  0.4666  0.2279
  802MPD2    H311819   2.621   3.677   0.264 -0.1826  0.6489 -0.0658
  802MPD2     N11820   2.384   3.687  17.555 -0.0683 -0.2585 -0.9450
  802MPD2    H511821   2.293   3.658  17.521  0.5960 -1.9249 -1.3037
  802MPD2    N111822   2.179   3.579   0.297  0.0299  0.0708 -0.8384
  802MPD2    H711823   2.104   3.561   0.231 -0.0826 -1.3445 -0.3371
  803MPD2     C11824   2.884   1.934  11.771 -0.2810 -0.2191  0.1650
  803MPD2    C111825   2.987   1.969  11.852  0.9312 -0.4847  0.7165
  803MPD2    C211826   2.991   1.928  11.984 -0.0689  0.2914  0.0208
  803MPD2    C311827   2.886   1.847  12.039  0.4517 -0.5185  0.2316
  803MPD2    C411828   2.782   1.808  11.954  0.2432 -0.0098 -0.3286
  803MPD2    C511829   2.785   1.855  11.825  0.1668  0.8218  0.0178
  803MPD2     H11830   3.066   1.953  12.058  2.5847 -0.7215 -2.3290
  803MPD2    H111831   2.698   1.752  11.993  1.4122 -1.2550  0.3864
  803MPD2    H211832   2.862   1.973  11.673 -0.1143 -1.6149 -0.4389
  803MPD2    H311833   2.702   1.831  11.759  0.0230 -1.2061  0.9412
  803MPD2     N11834   2.893   1.780  12.160 -0.1004 -0.1127 -1.0724
  803MPD2    H511835   2.807   1.736  12.189 -0.6011  2.3862  1.2177
  803MPD2    N111836   3.097   2.051  11.811  0.4076  0.7441  0.3110
  803MPD2    H711837   3.155   2.086  11.886  0.3990  1.1952  0.1042
  804MPD2     C11838   2.680   3.549  16.963  0.4613 -0.3422  0.1883
  804MPD2    C111839   2.720   3.517  17.090 -0.5982 -0.0653  0.9745
  804MPD2    C211840   2.767   3.620  17.170 -0.0081 -0.2810 -0.0097
  804MPD2    C311841   2.775   3.748  17.119  0.2849  0.5362  0.0803
  804MPD2    C411842   2.740   3.778  16.991 -0.1032  0.6724  0.6172
  804MPD2    C511843   2.688   3.677  16.918  0.4578 -0.2122  0.5721
  804MPD2     H11844   2.806   3.593  17.267 -0.4063 -0.1677  0.1816
  804MPD2    H111845   2.753   3.875  16.944  0.8517  0.2681  0.0522
  804MPD2    H211846   2.634   3.481  16.892 -3.0903  1.8501  0.4002
  804MPD2    H311847   2.660   3.699  16.816  0.9152  0.6743  0.6409
  804MPD2     N11848   2.828   3.841  17.213 -0.0160  0.4650  0.8806
  804MPD2    H511849   2.873   3.801  17.295  1.2648 -1.7199 -0.8651
  804MPD2    N111850   2.734   3.385  17.141  0.0218 -0.5055  0.0286
  804MPD2    H711851   2.756   3.375  17.239 -4.4519 -0.8812  0.9766
  805MPD2     C11852   2.099   2.123  15.374  0.0483  0.4921  0.1213
  805MPD2    C111853   2.088   2.004  15.442 -0.1185 -0.2946 -0.5597
  805MPD2    C211854   2.152   1.992  15.566  0.2174  0.3420 -0.2721
  805MPD2    C311855   2.205   2.107  15.627 -0.0741 -0.1316  0.1233
  805MPD2    C411856   2.216   2.231  15.553  0.4816 -0.1595 -0.4139
  805MPD2    C511857   2.152   2.240  15.432  0.3225 -0.1699 -0.1522
  805MPD2     H11858   2.131   1.904  15.626 -0.9689 -0.1726 -1.4424
  805MPD2    H111859   2.268   2.316  15.595  2.0236 -0.3833 -1.8932
  805MPD2    H211860   2.054   2.146  15.277  1.0376  0.5676 -0.3199
  805MPD2    H311861   2.156   2.340  15.390 -1.5100 -0.4097 -0.8825
  805MPD2     N11862   2.257   2.110  15.761  0.2195 -0.4494 -0.2231
  805MPD2    H511863   2.277   2.204  15.794  0.0298 -0.3992 -0.2471
  805MPD2    N111864   2.014   1.891  15.393 -0.1840 -0.0158 -0.8008
  805MPD2    H711865   2.026   1.802  15.440  2.2562  1.2923  0.9972
  806MPD2     C11866   3.408   1.536   0.955 -0.0252 -0.1168 -0.2828
  806MPD2    C111867   3.485   1.538   0.838 -0.1692  0.7549  0.1125
  806MPD2    C211868   3.424   1.552   0.718  0.6649 -0.5000 -0.1457
  806MPD2    C311869   3.290   1.579   0.707 -0.2373  0.5976  0.7827
  806MPD2    C411870   3.206   1.566   0.823  0.3078 -0.4585 -0.0234
  806MPD2    C511871   3.269   1.546   0.945  0.7221 -0.2281 -0.1258
  806MPD2     H11872   3.488   1.562   0.631 -0.4782  1.1444 -0.7832
  806MPD2    H111873   3.099   1.586   0.823  0.3001 -0.4987  0.0120
  806MPD2    H211874   3.446   1.511   1.053 -1.1507  0.3670  0.2830
  806MPD2    H311875   3.209   1.528   1.033  1.2908 -2.4373 -0.2067
  806MPD2     N11876   3.245   1.601   0.572  0.0588  0.0277  0.1133
  806MPD2    H511877   3.314   1.600   0.498 -0.3931  1.4585 -0.3206
  806MPD2    N111878   3.621   1.507   0.849  1.0774 -0.4523  0.0088
  806MPD2    H711879   3.656   1.523   0.943  1.3629 -0.1078 -0.1571
  807MPD2     C11880   3.985   1.434   1.425 -0.2978 -0.0282 -0.0429
  807MPD2    C111881   3.897   1.365   1.341  0.2338 -0.4106  0.1034
  807MPD2    C211882   3.810   1.280   1.406 -0.6847 -0.5952 -0.6641
  807MPD2    C311883   3.811   1.269   1.543 -0.1287  0.3659  0.1994
  807MPD2    C411884   3.905   1.335   1.619 -0.7400  0.0819 -0.6006
  807MPD2    C511885   3.992   1.411   1.555 -0.5251  0.1177 -0.4831
  807MPD2     H11886   3.741   1.216   1.353 -1.4624 -0.0197 -0.3478
  807MPD2    H111887   3.916   1.336   1.727  3.0313 -0.1769 -0.9758
  807MPD2    H211888   4.049   1.512   1.385  2.1647 -0.9247  2.1768
  807MPD2    H311889   4.062   1.466   1.617 -1.0561 -0.3065  0.4978
  807MPD2     N11890   3.732   1.174   1.606 -0.0517 -0.3449 -0.8579
  807MPD2    H511891   3.688   1.115   1.536  0.0827  1.4663 -2.4568
  807MPD2    N111892   3.894   1.380   1.197 -0.4935  0.0717 -0.0684
  807MPD2    H711893   3.829   1.318   1.150 -0.5399 -0.7185  1.0282
  808MPD2     C11894   2.361   2.857   9.808 -0.1883 -0.1253  0.1520
  808MPD2    C111895   2.423   2.842   9.688  0.2585 -0.5366  0.5558
  808MPD2    C211896   2.502   2.946   9.639 -0.3196 -0.2779 -0.1164
  808MPD2    C311897   2.519   3.071   9.698  0.0471 -0.0793 -0.2170
  808MPD2    C411898   2.447   3.084   9.816 -0.1235 -0.3401  0.2507
  808MPD2    C511899   2.369   2.984   9.865  0.8791 -0.6058 -0.4119
  808MPD2     H11900   2.565   2.921   9.555 -2.2970 -2.8723 -0.8435
  808MPD2    H111901   2.472   3.163   9.886 -0.6201  0.1674 -0.1404
  808MPD2    H211902   2.306   2.781   9.863  1.8465 -0.6909  1.3772
  808MPD2    H311903   2.323   2.992   9.962  0.3343  0.2403 -0.7393
  808MPD2     N11904   2.601   3.178   9.645  0.7893 -0.0228  0.3538
  808MPD2    H511905   2.593   3.270   9.689 -0.6819  0.4169 -0.8186
  808MPD2    N111906   2.428   2.717   9.618  0.3081  0.0864 -0.3627
  808MPD2    H711907   2.478   2.708   9.530  1.2516 -1.5892  0.3502
  809MPD2     C11908   3.025   3.351   8.745 -0.6911 -0.0007  0.1589
  809MPD2    C111909   3.098   3.419   8.837 -0.3256  1.0013 -0.0477
  809MPD2    C211910   3.046   3.429   8.967 -0.2829  0.3601 -0.0781
  809MPD2    C311911   2.923   3.377   9.003 -0.0659  0.3654  0.1427
  809MPD2    C411912   2.855   3.300   8.908  0.9333 -0.4768  0.7141
  809MPD2    C511913   2.909   3.290   8.782 -0.2669 -0.3283  0.0272
  809MPD2     H11914   3.110   3.456   9.049  0.4872  0.1083 -0.5958
  809MPD2    H111915   2.756   3.265   8.938  0.1616  1.8333  0.8668
  809MPD2    H211916   3.064   3.344   8.644  0.1481 -1.5410  0.5854
  809MPD2    H311917   2.852   3.236   8.708 -2.1489 -0.1990  1.3893
  809MPD2     N11918   2.872   3.378   9.134  0.1728 -0.2555 -0.3947
  809MPD2    H511919   2.790   3.323   9.159  0.0668  0.5615  1.0820
  809MPD2    N111920   3.234   3.450   8.817 -0.0615  0.0493  0.5028
  809MPD2    H711921   3.281   3.495   8.895  1.1480  0.2797 -0.3533
  810MPD2     C11922   2.829   2.047   9.994 -0.6526  0.0694 -0.8228
  810MPD2    C111923   2.740   2.043  10.092 -0.6096 -0.5939  0.3509
  810MPD2    C211924   2.751   2.134  10.195  0.2572 -0.3405 -0.0370
  810MPD2    C311925   2.851   2.230  10.189  0.6068  0.1545  0.2320
  810MPD2    C411926   2.947   2.225  10.089  0.0839 -0.1892  0.1870
  810MPD2    C511927   2.933   2.137   9.986  0.1333 -0.1158 -0.6415
  810MPD2     H11928   2.673   2.136  10.270 -0.1414  0.2719 -0.4716
  810MPD2    H111929   3.027   2.297  10.083 -0.5525  0.3548 -1.8699
  810MPD2    H211930   2.824   1.989   9.903 -0.3362 -1.0271 -0.1465
  810MPD2    H311931   3.007   2.145   9.906  2.2352  0.4426  1.3752
  810MPD2     N11932   2.869   2.331  10.278 -0.2311 -0.0999  0.5085
  810MPD2    H511933   2.949   2.394  10.270  0.3396 -0.7730  0.9403
  810MPD2    N111934   2.622   1.965  10.074  0.8761  0.1487  0.8268
  810MPD2    H711935   2.615   1.920   9.983 -2.4585  1.2084  0.5659
  811MPD2     C11936   1.860   2.179   9.734  0.5681  0.2677 -0.3002
  811MPD2    C111937   1.986   2.219   9.780 -0.0836 -0.1694 -0.4161
  811MPD2    C211938   2.041   2.338   9.738  0.3358 -0.5301  0.0173
  811MPD2    C311939   1.978   2.406   9.640 -0.6398 -0.2108 -0.2114
  811MPD2    C411940   1.862   2.362   9.585 -0.4662 -0.7129  0.5291
  811MPD2    C511941   1.805   2.249   9.632  1.0081 -0.5208 -1.1543
  811MPD2     H11942   2.128   2.377   9.788 -0.5591 -1.5879  2.3664
  811MPD2    H111943   1.806   2.406   9.503  1.6301  2.0465  0.5811
  811MPD2    H211944   1.818   2.088   9.774 -1.0882  1.7839  1.3994
  811MPD2    H311945   1.717   2.207   9.584  0.7321  0.1064 -1.2044
  811MPD2     N11946   2.035   2.522   9.587 -0.1559  0.0289 -0.3748
  811MPD2    H511947   2.120   2.559   9.629 -0.9387  0.2861  0.9883
  811MPD2    N111948   2.048   2.133   9.869  0.0678  0.0094  0.4321
  811MPD2    H711949   1.997   2.053   9.905  0.3663  0.4155  1.7631
  812MPD2     C11950   1.429   2.234  12.100 -0.2513 -0.4557 -0.4800
  812MPD2    C111951   1.366   2.310  12.194  0.2978 -0.1099  0.5345
  812MPD2    C211952   1.336   2.258  12.321  0.0374  0.0808  0.2757
  812MPD2    C311953   1.362   2.131  12.364 -0.0874  0.3407 -0.3432
  812MPD2    C411954   1.433   2.060  12.266  0.0084 -0.4380  0.0455
  812MPD2    C511955   1.466   2.108  12.136 -0.6168  0.2501  0.1186
  812MPD2     H11956   1.281   2.327  12.385 -0.3101  0.0038  0.0584
  812MPD2    H111957   1.452   1.954  12.278 -3.2764 -1.3110 -2.3441
  812MPD2    H211958   1.455   2.270  12.002 -1.0479  1.6350  0.0926
  812MPD2    H311959   1.507   2.043  12.060 -0.1033  1.9566 -1.0580
  812MPD2     N11960   1.328   2.084  12.490 -1.0327 -0.1583 -0.1301
  812MPD2    H511961   1.283   2.150  12.552  1.5903  1.7094 -0.2140
  812MPD2    N111962   1.342   2.441  12.152 -0.1054  0.6541  0.1324
  812MPD2    H711963   1.391   2.474  12.069 -0.0802  0.1654 -0.0460
  813MPD2     C11964   0.703   3.811  12.803  0.0889 -0.0847  0.9325
  813MPD2    C111965   0.694   3.944  12.818  0.5123  0.7115  0.2815
  813MPD2    C211966   0.638   4.000  12.931  0.0023 -0.1498  0.0585
  813MPD2    C311967   0.603   3.918  13.032 -0.0102  0.1979  0.1428
  813MPD2    C411968   0.611   3.782  13.013  0.3870  0.1473  0.5018
  813MPD2    C511969   0.667   3.727  12.904  0.4316  0.2717  0.0843
  813MPD2     H11970   0.652   4.104  12.959  0.0386  0.0812 -0.8252
  813MPD2    H111971   0.582   3.707  13.085 -2.1030 -0.9833 -1.6646
  813MPD2    H211972   0.734   3.775  12.706 -1.7271 -0.6775  0.5688
  813MPD2    H311973   0.676   3.620  12.888 -0.1695  0.2760 -0.2664
  813MPD2     N11974   0.548   3.966  13.153  0.0590  0.1430  0.3355
  813MPD2    H511975   0.536   4.066  13.160  0.4099  0.0601  2.1837
  813MPD2    N111976   0.753   4.025  12.724  0.3282 -0.0093  0.0803
  813MPD2    H711977   0.830   3.975  12.681 -0.0922  0.0333 -0.7130
  814MPD2     C11978   0.961   0.511  12.141 -0.1407  0.3317  0.2152
  814MPD2    C111979   0.913   0.612  12.066  0.6682 -0.3056 -0.3428
  814MPD2    C211980   0.973   0.732  12.072 -1.0839 -0.5606 -0.2183
  814MPD2    C311981   1.075   0.763  12.163  0.8958 -0.3253  0.9326
  814MPD2    C411982   1.133   0.662  12.232  0.2195  0.4079 -0.2444
  814MPD2    C511983   1.077   0.535  12.218 -0.5128  0.5816  0.5273
  814MPD2     H11984   0.939   0.809  12.004 -1.0271 -1.1694 -0.9354
  814MPD2    H111985   1.215   0.686  12.299  1.8180 -1.7675 -1.4007
  814MPD2    H211986   0.924   0.409  12.130 -1.5616  0.6629  1.8768
  814MPD2    H311987   1.118   0.456  12.280 -1.1385 -0.1717 -0.0162
  814MPD2     N11988   1.119   0.892  12.195  0.6013  0.1770 -0.1015
  814MPD2    H511989   1.190   0.885  12.266 -1.7794 -1.6074  2.1222
  814MPD2    N111990   0.813   0.590  11.958  0.0657 -0.3948 -0.2287
  814MPD2    H711991   0.792   0.670  11.899 -0.5982 -0.8212 -0.5550
  815MPD2     C11992   1.336   4.236  11.634  0.1584 -0.0220 -0.3124
  815MPD2    C111993   1.353   4.100  11.621 -0.6877 -0.2541 -0.1251
  815MPD2    C211994   1.262   4.013  11.673  0.5406  0.2813 -0.0693
  815MPD2    C311995   1.142   4.059  11.735 -0.0541  0.1639  0.0334
  815MPD2    C411996   1.125   4.194  11.741  0.0395 -0.4292 -0.3917
  815MPD2    C511997   1.223   4.280  11.698  0.1315  0.2454  0.0317
  815MPD2     H11998   1.269   3.906  11.657  0.0940  0.0774  1.0517
  815MPD2    H111999   1.036   4.237  11.784  0.0566 -2.5095  1.7426
  815MPD2    H212000   1.408   4.306  11.594 -1.3769  0.0517 -2.9308
  815MPD2    H312001   1.218   4.388  11.706  0.8035  0.1578  1.7537
  815MPD2     N12002   1.035   3.971  11.771  0.2545  0.1447 -0.5831
  815MPD2    H512003   0.943   4.005  11.799 -0.1351 -1.6565  0.3412
  815MPD2    N112004   1.461   4.054  11.542  1.1481  0.0536 -0.2609
  815MPD2    H712005   1.523   4.124  11.502  0.2581  1.1897  0.3367
  816MPD2     C12006   1.279   3.106  16.849  0.1386  0.3321  0.2995
  816MPD2    C112007   1.334   3.201  16.931  0.7693 -0.3665 -0.0521
  816MPD2    C212008   1.474   3.198  16.949 -0.3156 -0.5162 -0.4309
  816MPD2    C312009   1.545   3.092  16.900  0.3158  0.3924  0.0495
  816MPD2    C412010   1.488   3.000  16.809  0.3320  0.1505  0.6735
  816MPD2    C512011   1.358   3.009  16.784  0.9755  0.0906 -0.5282
  816MPD2     H12012   1.538   3.266  17.006  0.5444 -1.4844 -0.2376
  816MPD2    H112013   1.544   2.923  16.757  0.1404  0.3099  0.2315
  816MPD2    H212014   1.175   3.106  16.819  0.3909 -1.6776 -0.5841
  816MPD2    H312015   1.310   2.932  16.725  2.1456 -0.8756 -0.2142
  816MPD2     N12016   1.679   3.092  16.935  0.2923  0.7412  0.2321
  816MPD2    H512017   1.706   3.174  16.988  0.0760  1.2445 -0.4366
  816MPD2    N112018   1.249   3.292  16.992 -0.4194  0.1523 -0.6929
  816MPD2    H712019   1.153   3.285  16.962 -0.8867 -1.8533  1.3296
  817MPD2     C12020   1.024   0.008   9.763  0.2401  0.1605 -0.1576
  817MPD2    C112021   1.067   4.709   9.629  0.2253 -1.2440  0.6142
  817MPD2    C212022   0.990   0.066   9.538  0.0186 -0.2018 -0.7561
  817MPD2    C312023   0.892   0.153   9.578  0.0469  0.0100 -0.9857
  817MPD2    C412024   0.866   0.166   9.715 -0.4075  0.3700 -0.5404
  817MPD2    C512025   0.937   0.101   9.811  0.5913 -0.0860  0.1744
  817MPD2     H12026   1.007   0.057   9.432 -0.3383 -2.5607 -0.6220
  817MPD2    H112027   0.802   0.247   9.750  1.8216  2.2645 -0.8613
  817MPD2    H212028   1.079   4.671   9.836  0.8924  0.5307 -0.3532
  817MPD2    H312029   0.917   0.118   9.916 -2.3163  1.4474 -0.6273
  817MPD2     N12030   0.833   0.229   9.476  0.6453  0.0040 -0.7296
  817MPD2    H512031   0.862   0.197   9.384  1.4389 -0.2235 -0.3951
  817MPD2    N112032   1.167   4.621   9.579 -0.2365 -0.1329  0.4175
  817MPD2    H712033   1.178   4.616   9.479  0.0001  0.1718  0.4287
  818MPD2     C12034   4.647   0.278   9.692 -0.1383  0.6088  0.0774
  818MPD2    C112035   4.632   0.167   9.778  0.0475 -0.0588 -0.3381
  818MPD2    C212036   4.705   0.050   9.754 -0.1811 -0.2092 -0.1193
  818MPD2    C312037   0.072   0.042   9.648 -0.2492  0.1056  0.0498
  818MPD2    C412038   0.075   0.147   9.562 -0.1608 -0.1646 -0.4894
  818MPD2    C512039   0.009   0.262   9.585  0.1672 -0.1640  0.5522
  818MPD2     H12040   4.701   4.689   9.825  0.5899  1.7076  2.1396
  818MPD2    H112041   0.145   0.151   9.479 -2.2773 -1.8145 -2.3367
  818MPD2    H212042   4.590   0.370   9.697 -0.0956  0.6700 -0.5463
  818MPD2    H312043   0.005   0.337   9.507  0.4393 -0.3826  0.3272
  818MPD2     N12044   0.161   4.655   9.626 -0.2647 -0.0875 -0.6123
  818MPD2    H512045   0.174   4.637   9.527 -1.2496  0.6012 -0.8653
  818MPD2    N112046   4.537   0.166   9.894 -0.5711 -0.1491  0.3118
  818MPD2    H712047   4.530   0.076   9.939  0.8242 -0.1318  0.5542
  819MPD2     C12048   2.531   1.309  15.795 -0.3175 -0.7928 -0.0180
  819MPD2    C112049   2.592   1.191  15.757  0.6890 -0.0671  0.1049
  819MPD2    C212050   2.708   1.147  15.829  0.1126  0.3993  0.1316
  819MPD2    C312051   2.762   1.233  15.923  0.7408 -0.4226  0.0861
  819MPD2    C412052   2.701   1.353  15.954 -0.1333  0.3570  0.3450
  819MPD2    C512053   2.580   1.387  15.894  0.2412 -0.3165  0.7500
  819MPD2     H12054   2.760   1.053  15.814  2.4551  1.5259  1.0451
  819MPD2    H112055   2.753   1.414  16.027  0.9728 -0.3493  0.1517
  819MPD2    H212056   2.453   1.349  15.731 -0.2930 -2.3231 -1.0040
  819MPD2    H312057   2.523   1.475  15.920  1.7839  1.4349 -1.9058
  819MPD2     N12058   2.891   1.199  15.976  0.3304  0.4108  0.1260
  819MPD2    H512059   2.942   1.122  15.935  0.9294 -0.1757  1.9461
  819MPD2    N112060   2.527   1.113  15.658  0.0612 -0.1438  0.7717
  819MPD2    H712061   2.464   1.161  15.595 -0.6775 -0.9872  0.8747
  820MPD2     C12062   1.888   1.184  14.945 -0.3976 -0.3508  0.3577
  820MPD2    C112063   1.971   1.254  15.020 -0.0480 -0.0356 -0.3112
  820MPD2    C212064   2.066   1.193  15.099 -0.2920  0.0260  0.4100
  820MPD2    C312065   2.076   1.053  15.106  0.1529  0.0281 -0.5251
  820MPD2    C412066   1.993   0.982  15.021  0.0235  0.0568 -0.3987
  820MPD2    C512067   1.900   1.043  14.948 -0.3343  0.0080  0.2640
  820MPD2     H12068   2.131   1.260  15.153 -0.4863 -0.4475  1.2246
  820MPD2    H112069   1.995   0.874  15.018 -1.9111 -0.0025  0.3163
  820MPD2    H212070   1.825   1.234  14.873 -0.4187  2.0858  2.0710
  820MPD2    H312071   1.828   0.984  14.892  1.0705 -1.8597  0.4337
  820MPD2     N12072   2.168   0.984  15.181  0.0874 -0.5060  0.5700
  820MPD2    H512073   2.177   0.883  15.171 -2.3453 -0.7832  1.2745
  820MPD2    N112074   1.941   1.387  15.030  0.0876  0.2068  0.1421
  820MPD2    H712075   1.856   1.409  14.979 -0.3328  1.6630  1.4862
  821MPD2     C12076   2.343   3.089  12.895  0.0825 -0.4503 -0.0356
  821MPD2    C112077   2.441   3.002  12.940  0.4918 -0.9001  0.7457
  821MPD2    C212078   2.556   2.980  12.859  0.2014 -0.8577  1.0091
  821MPD2    C312079   2.570   3.051  12.739  0.5972  0.4477  0.3400
  821MPD2    C412080   2.466   3.130  12.702 -0.8284 -0.2933  0.4444
  821MPD2    C512081   2.357   3.150  12.775 -1.1325 -0.0032  0.0509
  821MPD2     H12082   2.634   2.914  12.897 -0.0936 -0.8506  1.6376
  821MPD2    H112083   2.476   3.190  12.612  0.4515  0.5567  1.1439
  821MPD2    H212084   2.256   3.114  12.955  0.6332  1.1867  0.0659
  821MPD2    H312085   2.275   3.209  12.735 -0.7491  1.4019  1.3645
  821MPD2     N12086   2.690   3.062  12.665  0.5939 -0.2390  0.3411
  821MPD2    H512087   2.689   3.142  12.603  0.8661 -0.4444  0.0737
  821MPD2    N112088   2.441   2.952  13.069  0.2759 -0.6943 -0.0311
  821MPD2    H712089   2.513   2.883  13.086 -0.9289 -1.3289  2.6350
  822MPD2     C12090   3.621   3.037  15.702 -0.1655 -0.7064  0.1779
  822MPD2    C112091   3.578   2.972  15.818 -0.4814  0.3434  0.4472
  822MPD2    C212092   3.473   3.034  15.888 -0.5513 -0.2379 -0.7335
  822MPD2    C312093   3.422   3.157  15.848 -0.8611 -0.3018  0.2687
  822MPD2    C412094   3.470   3.215  15.737 -0.4493  0.4819  0.5406
  822MPD2    C512095   3.568   3.150  15.664  0.8985  0.0562  0.5180
  822MPD2     H12096   3.427   2.984  15.972  0.8543  0.3290  0.3705
  822MPD2    H112097   3.441   3.310  15.694  0.1237  0.9597  1.2050
  822MPD2    H212098   3.703   2.996  15.643 -0.5369 -1.3576  0.1200
  822MPD2    H312099   3.608   3.202  15.578  1.5718  0.0512  0.8299
  822MPD2     N12100   3.326   3.215  15.932  0.1825 -0.2005  0.3419
  822MPD2    H512101   3.276   3.154  15.997  0.3665  1.1841  1.7872
  822MPD2    N112102   3.631   2.856  15.877  0.3333  0.2429 -0.4557
  822MPD2    H712103   3.618   2.843  15.977 -1.2996  0.7904 -0.5968
  823MPD2     C12104   2.981   3.238  16.683  0.1648  0.3791 -0.5662
  823MPD2    C112105   3.057   3.184  16.585  0.2896 -0.2961  0.8766
  823MPD2    C212106   3.149   3.087  16.622  0.0073 -0.4462 -0.2152
  823MPD2    C312107   3.152   3.036  16.749  0.2192  0.8159  1.5472
  823MPD2    C412108   3.077   3.101  16.846 -0.5716  0.3179  0.1646
  823MPD2    C512109   2.997   3.203  16.811 -0.5214  0.3274 -0.7835
  823MPD2     H12110   3.219   3.044  16.550 -0.0190  1.1056 -1.1582
  823MPD2    H112111   3.090   3.071  16.950  2.2445  0.5962 -0.1186
  823MPD2    H212112   2.911   3.320  16.669  1.0702  1.4763  1.3979
  823MPD2    H312113   2.953   3.261  16.892 -0.1559 -0.1230 -0.2554
  823MPD2     N12114   3.237   2.939  16.799 -0.2334 -0.4128  0.4302
  823MPD2    H512115   3.231   2.909  16.896 -2.2859 -1.9103 -0.1568
  823MPD2    N112116   3.044   3.248  16.458 -0.3255  0.0315  0.0495
  823MPD2    H712117   2.992   3.335  16.456  0.0573  0.2393 -0.9718
  824MPD2     C12118   4.120   2.183  15.838  0.0905 -0.3839  0.4619
  824MPD2    C112119   4.051   2.259  15.742  0.5506 -0.7716 -0.0495
  824MPD2    C212120   4.108   2.274  15.618  0.2237  0.3011  0.7294
  824MPD2    C312121   4.221   2.212  15.582  0.1455 -0.0372 -0.0573
  824MPD2    C412122   4.288   2.138  15.673 -0.2987 -0.4076 -0.7145
  824MPD2    C512123   4.240   2.129  15.798  0.7996 -0.3860 -0.1990
  824MPD2     H12124   4.063   2.345  15.549 -0.0234 -0.4515  0.1248
  824MPD2    H112125   4.385   2.091  15.659 -0.2340 -0.4322 -0.1784
  824MPD2    H212126   4.081   2.182  15.940 -0.4569 -0.8977  0.2529
  824MPD2    H312127   4.298   2.074  15.871  0.2654  0.1060  0.5970
  824MPD2     N12128   4.270   2.229  15.444  0.2569 -0.5865  0.2885
  824MPD2    H512129   4.215   2.286  15.381  1.7495 -0.1637 -0.6379
  824MPD2    N112130   3.928   2.330  15.770  0.7633 -0.5324  0.0429
  824MPD2    H712131   3.899   2.398  15.701  2.6840  0.7437  0.4707
  825MPD2     C12132   4.496   2.574  14.667 -0.1930 -0.0316 -0.5943
  825MPD2    C112133   4.475   2.598  14.801 -0.0891 -0.5051 -0.5340
  825MPD2    C212134   4.498   2.727  14.859 -0.8242  0.2522 -0.1705
  825MPD2    C312135   4.540   2.830  14.773  0.2003 -0.3078 -0.5804
  825MPD2    C412136   4.563   2.801  14.641 -0.3337 -0.5140  0.0338
  825MPD2    C512137   4.534   2.676  14.588 -0.2651 -0.3428  0.7003
  825MPD2     H12138   4.484   2.748  14.965  0.1354 -0.7189  0.1468
  825MPD2    H112139   4.591   2.883  14.575 -0.3789 -0.7630 -0.2915
  825MPD2    H212140   4.486   2.472  14.631  0.3637 -0.3639  0.2019
  825MPD2    H312141   4.566   2.653  14.487 -2.2513  0.0356 -0.0343
  825MPD2     N12142   4.557   2.966  14.815  0.1026  0.2517  0.6154
  825MPD2    H512143   4.592   3.026  14.742  0.2460 -0.1637  0.3409
  825MPD2    N112144   4.440   2.490  14.884  0.1566 -0.5867  0.1676
  825MPD2    H712145   4.425   2.401  14.837  1.1566 -0.5339 -0.2410
  826MPD2     C12146   3.240   1.768  13.320 -0.4771 -0.0803  0.1937
  826MPD2    C112147   3.336   1.865  13.342  0.0492  0.4920 -0.0376
  826MPD2    C212148   3.301   1.997  13.363  0.2641  1.5632 -0.0954
  826MPD2    C312149   3.166   2.034  13.374 -0.6973 -0.2352 -0.8473
  826MPD2    C412150   3.066   1.933  13.359  1.1481 -0.5045 -0.8218
  826MPD2    C512151   3.109   1.810  13.321  0.0955  0.0899  0.2851
  826MPD2     H12152   3.377   2.075  13.367 -0.2342  2.0420  0.0853
  826MPD2    H112153   2.960   1.953  13.348  1.0406 -1.3254 -1.2650
  826MPD2    H212154   3.262   1.664  13.300 -0.9582 -0.0442 -0.5413
  826MPD2    H312155   3.034   1.736  13.295  2.0850 -1.3935 -1.2897
  826MPD2     N12156   3.120   2.164  13.400 -1.1194  0.3036 -0.9424
  826MPD2    H512157   3.020   2.182  13.397 -0.9788  1.8905  3.7523
  826MPD2    N112158   3.469   1.826  13.376  0.0206 -0.4247  0.6559
  826MPD2    H712159   3.485   1.726  13.362  1.7584  0.1364 -1.4366
  827MPD2     C12160   0.414   3.731   9.841 -0.4747 -0.3971 -0.2404
  827MPD2    C112161   0.402   3.618   9.921 -1.2160 -0.9456  0.2537
  827MPD2    C212162   0.310   3.525   9.883 -0.6443 -0.6175 -0.2675
  827MPD2    C312163   0.234   3.543   9.769  0.6931 -0.1936 -0.5284
  827MPD2    C412164   0.260   3.649   9.684  0.3975  0.1911 -0.3840
  827MPD2    C512165   0.352   3.743   9.722 -0.6121 -0.4288  0.7804
  827MPD2     H12166   0.293   3.434   9.938  0.3831 -0.1299  0.8620
  827MPD2    H112167   0.211   3.678   9.592  0.1229 -1.8941 -0.8862
  827MPD2    H212168   0.486   3.807   9.871  1.0306 -0.3572 -3.9100
  827MPD2    H312169   0.373   3.834   9.666  1.9731 -1.4691  0.0638
  827MPD2     N12170   0.136   3.442   9.747 -0.4902  0.1848  0.1452
  827MPD2    H512171   0.130   3.374   9.822 -1.5130  0.1388  0.0265
  827MPD2    N112172   0.489   3.601  10.034  0.1521 -0.2524  0.6397
  827MPD2    H712173   0.552   3.679  10.047  0.3025 -0.5394  1.6314
  828MPD2     C12174   3.417   2.880  12.422  0.4385 -0.1454 -0.0105
  828MPD2    C112175   3.426   2.872  12.288  0.1365 -0.2753 -0.2460
  828MPD2    C212176   3.528   2.803  12.237  0.5364  0.4984 -0.4720
  828MPD2    C312177   3.613   2.728  12.310  0.2158  0.4567 -0.5739
  828MPD2    C412178   3.600   2.723  12.444  0.2696 -0.4985  0.0737
  828MPD2    C512179   3.502   2.809  12.501 -0.2417 -0.0349  0.3534
  828MPD2     H12180   3.532   2.812  12.130  0.4894 -3.4638 -0.8039
  828MPD2    H112181   3.661   2.662  12.510 -0.5990  0.6659  1.9728
  828MPD2    H212182   3.337   2.932  12.473  0.7025  0.6939 -0.4470
  828MPD2    H312183   3.474   2.808  12.606 -1.9016  0.8437 -0.0824
  828MPD2     N12184   3.717   2.655  12.247 -0.4974 -0.2135 -1.0338
  828MPD2    H512185   3.791   2.612  12.301 -1.1588  1.0953  0.9071
  828MPD2    N112186   3.337   2.925  12.192  0.7306  0.0701  0.2558
  828MPD2    H712187   3.352   2.904  12.094  0.2002 -0.7341  0.3471
  829MPD2     C12188   3.543   3.056  11.429 -0.5969  0.5250  0.1067
  829MPD2    C112189   3.419   3.130  11.417 -0.1525 -0.0484  0.4630
  829MPD2    C212190   3.335   3.141  11.528  0.3317  0.2109 -0.7373
  829MPD2    C312191   3.375   3.082  11.648  0.3470 -0.2159  0.3919
  829MPD2    C412192   3.491   3.014  11.653 -0.1195  0.2303  0.0911
  829MPD2    C512193   3.578   3.008  11.550  0.7157  0.2812 -0.3804
  829MPD2     H12194   3.247   3.203  11.518  1.5066  1.8030 -1.3128
  829MPD2    H112195   3.528   2.972  11.746 -1.4574 -1.5468 -0.1718
  829MPD2    H212196   3.629   3.055  11.363  0.6550 -1.5054  1.7431
  829MPD2    H312197   3.675   2.962  11.567 -0.3508 -0.0140  4.6822
  829MPD2     N12198   3.290   3.084  11.765  0.7386 -0.3487 -0.2631
  829MPD2    H512199   3.328   3.061  11.856 -0.1010 -0.4555  0.0641
  829MPD2    N112200   3.379   3.192  11.296 -0.3138  0.2005 -0.4587
  829MPD2    H712201   3.298   3.253  11.301 -1.3871 -1.2534 -0.1230
  830MPD2     C12202   3.535   1.014  15.538 -0.4708  1.1388 -0.6985
  830MPD2    C112203   3.431   1.106  15.559  0.4068  0.2662 -1.0359
  830MPD2    C212204   3.364   1.152  15.447  0.4180 -0.4385  0.0413
  830MPD2    C312205   3.382   1.100  15.324  0.0734  0.0963 -0.1204
  830MPD2    C412206   3.464   0.991  15.316  0.1605  0.0025  0.2534
  830MPD2    C512207   3.539   0.948  15.418  0.5606  0.0088  0.0914
  830MPD2     H12208   3.286   1.225  15.466  1.9179  1.7734 -2.2738
  830MPD2    H112209   3.472   0.939  15.222  2.6457 -1.2925  1.1702
  830MPD2    H212210   3.603   0.973  15.612 -3.7811 -2.0222  0.5761
  830MPD2    H312211   3.608   0.866  15.399  1.8091  0.8714  0.9495
  830MPD2     N12212   3.322   1.157  15.203  0.4813 -0.1617 -0.3251
  830MPD2    H512213   3.341   1.115  15.112 -1.4644  1.1763 -1.3655
  830MPD2    N112214   3.412   1.158  15.690  0.4784  0.4707  0.5489
  830MPD2    H712215   3.462   1.113  15.766  0.8168  1.6326  1.0183
  831MPD2     C12216   3.631   3.352  16.313  0.2060 -0.2053  0.0940
  831MPD2    C112217   3.683   3.245  16.242 -0.7771 -0.0571 -0.4007
  831MPD2    C212218   3.625   3.120  16.256  0.0170  0.6867  0.1827
  831MPD2    C312219   3.514   3.099  16.340  0.5111 -0.5725 -0.5420
  831MPD2    C412220   3.458   3.208  16.414 -0.6567 -0.7897 -0.0770
  831MPD2    C512221   3.525   3.332  16.399 -0.6068 -0.3935 -0.6420
  831MPD2     H12222   3.654   3.041  16.188  3.0663  1.3781  0.6494
  831MPD2    H112223   3.374   3.201  16.483 -0.6812  1.1400  0.0862
  831MPD2    H212224   3.660   3.455  16.294 -1.4321  0.6973  2.5031
  831MPD2    H312225   3.482   3.410  16.460  2.1278 -0.5363  1.4624
  831MPD2     N12226   3.447   2.977  16.347 -0.2357  0.0727 -0.7211
  831MPD2    H512227   3.356   2.972  16.391 -0.4744 -1.4210 -1.4093
  831MPD2    N112228   3.794   3.264  16.159 -0.0025 -0.3006  0.3977
  831MPD2    H712229   3.828   3.358  16.142  1.5505 -1.0619 -0.6527
  832MPD2     C12230   1.829   4.228  17.118  0.0871 -0.0912  1.1664
  832MPD2    C112231   1.833   4.362  17.100  0.1809 -0.0609 -0.9219
  832MPD2    C212232   1.735   4.438  17.044  0.6269  0.2005 -0.5067
  832MPD2    C312233   1.622   4.370  16.998  0.8786  0.4122  0.0907
  832MPD2    C412234   1.621   4.235  17.025 -0.3244 -0.4381 -0.0318
  832MPD2    C512235   1.721   4.165  17.071  0.0053  0.3407 -0.5551
  832MPD2     H12236   1.745   4.541  17.009  0.4658 -0.4598 -2.4990
  832MPD2    H112237   1.530   4.183  16.997 -0.5584 -0.8918  1.5891
  832MPD2    H212238   1.900   4.171  17.177  1.9964  0.7588 -0.3023
  832MPD2    H312239   1.691   4.061  17.082 -1.5237  0.7015 -1.2565
  832MPD2     N12240   1.522   4.421  16.916  0.0684  0.4119  0.7556
  832MPD2    H512241   1.450   4.359  16.882 -0.4949 -0.2426  3.1192
  832MPD2    N112242   1.955   4.422  17.127 -0.3585 -0.5017 -0.2524
  832MPD2    H712243   2.015   4.382  17.199 -0.7026 -0.1673  0.2199
  833MPD2     C12244   3.735   0.798  12.638  0.2561  0.4570 -0.5296
  833MPD2    C112245   3.741   0.913  12.557  0.3110  0.2116 -0.4196
  833MPD2    C212246   3.855   0.925  12.480  1.4562 -0.8573 -0.7202
  833MPD2    C312247   3.962   0.837  12.476 -0.3139 -0.2888  0.1906
  833MPD2    C412248   3.940   0.722  12.548 -0.3953  0.2698 -0.7009
  833MPD2    C512249   3.834   0.712  12.634  0.5304 -0.1805  0.8001
  833MPD2     H12250   3.858   1.005  12.408  1.0173 -0.2929 -0.1083
  833MPD2    H112251   4.010   0.641  12.561 -1.9718 -0.9702 -0.0431
  833MPD2    H212252   3.649   0.764  12.695  0.9248  3.0122  2.0259
  833MPD2    H312253   3.817   0.617  12.683  1.3909 -1.2308 -0.9412
  833MPD2     N12254   4.076   0.850  12.396 -0.4112  0.1962 -0.7496
  833MPD2    H512255   4.113   0.763  12.358 -1.3130  0.7426 -2.8533
  833MPD2    N112256   3.634   1.010  12.553 -0.0622  0.2262 -0.4100
  833MPD2    H712257   3.554   1.000  12.615 -0.1151 -0.7941 -0.6351
  834MPD2     C12258   3.964   0.190  11.804 -0.6282  0.3374  0.4573
  834MPD2    C112259   4.010   0.280  11.707 -0.1246  0.2170  0.0154
  834MPD2    C212260   4.028   0.415  11.738  0.1287  0.4829 -0.0483
  834MPD2    C312261   4.027   0.457  11.874  0.1212  0.8112 -0.6707
  834MPD2    C412262   3.995   0.362  11.970 -0.5844 -0.0981 -0.3371
  834MPD2    C512263   3.958   0.233  11.934  0.5675  0.2841 -0.4947
  834MPD2     H12264   4.050   0.495  11.668  0.7272  0.8218  0.5223
  834MPD2    H112265   3.987   0.383  12.076 -0.1144  0.7710 -0.4769
  834MPD2    H212266   3.958   0.084  11.781 -0.0585  0.1816  1.0126
  834MPD2    H312267   3.939   0.162  12.014 -0.2235  0.6543 -0.3615
  834MPD2     N12268   4.054   0.594  11.912 -0.1949  0.1820  0.2228
  834MPD2    H512269   4.090   0.657  11.841 -0.9375 -0.2071 -0.5002
  834MPD2    N112270   4.013   0.231  11.575 -0.3351 -0.2689  0.1585
  834MPD2    H712271   3.991   0.131  11.574  2.2936 -0.8615  1.4700
  835MPD2     C12272   4.275   3.415  10.489  0.0369  0.0523 -0.1187
  835MPD2    C112273   4.135   3.392  10.489 -0.7070  0.3485 -0.0686
  835MPD2    C212274   4.067   3.411  10.607 -0.0004  0.3312 -0.6362
  835MPD2    C312275   4.134   3.437  10.726  0.0339 -0.2278 -0.1788
  835MPD2    C412276   4.269   3.442  10.725 -0.2469  0.4646 -0.5028
  835MPD2    C512277   4.342   3.434  10.609 -0.1795 -0.1605 -0.4340
  835MPD2     H12278   3.960   3.394  10.607  0.0206  0.1962  0.3109
  835MPD2    H112279   4.326   3.454  10.816 -1.9256  1.7964  0.4027
  835MPD2    H212280   4.329   3.403  10.396 -2.0015 -1.2401 -1.1558
  835MPD2    H312281   4.450   3.431  10.620 -0.2978 -1.1823  0.4509
  835MPD2     N12282   4.069   3.430  10.852 -0.0955 -0.2265 -0.7483
  835MPD2    H512283   4.124   3.423  10.937  1.0735  0.1085 -1.4719
  835MPD2    N112284   4.067   3.352  10.373 -0.2323 -0.1924  0.5780
  835MPD2    H712285   3.966   3.362  10.383 -0.5691 -1.8151 -1.0813
  836MPD2     C12286   3.365   3.687  10.986 -0.2041 -0.7995  0.1974
  836MPD2    C112287   3.404   3.618  11.100  0.3134  0.6139 -0.2273
  836MPD2    C212288   3.318   3.576  11.198 -1.0707 -0.0647 -0.5630
  836MPD2    C312289   3.183   3.602  11.188  0.8054  0.4187  0.7219
  836MPD2    C412290   3.144   3.675  11.076 -0.1738  0.3625  0.3663
  836MPD2    C512291   3.231   3.717  10.978  0.5238  0.3436  0.3702
  836MPD2     H12292   3.360   3.536  11.290 -0.2791 -0.2100 -0.9908
  836MPD2    H112293   3.038   3.700  11.074 -0.5763 -1.6274 -2.4604
  836MPD2    H212294   3.437   3.725  10.914  2.9259 -3.6869  1.8099
  836MPD2    H312295   3.192   3.783  10.902 -0.4259 -0.6992 -0.0509
  836MPD2     N12296   3.088   3.576  11.290  0.1107  0.1896  0.3622
  836MPD2    H512297   2.995   3.616  11.281  0.4950  0.5945 -1.9164
  836MPD2    N112298   3.541   3.585  11.106  0.0496 -0.4007  0.0276
  836MPD2    H712299   3.582   3.608  11.017  1.6791  0.0803  0.9068
  837MPD2     C12300   2.040   3.225   9.892  1.1849  0.1747  0.0554
  837MPD2    C112301   2.080   3.243   9.762  0.1799  0.2442  0.2272
  837MPD2    C212302   2.080   3.368   9.706 -0.3083  0.0554  0.0935
  837MPD2    C312303   2.025   3.476   9.769 -0.2771  0.0034  0.1279
  837MPD2    C412304   1.980   3.454   9.901  0.2443 -0.4724 -0.2464
  837MPD2    C512305   1.998   3.335   9.963  0.5459 -0.2219  0.0890
  837MPD2     H12306   2.110   3.385   9.604 -0.1471 -2.0210 -0.2002
  837MPD2    H112307   1.951   3.534   9.968 -1.2508 -1.9423  0.8792
  837MPD2    H212308   2.037   3.130   9.945  1.9936 -1.2280 -2.4072
  837MPD2    H312309   1.961   3.328  10.065  3.0493 -0.7665  0.9507
  837MPD2     N12310   2.003   3.595   9.696  0.6947 -0.2786  0.5246
  837MPD2    H512311   2.024   3.579   9.598  0.5332  1.2797  0.2412
  837MPD2    N112312   2.097   3.140   9.668 -0.6493 -0.7253  0.4234
  837MPD2    H712313   2.136   3.163   9.577  0.8090  0.6681  1.4085
  838MPD2     C12314   0.038   1.106  11.401  0.4118  0.0470 -0.0126
  838MPD2    C112315   0.069   1.188  11.508 -0.8761  0.2666  1.1672
  838MPD2    C212316   0.011   1.159  11.628  0.0958  0.0527  0.3295
  838MPD2    C312317   4.644   1.051  11.646  0.6231  1.0273  0.0057
  838MPD2    C412318   4.621   0.973  11.539  0.4684  0.7189 -0.4132
  838MPD2    C512319   4.683   1.003  11.422 -0.1292  0.6483 -0.1130
  838MPD2     H12320   0.043   1.216  11.715  0.6713  0.9341 -0.4686
  838MPD2    H112321   4.560   0.883  11.542  0.7934  0.5037 -0.1621
  838MPD2    H212322   0.088   1.116  11.305  0.1193 -1.8130 -0.3529
  838MPD2    H312323   4.671   0.937  11.338  0.2441 -0.1400  0.4545
  838MPD2     N12324   4.586   1.030  11.768 -0.3783  0.1212  0.2374
  838MPD2    H512325   4.603   1.103  11.837  1.6385  1.0122 -1.2012
  838MPD2    N112326   0.160   1.294  11.507 -0.4914  0.3036 -0.2733
  838MPD2    H712327   0.199   1.334  11.592 -2.1201 -0.2856  0.7512
  839MPD2     C12328   0.206   1.026  11.949  0.9518  0.1419  0.2902
  839MPD2    C112329   0.276   0.997  11.830 -0.2336 -0.1507  0.3491
  839MPD2    C212330   0.359   1.093  11.780  0.2163 -0.0830 -0.8179
  839MPD2    C312331   0.355   1.224  11.840 -0.0637  0.0878 -0.3043
  839MPD2    C412332   0.287   1.253  11.955  0.0098 -0.5438 -0.5423
  839MPD2    C512333   0.221   1.152  12.014 -0.0273  0.3379  0.2578
  839MPD2     H12334   0.417   1.085  11.689  1.7298 -1.1952  0.2424
  839MPD2    H112335   0.284   1.357  11.983 -2.7039 -0.4045 -1.3703
  839MPD2    H212336   0.129   0.963  11.992  1.2116 -1.6676 -1.8984
  839MPD2    H312337   0.157   1.185  12.095 -1.0450  0.4614 -0.5980
  839MPD2     N12338   0.420   1.335  11.779 -0.6224 -0.3355  0.2422
  839MPD2    H512339   0.395   1.431  11.801  1.7332  0.9581 -2.7266
  839MPD2    N112340   0.254   0.875  11.754 -0.7181  0.1054 -0.1560
  839MPD2    H712341   0.305   0.859  11.668 -0.6038 -2.5764  0.4240
  840MPD2     C12342   1.036   3.945  10.140 -0.9177 -1.0560  0.6616
  840MPD2    C112343   0.991   3.894  10.267 -0.0795  0.3375 -0.7220
  840MPD2    C212344   1.059   3.940  10.374  0.2366 -0.4978  0.0364
  840MPD2    C312345   1.156   4.032  10.362  0.0562  1.5412 -0.4145
  840MPD2    C412346   1.212   4.073  10.250 -0.2097  0.9057 -0.4708
  840MPD2    C512347   1.149   4.026  10.142  0.7645 -0.0123  0.4887
  840MPD2     H12348   1.018   3.914  10.471  2.0677 -0.5836  0.7805
  840MPD2    H112349   1.305   4.128  10.247  0.8093 -0.9020 -2.0541
  840MPD2    H212350   0.990   3.926  10.043  0.1809  0.9388 -0.2424
  840MPD2    H312351   1.184   4.047  10.042  0.7663  0.9171  0.6870
  840MPD2     N12352   1.211   4.094  10.476  0.1227 -1.0835  0.6017
  840MPD2    H512353   1.296   4.145  10.453 -0.2377  0.3311  2.4479
  840MPD2    N112354   0.880   3.804  10.271 -0.6941 -0.2044 -1.0919
  840MPD2    H712355   0.847   3.778  10.179 -0.9219 -0.3009 -0.9818
  841MPD2     C12356   0.350   3.272  13.818 -0.1102 -0.2688  0.0980
  841MPD2    C112357   0.324   3.275  13.948  0.3331 -0.0502 -0.4339
  841MPD2    C212358   0.387   3.369  14.023  1.2014  0.0281 -0.1668
  841MPD2    C312359   0.497   3.436  13.966  0.3476 -0.0575 -0.0495
  841MPD2    C412360   0.521   3.426  13.834  1.1388  0.1860  0.1473
  841MPD2    C512361   0.441   3.351  13.759  0.2273 -0.2645  0.1977
  841MPD2     H12362   0.356   3.380  14.127 -0.0176  0.9449 -0.6308
  841MPD2    H112363   0.595   3.483  13.780 -0.2329  1.6935 -0.1443
  841MPD2    H212364   0.293   3.208  13.752 -0.8230  1.0437 -0.5558
  841MPD2    H312365   0.458   3.344  13.652  3.4797  0.2088  0.6872
  841MPD2     N12366   0.584   3.505  14.053 -0.2549 -0.5293 -0.3156
  841MPD2    H512367   0.573   3.490  14.153 -3.0450 -0.4083 -0.6097
  841MPD2    N112368   0.222   3.190  13.997 -0.7158  0.0477  0.0441
  841MPD2    H712369   0.170   3.143  13.924 -1.9049  1.7561 -0.2280
  842MPD2     C12370   1.090   0.045  16.528  0.4922  0.2411  0.0250
  842MPD2    C112371   0.996   4.675  16.582  0.7130 -0.4244  0.2179
  842MPD2    C212372   0.986   4.653  16.717  0.8798  0.5215 -0.3834
  842MPD2    C312373   1.076   4.713  16.804  0.1547  0.3457  0.1586
  842MPD2    C412374   1.160   0.090  16.749  0.3392 -0.8418 -0.3503
  842MPD2    C512375   1.171   0.112  16.616  0.3706 -0.4592 -0.7503
  842MPD2     H12376   0.919   4.576  16.753 -1.3944  2.0451 -1.3712
  842MPD2    H112377   1.231   0.155  16.799  2.3278 -1.9693 -1.7100
  842MPD2    H212378   1.104   0.054  16.420  0.5423  0.4211  0.0467
  842MPD2    H312379   1.252   0.173  16.579  1.3738 -1.0552  0.4574
  842MPD2     N12380   1.063   4.711  16.945  0.3393  0.2673 -0.1807
  842MPD2    H512381   1.111   0.058  17.004  0.4922  0.0145 -0.0164
  842MPD2    N112382   0.899   4.634  16.489  0.7835  0.0105 -0.0166
  842MPD2    H712383   0.907   4.657  16.391 -0.8203 -1.6634 -0.5315
  843MPD2     C12384   2.623   0.627  17.630 -0.3159  0.0223  0.6957
  843MPD2    C112385   2.675   0.507  17.665 -0.7758 -0.4679  0.4391
  843MPD2    C212386   2.798   0.504   0.045  0.0357  0.0994 -0.7502
  843MPD2    C312387   2.867   0.622   0.074  0.1663 -0.1214  0.1826
  843MPD2    C412388   2.813   0.742   0.024 -2.2729 -0.0515  0.5960
  843MPD2    C512389   2.696   0.742  17.641  0.3164 -0.5993  0.1155
  843MPD2     H12390   2.828   0.407   0.083 -0.2074  1.0905  1.9455
  843MPD2    H112391   2.866   0.834   0.045 -3.0822  0.4842  0.2972
  843MPD2    H212392   2.525   0.629  17.582  0.7447 -1.0696 -1.5115
  843MPD2    H312393   2.669   0.839  17.602  1.0199 -0.6421 -0.4490
  843MPD2     N12394   2.980   0.638   0.158  0.0867  0.4271  0.0097
  843MPD2    H512395   3.013   0.732   0.178 -0.2767  0.1917  1.7332
  843MPD2    N112396   2.608   0.385  17.652 -0.0701 -0.7028 -0.0329
  843MPD2    H712397   2.657   0.299  17.673 -0.5309 -0.9556 -0.0009
  844MPD2     C12398   1.252   3.723  16.468 -0.4424 -0.4449  0.6324
  844MPD2    C112399   1.380   3.702  16.424 -0.1120 -0.3862 -0.1497
  844MPD2    C212400   1.481   3.777  16.480 -0.6096 -0.3345  0.5353
  844MPD2    C312401   1.458   3.877  16.576 -0.0814  0.3482  0.2055
  844MPD2    C412402   1.327   3.902  16.612  0.0052 -0.9199  0.3268
  844MPD2    C512403   1.228   3.824  16.559 -0.3466  0.7374 -0.2835
  844MPD2     H12404   1.581   3.775  16.438 -0.7252 -3.1300  0.3750
  844MPD2    H112405   1.302   3.979  16.684 -0.9769  0.9945 -2.0806
  844MPD2    H212406   1.170   3.660  16.435 -0.1406 -1.5033  1.8969
  844MPD2    H312407   1.128   3.851  16.591 -0.4416  0.8599 -0.6789
  844MPD2     N12408   1.564   3.969  16.606  0.2142  0.1105 -0.3599
  844MPD2    H512409   1.660   3.942  16.587  1.0029  3.6896 -1.4583
  844MPD2    N112410   1.418   3.617  16.315 -0.0139 -0.5083 -0.2437
  844MPD2    H712411   1.516   3.594  16.312  0.3995  1.4313 -1.6943
  845MPD2     C12412   1.796   0.299  16.570  0.3012  0.9900  0.4847
  845MPD2    C112413   1.814   0.265  16.701 -0.3165  0.1129  0.1093
  845MPD2    C212414   1.816   0.127  16.726  0.1713  0.5591  0.2245
  845MPD2    C312415   1.813   0.029  16.623 -0.2284 -0.0295 -1.1192
  845MPD2    C412416   1.789   0.069  16.494  0.0493  0.8132  0.3179
  845MPD2    C512417   1.789   0.202  16.473  0.0812  0.7304 -0.0438
  845MPD2     H12418   1.822   0.093  16.829 -1.4243 -1.4380 -0.3467
  845MPD2    H112419   1.783   4.719  16.412 -1.9248  2.1461 -0.6710
  845MPD2    H212420   1.791   0.399  16.530 -1.7577  0.4034 -0.7488
  845MPD2    H312421   1.791   0.239  16.371 -0.9894  2.2164  0.4719
  845MPD2     N12422   1.805   4.613  16.661  0.1405 -0.1742 -0.2878
  845MPD2    H512423   1.848   4.596  16.751  1.0022  0.1966 -0.6324
  845MPD2    N112424   1.816   0.363  16.805  0.1087  0.2153  0.3733
  845MPD2    H712425   1.804   0.458  16.773  0.2124 -0.1125 -0.6441
  846MPD2     C12426   3.103   4.694  13.464 -0.0584 -0.1246  0.3535
  846MPD2    C112427   3.141   0.080  13.540  0.1360 -0.5811  0.5842
  846MPD2    C212428   3.149   0.067  13.676  0.2142 -0.4435 -0.1898
  846MPD2    C312429   3.124   4.676  13.746  0.1503 -0.4772 -0.0907
  846MPD2    C412430   3.070   4.571  13.670 -0.0629 -0.3922 -0.4517
  846MPD2    C512431   3.062   4.587  13.532 -0.0126  0.7877  1.3049
  846MPD2     H12432   3.179   0.153  13.734  2.9747 -0.9986 -0.8134
  846MPD2    H112433   3.030   4.484  13.720 -0.4960 -0.1649 -0.3978
  846MPD2    H212434   3.111   4.694  13.356 -0.0062 -0.3256  0.3574
  846MPD2    H312435   3.019   4.509  13.470  1.5673  0.7088  0.3161
  846MPD2     N12436   3.141   4.681  13.889 -0.0392  0.5315  0.7715
  846MPD2    H512437   3.185   0.041  13.932  0.4704  0.4966  0.3147
  846MPD2    N112438   3.177   0.201  13.481 -0.7768  0.1292 -0.4061
  846MPD2    H712439   3.188   0.286  13.536  0.3725  0.5361 -1.2490
  847MPD2     C12440   3.259   1.442  13.786  0.7738 -0.1190  0.8880
  847MPD2    C112441   3.340   1.547  13.832  0.2947  0.1730 -0.4388
  847MPD2    C212442   3.444   1.515  13.912  0.1645 -0.1579 -0.0675
  847MPD2    C312443   3.470   1.382  13.953 -0.7891  0.3405 -0.3264
  847MPD2    C412444   3.377   1.291  13.929 -0.2331 -0.4396  0.4948
  847MPD2    C512445   3.278   1.319  13.843  0.1792  0.5785  0.2965
  847MPD2     H12446   3.502   1.598  13.950 -0.5443 -0.3591  1.4718
  847MPD2    H112447   3.394   1.189  13.964  3.2629 -0.2971 -0.7549
  847MPD2    H212448   3.170   1.447  13.725  1.4729 -1.1176 -0.2171
  847MPD2    H312449   3.200   1.245  13.830 -0.9812  1.8872 -0.2314
  847MPD2     N12450   3.585   1.339  14.028 -0.1664 -0.0005 -0.0912
  847MPD2    H512451   3.585   1.245  14.067  0.2547  0.3862  0.8505
  847MPD2    N112452   3.323   1.682  13.791  0.2460 -0.4215  0.1643
  847MPD2    H712453   3.397   1.738  13.832  1.8008 -1.8327 -0.6610
  848MPD2     C12454   1.409   4.617  16.137 -0.4518  0.4241 -0.0707
  848MPD2    C112455   1.440   4.690  16.252  0.0770 -0.0825  0.1055
  848MPD2    C212456   1.452   0.111  16.247 -0.0023 -0.0728  0.3193
  848MPD2    C312457   1.446   0.180  16.126  0.0041 -0.8736  0.0122
  848MPD2    C412458   1.447   0.100  16.010  0.3901 -0.2322  0.5445
  848MPD2    C512459   1.428   4.685  16.022  0.1800  0.0349  0.4399
  848MPD2     H12460   1.456   0.167  16.339  0.9864  0.9376 -0.3366
  848MPD2    H112461   1.455   0.141  15.910 -0.2115 -3.0894 -0.6677
  848MPD2    H212462   1.390   4.511  16.138 -1.9752  0.6937 -0.6198
  848MPD2    H312463   1.413   4.629  15.931 -0.5459  0.3029  0.3976
  848MPD2     N12464   1.442   0.316  16.112 -0.2771  0.6342  0.5717
  848MPD2    H512465   1.426   0.356  16.020  0.0735 -2.9451 -1.0168
  848MPD2    N112466   1.411   4.644  16.380  0.9001  0.5018  0.7882
  848MPD2    H712467   1.433   4.706  16.458 -1.4191  1.4763  0.6433
  849MPD2     C12468   0.624   4.021  14.326 -1.0796  0.5008 -1.0031
  849MPD2    C112469   0.647   4.123  14.232 -1.2093 -0.2901 -0.3250
  849MPD2    C212470   0.723   4.232  14.272  0.1237  0.1731 -0.4635
  849MPD2    C312471   0.774   4.244  14.398  1.0449 -0.4818 -0.6274
  849MPD2    C412472   0.754   4.136  14.487 -0.3864  0.4703 -0.1887
  849MPD2    C512473   0.675   4.029  14.451 -0.1254 -1.1061 -0.2344
  849MPD2     H12474   0.735   4.322  14.213  2.9229  0.8952  1.1673
  849MPD2    H112475   0.799   4.137  14.585  0.6432  0.8664 -0.6588
  849MPD2    H212476   0.573   3.929  14.301 -1.1192  0.7414 -1.8290
  849MPD2    H312477   0.652   3.949  14.521  0.7323 -1.1348  0.0157
  849MPD2     N12478   0.858   4.361  14.429  0.0222  0.2913 -0.0056
  849MPD2    H512479   0.877   4.419  14.348 -0.1100 -0.3039 -0.4647
  849MPD2    N112480   0.592   4.121  14.100  0.3726  0.2194  0.0295
  849MPD2    H712481   0.621   4.202  14.046 -1.9044  0.0575 -1.4447
  850MPD2     C12482   3.931   2.001  14.882 -0.2023 -0.0917 -0.0344
  850MPD2    C112483   3.907   2.094  14.781  0.4116  0.6211  0.2579
  850MPD2    C212484   3.952   2.220  14.783 -0.0332  0.8478 -0.0568
  850MPD2    C312485   4.008   2.266  14.898  0.8465  0.7356 -0.2317
  850MPD2    C412486   4.019   2.183  15.007 -0.3398  0.0184  0.5304
  850MPD2    C512487   3.983   2.056  14.996 -0.5578  0.2623 -0.5210
  850MPD2     H12488   3.944   2.285  14.696  0.9382 -1.4288 -1.8695
  850MPD2    H112489   4.066   2.209  15.101  0.2552  0.4879  0.1010
  850MPD2    H212490   3.917   1.894  14.868  2.5068 -0.6612  1.5723
  850MPD2    H312491   4.005   2.000  15.086  2.5457  0.2008 -1.3201
  850MPD2     N12492   4.046   2.400  14.908 -0.5569 -0.0455 -0.5854
  850MPD2    H512493   4.060   2.437  15.002  0.3409 -0.3711 -0.5876
  850MPD2    N112494   3.833   2.044  14.667  0.4861 -0.2790  0.1947
  850MPD2    H712495   3.818   1.944  14.657 -0.6794  0.0701 -1.4941
  851MPD2     C12496   3.368   1.455  14.287 -0.1319 -0.4918 -0.8768
  851MPD2    C112497   3.431   1.509  14.398  0.3663 -0.6803  0.1418
  851MPD2    C212498   3.437   1.438  14.522 -0.4196 -0.4437  0.1539
  851MPD2    C312499   3.357   1.326  14.537  0.4360  0.7536  0.6478
  851MPD2    C412500   3.292   1.276  14.426 -0.4740 -0.0376  0.0365
  851MPD2    C512501   3.296   1.338  14.306 -0.2173  0.2176 -0.0265
  851MPD2     H12502   3.468   1.488  14.613  2.0185  0.0919 -0.9978
  851MPD2    H112503   3.232   1.185  14.421 -0.7916  0.1666  0.0883
  851MPD2    H212504   3.364   1.505  14.191  0.2780  1.0248 -0.1158
  851MPD2    H312505   3.238   1.291  14.228 -0.8574  1.9205 -0.5805
  851MPD2     N12506   3.340   1.287  14.671  0.4003  0.5567 -0.1282
  851MPD2    H512507   3.387   1.340  14.743 -2.6121  2.2553  0.6188
  851MPD2    N112508   3.495   1.632  14.375  0.5133 -0.0169 -0.1992
  851MPD2    H712509   3.492   1.669  14.281 -0.6966  0.5828  0.0749
  852MPD2     C12510   3.375   4.286   9.984  0.3559 -0.3058 -0.3438
  852MPD2    C112511   3.388   4.407  10.053 -0.6863 -0.6458  0.1367
  852MPD2    C212512   3.465   4.507   9.995 -0.3815 -0.4011  0.1084
  852MPD2    C312513   3.524   4.491   9.871 -0.5438 -0.1800  0.0042
  852MPD2    C412514   3.490   4.373   9.801  0.3894 -0.1063 -0.2131
  852MPD2    C512515   3.431   4.268   9.860  0.2846 -0.0509  0.2655
  852MPD2     H12516   3.495   4.591  10.056  0.5094 -0.7094  0.0870
  852MPD2    H112517   3.534   4.362   9.702 -0.6878  0.3066 -0.7389
  852MPD2    H212518   3.330   4.197  10.026  3.3665 -1.9735 -0.6338
  852MPD2    H312519   3.416   4.179   9.799  1.6037 -0.0495 -0.0414
  852MPD2     N12520   3.609   4.598   9.831 -0.3946 -0.4266 -0.2247
  852MPD2    H512521   3.627   4.669   9.901  0.6396  1.9908 -2.9144
  852MPD2    N112522   3.324   4.424  10.177  0.3949 -0.2368  0.6537
  852MPD2    H712523   3.342   4.510  10.228  1.1276  0.3893 -0.6453
  853MPD2     C12524   0.583   4.449  12.363 -0.5705  0.9130 -0.0735
  853MPD2    C112525   0.463   4.502  12.353  0.5916 -0.4641  0.3148
  853MPD2    C212526   0.399   4.502  12.227 -0.1071  0.4947 -0.4677
  853MPD2    C312527   0.459   4.436  12.119  0.5272  0.1246  0.4650
  853MPD2    C412528   0.582   4.374  12.132 -0.2683  0.6549 -0.0826
  853MPD2    C512529   0.641   4.385  12.253 -0.0995  0.9834 -0.2831
  853MPD2     H12530   0.307   4.558  12.215 -3.3141 -4.0522  3.0603
  853MPD2    H112531   0.632   4.321  12.052 -0.6255 -1.0066  0.7825
  853MPD2    H212532   0.633   4.479  12.455 -1.8873  1.6772  0.3929
  853MPD2    H312533   0.742   4.345  12.256 -1.0313 -1.1115  2.7878
  853MPD2     N12534   0.414   4.463  11.983  0.0010  0.3224  0.5334
  853MPD2    H512535   0.475   4.419  11.915 -2.2543 -0.0486 -1.2371
  853MPD2    N112536   0.406   4.558  12.474  0.5247  0.5022  0.4735
  853MPD2    H712537   0.457   4.542  12.560 -1.6689 -2.6487  1.1714
  854MPD2     C12538   1.223   4.627  12.530  0.9772 -0.0873 -0.5290
  854MPD2    C112539   1.294   4.710  12.604  0.0364 -0.0986 -0.1739
  854MPD2    C212540   1.410   4.656  12.664 -0.4086  0.2128 -0.1794
  854MPD2    C312541   1.456   4.526  12.645  0.4470 -0.1270 -0.6730
  854MPD2    C412542   1.392   4.455  12.552 -0.2797 -0.0733 -0.4578
  854MPD2    C512543   1.278   4.504  12.496 -0.2935  0.2171  0.0863
  854MPD2     H12544   1.471   4.718  12.728 -2.1626  1.4189  0.3255
  854MPD2    H112545   1.422   4.354  12.529  1.6453  0.6514 -1.1651
  854MPD2    H212546   1.141   4.658  12.466 -1.4144  1.0055  3.0781
  854MPD2    H312547   1.227   4.433  12.432 -0.7155 -0.8997  1.6512
  854MPD2     N12548   1.586   4.481  12.683  0.2819  0.0913 -0.2275
  854MPD2    H512549   1.620   4.395  12.642  1.9428  0.4932  0.2852
  854MPD2    N112550   1.254   0.124  12.604 -0.3358 -0.0501  0.4753
  854MPD2    H712551   1.167   0.145  12.556 -0.0952 -0.4369 -0.1418
  855MPD2     C12552   1.984   4.410  13.552 -1.0518 -0.4144 -0.1461
  855MPD2    C112553   2.095   4.360  13.481  0.5112  0.8178 -0.0029
  855MPD2    C212554   2.097   4.381  13.339  0.0317 -0.2991 -0.0430
  855MPD2    C312555   1.988   4.438  13.275 -0.0047 -0.4696  0.6486
  855MPD2    C412556   1.889   4.502  13.352  0.0712  0.6701 -0.0277
  855MPD2    C512557   1.883   4.483  13.487  0.6907  0.6174 -0.0081
  855MPD2     H12558   2.181   4.338  13.287  0.3059  1.2008 -0.8198
  855MPD2    H112559   1.809   4.560  13.308 -0.1411 -0.4494 -1.1252
  855MPD2    H212560   1.976   4.392  13.659 -0.0721  3.0503  0.5034
  855MPD2    H312561   1.797   4.517  13.544 -0.1798  0.4100 -1.1960
  855MPD2     N12562   1.968   4.443  13.136  0.0218  0.0696 -0.4335
  855MPD2    H512563   1.885   4.493  13.106 -0.0857  0.9394  1.2946
  855MPD2    N112564   2.201   4.290  13.544 -0.7072  0.0033 -0.3100
  855MPD2    H712565   2.272   4.245  13.487 -1.6275 -1.5902 -0.1903
  856MPD2     C12566   4.095   0.502  13.858 -0.0118 -0.0490  0.7042
  856MPD2    C112567   4.175   0.610  13.826 -0.7650  0.4087  0.3493
  856MPD2    C212568   4.121   0.738  13.804  0.1585  0.4158 -0.2462
  856MPD2    C312569   3.985   0.749  13.816  0.1766 -0.3155 -0.0467
  856MPD2    C412570   3.908   0.637  13.816  0.7739 -0.2368 -0.6440
  856MPD2    C512571   3.963   0.514  13.849 -0.3640  0.2684  0.4790
  856MPD2     H12572   4.186   0.824  13.790  1.3607 -0.2330  1.2698
  856MPD2    H112573   3.800   0.649  13.813  0.9812  1.6040 -1.2058
  856MPD2    H212574   4.135   0.414  13.908  1.0855  0.8207  1.3517
  856MPD2    H312575   3.899   0.426  13.850  0.9982 -0.7566 -1.2397
  856MPD2     N12576   3.926   0.876  13.829  0.2382 -0.0496  0.5510
  856MPD2    H512577   3.825   0.886  13.831  0.2562  0.1196  0.6630
  856MPD2    N112578   4.311   0.595  13.842 -0.2736  0.9914 -0.1734
  856MPD2    H712579   4.371   0.676  13.835 -0.5464  1.2537  0.5329
  857MPD2     C12580   1.148   3.139  12.558 -0.3056 -0.5425  0.2478
  857MPD2    C112581   1.154   3.072  12.677 -0.1805 -0.7192 -0.2042
  857MPD2    C212582   1.189   3.132  12.792  0.1390 -0.4437 -0.3424
  857MPD2    C312583   1.188   3.269  12.798  0.0252 -0.3974  0.0809
  857MPD2    C412584   1.165   3.336  12.684 -0.1300  0.1291  0.2992
  857MPD2    C512585   1.158   3.277  12.561 -0.3415  0.2759 -0.3930
  857MPD2     H12586   1.206   3.074  12.883 -1.7968 -0.0032  0.2963
  857MPD2    H112587   1.164   3.444  12.680 -0.4637  0.1162  0.0490
  857MPD2    H212588   1.133   3.090  12.462  0.9355 -0.9053  0.2378
  857MPD2    H312589   1.147   3.329  12.466 -1.2791  1.0130  0.1108
  857MPD2     N12590   1.202   3.329  12.922  0.1498 -0.6215  0.1485
  857MPD2    H512591   1.202   3.269  13.004 -2.7057  0.1481  0.7245
  857MPD2    N112592   1.163   2.923  12.660  0.3892  0.2782  0.2490
  857MPD2    H712593   1.149   2.886  12.567  0.7313  0.0968  0.2685
  858MPD2     C12594   1.616   2.227  16.416 -0.1720  0.2248 -0.4062
  858MPD2    C112595   1.733   2.163  16.466 -0.0464 -0.3759 -0.7114
  858MPD2    C212596   1.776   2.200  16.590  0.2997 -0.0144  0.5528
  858MPD2    C312597   1.715   2.294  16.665  0.0029  0.2792 -0.0410
  858MPD2    C412598   1.611   2.362  16.608 -0.4862 -0.2450 -0.9652
  858MPD2    C512599   1.561   2.327  16.489 -0.2659  0.4832  0.7556
  858MPD2     H12600   1.872   2.163  16.623  0.7627  0.2200 -0.5350
  858MPD2    H112601   1.555   2.439  16.658 -0.8591  0.7527 -2.8928
  858MPD2    H212602   1.576   2.205  16.318 -1.0686 -0.2900  0.0811
  858MPD2    H312603   1.469   2.370  16.451 -0.4647  0.7612  1.5650
  858MPD2     N12604   1.764   2.338  16.784  0.7943  0.3958 -0.6070
  858MPD2    H512605   1.716   2.420  16.821 -1.7151 -1.6327  0.6152
  858MPD2    N112606   1.794   2.052  16.401  0.5045 -0.7683 -0.0524
  858MPD2    H712607   1.867   1.998  16.447 -0.0045 -1.1882  0.2688
  859MPD2     C12608   0.562   3.652  15.611 -0.2000  0.0052 -0.0579
  859MPD2    C112609   0.560   3.661  15.476  0.3497  0.0257  0.1874
  859MPD2    C212610   0.610   3.561  15.404 -0.7399  0.3046  0.0793
  859MPD2    C312611   0.672   3.451  15.459  0.0565 -0.3128  0.6993
  859MPD2    C412612   0.673   3.442  15.593  0.0012 -0.4390  0.2448
  859MPD2    C512613   0.617   3.541  15.668 -0.3332  0.3865  0.2738
  859MPD2     H12614   0.600   3.564  15.296 -0.1580 -3.6770 -0.1015
  859MPD2    H112615   0.722   3.365  15.651 -0.5469  0.2905  1.6852
  859MPD2    H212616   0.504   3.722  15.671 -1.5420  1.2396 -2.7731
  859MPD2    H312617   0.610   3.539  15.776  0.5959 -1.9404  0.2953
  859MPD2     N12618   0.749   3.354  15.383 -0.1515  0.1557  0.0153
  859MPD2    H512619   0.790   3.274  15.431  0.1781  0.3425  0.0449
  859MPD2    N112620   0.505   3.781  15.421 -0.2590 -0.5742 -0.6658
  859MPD2    H712621   0.502   3.861  15.483 -2.9444 -2.0123  1.0667
  860MPD2     C12622   2.967   4.102  11.207  0.1750  0.1433  0.1527
  860MPD2    C112623   3.037   4.146  11.315 -0.5277 -0.0752  0.9575
  860MPD2    C212624   2.976   4.154  11.438 -0.3818  0.9519  0.2294
  860MPD2    C312625   2.843   4.111  11.453  0.2790  0.4318 -0.7788
  860MPD2    C412626   2.772   4.081  11.340  0.0274  0.4389 -0.5657
  860MPD2    C512627   2.831   4.078  11.216  0.0336 -0.5054  0.4055
  860MPD2     H12628   3.044   4.170  11.521  1.1048  1.2079 -1.0258
  860MPD2    H112629   2.665   4.069  11.349 -0.0660  0.4009 -1.7611
  860MPD2    H212630   3.011   4.075  11.112 -1.1392  0.1057 -0.4535
  860MPD2    H312631   2.773   4.038  11.133 -0.1509  0.8972 -0.1486
  860MPD2     N12632   2.797   4.118  11.584 -0.1828  0.0973  0.3549
  860MPD2    H512633   2.862   4.132  11.660 -0.5482  1.5959  0.3967
  860MPD2    N112634   3.179   4.164  11.306 -0.2223 -0.5286 -0.0687
  860MPD2    H712635   3.224   4.156  11.396 -0.7667  1.1320  0.3549
  861MPD2     C12636   1.970   2.667  10.823  0.9087 -0.2626  0.0546
  861MPD2    C112637   1.937   2.796  10.860 -0.2465 -0.1974  0.1002
  861MPD2    C212638   1.836   2.864  10.792 -0.4288  0.2880 -0.1200
  861MPD2    C312639   1.763   2.800  10.693 -0.1337 -1.0535 -0.0781
  861MPD2    C412640   1.789   2.672  10.665  0.3563 -0.2119 -0.3230
  861MPD2    C512641   1.895   2.609  10.727 -0.2888  0.7309  0.0977
  861MPD2     H12642   1.824   2.969  10.816  2.0735  0.5042  0.2129
  861MPD2    H112643   1.739   2.617  10.586  1.8027  0.9205 -2.0218
  861MPD2    H212644   2.055   2.619  10.870  0.5917  0.1018  1.0027
  861MPD2    H312645   1.920   2.510  10.690 -1.6928 -0.1005  1.4052
  861MPD2     N12646   1.648   2.863  10.623 -0.3858  0.1543 -0.2326
  861MPD2    H512647   1.587   2.816  10.556  1.3804 -1.0298 -0.9904
  861MPD2    N112648   1.999   2.858  10.977 -0.0789  0.1235 -0.4170
  861MPD2    H712649   1.996   2.958  10.997 -0.7870 -0.0452  0.3221
  862MPD2     C12650   1.370   3.092   9.959 -0.1385 -0.1391 -1.0307
  862MPD2    C112651   1.382   2.997  10.058  0.2006 -0.1074 -0.1873
  862MPD2    C212652   1.365   2.862  10.036 -1.2547 -0.9700  0.2572
  862MPD2    C312653   1.333   2.824   9.906 -0.0243  0.7684  0.4489
  862MPD2    C412654   1.334   2.915   9.802  0.7232 -0.1310  0.2854
  862MPD2    C512655   1.353   3.045   9.830  0.4598 -0.4431  0.3663
  862MPD2     H12656   1.370   2.783  10.110  1.9678 -0.9389  0.0620
  862MPD2    H112657   1.318   2.886   9.698  2.6511  0.6827 -0.2424
  862MPD2    H212658   1.371   3.200   9.966 -0.5977 -0.3130  1.6035
  862MPD2    H312659   1.344   3.125   9.757 -0.4020  0.2338  1.2164
  862MPD2     N12660   1.292   2.692   9.873  0.0994 -0.2440 -0.3897
  862MPD2    H512661   1.249   2.692   9.781  0.1028  0.7716 -0.3942
  862MPD2    N112662   1.422   3.027  10.190 -0.4427  0.2825  0.6313
  862MPD2    H712663   1.430   2.947  10.252  1.4939  0.9102  1.2011
  863MPD2     C12664   0.263   1.479  16.534 -0.3590 -0.0475  0.3346
  863MPD2    C112665   0.202   1.376  16.602  0.3573  0.8262  0.5456
  863MPD2    C212666   0.239   1.343  16.733  0.1793  0.5733  0.0832
  863MPD2    C312667   0.336   1.418  16.796  0.7055  0.4236  0.5083
  863MPD2    C412668   0.397   1.520  16.728 -0.6015 -0.7963  0.2652
  863MPD2    C512669   0.354   1.553  16.599 -0.5731 -0.6206  0.6526
  863MPD2     H12670   0.205   1.260  16.794 -1.2493  0.1791 -1.2400
  863MPD2    H112671   0.464   1.593  16.773  0.8240 -0.8609 -1.7420
  863MPD2    H212672   0.237   1.515  16.435  2.8607  3.3842  0.7574
  863MPD2    H312673   0.395   1.630  16.534 -0.3148 -0.6864  0.7374
  863MPD2     N12674   0.388   1.391  16.928 -0.3645  0.1643  0.2874
  863MPD2    H512675   0.477   1.433  16.956  1.0579 -2.7618  0.2160
  863MPD2    N112676   0.096   1.310  16.544 -0.0851  0.0217 -0.6603
  863MPD2    H712677   0.062   1.351  16.458 -1.2932  1.2405  0.3961
  864MPD2     C12678   0.183   2.223  16.470 -0.2300  0.1937  0.3530
  864MPD2    C112679   0.263   2.275  16.570  0.1115 -0.3758  0.0913
  864MPD2    C212680   0.350   2.377  16.530 -0.5925 -0.6033  0.5819
  864MPD2    C312681   0.353   2.440  16.413 -0.3826 -0.4977  0.2109
  864MPD2    C412682   0.250   2.399  16.324  0.7219 -0.0564 -0.2423
  864MPD2    C512683   0.170   2.290  16.352 -0.0480  0.6565  0.5177
  864MPD2     H12684   0.431   2.404  16.597 -0.3044  1.1085 -0.4683
  864MPD2    H112685   0.237   2.444  16.227 -2.6874  0.4749  0.4468
  864MPD2    H212686   0.117   2.138  16.480 -1.5077  0.7860 -3.0131
  864MPD2    H312687   0.101   2.247  16.280  0.6442 -1.7246  1.2834
  864MPD2     N12688   0.440   2.547  16.378  0.1514 -0.4497 -0.2827
  864MPD2    H512689   0.423   2.585  16.286 -0.1534  0.6522  0.2297
  864MPD2    N112690   0.288   2.209  16.686 -0.0110  0.5641 -0.1509
  864MPD2    H712691   0.264   2.111  16.701  0.3635  0.5268  0.2114
  865MPD2     C12692   0.859   2.660  15.744 -0.6221  0.1177  0.0585
  865MPD2    C112693   0.819   2.576  15.844  0.1570  0.2724  0.0959
  865MPD2    C212694   0.710   2.618  15.923 -0.1243 -0.2249 -0.3226
  865MPD2    C312695   0.669   2.747  15.918 -0.1137  0.2041  0.1099
  865MPD2    C412696   0.705   2.832  15.815  1.0624 -0.1051 -0.7026
  865MPD2    C512697   0.806   2.785  15.733 -0.1039 -0.3538  0.4481
  865MPD2     H12698   0.677   2.554  16.004 -1.4330  0.8162 -0.0381
  865MPD2    H112699   0.662   2.930  15.799 -0.2876 -0.3962  1.0942
  865MPD2    H212700   0.943   2.639  15.678 -0.6963  2.1686 -0.7182
  865MPD2    H312701   0.849   2.842  15.651 -1.9033 -0.2284 -0.4169
  865MPD2     N12702   0.585   2.788  16.028  0.1263 -0.4420 -0.3483
  865MPD2    H512703   0.561   2.711  16.089 -0.1627  0.5121  0.7485
  865MPD2    N112704   0.879   2.447  15.866 -0.4208 -0.3960 -0.7901
  865MPD2    H712705   0.959   2.433  15.805 -0.3424  0.2279 -0.8281
  866MPD2     C12706   2.689   3.363  10.482  0.8985  0.5311  0.5932
  866MPD2    C112707   2.660   3.283  10.590  0.1982 -0.0977  0.0035
  866MPD2    C212708   2.538   3.307  10.650 -0.1277 -0.4441 -0.0826
  866MPD2    C312709   2.439   3.391  10.600  0.3433 -0.1493 -0.2814
  866MPD2    C412710   2.470   3.473  10.493 -0.0992  0.1224  0.0971
  866MPD2    C512711   2.597   3.450  10.436 -1.0866  0.2649  0.6759
  866MPD2     H12712   2.519   3.247  10.738 -2.5701  1.2694  0.5545
  866MPD2    H112713   2.397   3.538  10.446  0.8071 -0.6415 -2.3956
  866MPD2    H212714   2.783   3.361  10.428  0.8107 -1.0216  0.4993
  866MPD2    H312715   2.635   3.496  10.346 -0.1843  0.4199  1.1408
  866MPD2     N12716   2.316   3.414  10.663 -0.7595 -0.2091  0.5374
  866MPD2    H512717   2.260   3.492  10.628  0.5376  0.5710  0.2147
  866MPD2    N112718   2.755   3.184  10.631 -0.3482 -0.1976  0.4844
  866MPD2    H712719   2.841   3.177  10.578 -0.9390 -3.1796 -0.1248
  867MPD2     C12720   4.100   2.385  16.154 -0.5103  0.2577  0.0243
  867MPD2    C112721   4.135   2.382  16.286  0.4580  0.1681  0.1399
  867MPD2    C212722   4.189   2.494  16.341 -0.5929 -0.0741 -0.3921
  867MPD2    C312723   4.229   2.600  16.262 -0.1076 -0.1043  0.1641
  867MPD2    C412724   4.183   2.612  16.133 -1.0542 -0.3558  0.7100
  867MPD2    C512725   4.115   2.498  16.075 -0.4381  0.0994  0.0052
  867MPD2     H12726   4.216   2.499  16.446  0.6196  0.6180 -0.7364
  867MPD2    H112727   4.220   2.692  16.071  0.9698 -1.5422  0.3802
  867MPD2    H212728   4.064   2.294  16.107  0.4036 -0.4142  0.6342
  867MPD2    H312729   4.079   2.508  15.973 -1.2453  1.8849  0.4588
  867MPD2     N12730   4.318   2.707  16.296  0.2769  0.5902 -0.1374
  867MPD2    H512731   4.322   2.785  16.232 -1.3723 -0.5261 -1.5895
  867MPD2    N112732   4.130   2.252  16.347  0.0344 -0.4715 -0.1668
  867MPD2    H712733   4.113   2.177  16.281  2.0562 -1.1492  0.0910
  868MPD2     C12734   1.396   1.361  13.153  0.4499  0.3199 -0.5685
  868MPD2    C112735   1.424   1.293  13.269 -0.5763 -1.1121 -1.1411
  868MPD2    C212736   1.329   1.300  13.371 -0.4097  0.2988  0.0455
  868MPD2    C312737   1.221   1.389  13.361  0.4995 -0.9159 -0.0079
  868MPD2    C412738   1.199   1.463  13.248 -0.6060 -0.3011  0.4561
  868MPD2    C512739   1.284   1.443  13.142  0.2694  0.2998  1.0904
  868MPD2     H12740   1.332   1.239  13.460 -1.4247 -0.2734 -0.3055
  868MPD2    H112741   1.113   1.528  13.243  0.2659  0.6997 -1.4361
  868MPD2    H212742   1.451   1.336  13.064  0.8067  0.4346 -0.3778
  868MPD2    H312743   1.261   1.482  13.044  1.8220  1.0907  1.0499
  868MPD2     N12744   1.137   1.391  13.468  0.7532  0.0021  0.4673
  868MPD2    H512745   1.152   1.327  13.546  2.7494 -0.7939 -0.5938
  868MPD2    N112746   1.548   1.226  13.282  0.2861 -0.0948  0.4779
  868MPD2    H712747   1.619   1.245  13.211 -0.3743  1.1035  0.1358
  869MPD2     C12748   3.471   4.573   1.363 -0.1545 -0.3188 -0.5088
  869MPD2    C112749   3.360   4.504   1.335 -0.3556  0.5856 -0.5959
  869MPD2    C212750   3.257   4.555   1.248 -0.2381 -0.4986  1.0259
  869MPD2    C312751   3.269   4.690   1.205  0.2314 -1.6904  0.4010
  869MPD2    C412752   3.390   0.037   1.231  0.6043 -0.3195  0.1220
  869MPD2    C512753   3.491   4.697   1.305 -0.9495  0.1930 -0.6245
  869MPD2     H12754   3.174   4.494   1.212 -0.4660  0.4707 -0.1097
  869MPD2    H112755   3.406   0.140   1.201 -2.1257 -0.1207 -0.7261
  869MPD2    H212756   3.553   4.542   1.427 -0.2835 -2.4226 -1.3682
  869MPD2    H312757   3.579   0.039   1.313  1.1732 -3.0007  1.4099
  869MPD2     N12758   3.174   0.040   1.126  0.4924 -0.1708 -0.0850
  869MPD2    H512759   3.198   0.137   1.109  0.8920 -0.5356 -1.5549
  869MPD2    N112760   3.367   4.381   1.393 -0.1271  0.0460 -0.4894
  869MPD2    H712761   3.454   4.358   1.440  0.6177  1.3634 -1.2007
  870MPD2     C12762   1.912   3.748   1.677  0.2767  0.2548 -0.5936
  870MPD2    C112763   2.048   3.724   1.653 -0.2645  0.0932  0.3743
  870MPD2    C212764   2.101   3.735   1.528  0.2024 -0.4046  0.0863
  870MPD2    C312765   2.018   3.772   1.426  0.0574  0.1747 -0.8480
  870MPD2    C412766   1.882   3.786   1.450  0.2590  0.3738  0.4835
  870MPD2    C512767   1.831   3.769   1.574  0.4960  0.1679  0.0929
  870MPD2     H12768   2.207   3.724   1.512 -0.2406 -0.1485 -2.9842
  870MPD2    H112769   1.816   3.802   1.365 -0.9162  0.6564  1.4600
  870MPD2    H212770   1.868   3.747   1.776 -0.8569  2.0195 -1.0863
  870MPD2    H312771   1.725   3.787   1.589  0.1624 -1.5213 -0.2789
  870MPD2     N12772   2.078   3.795   1.296  0.4290 -0.4236  0.1685
  870MPD2    H512773   2.177   3.775   1.292  0.3173 -1.1370  0.8550
  870MPD2    N112774   2.123   3.694   1.768 -0.0777  0.1950 -0.2018
  870MPD2    H712775   2.072   3.687   1.856  0.8344 -1.9313  0.1562
  871MPD2     C12776   3.501   2.321  16.341  0.6205  0.1003  1.1845
  871MPD2    C112777   3.498   2.293  16.474  0.8615  0.1616 -1.0080
  871MPD2    C212778   3.558   2.178  16.514  0.2210  0.0255 -0.1815
  871MPD2    C312779   3.620   2.095  16.423 -0.5164 -1.4357  0.0522
  871MPD2    C412780   3.621   2.125  16.286  0.3233 -0.7874  0.0624
  871MPD2    C512781   3.556   2.242  16.248  0.2986  0.2557 -0.0416
  871MPD2     H12782   3.567   2.150  16.619  1.8035 -1.4099 -0.7065
  871MPD2    H112783   3.670   2.066  16.209 -0.5705 -0.7337 -0.5425
  871MPD2    H212784   3.459   2.415  16.307 -0.4002 -0.4607  0.9000
  871MPD2    H312785   3.549   2.253  16.140 -2.1398 -3.5756 -0.2765
  871MPD2     N12786   3.686   1.972  16.468  0.5132 -0.7235  0.0172
  871MPD2    H512787   3.679   1.958  16.568  0.6453  1.2969  0.3075
  871MPD2    N112788   3.460   2.397  16.564 -0.3594 -0.0108 -0.6960
  871MPD2    H712789   3.407   2.473  16.522  0.8814  0.0582 -2.1473
  872MPD2     C12790   4.400   4.403  14.101  0.0402  0.1138 -0.3368
  872MPD2    C112791   4.353   4.475  13.996  0.5699 -0.4666  0.9197
  872MPD2    C212792   4.216   4.489  13.971 -0.1303  0.1277  0.0951
  872MPD2    C312793   4.130   4.419  14.047  0.8547 -0.0279 -0.3055
  872MPD2    C412794   4.173   4.338  14.145  0.5508 -0.5975 -0.3259
  872MPD2    C512795   4.309   4.321  14.162 -0.0967 -0.3061  0.2711
  872MPD2     H12796   4.198   4.563  13.893  2.3328 -0.6374 -1.2217
  872MPD2    H112797   4.104   4.289  14.213 -1.7210 -0.3005 -2.4044
  872MPD2    H212798   4.502   4.402  14.136  0.6911  0.4332 -2.1971
  872MPD2    H312799   4.347   4.253  14.237 -1.4467 -1.5662 -0.1833
  872MPD2     N12800   3.992   4.449  14.040  0.2692 -0.1042 -0.4503
  872MPD2    H512801   3.931   4.393  14.099 -0.2277 -0.9406 -1.7767
  872MPD2    N112802   4.442   4.552  13.906  0.1488  0.2155 -0.1757
  872MPD2    H712803   4.389   4.606  13.838 -0.6567  0.1896  0.4290
  873MPD2     C12804   2.702   0.145   1.312 -0.1548  0.1866  0.3362
  873MPD2    C112805   2.598   0.183   1.228  0.1258 -0.0047  0.6502
  873MPD2    C212806   2.552   0.084   1.133 -0.5611 -0.0289  0.3422
  873MPD2    C312807   2.610   4.676   1.117  0.1268  0.3065  0.1436
  873MPD2    C412808   2.725   4.651   1.193 -0.6991  0.2025  0.2760
  873MPD2    C512809   2.767   0.023   1.291  0.4146  0.4050 -0.0199
  873MPD2     H12810   2.464   0.110   1.073  0.2497  2.0477  0.0317
  873MPD2    H112811   2.775   4.556   1.176 -0.1003  0.2781  1.6174
  873MPD2    H212812   2.734   0.217   1.387 -2.0358  2.5304 -1.1090
  873MPD2    H312813   2.852   0.001   1.355  0.0469 -1.8117 -0.3075
  873MPD2     N12814   2.558   4.572   1.034 -0.9529  0.4637 -0.3495
  873MPD2    H512815   2.616   4.489   1.040 -0.3650  1.0034  1.6821
  873MPD2    N112816   2.523   0.297   1.262 -0.3386 -0.4099 -0.3005
  873MPD2    H712817   2.560   0.353   1.338  0.5238 -0.2309 -0.8505
  874MPD2     C12818   0.658   0.401  15.938 -0.4876  0.4330 -0.6657
  874MPD2    C112819   0.730   0.338  16.039  0.1549  0.3751  0.1664
  874MPD2    C212820   0.850   0.389  16.076  0.0122  0.4156 -0.0074
  874MPD2    C312821   0.901   0.497  16.016 -0.3088  0.3217  0.9669
  874MPD2    C412822   0.833   0.561  15.918 -0.1572 -0.0380  0.2493
  874MPD2    C512823   0.705   0.516  15.883 -0.1564 -0.3345 -0.2411
  874MPD2     H12824   0.907   0.343  16.156 -0.2988  1.5032  0.8491
  874MPD2    H112825   0.856   0.654  15.866 -0.6514 -0.2368 -0.3299
  874MPD2    H212826   0.559   0.365  15.912  0.4292 -3.4927  1.3776
  874MPD2    H312827   0.653   0.578  15.811  1.8909 -0.9015 -2.2143
  874MPD2     N12828   1.033   0.541  16.047  0.0671 -0.8768  0.3459
  874MPD2    H512829   1.072   0.495  16.129  2.1827  0.1522 -0.0632
  874MPD2    N112830   0.669   0.221  16.097  0.3199  0.3373  0.4941
  874MPD2    H712831   0.575   0.195  16.071  0.7524  1.6639 -2.3919
  875MPD2     C12832   1.901   3.462  14.438  0.2622 -0.0050 -0.3264
  875MPD2    C112833   1.781   3.435  14.496  0.0746  0.2376  0.2910
  875MPD2    C212834   1.765   3.460  14.634  0.6675  1.1867 -0.1188
  875MPD2    C312835   1.886   3.486  14.709 -0.0555  0.4398 -0.2372
  875MPD2    C412836   2.003   3.505  14.645  0.5419  0.6853 -0.5593
  875MPD2    C512837   2.012   3.496  14.509 -0.2297 -0.4848  0.4583
  875MPD2     H12838   1.669   3.452  14.682  1.2117 -0.7685  0.6171
  875MPD2    H112839   2.096   3.535  14.694 -0.6829  1.4166  1.3293
  875MPD2    H212840   1.908   3.456  14.330  1.0122 -0.9372 -0.2319
  875MPD2    H312841   2.109   3.520  14.467 -0.3350  2.7827  2.0251
  875MPD2     N12842   1.893   3.501  14.849  0.5206 -0.5123 -0.6003
  875MPD2    H512843   1.986   3.527  14.882  0.4097  0.2853 -0.9227
  875MPD2    N112844   1.671   3.385  14.419  0.1203 -0.1800 -0.4750
  875MPD2    H712845   1.586   3.362  14.470  0.2651  0.7560  0.1780
  876MPD2     C12846   1.067   4.228  16.288 -0.4413  0.1206 -0.3900
  876MPD2    C112847   0.992   4.236  16.179 -0.6083 -0.1606  0.4235
  876MPD2    C212848   0.958   4.112  16.110  0.6105  0.2232 -0.3558
  876MPD2    C312849   1.012   3.986  16.161  0.0607  0.0954  0.3740
  876MPD2    C412850   1.086   3.987  16.274 -0.0364  0.1152 -0.2017
  876MPD2    C512851   1.115   4.106  16.337 -0.4069  0.1373 -0.1071
  876MPD2     H12852   0.902   4.114  16.018  0.6391 -0.8665 -0.3938
  876MPD2    H112853   1.129   3.894  16.310  1.0916 -0.6579 -3.5544
  876MPD2    H212854   1.093   4.320  16.339 -0.8069 -0.7059  1.2867
  876MPD2    H312855   1.177   4.096  16.424 -0.3791  1.0678 -0.0198
  876MPD2     N12856   1.015   3.860  16.092  0.4836  0.2698  0.3198
  876MPD2    H512857   1.065   3.786  16.140 -0.6289  0.4526  1.7808
  876MPD2    N112858   0.949   4.365  16.139 -0.0810  0.5602 -0.4933
  876MPD2    H712859   1.003   4.438  16.184 -0.0676 -0.2937  0.8450
  877MPD2     C12860   1.245   0.180  15.688 -0.3352 -0.5960  0.6024
  877MPD2    C112861   1.118   0.145  15.645  0.2683  0.4178 -0.5356
  877MPD2    C212862   1.084   0.166  15.517 -0.0823  0.1447 -0.5616
  877MPD2    C312863   1.185   0.209  15.426 -0.2629 -0.3296  0.2479
  877MPD2    C412864   1.304   0.256  15.470 -0.1186 -0.2747  0.0345
  877MPD2    C512865   1.335   0.244  15.604 -0.1929  0.6907  0.1554
  877MPD2     H12866   0.982   0.149  15.484 -0.2844  0.6287 -0.1818
  877MPD2    H112867   1.381   0.284  15.399 -0.4576  0.8291  0.1071
  877MPD2    H212868   1.262   0.161  15.793 -0.9842 -2.0986  0.4373
  877MPD2    H312869   1.429   0.282  15.642 -0.9356  2.0865  0.6063
  877MPD2     N12870   1.158   0.226  15.285 -0.1307  0.2412 -0.0136
  877MPD2    H512871   1.229   0.274  15.230  0.8072  0.5878  1.4905
  877MPD2    N112872   1.022   0.091  15.733  0.0764  0.4215  0.2760
  877MPD2    H712873   0.943   0.049  15.686  1.2814 -1.1082 -0.4030
  878MPD2     C12874   0.919   3.831  13.133  0.2312 -0.6488 -0.0702
  878MPD2    C112875   0.931   3.965  13.154  0.2368  0.1396 -0.3594
  878MPD2    C212876   0.897   4.020  13.275  0.7480 -0.0994  0.6521
  878MPD2    C312877   0.831   3.947  13.374 -0.3196  0.5810  0.0391
  878MPD2    C412878   0.807   3.810  13.340 -0.2553  0.1351 -0.2081
  878MPD2    C512879   0.864   3.749  13.228 -0.1606 -0.6044  0.1979
  878MPD2     H12880   0.926   4.120  13.305 -1.0769  0.4459  0.6155
  878MPD2    H112881   0.782   3.744  13.422 -2.7990  0.5208 -0.6673
  878MPD2    H212882   0.970   3.784  13.049 -0.7044 -1.9039  0.0569
  878MPD2    H312883   0.855   3.642  13.214 -3.4415 -0.5242  1.5450
  878MPD2     N12884   0.798   4.004  13.500 -0.3505  0.4280 -0.2266
  878MPD2    H512885   0.811   4.104  13.508  0.9319  0.1800  0.9336
  878MPD2    N112886   0.990   4.031  13.048 -0.0610 -0.2150 -0.2247
  878MPD2    H712887   1.004   3.984  12.959 -2.1977 -0.7504 -0.2787
  879MPD2     C12888   0.852   1.468  16.971  0.0846 -0.7395  0.0691
  879MPD2    C112889   0.914   1.354  17.021  0.1746 -0.0833  0.1745
  879MPD2    C212890   0.871   1.233  16.969 -0.5379 -0.6779 -0.0476
  879MPD2    C312891   0.769   1.225  16.868  1.1492  0.2063 -0.1491
  879MPD2    C412892   0.706   1.336  16.820  0.1380 -0.3890  0.0289
  879MPD2    C512893   0.756   1.456  16.867  0.3346 -0.1793  0.7409
  879MPD2     H12894   0.920   1.139  16.991  0.0727 -0.1784  0.7720
  879MPD2    H112895   0.616   1.339  16.760  0.2258 -2.9026 -0.2427
  879MPD2    H212896   0.875   1.572  16.989  0.9279 -0.6146 -1.7202
  879MPD2    H312897   0.705   1.546  16.835 -1.1760 -0.2885  2.8873
  879MPD2     N12898   0.720   1.103  16.816 -0.2042  0.4234 -0.1723
  879MPD2    H512899   0.656   1.110  16.737  0.9698  0.9619 -1.0894
  879MPD2    N112900   1.021   1.368  17.114 -0.5478 -0.2198 -0.4023
  879MPD2    H712901   1.047   1.459  17.149 -3.3060  0.6480 -0.5653
  880MPD2     C12902   3.314   2.777   0.507  0.3692  0.2042 -0.5541
  880MPD2    C112903   3.201   2.757   0.587 -0.3747 -0.2465 -0.6255
  880MPD2    C212904   3.174   2.628   0.644 -0.3282  0.2804  0.8413
  880MPD2    C312905   3.267   2.528   0.614  0.0644  0.0002 -0.5573
  880MPD2    C412906   3.375   2.557   0.534 -0.6082  0.7242  0.1672
  880MPD2    C512907   3.407   2.681   0.482 -0.0166  0.2134  0.2144
  880MPD2     H12908   3.087   2.604   0.704  0.6296  0.7098  2.4197
  880MPD2    H112909   3.461   2.491   0.531  0.8206  2.3779  3.5305
  880MPD2    H212910   3.325   2.878   0.469 -0.8826 -0.0589 -1.6243
  880MPD2    H312911   3.493   2.706   0.422  1.1711  0.4155  2.0161
  880MPD2     N12912   3.242   2.401   0.672 -0.0900  0.1217  0.2475
  880MPD2    H512913   3.159   2.387   0.728 -0.3141  0.0105 -0.1143
  880MPD2    N112914   3.119   2.859   0.621 -0.0928  0.2208  0.3265
  880MPD2    H712915   3.142   2.947   0.576 -0.8738 -0.4005 -1.3152
  881MPD2     C12916   2.626   2.696  17.626  0.4986 -0.7911  0.5686
  881MPD2    C112917   2.634   2.834  17.630 -0.3052 -0.0164  0.4336
  881MPD2    C212918   2.695   2.890   0.053  0.3003  0.0457 -0.0026
  881MPD2    C312919   2.713   2.825   0.169  0.1695 -0.2882  0.2645
  881MPD2    C412920   2.700   2.690   0.161  0.3679 -0.3617 -0.0520
  881MPD2    C512921   2.639   2.625   0.056  0.5034 -0.2730  0.5724
  881MPD2     H12922   2.736   2.990   0.045  0.7674  0.0258  2.2262
  881MPD2    H112923   2.736   2.629   0.242  0.5956 -0.9214 -0.5738
  881MPD2    H212924   2.571   2.649  17.546 -0.2870  0.3880  0.4168
  881MPD2    H312925   2.617   2.519   0.063  1.2081 -0.4867 -0.4532
  881MPD2     N12926   2.762   2.883   0.284  0.4569 -0.0313 -0.0498
  881MPD2    H512927   2.774   2.819   0.362  1.4465  1.6686  1.1811
  881MPD2    N112928   2.641   2.886  17.498 -0.3302  0.0657  0.1490
  881MPD2    H712929   2.627   2.820  17.422  0.4545 -0.0292  0.0824
  882MPD2     C12930   0.661   4.553  14.859  0.1126  0.5005 -0.6916
  882MPD2    C112931   0.662   4.684  14.807  0.6253  0.1133  0.5766
  882MPD2    C212932   0.594   4.709  14.684  0.4075  0.1730 -0.6381
  882MPD2    C312933   0.535   4.607  14.619  0.0474 -0.7382  0.0275
  882MPD2    C412934   0.526   4.483  14.679 -0.4000  0.0298  0.0805
  882MPD2    C512935   0.598   4.448  14.788  0.1784  0.5132 -0.1833
  882MPD2     H12936   0.590   0.088  14.641  0.1131  0.6518  0.4797
  882MPD2    H112937   0.484   4.398  14.627  0.4709  0.2926 -1.0427
  882MPD2    H212938   0.718   4.533  14.948  0.7709  1.4100 -0.9052
  882MPD2    H312939   0.592   4.347  14.827 -1.3581  0.0065 -1.7069
  882MPD2     N12940   0.488   4.610  14.487 -0.5302  0.2069  0.0856
  882MPD2    H512941   0.444   4.526  14.450  0.5751 -0.4907  0.3541
  882MPD2    N112942   0.743   0.064  14.874  0.5272  0.4153  0.0797
  882MPD2    H712943   0.797   0.038  14.955 -0.7723 -0.8618  0.5300
  883MPD2     C12944   3.009   4.519  16.426  0.2842  0.1731 -0.3337
  883MPD2    C112945   3.060   4.589  16.314 -0.1240  0.2626 -0.5884
  883MPD2    C212946   3.168   4.673  16.327  0.1904 -0.2927  0.2076
  883MPD2    C312947   3.227   4.681  16.455 -0.9233  0.2851  0.2505
  883MPD2    C412948   3.178   4.608  16.560 -0.2986 -0.5082 -0.1354
  883MPD2    C512949   3.071   4.528  16.545  0.3537  0.2015  0.7507
  883MPD2     H12950   3.195   0.027  16.253  2.8700 -2.4305 -0.9934
  883MPD2    H112951   3.221   4.614  16.659 -0.6227  0.9073 -0.0812
  883MPD2    H212952   2.926   4.450  16.422  0.3952 -0.1613  3.3241
  883MPD2    H312953   3.043   4.471  16.632  0.4552  1.6208  1.7154
  883MPD2     N12954   3.352   0.020  16.467 -0.2253  0.3656 -0.5816
  883MPD2    H512955   3.394   0.070  16.389  0.7789 -0.0499 -0.3086
  883MPD2    N112956   2.992   4.575  16.191 -0.7006  0.3258  0.1941
  883MPD2    H712957   3.059   4.575  16.115 -0.5810  3.3050  0.3261
  884MPD2     C12958   0.026   0.529  15.113  0.2907 -0.1762  0.6986
  884MPD2    C112959   0.020   0.563  14.978  0.3307  0.4793 -0.2848
  884MPD2    C212960   4.637   0.645  14.939  0.3969 -0.1437 -0.1683
  884MPD2    C312961   4.543   0.689  15.029  0.3077  0.0155  1.4029
  884MPD2    C412962   4.544   0.656  15.161 -0.7705 -0.0660 -0.0787
  884MPD2    C512963   4.653   0.580  15.201  0.2113 -0.0820  0.2893
  884MPD2     H12964   4.629   0.685  14.838 -0.2995  1.4545  0.5250
  884MPD2    H112965   4.469   0.676  15.237  0.5092 -0.5668  1.3118
  884MPD2    H212966   0.110   0.466  15.140  1.0698  0.9640  0.9231
  884MPD2    H312967   4.648   0.550  15.305  1.2787 -0.9391  0.0943
  884MPD2     N12968   4.433   0.766  14.977  0.0366 -0.5558  0.2372
  884MPD2    H512969   4.428   0.780  14.877  1.5428 -1.2755  0.0533
  884MPD2    N112970   0.123   0.550  14.883  0.1138  0.1545 -0.1705
  884MPD2    H712971   0.107   0.546  14.783 -3.7830  1.3973  0.4174
  885MPD2     C12972   2.999   1.343   0.324 -0.0339  0.1579  0.0438
  885MPD2    C112973   3.018   1.220   0.269 -0.7942  0.2770 -0.3381
  885MPD2    C212974   3.019   1.209   0.127 -0.2712 -0.4890  0.5585
  885MPD2    C312975   3.008   1.323   0.047 -0.6650 -0.3132 -0.3760
  885MPD2    C412976   2.976   1.439   0.099 -0.5812 -0.8732  0.1114
  885MPD2    C512977   2.987   1.451   0.236  0.1089 -0.4828  0.1937
  885MPD2     H12978   3.019   1.117   0.069 -3.9761  0.3873 -0.8835
  885MPD2    H112979   2.965   1.531   0.043  0.4583 -1.9559 -1.8680
  885MPD2    H212980   3.001   1.368   0.429 -1.1453  1.3976 -0.2358
  885MPD2    H312981   2.979   1.548   0.283 -0.3250 -1.1098  1.3928
  885MPD2     N12982   3.005   1.299  17.589  0.2076 -0.5309 -0.0009
  885MPD2    H512983   3.014   1.205  17.552  0.6047 -0.3122 -0.4698
  885MPD2    N112984   3.024   1.114   0.365 -0.4792 -0.2300  0.7593
  885MPD2    H712985   3.034   1.144   0.462  1.9944  0.6116  0.2428
  886MPD2     C12986   4.379   4.587  15.593 -0.8146  0.6380  0.0690
  886MPD2    C112987   4.435   4.488  15.504  0.1019  0.4791  0.3624
  886MPD2    C212988   4.409   4.492  15.371 -0.3788  0.3743  0.5733
  886MPD2    C312989   4.319   4.584  15.324  0.0351 -0.7870  0.6532
  886MPD2    C412990   4.255   4.679  15.413 -0.1439  0.2227 -0.0689
  886MPD2    C512991   4.286   4.683  15.544 -0.0538 -1.1183 -0.0066
  886MPD2     H12992   4.467   4.426  15.308 -0.0100  2.7870 -1.6321
  886MPD2    H112993   4.180   0.028  15.377 -0.9224 -0.9854 -0.8168
  886MPD2    H212994   4.399   4.589  15.699 -1.8079 -2.1098  0.2946
  886MPD2    H312995   4.254   0.043  15.608  0.7155 -1.2831  0.5855
  886MPD2     N12996   4.313   4.597  15.182 -0.2184  0.0828  0.4557
  886MPD2    H512997   4.383   4.543  15.133  0.6716  1.9261 -0.3170
  886MPD2    N112998   4.532   4.400  15.544  0.9554 -0.4354  0.3806
  886MPD2    H712999   4.572   4.338  15.474 -0.0688 -1.6531  0.8785
  887MPD2     C13000   0.296   4.534  15.129 -0.2155  0.4087 -0.4456
  887MPD2    C113001   0.277   4.580  15.257  0.1368 -0.5110 -0.2849
  887MPD2    C213002   0.302   4.713  15.289 -0.4161  0.6413  0.5059
  887MPD2    C313003   0.363   0.079  15.198 -0.6888  0.6392  0.1256
  887MPD2    C413004   0.401   0.020  15.077  0.4304  0.2429  0.2012
  887MPD2    C513005   0.361   4.616  15.038  0.6983  0.3841 -0.1842
  887MPD2     H13006   0.268   0.037  15.382  0.5727  0.6016  0.8922
  887MPD2    H113007   0.467   0.077  15.012 -1.4285  0.0826 -1.8362
  887MPD2    H213008   0.252   4.439  15.101 -1.2649  0.1799  1.9796
  887MPD2    H313009   0.370   4.570  14.940  1.2051  0.7056 -0.2854
  887MPD2     N13010   0.388   0.216  15.237  0.4355  0.7994  0.5997
  887MPD2    H513011   0.342   0.234  15.326 -0.4465  3.1691 -0.3351
  887MPD2    N113012   0.216   4.494  15.351 -0.5903  0.0847  0.7873
  887MPD2    H713013   0.219   4.529  15.446 -2.3113 -1.9493  1.5904
  888MPD2     C13014   1.763   4.337  14.648  0.8747  0.5410  0.4386
  888MPD2    C113015   1.763   4.356  14.782  0.1207 -0.2930 -0.4530
  888MPD2    C213016   1.854   4.450  14.839  0.5525  0.1645 -0.9144
  888MPD2    C313017   1.933   4.527  14.756  0.6390 -0.3358 -0.2028
  888MPD2    C413018   1.929   4.499  14.622  1.2411 -1.0565  0.1631
  888MPD2    C513019   1.853   4.407  14.565  0.5517 -0.7651  0.5657
  888MPD2     H13020   1.838   4.467  14.945 -1.9465 -2.0365 -0.9562
  888MPD2    H113021   1.989   4.561  14.556  1.0038 -0.3840  0.5784
  888MPD2    H213022   1.707   4.258  14.599  0.1099  1.6220 -0.4352
  888MPD2    H313023   1.855   4.388  14.458  0.3605 -0.7737  0.5641
  888MPD2     N13024   1.992   4.639  14.808  0.2772  0.0266  0.1784
  888MPD2    H513025   1.978   4.645  14.909 -0.0513  2.2669  0.0111
  888MPD2    N113026   1.677   4.288  14.866  0.1192 -0.3273  0.0413
  888MPD2    H713027   1.669   4.313  14.964 -0.2600 -2.7553  0.6146
  889MPD2     C13028   1.358   4.072  12.947  0.9394  0.2818 -0.3677
  889MPD2    C113029   1.354   4.036  13.079 -0.2572 -0.4138 -0.0399
  889MPD2    C213030   1.333   4.138  13.169 -0.0912  0.9574  0.1121
  889MPD2    C313031   1.328   4.269  13.132 -0.5659 -0.3847  0.0897
  889MPD2    C413032   1.339   4.302  12.992  0.2256  0.1680  0.7998
  889MPD2    C513033   1.350   4.202  12.899  1.0465 -0.1296 -0.3862
  889MPD2     H13034   1.334   4.108  13.273 -1.2325 -0.9408 -0.4356
  889MPD2    H113035   1.343   4.403  12.955 -2.7405 -1.1987 -3.3313
  889MPD2    H213036   1.358   3.995  12.870  1.8941 -0.4013  0.3174
  889MPD2    H313037   1.353   4.217  12.792  1.3701  1.1476 -0.1943
  889MPD2     N13038   1.324   4.370  13.230 -0.2336  0.6506  0.2628
  889MPD2    H513039   1.327   4.341  13.327  2.2173 -1.4098 -0.4462
  889MPD2    N113040   1.319   3.900  13.103  0.1018  0.6892 -0.0361
  889MPD2    H713041   1.326   3.836  13.024  0.2308  2.5968 -1.5789
  890MPD2     C13042   1.313   1.042  14.369  0.1709  0.2608 -0.0360
  890MPD2    C113043   1.237   1.112  14.468  0.6038  0.0880 -0.5099
  890MPD2    C213044   1.248   1.057  14.599  0.2851  0.4852  0.0984
  890MPD2    C313045   1.322   0.947  14.630 -0.0030  0.4445  0.0101
  890MPD2    C413046   1.376   0.876  14.527  0.4103 -0.0447  0.1750
  890MPD2    C513047   1.377   0.925  14.400  0.2997  0.3865 -1.1403
  890MPD2     H13048   1.216   1.112  14.687 -1.8907 -0.9980  0.2473
  890MPD2    H113049   1.435   0.785  14.537 -0.5981 -0.7450 -0.2012
  890MPD2    H213050   1.316   1.083  14.269  2.2087  0.4594  0.1024
  890MPD2    H313051   1.429   0.877  14.318 -0.2573  0.1808 -1.3744
  890MPD2     N13052   1.360   0.929  14.759 -0.6431  0.1374  0.1418
  890MPD2    H513053   1.342   1.005  14.823  0.5713 -0.0184  0.6669
  890MPD2    N113054   1.176   1.234  14.439 -0.0667 -0.1504 -0.4180
  890MPD2    H713055   1.204   1.276  14.351 -1.3840 -0.1007 -0.8183
  891MPD2     C13056   3.517   3.665  16.670  0.3430  0.4542  0.0398
  891MPD2    C113057   3.466   3.756  16.763  0.3977  0.8592 -0.1062
  891MPD2    C213058   3.535   3.787  16.878 -0.0889  0.3698 -0.2428
  891MPD2    C313059   3.656   3.727  16.903 -0.1877  0.1531 -0.7584
  891MPD2    C413060   3.707   3.634  16.814 -0.0957  0.4279  0.3230
  891MPD2    C513061   3.638   3.611  16.702  0.5407 -0.5647  0.2861
  891MPD2     H13062   3.499   3.865  16.944 -0.2304 -1.6200  2.0272
  891MPD2    H113063   3.805   3.587  16.815 -0.1672  0.2709 -0.3700
  891MPD2    H213064   3.465   3.644  16.577  1.9911 -1.8191 -0.3615
  891MPD2    H313065   3.684   3.547  16.627  2.1951 -1.1402  1.7939
  891MPD2     N13066   3.735   3.775  17.012 -0.3356 -0.4033 -0.0747
  891MPD2    H513067   3.705   3.855  17.067 -0.5256 -0.1755 -0.5068
  891MPD2    N113068   3.355   3.823  16.718 -0.2876 -0.3673 -0.1709
  891MPD2    H713069   3.332   3.803  16.621 -2.1788  1.5645 -0.1171
  892MPD2     C13070   0.032   0.189  14.893  0.0433  0.5114  0.2016
  892MPD2    C113071   4.667   0.199  14.788 -0.2391 -0.4680  0.8557
  892MPD2    C213072   4.703   0.145  14.662 -0.1193  0.4364  0.2544
  892MPD2    C313073   0.107   0.093  14.641  0.5994 -0.3275  0.0875
  892MPD2    C413074   0.196   0.103  14.743  0.3121 -0.0422  0.1985
  892MPD2    C513075   0.155   0.140  14.865  0.7838  0.1122  0.1131
  892MPD2     H13076   4.630   0.151  14.581  0.8588  2.9037 -0.4506
  892MPD2    H113077   0.300   0.071  14.735  0.4772  0.8122 -1.1057
  892MPD2    H213078   0.008   0.230  14.990  0.2660  1.4113 -0.1243
  892MPD2    H313079   0.234   0.146  14.940  0.5892  1.7760  0.2009
  892MPD2     N13080   0.154   0.049  14.514 -0.2205  0.2860  0.3715
  892MPD2    H513081   0.250   0.016  14.511 -0.2370  0.3174 -0.6886
  892MPD2    N113082   4.544   0.267  14.799 -0.7122 -0.0596 -0.6083
  892MPD2    H713083   4.489   0.282  14.715 -0.3761  0.3362 -0.7586
  893MPD2     C13084   1.713   4.066   1.523 -0.0885  0.7580 -0.6174
  893MPD2    C113085   1.800   4.102   1.625  0.4598 -0.5495 -0.2070
  893MPD2    C213086   1.745   4.136   1.747  0.0606  0.5160  0.2812
  893MPD2    C313087   1.612   4.129   1.770 -0.7687 -0.2146 -0.3729
  893MPD2    C413088   1.526   4.107   1.660 -0.5688 -0.1936  0.2309
  893MPD2    C513089   1.584   4.076   1.540  0.0627 -0.1522 -0.1290
  893MPD2     H13090   1.818   4.167   1.822 -0.2879 -0.9196  1.2128
  893MPD2    H113091   1.419   4.120   1.666 -0.4663 -0.3597  2.3404
  893MPD2    H213092   1.746   4.029   1.426  2.5615 -1.0376  1.0017
  893MPD2    H313093   1.516   4.057   1.458 -0.3468 -1.4638  0.5016
  893MPD2     N13094   1.557   4.161   1.896 -0.6201  0.7515  0.2764
  893MPD2    H513095   1.458   4.140   1.908 -0.0831 -0.3880  2.8682
  893MPD2    N113096   1.935   4.103   1.606 -0.2486  0.5259 -0.6132
  893MPD2    H713097   1.972   4.089   1.512  0.5371 -2.6162  0.1373
  894MPD2     C13098   0.028   1.000   0.944 -0.6982 -0.2631 -0.0936
  894MPD2    C113099   0.025   1.120   1.006  0.2013 -0.1328 -0.0543
  894MPD2    C213100   4.683   1.225   0.945  0.0794  0.0830  0.3147
  894MPD2    C313101   4.641   1.222   0.814  0.7529 -0.3050  0.3777
  894MPD2    C413102   4.645   1.098   0.751 -0.0984 -0.6100  0.0122
  894MPD2    C513103   4.692   0.985   0.818  0.6514  0.1982  0.0433
  894MPD2     H13104   4.678   1.314   1.007 -1.9882 -0.9673  1.6800
  894MPD2    H113105   4.611   1.085   0.649  1.4931 -1.5562 -0.3861
  894MPD2    H213106   0.068   0.913   0.995  1.1835 -1.1004 -3.0053
  894MPD2    H313107   4.687   0.888   0.771  0.8596  0.0756  0.2716
  894MPD2     N13108   4.614   1.348   0.751  0.4182  0.8191 -0.0103
  894MPD2    H513109   4.642   1.429   0.804  2.6019 -0.5467  0.9347
  894MPD2    N113110   0.063   1.155   1.135  0.2284 -0.7039 -0.4434
  894MPD2    H713111   0.038   1.247   1.169 -1.6808 -0.5483 -2.2682
  895MPD2     C13112   4.081   4.442  13.137  0.9187  0.9285 -0.4488
  895MPD2    C113113   4.059   4.366  13.023 -0.5431 -0.9016 -0.2455
  895MPD2    C213114   4.097   4.231  13.014  0.0419 -0.5129 -0.5424
  895MPD2    C313115   4.177   4.175  13.112 -0.9240 -0.3866 -0.0762
  895MPD2    C413116   4.191   4.246  13.229 -0.2930  0.0277  0.1138
  895MPD2    C513117   4.143   4.379  13.238 -0.4394  0.6741 -0.1901
  895MPD2     H13118   4.103   4.191  12.913 -1.2899  1.0608 -1.2389
  895MPD2    H113119   4.241   4.203  13.314  0.9450 -0.4827 -0.8762
  895MPD2    H213120   4.039   4.542  13.134 -1.2490 -0.0338 -2.2781
  895MPD2    H313121   4.156   4.431  13.332 -0.8767  0.3236  0.0618
  895MPD2     N13122   4.239   4.049  13.103  0.0959  0.0697 -0.5042
  895MPD2    H513123   4.278   4.013  13.190 -0.2473 -2.7720 -1.5260
  895MPD2    N113124   3.989   4.407  12.905 -0.2078 -0.2232  0.5275
  895MPD2    H713125   3.959   4.340  12.835 -0.4246  0.7237 -0.2773
  896MPD2     C13126   1.225   3.035   1.515 -0.6655  0.8190  0.1848
  896MPD2    C113127   1.284   2.925   1.454  0.1182  0.0820  1.0511
  896MPD2    C213128   1.201   2.823   1.413 -0.0655 -0.0817  1.1975
  896MPD2    C313129   1.063   2.830   1.435  0.5942  0.0612  0.3885
  896MPD2    C413130   1.007   2.944   1.493  0.7125 -0.3450 -0.7427
  896MPD2    C513131   1.087   3.041   1.540  0.4866  0.4271 -0.7432
  896MPD2     H13132   1.246   2.734   1.371  2.2689  1.7367 -0.1586
  896MPD2    H113133   0.901   2.945   1.516  0.9096 -0.7645  0.1921
  896MPD2    H213134   1.286   3.120   1.543  0.8380 -0.2974  0.3228
  896MPD2    H313135   1.040   3.132   1.574  0.2569  0.2324 -0.5436
  896MPD2     N13136   0.983   2.732   1.374 -0.3812 -0.4579 -0.0682
  896MPD2    H513137   1.029   2.656   1.325 -0.3906  1.5578 -3.1394
  896MPD2    N113138   1.422   2.940   1.427  0.1646  0.2588  0.2493
  896MPD2    H713139   1.460   3.029   1.454  1.4194  0.0138 -0.7046
  897MPD2     C13140   2.409   3.851  10.028 -0.0167 -0.8472  0.2608
  897MPD2    C113141   2.523   3.878  10.107 -0.0256 -0.3506  0.1094
  897MPD2    C213142   2.522   3.855  10.242 -0.5800  0.0456  0.0931
  897MPD2    C313143   2.400   3.832  10.304 -0.1995 -0.3143 -0.2602
  897MPD2    C413144   2.288   3.796  10.222 -0.9531  0.3916 -0.1481
  897MPD2    C513145   2.296   3.801  10.087  0.7523 -0.5080 -0.7503
  897MPD2     H13146   2.614   3.882  10.293  1.9265 -4.8106 -1.8457
  897MPD2    H113147   2.194   3.776  10.271 -0.8760  1.5873  0.4827
  897MPD2    H213148   2.408   3.863   9.920 -1.6198  1.4636  0.5487
  897MPD2    H313149   2.211   3.778  10.023 -0.6269 -1.0444  1.2473
  897MPD2     N13150   2.389   3.826  10.442  0.4264  0.1970 -0.5957
  897MPD2    H513151   2.297   3.793  10.470  0.9890  0.1442  1.1889
  897MPD2    N113152   2.637   3.931  10.049 -0.7107  0.6779 -0.2946
  897MPD2    H713153   2.711   3.949  10.116 -0.3326  0.8039 -0.7504
  898MPD2     C13154   0.173   4.237   0.185  0.1149  0.1896 -0.1377
  898MPD2    C113155   0.163   4.370   0.153 -0.4962  0.3963 -0.9292
  898MPD2    C213156   0.054   4.409   0.079  0.0522  0.3283  0.1297
  898MPD2    C313157   4.668   4.320   0.051  0.0430 -0.0987  0.0624
  898MPD2    C413158   4.689   4.186   0.076 -0.5781 -0.5162 -0.6482
  898MPD2    C513159   0.080   4.146   0.144  0.7547 -1.0732  0.0214
  898MPD2     H13160   0.054   4.516   0.068  1.6248 -0.1374 -4.3247
  898MPD2    H113161   4.622   4.111   0.036 -1.9988  1.6589 -2.3469
  898MPD2    H213162   0.247   4.199   0.255 -0.7803 -0.3890  0.4872
  898MPD2    H313163   0.078   4.041   0.172 -2.5193 -1.6264 -2.3087
  898MPD2     N13164   4.557   4.375  17.667 -0.0049 -0.2593 -0.0238
  898MPD2    H513165   4.566   4.471  17.635  0.6711 -0.2329  0.2605
  898MPD2    N113166   0.267   4.468   0.175  0.3532  0.2084 -0.4341
  898MPD2    H713167   0.241   4.560   0.141 -0.2950  0.3121  0.3299
  899MPD2     C13168   0.173   0.855  17.500 -0.1638 -0.6934 -0.1522
  899MPD2    C113169   0.238   0.967  17.542 -0.2069 -0.0061 -0.3224
  899MPD2    C213170   0.254   0.976  17.682  0.1567  0.2204 -0.1206
  899MPD2    C313171   0.209   0.874   0.086  0.4168  1.0551  0.0139
  899MPD2    C413172   0.142   0.769   0.033 -0.3870 -0.3622  0.7523
  899MPD2    C513173   0.128   0.758  17.585  0.3744  0.1673 -0.3391
  899MPD2     H13174   0.306   1.062   0.038  0.1822  0.8703 -1.5262
  899MPD2    H113175   0.096   0.693   0.095 -1.7754 -0.9485 -0.9929
  899MPD2    H213176   0.142   0.850  17.396  2.1815 -4.1319 -0.6869
  899MPD2    H313177   0.068   0.678  17.543  0.9055 -0.9844  1.0999
  899MPD2     N13178   0.198   0.888   0.223 -0.4805 -0.1975  0.1810
  899MPD2    H513179   0.141   0.821   0.273  0.3861 -1.5151 -0.5925
  899MPD2    N113180   0.277   1.067  17.453 -0.1910 -0.0308  0.0995
  899MPD2    H713181   0.263   1.055  17.353  1.4425  1.2138 -0.2899
  900MPD2     C13182   0.186   2.140  12.473  0.2924 -0.1795 -0.2669
  900MPD2    C113183   0.150   2.015  12.518 -0.1424  0.5424  0.2371
  900MPD2    C213184   0.015   1.991  12.502  0.6335 -0.0540 -0.4293
  900MPD2    C313185   4.644   2.073  12.443  0.7903 -0.5975  0.8587
  900MPD2    C413186   4.685   2.193  12.388  0.5421 -0.2611  0.0100
  900MPD2    C513187   0.095   2.229  12.413  0.0067 -0.5798 -0.7506
  900MPD2     H13188   4.694   1.895  12.533 -0.3950 -0.1788 -2.1847
  900MPD2    H113189   4.621   2.271  12.348 -1.6093 -1.9810  0.0740
  900MPD2    H213190   0.291   2.166  12.487  0.1973  0.7734 -1.3079
  900MPD2    H313191   0.123   2.326  12.373  0.8088 -0.3384  0.4255
  900MPD2     N13192   4.511   2.036  12.447 -0.0820  0.2310  0.5305
  900MPD2    H513193   4.493   1.937  12.463 -1.2018  0.3198 -0.1774
  900MPD2    N113194   0.246   1.938  12.590 -0.1803  0.6106  0.1730
  900MPD2    H713195   0.342   1.972  12.593 -0.5132  1.5822 -0.0937
  901MPD2     C13196   0.423   1.022  13.160 -0.2854  0.0138 -0.3777
  901MPD2    C113197   0.445   1.014  13.021 -0.2312  0.3746  0.2584
  901MPD2    C213198   0.445   1.131  12.948 -0.5879 -0.3278  0.1956
  901MPD2    C313199   0.414   1.254  13.001  0.3367  0.2423 -0.1149
  901MPD2    C413200   0.396   1.256  13.141 -0.3209  0.0057 -0.1719
  901MPD2    C513201   0.403   1.141  13.219  0.4883 -0.3010  0.0510
  901MPD2     H13202   0.472   1.133  12.843  2.5270  3.8034  1.0301
  901MPD2    H113203   0.356   1.339  13.198 -2.4301 -0.5062 -0.8853
  901MPD2    H213204   0.426   0.942  13.233 -0.9467 -0.2639 -0.6519
  901MPD2    H313205   0.399   1.148  13.327  1.5206  1.0746 -0.0126
  901MPD2     N13206   0.399   1.365  12.918 -0.5965  0.0922 -0.7869
  901MPD2    H513207   0.429   1.340  12.824 -0.2973 -0.9437 -0.4128
  901MPD2    N113208   0.477   0.890  12.959 -0.6397  0.4515 -0.0048
  901MPD2    H713209   0.491   0.817  13.028 -1.1742  0.3530 -0.0018
  902MPD2     C13210   4.294   4.464  12.798  0.0462 -0.5054  0.1389
  902MPD2    C113211   4.256   4.550  12.691 -0.1247  0.2668 -0.4773
  902MPD2    C213212   4.289   4.509  12.561  0.6497  0.1213  0.5294
  902MPD2    C313213   4.334   4.381  12.544  0.2233 -0.5557 -0.1924
  902MPD2    C413214   4.362   4.295  12.651  0.3930 -0.0997  1.4643
  902MPD2    C513215   4.341   4.338  12.782  0.0553 -0.3756 -1.0242
  902MPD2     H13216   4.290   4.579  12.478 -0.8811 -0.3194  0.1200
  902MPD2    H113217   4.394   4.193  12.630  0.0628  0.1243 -0.1641
  902MPD2    H213218   4.287   4.495  12.902  3.6291 -1.4016  0.6539
  902MPD2    H313219   4.378   4.275  12.862 -1.2150 -0.5766 -0.6050
  902MPD2     N13220   4.350   4.319  12.416  0.3064  0.5138 -0.1154
  902MPD2    H513221   4.371   4.219  12.416  0.8415  0.6269 -2.0591
  902MPD2    N113222   4.199   4.674  12.727 -0.2572 -0.4075  0.1174
  902MPD2    H713223   4.167   4.689  12.821 -0.1318 -0.9252  0.2465
  903MPD2     C13224   3.809   4.490  11.895 -0.1955 -0.1891  0.3148
  903MPD2    C113225   3.866   4.369  11.870  0.1879 -0.6419  0.6424
  903MPD2    C213226   3.812   4.293  11.772  0.1003 -0.3703  0.2208
  903MPD2    C313227   3.720   4.351  11.683  0.1159  0.2160 -0.1291
  903MPD2    C413228   3.665   4.474  11.710  0.5603  0.4677 -0.2533
  903MPD2    C513229   3.710   4.545  11.818 -0.4369 -0.1597  0.0788
  903MPD2     H13230   3.837   4.189  11.756 -0.0154 -0.2403 -0.8602
  903MPD2    H113231   3.589   4.518  11.646 -0.3514 -0.5202  0.1500
  903MPD2    H213232   3.841   4.549  11.980  0.4386 -0.4570  0.2686
  903MPD2    H313233   3.676   4.644  11.846  1.2202  0.4827 -0.1995
  903MPD2     N13234   3.664   4.264  11.579 -0.3553  0.9940  0.0437
  903MPD2    H513235   3.715   4.177  11.569 -1.5029  0.4254 -0.8697
  903MPD2    N113236   3.980   4.333  11.945  0.1122 -0.0440  0.5407
  903MPD2    H713237   4.011   4.406  12.008 -0.7937 -0.4196  1.4066
  904MPD2     C13238   3.756   3.932  13.125  0.3653 -0.1387  0.6927
  904MPD2    C113239   3.679   3.922  13.242 -0.1772 -0.1978  0.3782
  904MPD2    C213240   3.741   3.904  13.360  0.2641 -0.4427  0.1642
  904MPD2    C313241   3.877   3.920  13.369 -0.0265  0.0080 -0.9445
  904MPD2    C413242   3.953   3.958  13.261  0.0267  0.0630  0.0046
  904MPD2    C513243   3.892   3.951  13.140  0.3707  0.0582  0.0016
  904MPD2     H13244   3.680   3.877  13.446  3.3998 -3.3159  1.4600
  904MPD2    H113245   4.061   3.954  13.261 -0.0054 -0.5593  1.6456
  904MPD2    H213246   3.706   3.918  13.030  0.4210  3.3808  0.1492
  904MPD2    H313247   3.946   3.957  13.046 -1.5236  1.7457 -1.0007
  904MPD2     N13248   3.934   3.870  13.487 -1.3145 -0.0709  0.1491
  904MPD2    H513249   3.877   3.812  13.548 -3.0335  1.2832 -0.1537
  904MPD2    N113250   3.535   3.903  13.239  0.1204 -0.0729 -0.6509
  904MPD2    H713251   3.491   3.847  13.312 -0.2333 -0.0276 -0.8288
  905MPD2     C13252   3.683   3.834  12.617 -0.0572  0.0467 -0.0027
  905MPD2    C113253   3.742   3.931  12.690  0.0110 -0.9236 -0.2336
  905MPD2    C213254   3.880   3.926  12.723  0.0995 -0.1840  0.5260
  905MPD2    C313255   3.954   3.818  12.679  0.4143  0.5309 -0.3350
  905MPD2    C413256   3.897   3.719  12.601  0.0433  0.0278  0.1703
  905MPD2    C513257   3.761   3.732  12.569  1.3633  0.9896 -0.5413
  905MPD2     H13258   3.926   4.002  12.786  0.6928 -0.1123  0.0100
  905MPD2    H113259   3.951   3.633  12.565  0.1922  0.7776 -1.4097
  905MPD2    H213260   3.576   3.837  12.599 -0.3517 -0.0937  1.7137
  905MPD2    H313261   3.719   3.653  12.508 -1.1938  2.8187 -1.1603
  905MPD2     N13262   4.071   3.788  12.748 -0.0291 -0.0835 -0.1294
  905MPD2    H513263   4.113   3.855  12.812 -0.4590  0.3966 -0.3497
  905MPD2    N113264   3.654   4.022  12.752 -0.0699 -0.2051 -0.3803
  905MPD2    H713265   3.561   3.985  12.764 -1.1847  2.6976  0.0536
  906MPD2     C13266   1.072   4.160  11.284  0.0973  0.0288  0.0375
  906MPD2    C113267   1.162   4.088  11.207  0.3316 -0.2317  0.2297
  906MPD2    C213268   1.184   3.960  11.234  0.1145  0.2604  0.6450
  906MPD2    C313269   1.111   3.897  11.335  0.1081  0.0504 -0.2933
  906MPD2    C413270   1.025   3.971  11.416  0.2885 -0.4233  0.4431
  906MPD2    C513271   1.006   4.104  11.390  0.7019 -0.1320  0.0177
  906MPD2     H13272   1.239   3.899  11.163 -0.8463 -0.5544  0.6004
  906MPD2    H113273   0.964   3.933  11.497 -2.0014 -0.4161 -1.2881
  906MPD2    H213274   1.047   4.262  11.257 -0.1287 -0.3097 -1.0294
  906MPD2    H313275   0.930   4.153  11.449  0.5793 -0.6369  0.2733
  906MPD2     N13276   1.118   3.764  11.370 -0.1256 -0.4795  0.2484
  906MPD2    H513277   1.057   3.730  11.443  0.0321  1.8238  1.4624
  906MPD2    N113278   1.203   4.142  11.086 -0.2628 -0.2258  0.3071
  906MPD2    H713279   1.269   4.090  11.029  0.5172 -0.5809  1.5139
  907MPD2     C13280   4.605   3.581  15.408 -0.8787 -1.0563 -0.6463
  907MPD2    C113281   4.664   3.456  15.383  0.1978 -0.1037 -0.2442
  907MPD2    C213282   0.002   3.378  15.482  0.3456 -0.2108 -0.0969
  907MPD2    C313283   0.012   3.429  15.609 -0.1119 -0.2690 -0.7215
  907MPD2    C413284   4.681   3.559  15.636 -0.3550  0.0930  0.3000
  907MPD2    C513285   4.615   3.620  15.541 -0.7906 -0.0343  0.0363
  907MPD2     H13286   0.035   3.278  15.455  0.8908 -0.1504  0.3423
  907MPD2    H113287   4.694   3.619  15.725 -0.8028  0.7600 -0.0874
  907MPD2    H213288   4.555   3.653  15.345 -0.9357  1.7463  2.6748
  907MPD2    H313289   4.587   3.723  15.564 -0.5899 -0.2880  1.4231
  907MPD2     N13290   0.070   3.346  15.707  0.0145  0.5930  0.4786
  907MPD2    H513291   0.119   3.265  15.670 -1.6848  0.3264 -1.1920
  907MPD2    N113292   4.650   3.396  15.256 -0.3679  0.6369 -0.3403
  907MPD2    H713293   4.685   3.301  15.247  1.4791  1.2178  0.7828
  908MPD2     C13294   2.987   3.991   9.126  0.0052 -0.0043  0.5427
  908MPD2    C113295   2.880   3.927   9.201 -0.3869 -0.0106  0.2156
  908MPD2    C213296   2.880   3.941   9.336  0.6911 -0.3305 -1.1293
  908MPD2    C313297   2.968   4.015   9.402 -0.1337  0.6110 -1.0481
  908MPD2    C413298   3.065   4.079   9.335 -0.7469  0.0814 -0.3737
  908MPD2    C513299   3.077   4.068   9.196  0.3867 -0.1233 -0.4098
  908MPD2     H13300   2.804   3.892   9.395 -0.7753  0.7643 -2.1088
  908MPD2    H113301   3.142   4.139   9.382 -1.5818  1.7659 -1.1692
  908MPD2    H213302   3.015   3.977   9.022 -0.0313 -0.2533  0.5654
  908MPD2    H313303   3.156   4.121   9.145 -1.1174  1.8970 -0.6252
  908MPD2     N13304   2.950   4.013   9.545 -0.2736  0.1972  0.3089
  908MPD2    H513305   2.858   3.977   9.566 -0.1819  0.1472  0.6142
  908MPD2    N113306   2.783   3.843   9.135  0.2227 -0.0389  0.2865
  908MPD2    H713307   2.721   3.790   9.196 -1.3584  1.0487 -0.3635
  909MPD2     C13308   2.894   2.406  11.973 -0.1488 -0.4247  0.1117
  909MPD2    C113309   2.781   2.399  11.892 -0.1117  0.0085  0.3195
  909MPD2    C213310   2.657   2.425  11.950  0.1835  0.4101 -0.8153
  909MPD2    C313311   2.638   2.446  12.081  0.3638  0.6254 -0.0973
  909MPD2    C413312   2.748   2.429  12.165 -0.1566  0.0947  0.0206
  909MPD2    C513313   2.878   2.421  12.108 -0.2978  0.0645  0.5508
  909MPD2     H13314   2.569   2.420  11.887 -1.3739 -3.2916  1.6221
  909MPD2    H113315   2.734   2.438  12.272 -0.6833  2.6175 -0.2468
  909MPD2    H213316   2.994   2.381  11.943 -0.6182 -0.2842 -1.5607
  909MPD2    H313317   2.969   2.406  12.166  0.3328  0.2050 -0.4116
  909MPD2     N13318   2.508   2.469  12.136 -0.3666  0.1263 -0.3292
  909MPD2    H513319   2.436   2.496  12.070 -0.9026  1.0725  0.6266
  909MPD2    N113320   2.779   2.366  11.748  0.1146  0.1507 -0.1812
  909MPD2    H713321   2.690   2.359  11.700 -0.8120  2.2993  1.1937
  910MPD2     C13322   3.708   3.971  15.571  0.1921 -0.4113 -0.7347
  910MPD2    C113323   3.793   3.889  15.498 -0.1281  0.3031 -0.1081
  910MPD2    C213324   3.775   3.878  15.364 -0.6022  0.4232 -0.2985
  910MPD2    C313325   3.675   3.929  15.296  0.4621  0.2616 -0.1035
  910MPD2    C413326   3.586   4.003  15.366 -0.2963 -0.2823  0.0268
  910MPD2    C513327   3.601   4.019  15.502  0.0435  0.1623 -0.4959
  910MPD2     H13328   3.856   3.831  15.310 -2.2434  0.0611 -2.4066
  910MPD2    H113329   3.506   4.056  15.315  0.5530 -0.3394 -1.3726
  910MPD2    H213330   3.716   3.976  15.679 -0.1664  1.3256 -0.7916
  910MPD2    H313331   3.518   4.062  15.557 -0.5194 -2.0388  0.3668
  910MPD2     N13332   3.657   3.924  15.156 -0.0580  0.7529  0.2993
  910MPD2    H513333   3.579   3.977  15.120 -0.8446  1.2044  2.6559
  910MPD2    N113334   3.903   3.827  15.559  0.2637  0.3350  0.1383
  910MPD2    H713335   3.961   3.771  15.496  1.6387  2.9042 -0.8936
  911MPD2     C13336   1.822   3.664  16.062 -0.5370 -0.1658 -0.1053
  911MPD2    C113337   1.877   3.736  16.168 -0.1037  0.6816 -0.4614
  911MPD2    C213338   1.798   3.836  16.228  0.3904  0.0674 -0.3096
  911MPD2    C313339   1.671   3.868  16.173  0.2018 -0.5816  0.5593
  911MPD2    C413340   1.632   3.790  16.066  0.0265  0.6488 -0.0819
  911MPD2    C513341   1.701   3.686  16.017  0.3826  0.5536 -0.0476
  911MPD2     H13342   1.836   3.894  16.312  0.6109 -1.9129  0.9534
  911MPD2    H113343   1.537   3.812  16.021 -0.3844  0.6453  0.7757
  911MPD2    H213344   1.868   3.578  16.015  0.5268 -0.8346  2.1842
  911MPD2    H313345   1.670   3.626  15.933 -1.4865  0.4335  0.7362
  911MPD2     N13346   1.591   3.973  16.222  0.0421  0.4506  0.0634
  911MPD2    H513347   1.501   3.978  16.176  0.6182  0.0044 -1.0983
  911MPD2    N113348   2.008   3.701  16.210  0.2772 -0.1517  0.0665
  911MPD2    H713349   2.062   3.638  16.152 -1.5249  0.2546 -2.0483
  912MPD2     C13350   1.299   3.927  15.671 -0.0449 -0.5031  0.3264
  912MPD2    C113351   1.306   3.918  15.807  0.0318 -0.2870 -0.2165
  912MPD2    C213352   1.320   3.792  15.863 -0.1612 -0.3371  0.3311
  912MPD2    C313353   1.318   3.680  15.794  0.0696  0.2621  0.4483
  912MPD2    C413354   1.312   3.680  15.656  0.4732  0.0356  0.3236
  912MPD2    C513355   1.304   3.807  15.599 -0.3653 -0.1888  0.5132
  912MPD2     H13356   1.328   3.784  15.970  2.4798  2.8826  0.3837
  912MPD2    H113357   1.301   3.587  15.601  2.3790  0.4407 -0.7555
  912MPD2    H213358   1.300   4.023  15.620 -0.4518 -2.4951 -3.4532
  912MPD2    H313359   1.292   3.816  15.492 -1.3736  0.0819  0.6455
  912MPD2     N13360   1.318   3.558  15.864 -0.1692 -0.0712 -0.1097
  912MPD2    H513361   1.312   3.577  15.964 -0.4111  0.2644 -0.1867
  912MPD2    N113362   1.315   4.031  15.888 -0.0382  0.0229  0.6649
  912MPD2    H713363   1.290   4.116  15.838  0.3492 -0.9615 -1.1912
  913MPD2     C13364   1.729   0.747  10.340 -0.1906 -0.1667 -0.5559
  913MPD2    C113365   1.853   0.809  10.332  0.4301 -0.1899  0.7197
  913MPD2    C213366   1.885   0.890  10.222 -0.3778 -0.5353 -0.0663
  913MPD2    C313367   1.789   0.918  10.127  0.0166 -0.7974  0.1838
  913MPD2    C413368   1.666   0.870  10.137  0.1792  0.0478  0.1351
  913MPD2    C513369   1.643   0.779  10.241  0.1929  0.1804  0.3758
  913MPD2     H13370   1.978   0.946  10.214 -0.1106 -0.7771  1.3641
  913MPD2    H113371   1.588   0.893  10.065  1.9717 -1.2578 -2.2553
  913MPD2    H213372   1.693   0.701  10.432 -2.0454 -1.1408 -1.7620
  913MPD2    H313373   1.537   0.759  10.253  0.5620 -1.0128  1.6358
  913MPD2     N13374   1.814   1.003  10.015  0.8077  0.2224  0.3502
  913MPD2    H513375   1.739   1.015   9.948  0.9164 -0.5181  0.0923
  913MPD2    N113376   1.942   0.796  10.443  0.6417  0.3101  0.6294
  913MPD2    H713377   1.921   0.725  10.512 -0.9985  0.8797  0.7100
  914MPD2     C13378   4.714   0.449  12.228  0.2540  0.1081 -0.5614
  914MPD2    C113379   0.032   0.578  12.249 -0.8281 -0.4564  0.0314
  914MPD2    C213380   0.146   0.606  12.327  0.6003  0.5321 -1.5542
  914MPD2    C313381   0.209   0.495  12.394  0.0905 -0.4280 -0.4485
  914MPD2    C413382   0.174   0.361  12.367  0.1345 -0.8112  0.4965
  914MPD2    C513383   0.069   0.349  12.287  0.0683  0.5042  0.0517
  914MPD2     H13384   0.180   0.707  12.344  1.2434  0.3652 -1.8463
  914MPD2    H113385   0.222   0.269  12.399  1.9058 -0.4647 -1.1157
  914MPD2    H213386   4.621   0.425  12.177 -0.1489 -1.2715  0.7999
  914MPD2    H313387   0.034   0.246  12.287  2.0169 -0.1681  0.5573
  914MPD2     N13388   0.308   0.533  12.485  0.1703  0.0247 -0.2674
  914MPD2    H513389   0.328   0.631  12.501  0.9934 -0.2554  0.3930
  914MPD2    N113390   4.674   0.678  12.192  0.2613 -0.2100 -0.0133
  914MPD2    H713391   4.599   0.644  12.133  2.9303 -2.0415 -2.3144
  915MPD2     C13392   3.318   0.843  15.984  0.2159 -0.6748 -0.2116
  915MPD2    C113393   3.187   0.861  15.928 -0.4971 -0.1541  0.9293
  915MPD2    C213394   3.082   0.891  16.013  0.5983 -0.1622  0.2791
  915MPD2    C313395   3.100   0.928  16.146  0.4006  0.9122 -0.1667
  915MPD2    C413396   3.225   0.914  16.201 -0.0617 -1.1904 -0.0921
  915MPD2    C513397   3.325   0.857  16.125  1.2397 -0.4818  0.3254
  915MPD2     H13398   2.980   0.907  15.978 -0.0289 -0.8236  1.7841
  915MPD2    H113399   3.232   0.909  16.310  0.0139  0.6059 -0.0173
  915MPD2    H213400   3.398   0.793  15.930  1.2213  1.2617 -0.4915
  915MPD2    H313401   3.417   0.832  16.178  1.1195 -2.0470 -0.2080
  915MPD2     N13402   2.986   0.962  16.228  0.0786  0.1303  0.0244
  915MPD2    H513403   2.894   0.958  16.186 -0.7855 -1.7586  2.0880
  915MPD2    N113404   3.165   0.849  15.794  0.1818  0.8469 -0.0699
  915MPD2    H713405   3.231   0.790  15.744 -1.2370 -0.3167 -0.5359
  916MPD2     C13406   1.031   3.626  15.320  0.2347  0.8078  0.1881
  916MPD2    C113407   1.072   3.546  15.417 -0.6456  0.7687  0.1370
  916MPD2    C213408   1.170   3.453  15.396  0.6266  0.4449  0.3461
  916MPD2    C313409   1.222   3.438  15.270  0.3239 -0.0890 -0.6993
  916MPD2    C413410   1.172   3.517  15.165  0.0181  0.0779  0.1450
  916MPD2    C513411   1.070   3.603  15.186  0.1562  0.0917  0.0395
  916MPD2     H13412   1.211   3.390  15.475  1.6503  0.3681 -0.2420
  916MPD2    H113413   1.198   3.505  15.060 -1.1259  1.3856 -0.3043
  916MPD2    H213414   0.960   3.704  15.343 -0.1582  0.5581 -0.1717
  916MPD2    H313415   1.035   3.664  15.103 -0.8429  3.0820  2.6510
  916MPD2     N13416   1.316   3.337  15.252 -0.4726  0.4197  0.4126
  916MPD2    H513417   1.363   3.292  15.330  1.9040  0.3984 -1.0183
  916MPD2    N113418   1.017   3.574  15.544 -0.0460 -0.2008 -0.2072
  916MPD2    H713419   0.950   3.649  15.555  0.9097  0.9728 -2.4636
  917MPD2     C13420   1.251   1.398  10.962  0.3228  0.7806  0.5902
  917MPD2    C113421   1.342   1.448  11.057 -0.0215 -0.1867  0.5311
  917MPD2    C213422   1.403   1.576  11.046  0.2253  0.7895  0.2571
  917MPD2    C313423   1.391   1.634  10.922 -0.1500  0.1434 -0.0417
  917MPD2    C413424   1.316   1.577  10.820 -0.2338 -0.0713 -0.1122
  917MPD2    C513425   1.242   1.463  10.846 -0.3307  0.3700  0.2146
  917MPD2     H13426   1.468   1.615  11.123  1.3556 -0.7520  0.0832
  917MPD2    H113427   1.308   1.630  10.726 -0.2359 -0.9425 -0.6014
  917MPD2    H213428   1.200   1.302  10.966  1.8227 -0.0434  0.0737
  917MPD2    H313429   1.178   1.412  10.775 -1.8205 -0.9390  2.5288
  917MPD2     N13430   1.437   1.763  10.890 -0.0945 -0.0524  0.0351
  917MPD2    H513431   1.412   1.803  10.800 -0.9839  2.1713  1.2658
  917MPD2    N113432   1.362   1.366  11.169 -0.5438 -1.1728  0.0156
  917MPD2    H713433   1.325   1.272  11.167 -0.1442 -1.3208 -0.3290
  918MPD2     C13434   1.701   1.491  12.097  0.0358  0.0399  0.3743
  918MPD2    C113435   1.752   1.373  12.060  0.6544 -0.1966 -0.0932
  918MPD2    C213436   1.699   1.315  11.949  0.2063 -0.0715  0.4855
  918MPD2    C313437   1.600   1.379  11.875 -0.0422  0.0101 -0.8090
  918MPD2    C413438   1.535   1.483  11.931 -0.0474 -0.1103  0.3124
  918MPD2    C513439   1.584   1.539  12.043  0.4988  0.4123  0.0090
  918MPD2     H13440   1.742   1.222  11.914  1.3720  0.5405  0.3141
  918MPD2    H113441   1.448   1.523  11.879 -0.1017  0.5339  0.9052
  918MPD2    H213442   1.740   1.550  12.179  1.1805  0.3060 -0.3673
  918MPD2    H313443   1.549   1.638  12.070  0.1842 -0.1565  1.6884
  918MPD2     N13444   1.562   1.331  11.749  0.1444  0.2791 -0.5814
  918MPD2    H513445   1.495   1.392  11.705  0.0870 -0.5508 -1.6565
  918MPD2    N113446   1.871   1.321  12.117 -0.3007 -0.3880  0.0106
  918MPD2    H713447   1.913   1.242  12.069  0.1858 -0.0551 -0.1099
  919MPD2     C13448   2.462   0.138  11.769 -0.2286 -0.3342 -0.1976
  919MPD2    C113449   2.373   0.059  11.694 -0.4766  0.4514  0.2151
  919MPD2    C213450   2.282   0.115  11.609 -0.3995 -0.1720 -0.5001
  919MPD2    C313451   2.270   0.254  11.599 -0.1446 -0.2788 -0.0541
  919MPD2    C413452   2.357   0.330  11.674  0.3068 -0.2213 -0.0133
  919MPD2    C513453   2.449   0.277  11.759 -0.8198 -0.8228  0.0771
  919MPD2     H13454   2.207   0.062  11.552  0.5543  0.1227 -2.0225
  919MPD2    H113455   2.352   0.439  11.673 -2.7658 -0.3580  2.1962
  919MPD2    H213456   2.530   0.086  11.836 -1.6535  0.0056  1.5112
  919MPD2    H313457   2.530   0.328  11.811 -1.0148  0.1882 -0.6218
  919MPD2     N13458   2.165   0.324  11.535 -0.0871 -0.6146  0.7786
  919MPD2    H513459   2.165   0.424  11.548 -4.0025 -0.7530  1.8527
  919MPD2    N113460   2.366   4.639  11.701 -0.0776 -0.0403  0.2828
  919MPD2    H713461   2.308   4.584  11.638 -0.8980  1.3936 -0.2265
  920MPD2     C13462   1.922   0.981  10.809 -0.0722 -0.6867  0.6103
  920MPD2    C113463   1.814   0.897  10.798  0.2487 -0.0041 -0.2114
  920MPD2    C213464   1.805   0.796  10.892  0.1812 -0.0107 -0.0197
  920MPD2    C313465   1.895   0.785  10.997 -0.3330  0.3349  0.2636
  920MPD2    C413466   1.998   0.877  11.004  0.1502 -0.1013  0.7688
  920MPD2    C513467   2.009   0.975  10.913 -0.1370 -0.6425  0.7660
  920MPD2     H13468   1.721   0.728  10.890  1.3340 -1.4105 -1.5416
  920MPD2    H113469   2.080   0.874  11.075 -0.6081  0.3025  1.6622
  920MPD2    H213470   1.935   1.069  10.747 -1.1965 -0.8080  0.1978
  920MPD2    H313471   2.079   1.058  10.922 -0.5317 -0.0762 -1.3555
  920MPD2     N13472   1.869   0.686  11.100 -0.0751  0.1205 -0.2688
  920MPD2    H513473   1.780   0.639  11.090 -0.1391  0.4609 -1.2909
  920MPD2    N113474   1.717   0.909  10.698  0.1306  0.0991  0.6182
  920MPD2    H713475   1.643   0.840  10.705 -0.4966  0.6830 -0.2584
  921MPD2     C13476   2.504   4.177  16.655  0.2287  0.2665  0.1318
  921MPD2    C113477   2.595   4.071  16.665  0.3405 -0.6315  0.5478
  921MPD2    C213478   2.548   3.950  16.646 -0.2744 -0.6893  0.0799
  921MPD2    C313479   2.414   3.924  16.636  0.1886 -0.6401  0.0589
  921MPD2    C413480   2.323   4.023  16.645  0.5079  0.1486  0.1738
  921MPD2    C513481   2.372   4.151  16.649  0.0146  0.5762  0.3105
  921MPD2     H13482   2.617   3.870  16.625 -1.0054 -1.4268  0.4794
  921MPD2    H113483   2.215   4.020  16.644  0.4522  0.2579  4.2051
  921MPD2    H213484   2.543   4.277  16.671 -1.3023  0.9792 -0.5869
  921MPD2    H313485   2.298   4.230  16.657  0.5305  1.4012 -3.2263
  921MPD2     N13486   2.363   3.794  16.619  0.1059 -0.2728 -0.3824
  921MPD2    H513487   2.263   3.784  16.623  0.2907 -3.1840 -2.5841
  921MPD2    N113488   2.730   4.113  16.680  0.5029  0.4466 -0.4905
  921MPD2    H713489   2.742   4.212  16.703  1.3774  0.6979 -2.0329
  922MPD2     C13490   4.226   1.882  17.404  0.4920 -0.8921  0.5010
  922MPD2    C113491   4.141   1.868  17.295  0.0997 -0.3549  0.0926
  922MPD2    C213492   4.011   1.821  17.319  0.1752 -0.0841 -0.6498
  922MPD2    C313493   3.968   1.812  17.448 -0.4860 -0.7264  0.8965
  922MPD2    C413494   4.050   1.838  17.553 -0.1545  0.4812  0.3908
  922MPD2    C513495   4.183   1.867  17.532 -0.1418 -0.4553  0.4111
  922MPD2     H13496   3.947   1.805  17.233  1.5282 -0.9050 -1.4878
  922MPD2    H113497   4.011   1.848  17.654  0.2215 -0.9063  0.6627
  922MPD2    H213498   4.331   1.904  17.389  0.5008 -1.7321 -0.6826
  922MPD2    H313499   4.247   1.896  17.616 -0.4635  0.2480  0.4117
  922MPD2     N13500   3.833   1.777  17.466 -0.2998 -0.1887  0.1096
  922MPD2    H513501   3.786   1.746  17.381  0.2005 -2.8836  0.8070
  922MPD2    N113502   4.169   1.893  17.160  0.3200  0.2553 -0.6854
  922MPD2    H713503   4.090   1.873  17.100 -2.1185  0.1811  2.5446
  923MPD2     C13504   0.665   4.206   8.898  0.5059  1.1429  0.2921
  923MPD2    C113505   0.653   4.286   9.008  0.5712 -0.2179  0.2377
  923MPD2    C213506   0.725   4.254   9.121 -0.8384 -0.1778  0.2068
  923MPD2    C313507   0.822   4.156   9.124  0.0175  0.5049  1.0506
  923MPD2    C413508   0.829   4.063   9.013 -0.1923 -0.1487 -0.2269
  923MPD2    C513509   0.746   4.093   8.905  0.0979  0.4307  0.0507
  923MPD2     H13510   0.699   4.312   9.209  2.5741 -0.0020  1.0830
  923MPD2    H113511   0.899   3.980   9.005  2.5307  2.0160  0.8582
  923MPD2    H213512   0.624   4.231   8.801 -0.8917  1.0376  0.8525
  923MPD2    H313513   0.761   4.024   8.822  1.4092 -0.6913  1.2246
  923MPD2     N13514   0.899   4.117   9.235  0.0295 -0.0655  0.7429
  923MPD2    H513515   0.928   4.020   9.228 -0.6863 -0.2350  0.1962
  923MPD2    N113516   0.577   4.408   8.987 -0.1705 -0.0655  0.2630
  923MPD2    H713517   0.542   4.417   8.892  0.6397  1.1115  0.0776
  924MPD2     C13518   0.307   2.649  15.541  0.4644 -0.2902  0.0287
  924MPD2    C113519   0.284   2.635  15.675  0.0881 -0.5247 -0.1394
  924MPD2    C213520   0.324   2.737  15.764  0.2178 -0.0054  0.4352
  924MPD2    C313521   0.357   2.857  15.714  0.5728  0.0973  0.2526
  924MPD2    C413522   0.399   2.863  15.583  0.1930  0.0028 -0.2099
  924MPD2    C513523   0.383   2.759  15.498  0.2271  0.2324 -0.5447
  924MPD2     H13524   0.297   2.731  15.869 -2.6833  0.8416 -0.2491
  924MPD2    H113525   0.457   2.948  15.548  0.6542 -0.6099 -0.9093
  924MPD2    H213526   0.280   2.567  15.476 -0.0954  0.4247 -0.6263
  924MPD2    H313527   0.414   2.779  15.396 -0.0395 -0.2759 -0.7235
  924MPD2     N13528   0.357   2.971  15.793 -0.2342  0.6665 -0.7002
  924MPD2    H513529   0.373   3.059  15.743  2.9981  0.6052  0.2284
  924MPD2    N113530   0.206   2.531  15.721 -0.6052  0.3826  0.2288
  924MPD2    H713531   0.150   2.467  15.665 -0.0827  0.3561 -0.2570
  925MPD2     C13532   3.343   0.163  14.358 -0.1797 -0.3757 -0.1961
  925MPD2    C113533   3.404   0.042  14.351 -0.1515 -0.5051  0.3241
  925MPD2    C213534   3.404   4.686  14.464 -0.7460  0.1229 -0.0689
  925MPD2    C313535   3.342   0.000  14.581  0.6581  0.3087  0.4349
  925MPD2    C413536   3.268   0.116  14.585  0.0168  0.1870  0.5500
  925MPD2    C513537   3.271   0.191  14.471  0.0811  0.3042  0.3523
  925MPD2     H13538   3.449   4.588  14.453  0.8247  0.9953 -1.3987
  925MPD2    H113539   3.216   0.147  14.675  2.1220  2.0115  1.1536
  925MPD2    H213540   3.349   0.231  14.274 -1.3978 -1.3874 -1.1120
  925MPD2    H313541   3.214   0.283  14.467 -1.2431 -0.5646 -0.8615
  925MPD2     N13542   3.366   4.631  14.690 -0.2561 -0.0717 -0.5332
  925MPD2    H513543   3.423   4.551  14.664  2.2409  1.2807  0.7583
  925MPD2    N113544   3.472   0.015  14.237  0.0653  0.1193  0.7954
  925MPD2    H713545   3.442   0.073  14.160 -1.6334 -0.7977  0.7581
  926MPD2     C13546   1.956   3.269  12.928  0.4701 -0.0303  0.2924
  926MPD2    C113547   2.069   3.330  12.980  0.4637 -0.3804  0.4847
  926MPD2    C213548   2.142   3.410  12.887  0.3020  0.8513 -0.2538
  926MPD2    C313549   2.100   3.434  12.758 -0.2304 -0.4417 -0.0429
  926MPD2    C413550   1.975   3.389  12.728 -0.1721 -0.0481  0.9800
  926MPD2    C513551   1.906   3.306  12.814 -0.3592  0.4118  0.5718
  926MPD2     H13552   2.243   3.440  12.911  0.2570  0.7433  0.0786
  926MPD2    H113553   1.930   3.415  12.633 -0.9981 -1.0416  1.0943
  926MPD2    H213554   1.908   3.195  12.992  0.2169 -2.9418 -3.2071
  926MPD2    H313555   1.806   3.270  12.791 -0.6204  0.5418  1.5059
  926MPD2     N13556   2.176   3.494  12.649 -0.0634  0.3288  0.0088
  926MPD2    H513557   2.125   3.525  12.567  0.0995 -0.0862 -0.2488
  926MPD2    N113558   2.108   3.286  13.109  0.2352 -0.6097  0.4331
  926MPD2    H713559   2.041   3.217  13.142 -0.4862 -0.9708 -1.7221
  927MPD2     C13560   2.125   1.515   0.118  0.5332 -0.2016 -0.1086
  927MPD2    C113561   2.224   1.453   0.191 -0.8749  0.3922  0.0709
  927MPD2    C213562   2.284   1.342   0.130 -0.8779  0.0265  0.5382
  927MPD2    C313563   2.244   1.297   0.003 -1.2084 -0.4716 -0.3024
  927MPD2    C413564   2.147   1.371  17.617 -0.4346  0.1092 -0.0999
  927MPD2    C513565   2.091   1.480  17.680 -0.5999  0.4072  0.5058
  927MPD2     H13566   2.362   1.287   0.182 -0.6033  0.7816  0.9229
  927MPD2    H113567   2.112   1.347  17.517  0.7080  0.6898 -0.6520
  927MPD2    H213568   2.082   1.603   0.164 -0.0976 -0.1274 -0.8296
  927MPD2    H313569   2.020   1.533  17.619  1.1152 -1.2286 -2.8812
  927MPD2     N13570   2.317   1.186  17.635  0.5894 -0.3069 -0.3814
  927MPD2    H513571   2.382   1.144   0.016 -0.8284 -1.5447  0.2149
  927MPD2    N113572   2.259   1.490   0.330 -0.5445  0.3058 -0.1335
  927MPD2    H713573   2.323   1.428   0.379 -1.9589 -0.7318  0.4315
  928MPD2     C13574   1.155   4.201   1.255 -0.7270 -0.6842 -0.1603
  928MPD2    C113575   1.140   4.338   1.244 -0.4664  0.6561 -0.3321
  928MPD2    C213576   1.146   4.405   1.122  0.2797 -0.1363  0.8448
  928MPD2    C313577   1.164   4.329   1.005 -0.2481  0.0848  0.8091
  928MPD2    C413578   1.165   4.191   1.018 -0.1225 -0.2703  0.0660
  928MPD2    C513579   1.168   4.134   1.141 -0.5541  0.3201  0.3240
  928MPD2     H13580   1.134   4.513   1.112  0.9117 -0.1735 -0.4141
  928MPD2    H113581   1.180   4.128   0.931  0.4087  2.1657 -1.6056
  928MPD2    H213582   1.157   4.151   1.351 -1.8407  0.7589  0.6065
  928MPD2    H313583   1.176   4.027   1.157  0.7690  0.4057  0.2565
  928MPD2     N13584   1.174   4.395   0.879  0.4688  0.0645  0.0928
  928MPD2    H513585   1.156   4.330   0.803 -0.8588  1.2261 -0.5951
  928MPD2    N113586   1.128   4.406   1.363 -0.3962  0.2439  0.0487
  928MPD2    H713587   1.152   4.349   1.443 -0.1078  1.8054  1.0768
  929MPD2     C13588   0.685   4.106  10.296 -0.0926 -0.4520 -0.6651
  929MPD2    C113589   0.583   4.022  10.255  0.4782  0.7679  0.4895
  929MPD2    C213590   0.523   4.046  10.132  0.1133 -0.2203  0.2633
  929MPD2    C313591   0.551   4.160  10.055  0.1096 -0.5464 -0.4629
  929MPD2    C413592   0.650   4.231  10.097 -0.7711  0.0062  1.0249
  929MPD2    C513593   0.725   4.205  10.216 -0.3258 -0.2573  0.0403
  929MPD2     H13594   0.427   4.001  10.110  1.2057 -1.8301 -1.1619
  929MPD2    H113595   0.667   4.327  10.049  2.3290 -1.8725 -1.5692
  929MPD2    H213596   0.741   4.085  10.386 -0.3165  1.3746 -0.1180
  929MPD2    H313597   0.805   4.271  10.247 -0.5664  1.6933 -3.4671
  929MPD2     N13598   0.471   4.209   9.949 -0.5142  0.0041 -0.3218
  929MPD2    H513599   0.506   4.301   9.922  0.7998 -0.9681 -1.9236
  929MPD2    N113600   0.530   3.925  10.344 -0.5052 -0.3256  0.2805
  929MPD2    H713601   0.555   3.940  10.441  0.2944  0.1747 -0.0041
  930MPD2     C13602   2.177   1.170  14.346 -0.2167  0.0894  0.7137
  930MPD2    C113603   2.078   1.260  14.306  0.0419 -0.4936 -0.5425
  930MPD2    C213604   1.984   1.228  14.206  0.4095 -0.9251  1.1501
  930MPD2    C313605   1.999   1.114  14.135 -0.1869 -0.1010 -0.2280
  930MPD2    C413606   2.104   1.036  14.168  0.0464  0.4548  0.2660
  930MPD2    C513607   2.195   1.059  14.264 -0.4145  0.1500 -0.4134
  930MPD2     H13608   1.919   1.308  14.173  1.9787  0.1779  0.7301
  930MPD2    H113609   2.117   0.943  14.114  0.8534  0.6653  0.0938
  930MPD2    H213610   2.257   1.196  14.415 -0.1329 -0.6607  0.8974
  930MPD2    H313611   2.281   0.997  14.288  1.6618  3.4165  0.6051
  930MPD2     N13612   1.928   1.099  14.013 -0.4402 -0.3133  0.1890
  930MPD2    H513613   1.965   1.023  13.956 -0.2172 -1.5055  1.9264
  930MPD2    N113614   2.084   1.390  14.361 -0.7189  1.1431  0.8235
  930MPD2    H713615   2.178   1.422  14.382 -0.1628  0.7328 -1.0381
  931MPD2     C13616   2.702   1.856   0.978  0.5278 -0.2778 -0.5964
  931MPD2    C113617   2.663   1.737   0.922 -0.8670  0.0233 -0.0085
  931MPD2    C213618   2.750   1.633   0.930  0.4705  0.4683 -0.4725
  931MPD2    C313619   2.856   1.636   1.027 -0.2012  0.1762 -0.5266
  931MPD2    C413620   2.887   1.750   1.088  0.0354 -0.3185  0.8028
  931MPD2    C513621   2.809   1.857   1.069  0.0407  0.9704 -0.0184
  931MPD2     H13622   2.718   1.535   0.895  1.0550  0.3770 -0.7455
  931MPD2    H113623   2.964   1.750   1.165  2.0452 -1.0051 -1.2175
  931MPD2    H213624   2.645   1.947   0.966  0.2349 -0.3690  0.1390
  931MPD2    H313625   2.834   1.947   1.124 -0.6184  1.7486 -0.9953
  931MPD2     N13626   2.923   1.515   1.068  0.2330  0.1567 -0.7116
  931MPD2    H513627   2.986   1.514   1.147 -0.3445 -0.5073 -0.2532
  931MPD2    N113628   2.550   1.747   0.836 -0.7039  0.1754  0.7297
  931MPD2    H713629   2.499   1.834   0.839 -2.0819 -0.5546 -2.0085
  932MPD2     C13630   3.842   4.313  11.149  0.0889 -0.0351 -0.3662
  932MPD2    C113631   3.969   4.364  11.147 -0.4797 -0.4347  0.5470
  932MPD2    C213632   4.070   4.277  11.118  0.2174  0.1970 -0.1349
  932MPD2    C313633   4.054   4.141  11.106  0.0352  0.4519 -0.0150
  932MPD2    C413634   3.923   4.097  11.102  0.1425 -0.1530 -0.0070
  932MPD2    C513635   3.818   4.184  11.126  0.0538  0.5269 -0.3582
  932MPD2     H13636   4.168   4.325  11.127 -0.6927  1.9978  0.2551
  932MPD2    H113637   3.898   3.995  11.072 -0.1089 -0.6339  1.8323
  932MPD2    H213638   3.763   4.382  11.175 -0.0582 -0.6684  0.8658
  932MPD2    H313639   3.717   4.145  11.126  1.3818 -2.9128  1.4154
  932MPD2     N13640   4.149   4.034  11.108 -0.3706 -0.2129  0.7505
  932MPD2    H513641   4.114   3.939  11.108  1.1248 -0.7653  0.6635
  932MPD2    N113642   4.001   4.499  11.177  0.3517  0.4389  0.3222
  932MPD2    H713643   4.097   4.518  11.150  0.3861 -1.7980 -1.1656
  933MPD2     C13644   0.667   4.604   2.082 -0.2253 -0.0424 -0.1283
  933MPD2    C113645   0.720   4.690   1.989  0.1496  0.0213 -0.8905
  933MPD2    C213646   0.681   0.106   1.997  0.4325  0.3068 -0.2794
  933MPD2    C313647   0.596   0.159   2.091 -0.4130 -0.2427  0.1145
  933MPD2    C413648   0.558   0.070   2.187 -0.1911  0.2501  0.1274
  933MPD2    C513649   0.579   4.657   2.176  0.3809 -0.1421  0.0253
  933MPD2     H13650   0.703   0.172   1.914  2.0406  0.5630  0.3505
  933MPD2    H113651   0.483   0.097   2.259  1.0127  0.2719  1.3700
  933MPD2    H213652   0.684   4.497   2.073  0.1014 -0.0166  0.1858
  933MPD2    H313653   0.522   4.588   2.238 -1.5124 -0.4911 -2.1055
  933MPD2     N13654   0.544   0.290   2.071  0.5358 -0.0147 -0.2602
  933MPD2    H513655   0.573   0.345   1.991 -0.1111  2.7284  1.3816
  933MPD2    N113656   0.811   4.646   1.888  0.2351 -0.3518 -0.3902
  933MPD2    H713657   0.847   4.553   1.904  1.4975  0.5991  2.3192
  934MPD2     C13658   0.616   2.536   1.565  0.1478 -0.0588  0.8661
  934MPD2    C113659   0.692   2.420   1.565 -0.0035  0.3422  0.5873
  934MPD2    C213660   0.638   2.299   1.540  0.0950  0.0729 -0.8014
  934MPD2    C313661   0.501   2.274   1.527 -1.2683  0.4248  0.4548
  934MPD2    C413662   0.419   2.388   1.528  0.5639  0.0058  0.1534
  934MPD2    C513663   0.475   2.509   1.545  0.7277 -0.4210 -0.4454
  934MPD2     H13664   0.706   2.215   1.530  1.2173  0.9157 -0.2696
  934MPD2    H113665   0.316   2.379   1.498  0.9248 -0.1758 -1.0504
  934MPD2    H213666   0.657   2.634   1.585  2.1510 -0.7857  0.3338
  934MPD2    H313667   0.414   2.598   1.556  1.4019 -0.2740  2.1272
  934MPD2     N13668   0.442   2.146   1.528 -0.1231 -0.0970 -0.3037
  934MPD2    H513669   0.342   2.143   1.512 -0.0946  0.5092 -0.6090
  934MPD2    N113670   0.833   2.414   1.594 -0.4512 -0.4877  0.4797
  934MPD2    H713671   0.870   2.319   1.590 -1.1928 -0.7322 -0.5264
  935MPD2     C13672   0.942   1.292   1.593  0.1661 -0.1432 -0.4110
  935MPD2    C113673   0.865   1.300   1.479  0.1287  0.2390  0.1367
  935MPD2    C213674   0.764   1.391   1.473  0.3835  0.0065 -0.2684
  935MPD2    C313675   0.732   1.470   1.579  0.9093  0.1799 -0.3339
  935MPD2    C413676   0.810   1.461   1.690  0.6720  0.2290 -0.1605
  935MPD2    C513677   0.914   1.373   1.700 -0.7228  0.3319  0.3223
  935MPD2     H13678   0.715   1.403   1.377 -0.6168 -0.0773  0.2299
  935MPD2    H113679   0.793   1.531   1.771  1.3876 -0.2369  0.4028
  935MPD2    H213680   1.023   1.222   1.607  0.6577  0.5364  0.1740
  935MPD2    H313681   0.973   1.376   1.791 -2.0970  1.0915  1.1892
  935MPD2     N13682   0.617   1.557   1.586  0.7783  0.7379  0.5093
  935MPD2    H513683   0.597   1.618   1.664 -1.2762  0.5580  0.1190
  935MPD2    N113684   0.900   1.223   1.364 -0.3787 -0.2802 -0.3734
  935MPD2    H713685   0.831   1.217   1.289  0.2272  1.7750 -1.0872
  936MPD2     C13686   4.209   3.049  12.028  0.2558 -0.8047 -0.0835
  936MPD2    C113687   4.201   3.149  12.124 -0.6142  0.1333 -0.0808
  936MPD2    C213688   4.262   3.269  12.100 -0.4377  0.6685 -0.2342
  936MPD2    C313689   4.335   3.302  11.986 -0.2236 -0.0793 -0.3370
  936MPD2    C413690   4.345   3.200  11.892 -0.0600  0.3165  0.3219
  936MPD2    C513691   4.292   3.074  11.923 -0.2721  0.1549 -0.2270
  936MPD2     H13692   4.245   3.340  12.180 -0.9807 -1.1609  1.2750
  936MPD2    H113693   4.411   3.206  11.807  0.4616  0.0066  0.7095
  936MPD2    H213694   4.181   2.947  12.054 -1.5165 -0.6368 -1.3540
  936MPD2    H313695   4.325   2.994  11.858 -0.2135  1.2413 -1.5539
  936MPD2     N13696   4.415   3.424  11.981 -0.1539 -0.4247  0.3254
  936MPD2    H513697   4.479   3.423  11.902  1.3511 -2.2731  1.5476
  936MPD2    N113698   4.134   3.129  12.244  0.1371  0.0833 -0.2492
  936MPD2    H713699   4.128   3.211  12.304  0.4983 -1.9884  2.6381
  937MPD2     C13700   2.400   4.031  11.293 -0.0293  0.2854  0.3740
  937MPD2    C113701   2.385   4.168  11.312 -0.1575  1.2840  0.2662
  937MPD2    C213702   2.463   4.244  11.217  0.0733  0.2746  0.1208
  937MPD2    C313703   2.530   4.193  11.106 -0.5131  1.0032 -0.1874
  937MPD2    C413704   2.504   4.063  11.079 -0.4873  0.0726  0.1493
  937MPD2    C513705   2.442   3.985  11.174 -0.2047  0.0203  0.0143
  937MPD2     H13706   2.478   4.348  11.243  1.9725 -0.2311  1.0826
  937MPD2    H113707   2.541   4.012  10.991  0.0961  1.5199 -0.4422
  937MPD2    H213708   2.357   3.960  11.363  0.3968  0.9466  1.2936
  937MPD2    H313709   2.451   3.880  11.148 -1.5143  0.3595 -1.7900
  937MPD2     N13710   2.619   4.274  11.038  1.0380  0.0605 -0.0638
  937MPD2    H513711   2.646   4.229  10.951 -1.1347 -0.6538 -0.3738
  937MPD2    N113712   2.345   4.230  11.427  0.0887  0.2759  0.4600
  937MPD2    H713713   2.349   4.332  11.430  2.6774  0.1951 -0.1102
  938MPD2     C13714   0.612   1.030   1.174 -0.5683  0.4190  0.0026
  938MPD2    C113715   0.566   1.132   1.254 -0.1101  0.2696 -0.1212
  938MPD2    C213716   0.577   1.121   1.395 -0.1908 -0.2614 -0.2565
  938MPD2    C313717   0.643   1.008   1.444 -0.0602 -0.4035  0.0012
  938MPD2    C413718   0.677   0.911   1.360  0.1428 -0.2000  0.0101
  938MPD2    C513719   0.670   0.915   1.226  0.8921  0.0484 -0.7075
  938MPD2     H13720   0.535   1.199   1.457  0.9807  0.3873 -0.2886
  938MPD2    H113721   0.715   0.821   1.405  1.8525  0.4223 -0.1900
  938MPD2    H213722   0.612   1.034   1.066  2.5193 -1.4792 -0.0662
  938MPD2    H313723   0.705   0.837   1.159  0.0714 -0.7861 -0.1660
  938MPD2     N13724   0.676   0.988   1.583  0.6184  0.2184  1.2540
  938MPD2    H513725   0.718   0.902   1.617 -0.5215 -0.2688  1.4034
  938MPD2    N113726   0.516   1.252   1.197 -0.3776  0.2727  0.1960
  938MPD2    H713727   0.492   1.333   1.253  0.0243 -0.8158  1.9396
  939MPD2     C13728   1.727   3.043   1.028 -0.2647 -0.1374 -0.1675
  939MPD2    C113729   1.624   2.968   0.980 -0.5266 -0.4234  0.1908
  939MPD2    C213730   1.639   2.864   0.886 -1.1403  0.1512  0.2566
  939MPD2    C313731   1.760   2.844   0.832  0.1329  0.6156 -0.2844
  939MPD2    C413732   1.866   2.925   0.872 -0.3407 -0.1348  0.3337
  939MPD2    C513733   1.847   3.025   0.966  0.1871  0.0229 -0.1366
  939MPD2     H13734   1.566   2.799   0.838 -1.0785  0.3714 -0.1376
  939MPD2    H113735   1.968   2.912   0.836 -0.6383  1.5926 -1.1500
  939MPD2    H213736   1.716   3.132   1.089  0.9014 -0.6700  0.8208
  939MPD2    H313737   1.932   3.079   1.006  1.6265 -1.5209 -1.1179
  939MPD2     N13738   1.781   2.735   0.735  0.2266  0.0859 -0.2928
  939MPD2    H513739   1.706   2.668   0.718 -0.5509  0.8218  0.2565
  939MPD2    N113740   1.500   2.995   1.048 -0.0360 -0.2490 -0.8208
  939MPD2    H713741   1.508   3.066   1.120 -1.6778 -0.4472 -0.4263
  940MPD2     C13742   4.068   2.724  12.679 -0.3951  0.5242 -0.1993
  940MPD2    C113743   4.182   2.792  12.715 -0.5676 -0.1233 -0.3479
  940MPD2    C213744   4.276   2.812  12.612  0.4314 -0.4674  0.2123
  940MPD2    C313745   4.259   2.765  12.484 -0.0109  0.1624 -0.2437
  940MPD2    C413746   4.140   2.700  12.458 -0.5294  0.5606 -0.6100
  940MPD2    C513747   4.046   2.684  12.553  0.0463 -0.2352  0.2758
  940MPD2     H13748   4.363   2.875  12.630 -1.1045  1.9924 -0.9408
  940MPD2    H113749   4.116   2.668  12.357 -2.0789 -0.0535 -0.0547
  940MPD2    H213750   3.997   2.704  12.759 -0.5467 -1.3976 -0.7956
  940MPD2    H313751   3.948   2.639  12.536  0.7385 -2.1344  1.2493
  940MPD2     N13752   4.340   2.798  12.370 -0.1280 -0.7006 -0.1084
  940MPD2    H513753   4.325   2.742  12.287 -1.7494 -0.8814  0.2972
  940MPD2    N113754   4.196   2.847  12.843  0.0593 -0.6880 -0.1375
  940MPD2    H713755   4.278   2.905  12.856 -0.6738  0.8470 -2.2519
  941MPD2     C13756   4.209   2.633   9.413 -0.1552  0.1381  0.0252
  941MPD2    C113757   4.309   2.644   9.503 -0.1092 -0.2641 -0.9031
  941MPD2    C213758   4.293   2.587   9.631  0.1138 -0.0387  0.3581
  941MPD2    C313759   4.181   2.518   9.657  0.4108 -0.1557 -0.3448
  941MPD2    C413760   4.077   2.505   9.566 -0.2325  0.3406  0.6023
  941MPD2    C513761   4.094   2.561   9.442  0.1870 -0.5449  0.8143
  941MPD2     H13762   4.368   2.599   9.710  1.6689  1.4537 -1.3528
  941MPD2    H113763   3.984   2.458   9.594 -0.6977  0.6971 -0.3377
  941MPD2    H213764   4.208   2.679   9.314  0.9788  1.0433  0.4411
  941MPD2    H313765   4.018   2.549   9.366 -0.1176  2.6891  0.6161
  941MPD2     N13766   4.167   2.441   9.777 -0.1141  1.0447 -0.3164
  941MPD2    H513767   4.074   2.400   9.785 -0.3492  1.6865  0.2492
  941MPD2    N113768   4.428   2.701   9.453  0.1773  0.0227 -0.5081
  941MPD2    H713769   4.436   2.717   9.353  1.4382  0.9900 -0.2615
  942MPD2     C13770   4.576   4.541   9.022  0.3936 -0.2153 -0.9301
  942MPD2    C113771   4.655   4.510   8.915 -0.5476  0.1294 -0.2541
  942MPD2    C213772   0.030   4.412   8.933 -0.0779 -0.1907  0.3034
  942MPD2    C313773   0.059   4.358   9.056 -0.0399 -0.2631  0.4030
  942MPD2    C413774   4.710   4.402   9.166  0.5588  0.4661 -0.0552
  942MPD2    C513775   4.602   4.486   9.143 -1.0324 -0.5391 -0.4085
  942MPD2     H13776   0.095   4.406   8.846 -1.7716 -0.2238 -0.9505
  942MPD2    H113777   0.021   4.376   9.267  0.9570 -1.4772 -0.6848
  942MPD2    H213778   4.487   4.603   9.022  0.4897 -0.0704  0.9562
  942MPD2    H313779   4.547   4.519   9.230 -0.7003  1.4589 -0.9705
  942MPD2     N13780   0.171   4.278   9.082  0.5614 -0.1243  0.2251
  942MPD2    H513781   0.184   4.255   9.180 -2.2187  0.5290  0.7328
  942MPD2    N113782   4.636   4.573   8.790  0.3344  0.1075 -0.0254
  942MPD2    H713783   4.693   4.537   8.714  1.6702 -1.6974  1.8096
  943MPD2     C13784   3.069   2.248   9.554 -0.5016 -0.3937 -0.1784
  943MPD2    C113785   3.041   2.111   9.529 -0.4240 -0.0259  0.4943
  943MPD2    C213786   3.116   2.026   9.602  0.1904  0.1107 -0.6156
  943MPD2    C313787   3.205   2.056   9.699 -0.3448  0.0933 -0.5606
  943MPD2    C413788   3.233   2.188   9.721 -1.1996 -0.0736  0.5534
  943MPD2    C513789   3.170   2.283   9.640 -0.6173  0.1387  0.0672
  943MPD2     H13790   3.083   1.923   9.607 -2.4951  1.0454  0.8002
  943MPD2    H113791   3.307   2.217   9.795 -0.4076  0.2880 -0.3729
  943MPD2    H213792   3.013   2.324   9.501 -2.7614 -3.9026 -2.8449
  943MPD2    H313793   3.191   2.389   9.646 -0.8825  0.2564 -1.0252
  943MPD2     N13794   3.284   1.968   9.778 -0.2452  0.1439 -0.4128
  943MPD2    H513795   3.353   2.008   9.841  0.1768 -0.4778 -0.4723
  943MPD2    N113796   2.929   2.072   9.453  0.0874 -0.1793 -0.1070
  943MPD2    H713797   2.871   2.144   9.412  0.5593 -0.0341 -0.5197
  944MPD2     C13798   2.735   4.684  11.681 -0.4017 -0.0520  0.0419
  944MPD2    C113799   2.731   0.036  11.569  0.0480  0.2142 -0.2957
  944MPD2    C213800   2.763   0.168  11.575  0.6386  0.1068 -0.5062
  944MPD2    C313801   2.812   0.220  11.696 -0.6209  0.2370  0.3145
  944MPD2    C413802   2.818   0.135  11.806  0.0935 -0.2316  0.4649
  944MPD2    C513803   2.777   0.009  11.799 -0.6136  0.0711  0.0253
  944MPD2     H13804   2.751   0.229  11.485 -0.8874 -0.5552 -0.7461
  944MPD2    H113805   2.847   0.163  11.907 -0.8906 -0.6659  0.8768
  944MPD2    H213806   2.709   4.579  11.683 -0.5966  0.0253  1.3112
  944MPD2    H313807   2.778   4.663  11.885 -0.3696 -2.0107 -1.5747
  944MPD2     N13808   2.838   0.363  11.696  0.5179 -0.4265 -0.2193
  944MPD2    H513809   2.821   0.403  11.604 -2.1740 -1.5162 -0.1898
  944MPD2    N113810   2.701   4.694  11.448 -0.2457 -0.2161  0.1410
  944MPD2    H713811   2.649   4.607  11.452  0.7077 -0.7683  0.3304
    1TCq1    O113812   1.027   1.908  14.129 -0.4972  0.0007 -0.2866
    1TCq1    C113813   1.109   1.831  14.053 -0.3854  0.0735  0.2703
    1TCq1    O213814   1.081   1.772  13.949 -0.1933  0.0398 -0.6727
    1TCq1    C213815   1.214   1.797  14.153  0.0073  0.2572 -0.0920
    1TCq1    C313816   1.241   1.664  14.173  0.7015 -0.3521 -0.0202
    1TCq1    C413817   1.313   1.628  14.284 -0.4804  0.1283  0.1636
    1TCq1    C513818   1.344   1.723  14.375 -0.4570 -0.1221 -0.9260
    1TCq1    C613819   1.321   1.853  14.348  0.7833  0.7745  0.4271
    1TCq1    C713820   1.263   1.897  14.234 -0.0577 -0.4661 -0.1732
    1TCq1    C813821   1.381   1.951  14.440 -0.4597 -0.5892 -0.8159
    1TCq1    O413822   1.475   1.919  14.513  0.2352 -0.5309  0.3801
    1TCq1    C913823   1.342   1.490  14.310  0.5000 -0.4788 -0.0314
    1TCq1    O513824   1.287   1.404  14.236 -0.1668  0.1256  0.4887
    1TCq1    O613825   1.415   1.472  14.408 -0.3528 -0.0295 -0.2872
    1TCq1    H113826   1.060   1.929  14.219  0.4409 -0.9626 -0.4111
    1TCq1    H213827   1.195   1.588  14.111  0.5128  0.3224 -0.7097
    1TCq1    H313828   1.402   1.699  14.463 -0.6100  0.5943 -0.6341
    1TCq1    H413829   1.245   2.001  14.214 -1.9111  0.0209  4.0238
    2MPD2     C13830   1.382   2.424  14.662 -0.4533 -0.1857 -0.2743
    2MPD2    C113831   1.256   2.396  14.607  0.5587  0.5884 -0.1331
    2MPD2    C213832   1.238   2.278  14.531  0.4292  0.4293  0.3610
    2MPD2    C313833   1.337   2.185  14.531 -0.2110 -0.0149 -0.1289
    2MPD2    C413834   1.453   2.199  14.606 -0.1369  0.2587  0.3202
    2MPD2    C513835   1.466   2.318  14.670  0.2248 -0.6720  0.2389
    2MPD2     H13836   1.147   2.273  14.473 -0.2961 -1.1194  1.5929
    2MPD2    H113837   1.528   2.121  14.604  1.9684  2.2878 -0.2132
    2MPD2    H213838   1.406   2.518  14.711 -2.1616  0.7379 -1.2080
    2MPD2    H313839   1.556   2.339  14.727  1.3373 -1.5505 -1.1849
    2MPD2     N13840   1.310   2.072  14.441 -0.3866  0.0844  0.2024
    2MPD2    H513841   1.231   2.084  14.378 -0.9463 -0.5997  0.7720
    2MPD2    N113842   1.169   2.508  14.606  0.3861 -0.0665  0.2266
    2MPD2    H713843   1.216   2.593  14.636 -0.2451 -0.2527  1.7479
    3TMC2    C113844   0.995   2.642  14.511 -0.4309 -0.0397 -0.2482
    3TMC2    C213845   1.092   2.746  14.501  0.1269 -0.1113  0.1033
    3TMC2    C313846   1.080   2.840  14.407 -0.6243  0.5609  0.7793
    3TMC2    C413847   0.883   2.645  14.431  0.5376 -0.4445 -0.5134
    3TMC2    C513848   0.881   2.738  14.330 -0.1831 -1.1235  0.1082
    3TMC2    C613849   0.979   2.836  14.317  0.2137 -0.6778  0.0872
    3TMC2     C13850   1.042   2.510  14.553 -0.0626 -0.3748 -0.0460
    3TMC2     O13851   0.980   2.407  14.522 -0.1578  0.4038  0.2007
    3TMC2     H13852   1.165   2.757  14.581 -0.2231  1.7402  0.1659
    3TMC2    H113853   0.807   2.568  14.436 -0.7012  0.7143 -1.6290
    3TMC2    H213854   0.979   2.916  14.243 -0.8606  0.6162  1.4746
    3TMC2    C713855   0.757   2.746  14.256 -0.2075  0.2036 -0.3442
    3TMC2    C813856   1.155   2.966  14.423  0.7312  0.2781  0.3938
    3TMC2    O113857   0.654   2.693  14.304  0.1912  0.2771 -0.8215
    3TMC2    O213858   1.114   3.070  14.384 -0.3894 -0.3354 -0.5019
    3TMC2    O513859   1.276   2.940  14.465 -0.0100 -0.4477  0.3613
    3TMC2    H513860   1.300   2.846  14.460  4.6215  0.6460  2.1874
    4MPD2     C13861   0.168   3.471  13.377  0.0713  0.4660 -0.2006
    4MPD2    C113862   0.250   3.483  13.267  0.2551 -0.6188 -0.0779
    4MPD2    C213863   0.347   3.389  13.239  0.5600 -0.4133 -0.1606
    4MPD2    C313864   0.351   3.278  13.320 -0.0166 -0.5173 -0.3287
    4MPD2    C413865   0.263   3.262  13.422  0.9676  0.2688  0.1628
    4MPD2    C513866   0.166   3.359  13.453 -1.0771  0.0283  0.4282
    4MPD2     H13867   0.412   3.413  13.156  1.9622  2.5843  1.7928
    4MPD2    H113868   0.276   3.174  13.484  0.3358  0.1193  0.0862
    4MPD2    H213869   0.089   3.544  13.390 -0.7879 -0.7250  1.2511
    4MPD2    H313870   0.104   3.345  13.540 -0.3498 -1.5514  0.6825
    4MPD2     N13871   0.461   3.189  13.299 -0.5201  0.0162 -0.2280
    4MPD2    H513872   0.500   3.184  13.206 -4.4273  3.1336 -2.0306
    4MPD2    N113873   0.231   3.605  13.200 -0.5394  0.1763 -0.3863
    4MPD2    H713874   0.177   3.677  13.246 -1.6693 -0.9920  0.1022
    5TCq2    C113875   0.523   3.123  13.399 -0.7168 -0.1120  0.5781
    5TCq2    O213876   0.496   3.117  13.516  0.4777 -0.1661 -0.1688
    5TCq2    C213877   0.648   3.070  13.361  0.1587 -0.7671 -0.5660
    5TCq2    C313878   0.648   2.976  13.264  0.2537 -0.2113  0.1961
    5TCq2    C413879   0.754   2.880  13.266 -0.0042  0.2948 -0.3751
    5TCq2    C513880   0.829   2.872  13.373  0.6305  0.2086  0.3100
    5TCq2    C613881   0.817   2.958  13.481  0.0214  0.2069 -0.3369
    5TCq2    C713882   0.730   3.062  13.469 -0.2814  0.2165  0.5153
    5TCq2    C813883   0.802   2.895  13.612  0.2642 -0.5427  0.4516
    5TCq2    O413884   0.881   2.813  13.650  0.5502  0.5582 -0.0938
    5TCq2    C913885   0.760   2.775  13.170 -0.1311 -0.1397  0.2923
    5TCq2    O513886   0.865   2.708  13.164  0.2637 -0.1445 -0.3319
    5TCq2    O613887   0.689   2.797  13.070  0.2310 -0.7296  0.6873
    5TCq2    H213888   0.565   2.969  13.195  0.3385  0.1436  0.0598
    5TCq2    H313889   0.883   2.778  13.385 -0.3297 -0.2027  1.4136
    5TCq2    H413890   0.732   3.146  13.537  0.9173  1.8878 -1.5811
    6MPD1     C13891   3.977   0.468  13.370 -0.2314  0.3251  0.9761
    6MPD1    C113892   3.952   0.409  13.252 -0.4506  0.6066  0.5900
    6MPD1    C213893   4.042   0.310  13.218 -0.5905 -0.2751 -0.2492
    6MPD1    C313894   4.141   0.257  13.303  0.0479 -0.1767  0.7614
    6MPD1    C413895   4.141   0.304  13.434  0.7623  0.2013  0.2998
    6MPD1    C513896   4.057   0.409  13.462 -0.3871 -0.7543  0.7654
    6MPD1     H13897   4.035   0.282  13.114 -0.5948 -0.6185 -0.1557
    6MPD1    H113898   4.218   0.272  13.503  1.3919 -0.7056 -0.8199
    6MPD1    H213899   3.905   0.541  13.405  1.8122  3.0045 -0.3125
    6MPD1    H313900   4.048   0.452  13.561 -2.2140  3.4827 -1.2371
    6MPD1     N13901   4.235   0.155  13.267 -1.1471 -0.5500 -0.3515
    6MPD1    H513902   4.295   0.112  13.337  1.1066  2.0984 -0.6783
    6MPD1    N113903   3.872   0.468  13.159 -0.5282  0.6477  0.2741
    6MPD1    H613904   3.840   0.404  13.086 -1.0666  1.2196  0.0103
    6MPD1    H713905   3.791   0.517  13.197  0.3256 -0.0670  3.0573
    7MPD2     C13906   4.522   4.153  13.424 -0.6065 -0.2898 -0.4187
    7MPD2    C113907   4.517   4.180  13.291 -0.4038 -0.2817  0.3692
    7MPD2    C213908   4.526   4.083  13.200  0.0565  0.0512  0.7253
    7MPD2    C313909   4.545   3.949  13.232  0.3562  0.0311 -0.0530
    7MPD2    C413910   4.552   3.919  13.364 -0.0847  0.3193  0.4908
    7MPD2    C513911   4.533   4.021  13.460 -0.6915 -0.2163 -0.6020
    7MPD2     H13912   4.527   4.114  13.096 -2.0674  0.7525  0.9199
    7MPD2    H113913   4.569   3.817  13.396 -0.1185 -0.7504 -2.8720
    7MPD2    H213914   4.517   4.227  13.503  0.3748 -2.0363  1.2790
    7MPD2    H313915   4.534   3.993  13.565  1.9568  2.1796 -0.0009
    7MPD2     N13916   4.594   3.855  13.132  0.1271 -0.7100  0.5262
    7MPD2    H513917   4.628   3.763  13.157  0.2595 -1.5103 -2.5585
    7MPD2    N113918   4.507   4.316  13.242 -0.7422 -0.7989 -0.0983
    7MPD2    H713919   4.512   4.334  13.142 -0.4341  0.6046  0.1660
    8TMC3    C113920   4.701   3.791  12.929 -0.1106  0.3239  0.0867
    8TMC3    C213921   0.061   3.722  13.019 -0.5760 -0.1185  0.3282
    8TMC3    C313922   0.195   3.747  13.021  0.4220 -0.3470 -0.0647
    8TMC3    C413923   0.036   3.860  12.820 -0.3993  1.0545 -0.0681
    8TMC3    C513924   0.172   3.884  12.828  1.1068  0.1897  0.1516
    8TMC3    C613925   0.249   3.825  12.925  0.5079 -0.1817  0.3727
    8TMC3     C13926   4.612   3.881  12.998 -0.3068  0.3023  0.2755
    8TMC3     O13927   4.571   3.976  12.931 -0.1240  0.3382 -0.2328
    8TMC3     H13928   0.020   3.645  13.084 -0.0526 -1.8299 -1.3712
    8TMC3    H113929   4.693   3.911  12.749  0.4456  0.4729 -1.2350
    8TMC3    H213930   0.352   3.857  12.934  0.3184 -0.0932  2.2822
    8TMC3    C713931   0.197   4.025  12.814  0.0482  0.3218 -0.3482
    8TMC3    C813932   0.280   3.645  13.080  0.3338 -0.3536  0.0077
    8TMC3    O113933   0.228   4.094  12.914 -1.3812  0.3913 -0.3716
    8TMC3    O213934   0.349   3.580  13.003  0.0871  0.0570  0.1240
    9TMC3    C113935   4.366   0.012  13.129  0.5275 -0.0834 -0.7897
    9TMC3    C213936   4.436   4.717  13.010  0.2440  0.3138 -0.0099
    9TMC3    C313937   4.536   4.622  13.010  0.5374 -0.0091  0.7385
    9TMC3    C413938   4.381   4.644  13.230  0.0934 -0.2372  0.3506
    9TMC3    C513939   4.482   4.548  13.222 -0.2091  0.2850  0.2000
    9TMC3    C613940   4.573   4.543  13.118  0.7023 -0.1715 -0.7024
    9TMC3     C13941   4.267   0.115  13.135 -0.2175 -0.5283  0.5830
    9TMC3     O13942   4.211   0.137  13.032 -0.5168 -0.2014  0.2522
    9TMC3     H13943   4.435   0.069  12.929 -1.3714  0.7839  0.4507
    9TMC3    H113944   4.301   4.621  13.300  1.4578 -1.5566  1.4640
    9TMC3    H213945   4.660   4.479  13.115  0.8486  0.0491 -1.2087
    9TMC3    C713946   4.476   4.431  13.311  0.5847  0.2115 -1.0889
    9TMC3    C813947   4.601   4.591  12.881  0.0803 -0.0264 -0.4948
    9TMC3    O113948   4.465   4.444  13.432 -0.0024 -0.1643 -0.0029
    9TMC3    O213949   4.571   4.658  12.787 -0.1614 -0.5035 -0.2465
   10MPD2     C13950   0.074   4.243  12.540  0.1154 -0.7749 -0.1410
   10MPD2    C113951   0.100   4.205  12.668  0.1608 -0.2996  0.2978
   10MPD2    C213952   0.062   4.292  12.775 -0.2747 -0.3833  0.9123
   10MPD2    C313953   4.715   4.412  12.754 -0.0533 -0.3325  0.5120
   10MPD2    C413954   4.704   4.453  12.629 -0.2126 -0.2924  0.4557
   10MPD2    C513955   0.019   4.370  12.520  0.0728 -0.0511 -0.2654
   10MPD2     H13956   0.070   4.250  12.875  2.9256 -0.9434  0.4026
   10MPD2    H113957   4.652   4.545  12.607  0.7134  0.0410 -0.3406
   10MPD2    H213958   0.111   4.188  12.454  0.3148  1.7786 -1.6635
   10MPD2    H313959   0.007   4.395  12.415 -1.3489 -1.0619 -0.3538
   10MPD2     N13960   4.679   4.482  12.877 -0.6140  0.4038  0.5205
   10MPD2    H513961   4.709   4.446  12.967  0.5674 -1.3605 -0.5705
   10MPD2    N113962   0.155   4.076  12.692 -0.4511 -0.2406 -0.5703
   10MPD2    H713963   0.144   4.012  12.614 -0.5155 -1.5565  0.5353
   11MPD2     C13964   0.563   2.870  14.074  0.0333  0.2146  0.6498
   11MPD2    C113965   0.693   2.840  14.035  0.2275 -0.9716  0.3458
   11MPD2    C213966   0.735   2.866  13.905  0.1783 -0.2362  0.3657
   11MPD2    C313967   0.651   2.917  13.811 -0.3332  0.5875 -0.6308
   11MPD2    C413968   0.522   2.955  13.859  0.0221  0.2166 -0.6426
   11MPD2    C513969   0.474   2.928  13.987  0.2316  0.9033 -0.6031
   11MPD2     H13970   0.838   2.846  13.878 -0.4978 -2.3169 -0.6517
   11MPD2    H113971   0.454   3.010  13.794 -1.0185  0.3433  0.5516
   11MPD2    H213972   0.523   2.836  14.169 -0.7139 -0.4802  0.0822
   11MPD2    H313973   0.370   2.940  14.013  0.0255  0.1781 -1.0553
   11MPD2     N13974   0.695   2.949  13.679 -0.2768 -0.2341 -0.1827
   11MPD2    H513975   0.640   3.004  13.614 -1.3136  0.0961  0.9907
   11MPD2    N113976   0.780   2.798  14.133 -0.0818 -0.0578  0.1862
   11MPD2    H713977   0.874   2.777  14.101 -0.3578 -1.2990  0.1953
    1MPD1     C13978   3.059   4.204  17.046 -0.6210  0.0051  0.3019
    1MPD1    C113979   2.970   4.301  16.995 -0.4209 -0.1580 -0.7466
    1MPD1    C213980   3.018   4.426  16.972  1.2012 -0.6341 -0.1678
    1MPD1    C313981   3.152   4.455  16.987  0.0561  0.0711 -0.5930
    1MPD1    C413982   3.239   4.356  17.023  0.0556 -0.3090 -0.1421
    1MPD1    C513983   3.193   4.230  17.055 -0.0145  0.1453  0.9026
    1MPD1     H13984   2.953   4.512  16.958 -0.1685 -1.4326  1.2359
    1MPD1    H113985   3.344   4.381  17.033 -0.2465  0.7449  0.3621
    1MPD1    H213986   3.021   4.105  17.064 -0.0536 -0.5531 -1.5293
    1MPD1    H313987   3.260   4.151  17.088 -1.4072 -0.1908  2.9147
    1MPD1     N13988   3.210   4.584  16.960 -0.3568  0.6299  0.4495
    1MPD1    H513989   3.311   4.593  16.962 -0.1706 -1.3158 -0.0695
    1MPD1    N113990   2.831   4.285  17.010 -0.1852  0.4917  0.6555
    1MPD1    H613991   2.781   4.320  16.929  1.5037  0.3779 -0.4415
    1MPD1    H713992   2.820   4.184  17.020  0.0577  0.2012 -1.9038
    2MPD1     C13993   3.348   0.495  16.204 -0.1546  0.1454 -0.3394
    2MPD1    C113994   3.228   0.422  16.223 -0.4716 -0.1202  0.1652
    2MPD1    C213995   3.192   0.381  16.353 -0.4017  0.1745  0.0103
    2MPD1    C313996   3.285   0.402  16.463  0.4283  0.6746 -0.2308
    2MPD1    C413997   3.396   0.468  16.441 -0.0206 -0.4833 -0.8922
    2MPD1    C513998   3.429   0.512  16.312 -0.0394  0.3471  0.0600
    2MPD1     H13999   3.101   0.323  16.357  0.9338 -2.0801 -2.2764
    2MPD1    H114000   3.467   0.498  16.516  0.4747 -0.2438 -1.4626
    2MPD1    H214001   3.371   0.541  16.108  0.3543 -0.6703 -0.6030
    2MPD1    H314002   3.512   0.581  16.321  1.3829 -1.4636  0.8433
    2MPD1     N14003   3.245   0.357  16.593 -0.2672  0.4851  0.2855
    2MPD1    H514004   3.150   0.322  16.606 -0.2404 -0.1842 -1.2781
    2MPD1    N114005   3.138   0.395  16.118 -0.0928  0.3434 -0.2194
    2MPD1    H614006   3.170   0.394  16.022  1.3020  0.0882  0.2529
    2MPD1    H714007   3.068   0.324  16.139 -3.2794  3.2218 -1.1935
    3TMC3    C114008   3.244   0.313  16.816 -0.6429  0.4395 -0.3844
    3TMC3    C214009   3.295   0.356  16.937 -0.1172 -0.3633  0.2273
    3TMC3    C314010   3.307   0.268  17.039  0.2018 -0.5185  0.2283
    3TMC3    C414011   3.199   0.182  16.799 -0.5093  0.1493  0.8264
    3TMC3    C514012   3.222   0.092  16.901 -0.1514 -0.1000  0.1062
    3TMC3    C614013   3.262   0.137  17.024 -0.3733  0.0444  0.6635
    3TMC3     C14014   3.314   0.369  16.705  1.0637 -0.1175  0.3260
    3TMC3     O14015   3.433   0.386  16.716  0.1940  0.1830 -0.1534
    3TMC3     H14016   3.354   0.447  16.940  0.7493 -0.9248  0.3385
    3TMC3    H114017   3.176   0.148  16.698 -1.9129  0.0269  1.1900
    3TMC3    H214018   3.245   0.083  17.116  0.3954 -1.3067  0.0007
    3TMC3    C714019   3.145   4.692  16.908  0.9841  0.3549  0.3405
    3TMC3    C814020   3.361   0.311  17.161  0.4522 -0.9650 -0.2765
    3TMC3    O114021   3.029   4.710  16.868  0.0027  0.4837 -0.8572
    3TMC3    O214022   3.349   0.433  17.180  0.2706 -0.5320 -0.1110
    4MPD1     C14023   3.744   0.322  17.476  0.7513  0.1998  0.4024
    4MPD1    C114024   3.743   0.195  17.422 -0.2679  0.9429  0.3549
    4MPD1    C214025   3.642   0.162  17.330  0.4683 -0.0442  0.0521
    4MPD1    C314026   3.531   0.251  17.318  0.2651  0.4104 -0.0375
    4MPD1    C414027   3.538   0.373  17.383  0.1498  0.3364  0.4650
    4MPD1    C514028   3.645   0.405  17.458 -0.1644 -0.2153 -0.2088
    4MPD1     H14029   3.644   0.074  17.267  1.7871 -1.1925  1.6928
    4MPD1    H114030   3.465   0.452  17.388 -1.9160 -1.6065  0.9541
    4MPD1    H214031   3.832   0.349  17.533  0.4236 -2.1829  2.0013
    4MPD1    H314032   3.656   0.501  17.506 -0.8076  0.4173 -1.3223
    4MPD1     N14033   3.434   0.213  17.224 -0.5771  0.2780 -0.2896
    4MPD1    H514034   3.442   0.124  17.176 -0.5093  0.8603 -1.3703
    4MPD1    N114035   3.855   0.122  17.453 -0.1932  0.0119 -0.3218
    4MPD1    H614036   3.843   0.021  17.447 -0.2758 -0.0114  0.2952
    4MPD1    H714037   3.877   0.152  17.547 -1.3140 -0.1565  0.0005
    1TCq1    O114038   0.375   4.105  11.937 -0.0856  0.4490 -0.3567
    1TCq1    C114039   0.246   4.107  11.958  0.3023  0.8492  0.2501
    1TCq1    O214040   0.187   4.078  12.058 -0.0784  0.4786 -0.6517
    1TCq1    C214041   0.181   4.150  11.833 -0.5064 -0.0468 -0.4368
    1TCq1    C314042   0.231   4.109  11.709 -0.3751  0.0362  0.0595
    1TCq1    C414043   0.161   4.119  11.591 -0.3036  0.6292 -0.4078
    1TCq1    C514044   0.050   4.195  11.596 -0.5937  0.4507 -0.6179
    1TCq1    C614045   0.003   4.244  11.724  0.5385  0.2230 -0.1583
    1TCq1    C714046   0.071   4.225  11.843 -0.0524  0.0645 -1.1714
    1TCq1    C814047   4.590   4.308  11.737  0.4229 -0.5106  0.3009
    1TCq1    O414048   4.561   4.347  11.850 -0.4348 -0.1771  0.1507
    1TCq1    C914049   0.233   4.107  11.470 -0.2747  0.4768 -0.2510
    1TCq1    O514050   0.349   4.052  11.484 -0.0685  0.1556  0.3086
    1TCq1    O614051   0.185   4.150  11.363  0.1572 -0.3118  0.2172
    1TCq1    H114052   0.412   4.148  11.857 -0.4614  1.8569  0.2338
    1TCq1    H214053   0.319   4.046  11.711 -0.0738  0.4226 -1.1123
    1TCq1    H314054   0.017   4.237  11.502 -0.2840  2.5690  0.2135
    1TCq1    H414055   0.022   4.247  11.937 -1.2558 -0.8493 -1.5856
    2MPD1     C14056   4.116   4.420  11.564  0.3287  0.1747  0.6679
    2MPD1    C114057   4.186   4.485  11.662 -0.1970  0.2038 -0.2855
    2MPD1    C214058   4.317   4.442  11.685  0.5189  0.1462  0.7325
    2MPD1    C314059   4.368   4.331  11.616  0.2624  0.6200 -0.2520
    2MPD1    C414060   4.287   4.269  11.530  0.2526  0.2511 -0.7825
    2MPD1    C514061   4.159   4.311  11.500  1.0837  0.2804 -0.5001
    2MPD1     H14062   4.369   4.496  11.763  0.0454 -0.7092  1.6451
    2MPD1    H114063   4.324   4.182  11.476 -1.8737  0.0269 -1.8643
    2MPD1    H214064   4.016   4.452  11.540  0.5059 -0.0594 -0.3792
    2MPD1    H314065   4.106   4.266  11.417 -0.8061  0.1235  0.8129
    2MPD1     N14066   4.501   4.273  11.635  0.1169  0.2411  0.5380
    2MPD1    H514067   4.540   4.205  11.570 -0.2102  0.7718 -0.2130
    2MPD1    N114068   4.124   4.585  11.733  0.3156  0.3723 -0.1319
    2MPD1    H614069   4.025   4.565  11.741  0.9155 -1.8839  1.6501
    2MPD1    H714070   4.168   4.635  11.810  0.3183  1.5019 -0.8667
    1TCq1    O114071   0.559   0.773  17.169  0.1083 -0.1567 -0.1169
    1TCq1    C114072   0.445   0.740  17.240 -0.0913 -0.3017  0.7612
    1TCq1    O214073   0.336   0.717  17.189 -0.4183 -0.6593  0.1052
    1TCq1    C214074   0.475   0.722  17.382  0.0659 -0.5938  0.2815
    1TCq1    C314075   0.589   0.782  17.433 -0.0925 -0.5350  1.0988
    1TCq1    C414076   0.621   0.751  17.556 -0.1255 -0.7242 -0.8996
    1TCq1    C514077   0.533   0.680  17.637 -1.1153  0.8924  0.4112
    1TCq1    C614078   0.431   0.609  17.577 -0.0474 -0.1075 -0.2531
    1TCq1    C714079   0.401   0.625  17.447 -1.0167  0.2171 -0.2472
    1TCq1    C814080   0.365   0.505  17.651  0.1955  0.3092  0.2831
    1TCq1    O414081   0.267   0.458  17.590 -0.4140 -0.0494  0.4935
    1TCq1    C914082   0.714   0.842  17.626  0.2711 -0.1184  0.3722
    1TCq1    O514083   0.774   0.932  17.565 -0.2369  0.6663  0.3009
    1TCq1    O614084   0.718   0.841   0.067  0.8182  0.6260 -0.0911
    1TCq1    H114085   0.636   0.741  17.220 -0.3136 -1.3844 -0.2447
    1TCq1    H214086   0.639   0.862  17.380 -0.9536 -0.0091  1.0822
    1TCq1    H314087   0.557   0.670   0.058 -0.1667  0.3062  0.1430
    1TCq1    H414088   0.318   0.584  17.390 -1.6536 -0.5017  1.2016
    2MPD1     C14089   0.261   0.213   0.385 -0.1637  0.4231 -0.2034
    2MPD1    C114090   0.395   0.261   0.393 -0.3909  0.2955 -0.5120
    2MPD1    C214091   0.448   0.339   0.289  0.1165 -0.5303 -0.0844
    2MPD1    C314092   0.377   0.369   0.171 -0.1069 -0.5229  0.3741
    2MPD1    C414093   0.248   0.323   0.172  0.6225 -0.5261  0.4781
    2MPD1    C514094   0.189   0.245   0.275  0.2240 -0.4677 -0.6756
    2MPD1     H14095   0.546   0.384   0.305  1.2122 -2.5915 -1.0191
    2MPD1    H114096   0.189   0.352   0.086 -1.2537 -1.0430  1.5813
    2MPD1    H214097   0.206   0.168   0.467 -1.0486  1.7483 -0.0893
    2MPD1    H314098   0.087   0.208   0.278  0.2246 -0.4079  0.2243
    2MPD1     N14099   0.435   0.453   0.072  0.0050 -0.0948  0.9429
    2MPD1    H514100   0.528   0.492   0.087  0.2530 -0.0582 -0.7521
    2MPD1    N114101   0.443   0.259   0.524 -0.2043  0.6188  0.1019
    2MPD1    H614102   0.544   0.260   0.538 -0.0365 -1.7525 -0.7463
    2MPD1    H714103   0.407   0.185   0.584 -1.5466  1.2833  0.0982
    1MPD1     C14104   0.529   3.726  12.075  0.4419 -0.3907 -1.2516
    1MPD1    C114105   0.629   3.705  12.162 -0.5453 -0.6392 -0.0716
    1MPD1    C214106   0.721   3.804  12.173 -0.9628 -0.2124  0.1959
    1MPD1    C314107   0.727   3.911  12.081 -0.7440  0.0946 -0.3209
    1MPD1    C414108   0.633   3.914  11.984 -0.2248  0.3417 -0.0223
    1MPD1    C514109   0.526   3.828  11.982  0.3231 -0.3458  0.3918
    1MPD1     H14110   0.786   3.797  12.259 -1.0824 -0.9183  0.2228
    1MPD1    H114111   0.620   4.001  11.921 -0.1780  0.5519  0.2570
    1MPD1    H214112   0.447   3.657  12.058 -1.3308  1.4336 -0.0805
    1MPD1    H314113   0.449   3.842  11.907  0.0148 -0.6001  0.6586
    1MPD1     N14114   0.823   4.013  12.111  0.9169 -0.4745  0.1834
    1MPD1    H514115   0.861   4.011  12.205 -1.2445 -4.1414  0.9636
    1MPD1    N114116   0.608   3.608  12.264  0.6517  0.3750  0.6281
    1MPD1    H614117   0.544   3.536  12.232  2.4802 -2.1123  2.5833
    1MPD1    H714118   0.697   3.564  12.287  0.6923  0.3733  0.4688
    2MPD1     C14119   0.749   0.161  11.750  0.0640  0.1731 -0.2733
    2MPD1    C114120   0.679   0.102  11.647 -0.0478 -0.9549 -0.1348
    2MPD1    C214121   0.732   0.109  11.516 -0.1482 -0.2115  0.1817
    2MPD1    C314122   0.854   0.173  11.496  0.4611  0.2361 -0.3365
    2MPD1    C414123   0.914   0.229  11.601  0.6531  0.3006  0.0164
    2MPD1    C514124   0.867   0.218  11.725 -0.0142 -0.9840 -0.1676
    2MPD1     H14125   0.678   0.070  11.431  0.9790 -0.8544 -0.2457
    2MPD1    H114126   1.003   0.288  11.581  0.0042  1.5022  0.6899
    2MPD1    H214127   0.710   0.161  11.851  0.3820 -1.8414 -0.1470
    2MPD1    H314128   0.920   0.264  11.807 -0.3378  0.2896 -0.6778
    2MPD1     N14129   0.921   0.179  11.367 -0.0999  0.0660 -0.0651
    2MPD1    H514130   1.011   0.225  11.360 -0.0220 -0.0529  0.1909
    2MPD1    N114131   0.562   0.036  11.680  0.0265 -0.3881  0.4249
    2MPD1    H614132   0.507   0.085  11.750 -2.2718 -0.8802 -1.0399
    2MPD1    H714133   0.507   0.028  11.595 -0.1422  2.3465  0.2504
    3MPD1     C14134   1.100   4.432  10.392  0.4502 -0.2012 -0.8775
    3MPD1    C114135   1.194   4.531  10.419 -0.3190  0.0848  1.3374
    3MPD1    C214136   1.200   4.572  10.549 -0.5654 -0.3760  0.0597
    3MPD1    C314137   1.092   4.546  10.637  0.1306 -0.1456 -0.0810
    3MPD1    C414138   0.997   4.451  10.607  0.6285 -0.5270  0.2663
    3MPD1    C514139   1.015   4.389  10.490  0.0319 -0.1113  0.7226
    3MPD1     H14140   1.280   4.634  10.587 -1.4528 -0.2791  1.8044
    3MPD1    H114141   0.922   4.412  10.675 -0.3619 -1.9822 -1.6450
    3MPD1    H214142   1.095   4.382  10.296  0.6683 -0.0327 -0.9761
    3MPD1    H314143   0.938   4.315  10.473 -0.0449 -0.2911  1.7948
    3MPD1     N14144   1.101   4.599  10.768  0.6161  0.1309 -0.7763
    3MPD1    H514145   1.189   4.647  10.789  0.3175  0.7287 -0.8922
    3MPD1    N114146   1.304   4.572  10.339 -0.5871 -0.4841 -0.8007
    3MPD1    H614147   1.388   4.524  10.372 -3.1115 -3.6404  1.0113
    3MPD1    H714148   1.289   4.555  10.240 -1.8510 -1.0024 -0.5190
    4MPD2     C14149   1.184   4.690  11.716 -0.6417  0.0761  0.6785
    4MPD2    C114150   1.256   4.654  11.829  0.7961 -0.0705 -0.5845
    4MPD2    C214151   1.385   4.702  11.844 -0.0416  0.1010 -0.0670
    4MPD2    C314152   1.448   0.057  11.746 -0.2262  0.1000 -0.0042
    4MPD2    C414153   1.381   0.081  11.629  0.1127 -0.0966  0.2061
    4MPD2    C514154   1.250   0.035  11.617 -0.7585 -0.3477 -0.7280
    4MPD2     H14155   1.440   4.687  11.935  1.7117  1.6146 -0.8765
    4MPD2    H114156   1.421   0.142  11.548  1.7802 -0.4599  0.7594
    4MPD2    H214157   1.085   4.651  11.693  0.1929 -1.3538 -0.5164
    4MPD2    H314158   1.203   0.054  11.521  0.3132 -0.1077 -1.2107
    4MPD2     N14159   1.581   0.100  11.752 -0.6539  0.0537  0.5534
    4MPD2    H514160   1.623   0.120  11.661 -0.7534  0.7204  0.6506
    4MPD2    N114161   1.199   4.582  11.936  0.6345  0.6697  0.6616
    4MPD2    H714162   1.256   4.565  12.018  0.2094  0.9121  1.0053
    5TMC3    C114163   1.058   4.423  12.043 -0.0974 -0.4206  0.0516
    5TMC3    C214164   0.952   4.339  12.014  0.3038  0.5707  0.2327
    5TMC3    C314165   0.953   4.213  12.067  0.0816  0.0352 -0.3945
    5TMC3    C414166   1.160   4.380  12.122 -0.6591  0.7742  0.8055
    5TMC3    C514167   1.159   4.253  12.170 -0.2090 -0.0244 -0.2117
    5TMC3    C614168   1.049   4.175  12.152 -0.1258  0.3085  0.1748
    5TMC3     C14169   1.079   4.518  11.936  0.2604 -0.7688  0.2929
    5TMC3     O14170   0.995   4.516  11.845  0.2355 -0.2685 -0.0523
    5TMC3     H14171   0.856   4.367  11.973  0.5016 -0.2330 -0.7997
    5TMC3    H114172   1.244   4.446  12.142 -0.8585  1.5567 -0.9151
    5TMC3    H214173   1.040   4.079  12.201  1.4758  0.4905  0.8211
    5TMC3    C714174   1.287   4.198  12.198  0.6884 -0.1338  0.3346
    5TMC3    C814175   0.851   4.119  12.024 -0.0028 -0.1174  0.1826
    5TMC3    O114176   1.376   4.268  12.246 -0.2571  0.0841  0.2731
    5TMC3    O214177   0.804   4.142  11.912 -0.2996  0.0639 -0.1434
    6TMC3    C114178   0.973   0.130  11.142  0.4275 -0.2749 -0.8148
    6TMC3    C214179   0.943   0.036  11.046  1.0657 -0.5768  0.0064
    6TMC3    C314180   1.040   4.684  10.978  0.4575 -0.0603  0.4061
    6TMC3    C414181   1.102   0.135  11.183  0.2704  0.5833 -0.2218
    6TMC3    C514182   1.197   0.070  11.112  0.0323  0.5441  0.4421
    6TMC3    C614183   1.170   4.709  11.008 -0.1638  0.6686 -0.3369
    6TMC3     C14184   0.872   0.144  11.245  0.8203  0.3265 -0.5688
    6TMC3     O14185   0.762   0.097  11.215 -0.2874 -0.3205  0.0567
    6TMC3     H14186   0.838   0.019  11.024  0.2787  0.6483  2.8371
    6TMC3    H114187   1.127   0.210  11.257 -2.2607 -0.5941  1.7896
    6TMC3    H214188   1.251   4.656  10.958  0.4467 -0.6707  2.0487
    6TMC3    C714189   1.318   0.052  11.180  0.1558 -0.0816 -0.3106
    6TMC3    C814190   1.002   4.599  10.869  0.4205 -0.4332  0.5487
    6TMC3    O114191   1.308   0.033  11.299  0.3687  0.5676 -0.1301
    6TMC3    O214192   0.888   4.552  10.874  0.7395 -0.3725 -0.1079
    7MPD2     C14193   1.622   4.054  11.846  0.0057  0.3615  0.8029
    7MPD2    C114194   1.593   4.176  11.899  0.0443 -0.0691  0.5618
    7MPD2    C214195   1.496   4.184  11.999 -0.1862 -1.1623  0.1755
    7MPD2    C314196   1.418   4.075  12.029 -0.6597 -0.2048 -0.7995
    7MPD2    C414197   1.419   3.959  11.959  0.3874  0.2132  0.6625
    7MPD2    C514198   1.531   3.950  11.874  0.0705 -0.2425  1.0208
    7MPD2     H14199   1.470   4.277  12.048 -2.5400 -1.7962  0.1517
    7MPD2    H114200   1.340   3.884  11.955 -0.2636  0.9093  0.3247
    7MPD2    H214201   1.707   4.034  11.782 -2.5835 -2.7400 -1.6494
    7MPD2    H314202   1.551   3.859  11.819 -1.1666 -1.3551  2.3955
    7MPD2     N14203   1.305   4.089  12.112  0.3308  0.2446 -0.8240
    7MPD2    H514204   1.228   4.028  12.084  2.6564 -2.8018 -0.4729
    7MPD2    N114205   1.677   4.285  11.866 -0.0602  0.1746  0.5039
    7MPD2    H714206   1.747   4.275  11.794  0.6021  1.6196  0.9420
    8TMC3    C114207   1.742   4.513  11.849  0.5449 -0.1139  0.0916
    8TMC3    C214208   1.745   4.503  11.713  1.0330 -0.2730  0.2819
    8TMC3    C314209   1.770   4.612  11.639 -0.2370 -0.2769 -0.3251
    8TMC3    C414210   1.754   4.632  11.918  0.2184  0.4965  0.7662
    8TMC3    C514211   1.773   0.022  11.842 -0.5228  0.0244 -0.3381
    8TMC3    C614212   1.785   0.012  11.702  0.0440 -0.2694 -0.1123
    8TMC3     C14213   1.672   4.413  11.924 -1.0594 -0.5473 -0.4788
    8TMC3     O14214   1.600   4.457  12.012 -0.2582  0.1521 -0.1543
    8TMC3     H14215   1.740   4.408  11.662  2.1260  1.0363 -2.2536
    8TMC3    H114216   1.748   4.638  12.026  0.4454 -0.7573  0.8477
    8TMC3    H214217   1.799   0.103  11.645  1.0795  0.5285  1.4066
    8TMC3    C714218   1.657   0.100  11.868 -0.2068  0.6677 -0.4523
    8TMC3    C814219   1.710   4.618  11.508 -0.3084  0.6962 -0.2186
    8TMC3    O114220   1.621   0.123  11.981 -0.3621 -0.2714 -0.1323
    8TMC3    O214221   1.611   4.548  11.491 -0.3848 -0.4303 -0.1817
    9MPD2     C14222   1.817   0.100  11.221 -0.6285  0.4788 -0.3465
    9MPD2    C114223   1.727   0.035  11.303 -0.5611  0.1930 -0.4594
    9MPD2    C214224   1.592   0.020  11.268  0.0255 -0.3481 -0.2267
    9MPD2    C314225   1.558   0.063  11.143  0.3753 -0.3358 -0.0268
    9MPD2    C414226   1.650   0.125  11.058  0.2672 -0.5587  0.4777
    9MPD2    C514227   1.777   0.148  11.100  0.0129 -0.4384 -0.3563
    9MPD2     H14228   1.520   4.688  11.331  2.6926  0.3872  3.4746
    9MPD2    H114229   1.612   0.175  10.969 -0.3316 -2.6612 -0.4572
    9MPD2    H214230   1.922   0.114  11.246 -0.5432  0.6846 -0.8077
    9MPD2    H314231   1.834   0.223  11.047 -0.2043 -0.3021 -0.3986
    9MPD2     N14232   1.424   0.060  11.106  0.1558 -0.6392 -0.4992
    9MPD2    H514233   1.399   0.092  11.013  0.3925  0.7874 -0.0706
    9MPD2    N114234   1.776   4.710  11.429  0.0050 -0.3544  0.5587
    9MPD2    H714235   1.869   0.020  11.456  0.2932 -0.7327 -0.0202
    1MPD1     C14236   1.352   4.287  17.341  0.5217 -0.2157 -0.0569
    1MPD1    C114237   1.269   4.242  17.240  0.0944  0.0828  0.3893
    1MPD1    C214238   1.298   4.126  17.166 -0.1866 -1.4019  0.3621
    1MPD1    C314239   1.413   4.052  17.193  0.0785 -0.1582 -0.1728
    1MPD1    C414240   1.498   4.102  17.293  0.0590 -0.1743 -0.5473
    1MPD1    C514241   1.462   4.209  17.365 -0.0735 -0.0651 -0.3992
    1MPD1     H14242   1.222   4.095  17.095 -2.3089  0.3880  1.8609
    1MPD1    H114243   1.590   4.049  17.313  0.3935  1.1626  1.4928
    1MPD1    H214244   1.317   4.363  17.410  0.5263  1.0117 -1.3986
    1MPD1    H314245   1.536   4.238  17.438 -1.1431  1.3145  0.1306
    1MPD1     N14246   1.453   3.928  17.139  0.3973  0.3679 -0.1473
    1MPD1    H514247   1.539   3.880  17.159  2.5993  3.8883 -1.1601
    1MPD1    N114248   1.146   4.308  17.222  0.2117  0.2731 -0.2385
    1MPD1    H614249   1.164   4.408  17.235  0.2165  0.1969  0.3327
    1MPD1    H714250   1.120   4.299  17.124 -0.6477  0.1450  0.0031
    2MPD1     C14251   1.399   3.144  16.363  0.1664  0.0114  0.0453
    2MPD1    C114252   1.529   3.159  16.407 -0.1586  0.8179 -0.0488
    2MPD1    C214253   1.559   3.271  16.486  0.4135 -0.9140 -0.3404
    2MPD1    C314254   1.450   3.334  16.545 -0.1509  0.2985  0.6108
    2MPD1    C414255   1.322   3.298  16.517 -0.2187 -0.4457 -0.3483
    2MPD1    C514256   1.298   3.212  16.415 -0.4520  0.7543  0.1828
    2MPD1     H14257   1.661   3.307  16.501  0.0362 -1.0696  2.6837
    2MPD1    H114258   1.241   3.323  16.586  0.3820  0.8979 -0.1387
    2MPD1    H214259   1.374   3.068  16.290 -0.3881 -0.2922  0.5484
    2MPD1    H314260   1.196   3.189  16.388 -0.2158  0.6342 -0.5849
    2MPD1     N14261   1.473   3.434  16.647  0.2228  0.3804 -0.3490
    2MPD1    H514262   1.572   3.453  16.661  0.3684  0.5938 -1.7185
    2MPD1    N114263   1.626   3.095  16.329 -0.6104  0.8269 -0.4128
    2MPD1    H614264   1.601   2.999  16.303  0.9120  0.4680 -0.5604
    2MPD1    H714265   1.718   3.093  16.374  1.4215  0.0652 -4.5659
    3TCq2    C114266   1.381   3.501  16.731 -0.2677 -0.6260  0.0246
    3TCq2    O214267   1.261   3.500  16.734 -0.0521  0.1843 -0.2165
    3TCq2    C214268   1.447   3.582  16.830 -0.7919  0.5252  0.4397
    3TCq2    C314269   1.574   3.555  16.872  0.2676  0.3178 -0.0282
    3TCq2    C414270   1.639   3.640  16.959 -0.0754 -0.0441 -1.0207
    3TCq2    C514271   1.584   3.752  17.003 -0.1559  0.5749  0.2089
    3TCq2    C614272   1.447   3.767  16.975 -0.0760 -0.2114  0.3312
    3TCq2    C714273   1.377   3.687  16.888 -1.2334  0.5609  0.3461
    3TCq2    C814274   1.372   3.873  17.040  0.4722  0.2444  0.5952
    3TCq2    O414275   1.249   3.880  17.023 -0.1940  0.4858 -0.1421
    3TCq2    C914276   1.776   3.620  17.003 -0.3792  0.5790 -0.1093
    3TCq2    O514277   1.818   3.695  17.091 -0.1216 -0.1582  0.4540
    3TCq2    O614278   1.832   3.531  16.940  0.1804  0.1333  0.4210
    3TCq2    H214279   1.627   3.462  16.851 -0.6899 -0.4284  0.8828
    3TCq2    H314280   1.635   3.819  17.071  0.7566  1.1554 -1.0354
    3TCq2    H414281   1.270   3.687  16.868 -1.3345  0.0520  0.9218
    1TCq1    O114282   3.664   2.485  12.733 -0.6767 -0.3652 -0.6496
    1TCq1    C114283   3.601   2.488  12.854 -0.0789 -0.1835  0.7184
    1TCq1    O214284   3.480   2.483  12.867 -0.3372 -0.1021  0.4057
    1TCq1    C214285   3.699   2.428  12.945 -0.1798 -0.3287  0.0921
    1TCq1    C314286   3.661   2.333  13.036 -0.1587 -0.1813 -0.8282
    1TCq1    C414287   3.742   2.292  13.133 -0.4962  0.2176  0.0595
    1TCq1    C514288   3.873   2.327  13.128 -0.1417 -0.1632  0.3199
    1TCq1    C614289   3.915   2.415  13.025  0.1342  0.4268 -0.2459
    1TCq1    C714290   3.825   2.473  12.931 -0.2922 -0.2707 -0.3051
    1TCq1    C814291   4.050   2.465  13.020  0.7675  1.1859 -0.0900
    1TCq1    O414292   4.080   2.500  12.908 -0.4600  0.6257  0.1670
    1TCq1    C914293   3.693   2.210  13.248 -0.5194  0.1000  0.3399
    1TCq1    O514294   3.569   2.204  13.263 -0.0719  0.3212 -0.9045
    1TCq1    O614295   3.768   2.197  13.345 -0.0322  0.0717 -0.5636
    1TCq1    H114296   3.750   2.439  12.721 -1.3497 -1.3888 -1.5050
    1TCq1    H214297   3.559   2.296  13.032 -0.2435  0.0353 -0.6833
    1TCq1    H314298   3.939   2.301  13.211  1.8811 -0.0987 -1.2818
    1TCq1    H414299   3.858   2.558  12.873 -0.1267 -0.2781 -0.2213
    2MPD2     C14300   4.328   2.576  13.051  0.2809  0.2977 -0.0418
    2MPD2    C114301   4.246   2.545  13.158  0.0034 -0.1742 -0.3132
    2MPD2    C214302   4.287   2.567  13.292 -0.6719  0.1260 -0.4175
    2MPD2    C314303   4.420   2.609  13.324  0.8513 -0.0234 -0.6089
    2MPD2    C414304   4.494   2.635  13.208  0.4222 -0.5891  0.2084
    2MPD2    C514305   4.450   2.624  13.080  0.8394 -0.5370  0.0701
    2MPD2     H14306   4.227   2.541  13.379 -2.6631 -1.2586 -2.1794
    2MPD2    H114307   4.594   2.676  13.222 -0.6790  1.5579  1.8988
    2MPD2    H214308   4.306   2.569  12.945  1.7434  0.1968 -0.3374
    2MPD2    H314309   4.516   2.647  12.997  0.9679 -0.4694  0.1896
    2MPD2     N14310   4.487   2.610  13.449  0.4026  0.5834 -0.6429
    2MPD2    H514311   4.583   2.644  13.457  0.0410  0.9155  2.3766
    2MPD2    N114312   4.115   2.481  13.142 -0.5671  0.0210  0.2882
    2MPD2    H714313   4.082   2.446  13.231 -2.6325  0.8492 -0.1603
    3TCq1    O114314   0.204   2.790  13.882 -0.6743  0.0639  0.0717
    3TCq1    C114315   0.147   2.766  13.755  0.6240  0.0207  0.9088
    3TCq1    O214316   0.145   2.838  13.660  0.6369 -0.0067 -0.7465
    3TCq1    C214317   0.030   2.673  13.766  0.0164  1.0127  0.1132
    3TCq1    C314318   0.021   2.591  13.871 -0.1633 -0.2823 -0.6509
    3TCq1    C414319   4.633   2.514  13.880  0.2320  0.0691  0.3986
    3TCq1    C514320   4.535   2.500  13.783 -0.2806 -0.4394  0.1996
    3TCq1    C614321   4.549   2.573  13.675 -0.4048 -0.3566 -0.1322
    3TCq1    C714322   4.657   2.659  13.664  0.2801  0.2205  0.1673
    3TCq1    C814323   4.447   2.555  13.570  0.6538 -0.3752 -0.3727
    3TCq1    O414324   4.350   2.485  13.591 -0.0628  0.3470 -0.1234
    3TCq1    C914325   4.636   2.425  13.991 -1.0191  0.2191 -0.2408
    3TCq1    O514326   0.012   2.415  14.062 -0.6481 -0.1098  0.1511
    3TCq1    O614327   4.519   2.381  14.020 -0.2772  0.1282  0.0731
    3TCq1    H114328   0.225   2.701  13.918  1.1387  0.8768  1.0199
    3TCq1    H214329   0.088   2.593  13.956  1.2256  0.6563 -1.7606
    3TCq1    H314330   4.448   2.436  13.792 -1.5448  1.2434 -0.1820
    3TCq1    H414331   4.665   2.724  13.578  1.6848  0.3366  0.3778
    1MPD2     C14332   3.935   3.542  14.447  0.2193 -0.0514  0.5286
    1MPD2    C114333   3.802   3.553  14.402 -0.5563  0.0206  0.2500
    1MPD2    C214334   3.704   3.515  14.494 -0.3041 -0.3914  0.2464
    1MPD2    C314335   3.731   3.462  14.617 -0.8773 -0.7629 -0.8957
    1MPD2    C414336   3.861   3.447  14.654 -0.5521 -0.3189 -0.3008
    1MPD2    C514337   3.963   3.491  14.570 -0.2069  0.0392 -0.2515
    1MPD2     H14338   3.604   3.545  14.463  0.7660  2.7081 -0.1604
    1MPD2    H114339   3.890   3.395  14.745  1.6026  3.0872  0.9756
    1MPD2    H214340   4.014   3.575  14.381 -0.1140  0.9278  0.6242
    1MPD2    H314341   4.065   3.489  14.605 -0.2521  0.9264 -0.0675
    1MPD2     N14342   3.635   3.415  14.702  0.8279  0.4232 -0.0876
    1MPD2    H514343   3.676   3.380  14.788 -0.1490  0.9477  0.5956
    1MPD2    N114344   3.779   3.614  14.276 -0.1807  0.3238  0.2219
    1MPD2    H714345   3.856   3.666  14.235 -1.6893  2.1533 -0.3269
    2TMC3    C114346   3.651   3.750  14.142  0.1877 -0.2863 -0.1496
    2TMC3    C214347   3.533   3.751  14.072  0.3201 -0.2785  0.0571
    2TMC3    C314348   3.460   3.867  14.060  0.2988 -0.8038  0.2301
    2TMC3    C414349   3.700   3.870  14.192 -0.1760  1.0955  0.0917
    2TMC3    C514350   3.639   3.985  14.161 -0.2210  0.1153  0.4739
    2TMC3    C614351   3.519   3.987  14.093 -0.4101 -0.3816 -1.1851
    2TMC3     C14352   3.657   3.646  14.227  0.1395 -0.2970 -0.3932
    2TMC3     O14353   3.548   3.591  14.250 -0.2393  0.3124 -0.2034
    2TMC3     H14354   3.484   3.662  14.033 -0.6121 -0.3973  1.4999
    2TMC3    H114355   3.793   3.873  14.249 -0.6149 -0.1076  0.8571
    2TMC3    H214356   3.476   4.081  14.060 -0.7759 -0.2502 -0.3460
    2TMC3    C714357   3.684   4.115  14.208 -0.4141 -0.2380  0.7453
    2TMC3    C814358   3.321   3.860  14.103  0.0644 -0.0699  0.5100
    2TMC3    O114359   3.614   4.210  14.182  0.6338  0.2299 -0.1249
    2TMC3    O214360   3.242   3.952  14.082 -0.2309 -0.6538 -0.3550
    3TCq1    O114361   4.601   4.164  15.088 -0.0570  0.3176  0.2688
    3TCq1    C114362   4.511   4.236  15.028  0.6624  0.5319  0.3881
    3TCq1    O214363   4.451   4.327  15.082  0.1310  0.3344 -0.2866
    3TCq1    C214364   4.498   4.208  14.883  0.4883  0.5096 -0.4760
    3TCq1    C314365   4.572   4.110  14.819  0.1294 -0.3145 -0.4895
    3TCq1    C414366   4.567   4.094  14.683 -0.7799 -0.1149  0.1973
    3TCq1    C514367   4.463   4.150  14.611  0.2101 -0.6055  0.1145
    3TCq1    C614368   4.381   4.233  14.684  0.8406  0.1937  0.3897
    3TCq1    C714369   4.400   4.276  14.819  0.5866 -0.0153 -1.0682
    3TCq1    C814370   4.259   4.290  14.634 -0.2505  1.0209  0.0866
    3TCq1    O414371   4.223   4.394  14.684 -0.3042  0.2567  0.0290
    3TCq1    C914372   4.659   4.012  14.614  0.1114 -0.6546 -0.1299
    3TCq1    O514373   4.676   4.044  14.491 -0.0176  0.3532 -0.0802
    3TCq1    O614374   4.704   3.910  14.675 -0.1823  0.0243 -0.1676
    3TCq1    H114375   4.649   4.104  15.028 -0.8504  1.1886 -1.2245
    3TCq1    H214376   4.660   4.063  14.860 -0.4938 -1.3968 -0.3765
    3TCq1    H314377   4.457   4.124  14.506 -0.5761  0.3630 -0.0745
    3TCq1    H414378   4.341   4.351  14.871 -3.0255 -2.6788 -1.3979
    4MPD2     C14379   4.030   4.394  14.478 -0.3145 -0.3500  0.1424
    4MPD2    C114380   4.073   4.261  14.478  0.0153  0.7427  0.0229
    4MPD2    C214381   3.986   4.166  14.420  0.1225  0.4060  0.1633
    4MPD2    C314382   3.866   4.201  14.358  0.3012 -0.0126 -0.3845
    4MPD2    C414383   3.821   4.330  14.363 -0.1793  1.2515  0.1238
    4MPD2    C514384   3.902   4.420  14.426 -0.0965 -0.0720  0.2258
    4MPD2     H14385   4.017   4.064  14.438  0.6455  0.7041  0.9281
    4MPD2    H114386   3.726   4.360  14.322  0.4493  2.9945 -0.0329
    4MPD2    H214387   4.089   4.477  14.513  0.5833 -1.4193  1.1533
    4MPD2    H314388   3.880   4.525  14.418 -0.2910 -0.1753 -0.5464
    4MPD2     N14389   3.792   4.106  14.292 -0.3474 -0.5143  0.3942
    4MPD2    H514390   3.841   4.018  14.295 -2.8110 -1.9328 -1.1265
    4MPD2    N114391   4.193   4.216  14.531 -1.0046  0.3523 -0.1657
    4MPD2    H714392   4.232   4.124  14.517 -0.8218  0.8349 -2.7922
    5TMC2    C114393   3.176   3.403  14.775  0.1075 -0.5925  0.4837
    5TMC2    C214394   3.185   3.463  14.896 -0.0060 -0.5366 -0.5191
    5TMC2    C314395   3.311   3.465  14.954  0.3063 -0.0671 -0.7286
    5TMC2    C414396   3.286   3.338  14.717 -0.1383  0.4716  0.0451
    5TMC2    C514397   3.415   3.357  14.772  0.1595  0.3183  0.1322
    5TMC2    C614398   3.425   3.409  14.894  0.4643 -0.7649 -0.1733
    5TMC2     C14399   3.102   3.489  14.682  0.5430  0.0148 -0.0257
    5TMC2     O14400   3.016   3.562  14.726  0.5010  0.1781 -0.7418
    5TMC2     H14401   3.109   3.530  14.935 -0.3002  0.7089 -3.2416
    5TMC2    H114402   3.277   3.275  14.629 -1.9473  0.0324  0.5582
    5TMC2    H214403   3.525   3.416  14.935 -0.1292 -2.4943  1.5385
    5TMC2    C714404   3.504   3.398  14.673 -0.0856  0.1449  0.4590
    5TMC2    C814405   3.332   3.519  15.083 -0.0905  0.9240  0.2568
    5TMC2    O114406   3.447   3.403  14.563  0.0837 -0.4411  0.8546
    5TMC2    O214407   3.318   3.438  15.176  0.0635 -0.1248 -0.7887
    5TMC2    O514408   3.271   3.640  15.077  0.4638 -0.3868 -0.0626
    5TMC2    H514409   3.279   3.690  14.993 -0.5201  0.8470  0.5682
    6MPD2     C14410   3.085   3.793  14.263  0.2140 -0.0018 -0.5368
    6MPD2    C114411   3.204   3.725  14.271  0.9343 -0.5077 -0.2783
    6MPD2    C214412   3.228   3.636  14.376 -0.4184 -0.3728  0.2527
    6MPD2    C314413   3.131   3.603  14.466 -0.6090  0.1796  1.5907
    6MPD2    C414414   3.001   3.670  14.454 -0.1570  0.2527  0.6024
    6MPD2    C514415   2.982   3.755  14.353  0.4426  0.0099 -0.7016
    6MPD2     H14416   3.327   3.593  14.391 -0.3002 -1.1453 -2.8236
    6MPD2    H114417   2.933   3.639  14.533 -0.1557  1.4260  1.0620
    6MPD2    H214418   3.056   3.856  14.180 -0.0545  0.7728  0.1456
    6MPD2    H314419   2.889   3.809  14.346 -0.1567 -0.6988  1.8398
    6MPD2     N14420   3.175   3.516  14.567 -0.1218 -0.2998  0.7561
    6MPD2    H514421   3.270   3.479  14.561 -0.3902 -0.7152 -0.9738
    6MPD2    N114422   3.313   3.754  14.190  0.0797 -0.5496 -0.2585
    6MPD2    H714423   3.393   3.693  14.206 -0.2193 -1.0448 -0.6751
  945NH3     N114424   3.526   1.863   1.459 -0.0971 -0.4320  0.8016
  945NH3     H214425   3.497   1.929   1.387 -0.2536  1.2562  2.4397
  945NH3     H314426   3.616   1.826   1.430 -0.2650  1.0015 -1.5565
  945NH3     H414427   3.453   1.793   1.453  1.0160 -1.7695  2.8554
  946SOD     NA14428   3.217   3.923  14.597 -0.2120  0.0982 -0.5637
  947SOD     NA14429   1.614   1.573  12.710  0.4500  0.2692 -0.1664
  948SOD     NA14430   1.035   1.984   1.804 -0.2798  0.7122 -0.5520
  949SOD     NA14431   2.752   1.792  13.014 -0.1102 -0.0035  0.1916
  950SOD     NA14432   2.841   2.205   8.355 -0.4482  0.3287  0.4637
  951SOD     NA14433   2.404   3.393   0.624  0.0895  0.1068  0.0104
  952SOD     NA14434   0.638   1.108  12.416 -0.6994  0.0606 -0.0895
  953SOD     NA14435   0.674   4.115   2.319  0.0382 -0.6655  0.1159
  954SOD     NA14436   1.639   1.457  14.389  0.3336 -0.2621  0.0048
  955SOD     NA14437   0.577   2.056  14.742 -0.1149 -0.0128 -0.4851
  956SOD     NA14438   2.839   3.048  10.043  0.3880 -0.1066  0.3191
  957SOD     NA14439   4.283   1.807  10.703  0.2866 -0.7058  0.1389
  958SOD     NA14440   0.809   1.043   0.114  0.4459 -0.3186 -0.4996
  959SOD     NA14441   2.665   2.860  13.974  0.7638 -0.1270  0.3766
  960SOD     NA14442   1.474   1.258   2.342  0.7402 -0.5444 -0.0476
  961SOD     NA14443   2.218   2.064   1.501 -0.1221 -0.0761 -0.0268
  962SOD     NA14444   3.260   2.873  10.463 -0.2270  0.1734 -0.3507
  963SOD     NA14445   3.129   1.445  10.486  0.4589  0.0079 -0.1187
  964SOD     NA14446   3.989   3.916  11.757 -0.0162 -0.0578 -0.2309
  965SOD     NA14447   2.211   2.355   9.005  0.0941  0.2270 -0.6753
  966SOD     NA14448   0.769   3.528   1.163 -0.4186 -0.2657 -0.0699
  967SOD     NA14449   4.004   4.621   8.280  0.1665 -0.3663 -0.2917
  968SOD     NA14450   1.350   3.702   3.881 -0.7201 -0.5219 -0.3558
  969SOD     NA14451   0.415   4.136  11.281  0.0837  0.5072  0.3228
  970SOD     NA14452   0.171   4.347   1.071 -0.2225 -0.5600  0.2677
  971SOD     NA14453   4.130   3.981   9.828  0.8501 -0.0782  0.2718
  972SOD     NA14454   4.477   1.483   1.221  0.7593 -0.1704 -0.2565
  973SOD     NA14455   0.471   2.569  14.375 -0.2818  0.3917 -0.0530
  974SOD     NA14456   2.040   2.339  10.911  0.3359 -0.1216 -0.4913
  975SOD     NA14457   3.992   1.798  11.811 -0.1973  0.0634  0.2147
  976SOD     NA14458   0.158   3.302  11.798 -0.4588 -0.2341 -0.3106
  977SOD     NA14459   0.855   0.695   0.152  0.1262  0.3082  0.3373
  978SOD     NA14460   2.067   2.006  10.960 -0.0960  0.3671  0.1245
  979SOD     NA14461   0.625   0.887  13.573  0.5808 -0.2331  0.3229
  980SOD     NA14462   4.697   4.527  16.939  0.2742 -0.1171  0.2614
  981SOD     NA14463   2.531   1.368   2.972 -0.1695 -0.0676  0.1042
  982SOD     NA14464   1.575   0.628   3.610  0.0805 -0.2381 -0.2450
  983SOD     NA14465   0.058   1.086  16.929  0.2657 -0.0760  0.1043
  984SOD     NA14466   3.620   2.262  11.161 -0.2693  0.1742  0.3180
  985SOD     NA14467   1.243   1.978   0.312  0.1748 -0.0217 -0.1324
  986SOD     NA14468   3.626   2.155  10.089 -0.2968  0.2490  0.3077
  987SOD     NA14469   4.673   3.709  14.734  0.1772 -0.1828  0.6101
  988SOD     NA14470   3.307   2.585  10.439 -0.0249 -0.0361  0.2378
  989SOD     NA14471   2.912   1.557  16.234  0.2974  0.4313 -0.1300
  990SOD     NA14472   4.624   2.694  17.599 -0.4173 -0.3858 -0.1870
  991SOD     NA14473   0.178   2.507  14.207  0.3656 -0.2972 -0.6096
  992SOD     NA14474   2.011   3.827  15.609 -0.0373  0.1457  0.0836
  993SOD     NA14475   1.721   4.075  13.255 -0.3949  0.5668  0.6056
  994SOD     NA14476   0.156   2.592  11.176 -0.4784 -0.0239  0.1564
  995SOD     NA14477   4.589   2.475  14.234 -0.2909 -0.1847  0.3861
  996SOD     NA14478   3.179   0.781   2.154 -0.2583  0.4223  0.1658
  997SOD     NA14479   3.797   1.601  10.304 -0.0556 -0.1937 -0.3208
  998SOD     NA14480   3.788   1.959  10.262  0.3596 -0.1695  0.1802
  999SOD     NA14481   3.762   2.127  11.393  0.3148  0.4558 -0.0319
 1000SOD     NA14482   2.010   0.089   7.761 -0.4353 -0.2696 -0.1752
 1001SOD     NA14483   4.094   1.267  12.466 -0.3218 -0.0313 -0.3561
 1002SOD     NA14484   1.015   2.823  13.031  0.2220  0.0180  0.0684
 1003SOD     NA14485   3.982   1.883  11.272  0.7313  0.0012  0.2530
 1004SOD     NA14486   3.752   0.058   9.240 -0.2927 -0.1028 -0.4811
 1005SOD     NA14487   1.556   1.436  15.999 -0.1973  0.2436 -0.0538
 1006SOD     NA14488   4.668   2.087   8.741  0.7451 -0.2796 -0.2557
 1007SOD     NA14489   3.988   0.103  17.220 -0.3942 -0.7674 -0.2387
 1008SOD     NA14490   3.555   2.220  13.486 -0.2872 -0.0283  0.1212
 1009SOD     NA14491   1.068   3.142  15.630 -0.2240  0.8641  0.1935
 1010SOD     NA14492   1.052   4.113  17.340 -0.5426  0.4874 -0.0116
 1011SOD     NA14493   3.177   3.745   3.285 -0.0933 -0.2630  0.4250
 1012SOL     OW14494   0.554   1.111  11.181  0.1081  0.1663 -0.4812
 1012SOL    HW114495   0.546   1.032  11.127  1.8662 -1.8574  2.2435
 1012SOL    HW214496   0.588   1.078  11.264  0.5181 -0.1727 -0.7874
 1013SOL     OW14497   1.962   0.461   3.236 -0.4905  0.6261 -0.1799
 1013SOL    HW114498   1.897   0.434   3.171 -0.5555  2.3527 -0.8549
 1013SOL    HW214499   2.042   0.479   3.187 -0.4884  0.5590 -0.1998
 1014SOL     OW14500   3.518   3.247   7.592 -0.2625 -0.6100  0.0136
 1014SOL    HW114501   3.497   3.340   7.589  0.4686 -0.4642 -0.6081
 1014SOL    HW214502   3.481   3.213   7.674  1.1480 -1.3394  0.3410
 1015SOL     OW14503   2.688   3.937   2.882 -0.2698 -0.4202  0.0279
 1015SOL    HW114504   2.761   3.969   2.935  0.3337 -0.4505 -0.7940
 1015SOL    HW214505   2.711   3.984   2.802 -1.3671  0.6566  0.3534
 1016SOL     OW14506   4.108   4.137   4.361 -0.2612 -0.2552  0.0920
 1016SOL    HW114507   4.163   4.117   4.437 -0.4596 -1.1704 -0.0053
 1016SOL    HW214508   4.180   4.135   4.298 -0.3038  1.7705 -0.0419
 1017SOL     OW14509   0.381   0.554   6.931 -0.3955 -0.2725  0.0989
 1017SOL    HW114510   0.319   0.485   6.953 -0.5789 -0.4116 -0.8577
 1017SOL    HW214511   0.375   0.555   6.835  2.1825  0.5718 -0.0622
 1018SOL     OW14512   1.045   2.986   2.242  0.0459 -0.1636  0.5178
 1018SOL    HW114513   1.069   3.077   2.224  0.2471 -0.5843 -1.3430
 1018SOL    HW214514   1.057   2.963   2.150 -0.9229 -0.1501  0.3844
 1019SOL     OW14515   4.455   1.248  12.414  0.0947 -0.2025  0.5893
 1019SOL    HW114516   4.408   1.227  12.494 -1.2135  2.0392  0.4004
 1019SOL    HW214517   4.447   1.342  12.402  0.1160 -0.3050 -0.2564
 1020SOL     OW14518   2.076   1.621  12.186  0.5505 -0.7711 -0.5185
 1020SOL    HW114519   2.080   1.686  12.256  1.0465  0.1282 -1.3663
 1020SOL    HW214520   2.013   1.560  12.224  0.2175  0.0765  0.2963
 1021SOL     OW14521   0.276   4.333   2.221  0.4378  0.1387 -0.3844
 1021SOL    HW114522   0.235   4.412   2.185  0.6046  0.7072  0.6695
 1021SOL    HW214523   0.269   4.275   2.145  0.6699  0.6328 -0.7796
 1022SOL     OW14524   1.421   2.119  17.494  0.0392 -0.1720  0.1700
 1022SOL    HW114525   1.375   2.158  17.569  0.9079  1.7192 -0.2984
 1022SOL    HW214526   1.483   2.057  17.532 -0.6974 -0.7032  0.5286
 1023SOL     OW14527   4.214   0.854  16.064 -0.0101  0.4619 -0.0876
 1023SOL    HW114528   4.213   0.950  16.071 -2.9522  0.2319  2.4921
 1023SOL    HW214529   4.307   0.833  16.056 -0.1512 -0.7163  1.4078
 1024SOL     OW14530   1.333   2.555  16.624 -0.5086 -0.2383 -0.5532
 1024SOL    HW114531   1.316   2.467  16.591 -4.1418  1.2032 -2.4939
 1024SOL    HW214532   1.258   2.575  16.681 -0.1967 -0.8621  0.0829
 1025SOL     OW14533   0.117   3.831   3.737 -0.2551  0.1080 -0.2910
 1025SOL    HW114534   0.137   3.920   3.766  1.1425  0.1267 -1.2785
 1025SOL    HW214535   0.041   3.847   3.682 -1.9855 -0.3036  2.0158
 1026SOL     OW14536   2.405   3.086   6.152  0.2632 -0.2017 -0.3085
 1026SOL    HW114537   2.476   3.115   6.095  0.7824  1.2345  1.0535
 1026SOL    HW214538   2.349   3.162   6.168  2.0181  1.1904 -0.8334
 1027SOL     OW14539   0.584   3.095  17.538  0.0695 -0.7906  0.3144
 1027SOL    HW114540   0.622   3.156  17.473 -1.6147  1.1674  1.1640
 1027SOL    HW214541   0.534   3.035  17.483  0.2783 -0.4917 -0.2000
 1028SOL     OW14542   4.620   0.431   7.108  0.0839  0.2153  0.4676
 1028SOL    HW114543   4.537   0.478   7.114  0.2878  0.5455  0.6387
 1028SOL    HW214544   4.589   0.343   7.130 -1.4367  0.2358 -1.5471
 1029SOL     OW14545   1.915   3.655   3.872 -0.1057  0.2167 -0.0981
 1029SOL    HW114546   1.974   3.594   3.917 -2.1112  0.0035  2.2814
 1029SOL    HW214547   1.857   3.674   3.946  0.7790  2.3358  0.0544
 1030SOL     OW14548   2.698   3.473   5.312  0.8931 -0.2519  0.1694
 1030SOL    HW114549   2.646   3.513   5.241  0.4653 -2.9767 -1.0333
 1030SOL    HW214550   2.769   3.537   5.312  1.3133 -0.7281  2.2154
 1031SOL     OW14551   4.141   2.362   3.908 -0.4279 -0.3925  0.3527
 1031SOL    HW114552   4.161   2.453   3.889 -2.1459 -0.9231 -4.0034
 1031SOL    HW214553   4.196   2.314   3.845 -0.0289 -0.2945  0.6341
 1032SOL     OW14554   1.022   2.215   9.786 -0.3265  0.3791 -0.2473
 1032SOL    HW114555   1.066   2.264   9.717 -1.8612  2.2274  0.0950
 1032SOL    HW214556   0.940   2.191   9.743 -1.2810  1.3013  1.0680
 1033SOL     OW14557   4.216   1.352   5.563  0.3007 -0.5586  0.7462
 1033SOL    HW114558   4.167   1.281   5.521 -1.1316  0.5603  0.5153
 1033SOL    HW214559   4.304   1.331   5.532  0.3414  0.3262  0.2815
 1034SOL     OW14560   1.953   1.174   9.367  0.2164  0.5046  0.4408
 1034SOL    HW114561   1.987   1.250   9.413  3.3172 -0.4399 -0.3013
 1034SOL    HW214562   1.912   1.203   9.285 -2.2403 -3.3660  0.2756
 1035SOL     OW14563   3.320   3.500  13.886  0.2371 -0.0410  1.0173
 1035SOL    HW114564   3.400   3.451  13.908  0.2144 -0.2933  0.5318
 1035SOL    HW214565   3.262   3.424  13.892 -0.6917  0.5612 -0.5145
 1036SOL     OW14566   2.511   3.251   0.160  0.3948 -0.0785 -0.5711
 1036SOL    HW114567   2.536   3.299   0.081  0.6951 -1.4001 -1.2836
 1036SOL    HW214568   2.585   3.193   0.181 -0.3083 -1.8614 -3.0080
 1037SOL     OW14569   4.162   2.801   2.054 -0.0604 -0.1280 -0.1832
 1037SOL    HW114570   4.108   2.803   1.976  0.7449  0.0500 -0.7397
 1037SOL    HW214571   4.182   2.891   2.083 -0.6652 -0.3453  0.9054
 1038SOL     OW14572   3.631   0.318  16.863  0.2987 -0.6952 -0.3554
 1038SOL    HW114573   3.553   0.351  16.818  0.5606  1.9870  1.1906
 1038SOL    HW214574   3.687   0.325  16.787 -1.5544  2.3210 -1.4219
 1039SOL     OW14575   3.394   4.458   6.277  0.6001  0.5399  0.3468
 1039SOL    HW114576   3.360   4.538   6.316 -0.8423 -1.1106  2.4790
 1039SOL    HW214577   3.310   4.431   6.239  1.5693 -2.0154  0.0458
 1040SOL     OW14578   0.768   4.380  13.470  0.0523  0.2941  0.0136
 1040SOL    HW114579   0.861   4.364  13.453  0.2143  2.7463 -1.3178
 1040SOL    HW214580   0.737   4.417  13.387  0.6167 -0.5071 -0.5544
 1041SOL     OW14581   1.211   2.486   7.787 -0.1498 -0.1735  0.5746
 1041SOL    HW114582   1.300   2.513   7.808  0.1621  0.1363 -1.1697
 1041SOL    HW214583   1.212   2.393   7.806 -0.1517 -0.1634  0.6249
 1042SOL     OW14584   2.591   2.167   2.771  0.3344 -0.2525 -0.2809
 1042SOL    HW114585   2.551   2.085   2.801  0.7041  0.0887  1.1489
 1042SOL    HW214586   2.672   2.167   2.821 -0.0029 -1.4560  0.2711
 1043SOL     OW14587   2.835   3.560  15.167 -0.0441 -0.2593 -0.3168
 1043SOL    HW114588   2.926   3.581  15.186  0.5686 -2.3602 -0.8652
 1043SOL    HW214589   2.785   3.603  15.236  1.5137  1.5692 -0.3509
 1044SOL     OW14590   3.664   0.068   2.281  0.0769  1.2326  0.1640
 1044SOL    HW114591   3.682   0.161   2.267 -2.0242  2.0490  2.9782
 1044SOL    HW214592   3.621   0.074   2.366  1.6511  1.2960  0.9382
 1045SOL     OW14593   0.533   3.494   9.373  0.5069 -0.1088  0.4296
 1045SOL    HW114594   0.458   3.458   9.421 -0.2677  0.1434 -0.5939
 1045SOL    HW214595   0.572   3.408   9.363  0.5211  0.2221 -2.2883
 1046SOL     OW14596   1.068   3.244   2.961  0.0593  0.1997  0.6359
 1046SOL    HW114597   1.135   3.278   3.019  1.2120  0.1909 -0.6884
 1046SOL    HW214598   1.063   3.154   2.992  0.5692 -0.8496 -2.2780
 1047SOL     OW14599   4.246   3.203  15.048  0.0507 -0.2694 -0.1772
 1047SOL    HW114600   4.197   3.249  15.116 -0.1113 -0.5733 -0.0873
 1047SOL    HW214601   4.224   3.113  15.071 -0.1896 -0.2077 -0.1630
 1048SOL     OW14602   0.844   3.409   2.882  0.1702 -0.5717 -0.2985
 1048SOL    HW114603   0.907   3.338   2.892 -0.6967 -1.0316  1.9169
 1048SOL    HW214604   0.900   3.484   2.863  0.5926 -0.8399 -0.1165
 1049SOL     OW14605   2.853   4.067   8.777 -0.5497 -0.6211 -0.5547
 1049SOL    HW114606   2.792   4.128   8.819 -1.4637 -2.3515  0.6308
 1049SOL    HW214607   2.852   3.992   8.837  2.3234 -0.6741 -0.5766
 1050SOL     OW14608   4.140   3.339   2.930 -0.0594 -0.3007 -0.6106
 1050SOL    HW114609   4.177   3.380   2.852 -1.1617  1.2773 -0.3087
 1050SOL    HW214610   4.078   3.273   2.900  1.6169 -1.7709 -0.8045
 1051SOL     OW14611   4.625   0.323   6.490  0.1061  0.5175  0.0203
 1051SOL    HW114612   4.555   0.357   6.434 -0.2139 -4.3994 -2.6310
 1051SOL    HW214613   4.646   0.240   6.446 -0.7414  1.2204 -1.7022
 1052SOL     OW14614   3.352   4.565   4.969 -0.6166 -0.3321  0.2635
 1052SOL    HW114615   3.348   4.525   5.056  0.2035 -0.0153  0.4468
 1052SOL    HW214616   3.426   4.517   4.933  0.2942  1.9390 -0.8823
 1053SOL     OW14617   1.455   0.074   5.713  0.5221 -0.7629  0.3726
 1053SOL    HW114618   1.442   0.144   5.777 -2.8638 -0.9517 -0.1116
 1053SOL    HW214619   1.504   0.121   5.645 -1.3717 -1.3285 -1.3867
 1054SOL     OW14620   0.862   2.432   3.015 -0.3893 -0.3418 -0.3027
 1054SOL    HW114621   0.876   2.524   2.992 -2.6211  0.1566  0.3546
 1054SOL    HW214622   0.881   2.402   2.926  2.4919 -0.5821  0.3834
 1055SOL     OW14623   1.948   0.058   8.264 -0.2279 -0.2828  0.3405
 1055SOL    HW114624   1.930   0.120   8.334 -1.4982  1.1903 -1.3210
 1055SOL    HW214625   2.015   0.003   8.306  0.4379  1.6698  1.8060
 1056SOL     OW14626   4.540   2.720   4.400  0.0402  0.0272  0.6744
 1056SOL    HW114627   4.629   2.725   4.435 -0.5424  0.6366  2.0689
 1056SOL    HW214628   4.499   2.786   4.456 -0.6157 -0.2134  0.4659
 1057SOL     OW14629   0.995   0.343   6.150 -0.3740 -0.2182 -0.3812
 1057SOL    HW114630   1.054   0.280   6.108 -1.1556  0.0542 -1.9143
 1057SOL    HW214631   1.000   0.312   6.240 -0.3015  1.7799  0.3113
 1058SOL     OW14632   2.114   0.540   3.017  0.0217 -0.6336 -0.1750
 1058SOL    HW114633   2.046   0.499   2.963 -1.5068  1.3769  0.2066
 1058SOL    HW214634   2.163   0.588   2.950 -1.4459  0.7967 -0.2284
 1059SOL     OW14635   0.578   2.999  17.087  0.3208  0.2490  0.3592
 1059SOL    HW114636   0.511   2.936  17.062  0.3358  0.4272 -0.1318
 1059SOL    HW214637   0.568   3.006  17.182 -0.2900  0.2351  0.2917
 1060SOL     OW14638   2.367   2.097   1.842  0.5490 -0.3184 -0.2561
 1060SOL    HW114639   2.293   2.067   1.790 -0.1857  0.1070  0.5376
 1060SOL    HW214640   2.361   2.193   1.837  0.5890 -0.4773 -3.3700
 1061SOL     OW14641   2.795   4.339   0.950  0.0994 -0.0882 -0.3274
 1061SOL    HW114642   2.888   4.360   0.944 -0.1417  1.1102  0.1851
 1061SOL    HW214643   2.787   4.313   1.042 -0.1349  2.2594  0.2985
 1062SOL     OW14644   0.517   0.059   1.628  0.0857  0.0765 -0.0107
 1062SOL    HW114645   0.535   0.040   1.536 -0.3993  0.5647 -0.2086
 1062SOL    HW214646   0.607   0.059   1.659 -0.2376 -1.9316  0.9007
 1063SOL     OW14647   1.394   1.852   1.704 -0.1783 -0.0765  0.1336
 1063SOL    HW114648   1.438   1.849   1.789 -0.4035 -0.9599  0.2187
 1063SOL    HW214649   1.392   1.947   1.694  1.0774 -0.1442 -0.8019
 1064SOL     OW14650   2.456   4.141   4.676 -0.1515 -0.3488 -0.1779
 1064SOL    HW114651   2.544   4.117   4.705 -0.4778 -0.5371  0.6654
 1064SOL    HW214652   2.406   4.091   4.740 -0.6583  1.7633  1.0688
 1065SOL     OW14653   0.730   2.163  11.645  0.2387 -0.6804  0.0620
 1065SOL    HW114654   0.693   2.201  11.725 -0.6743 -4.2082  1.3206
 1065SOL    HW214655   0.822   2.155  11.670 -0.1620  0.5973  1.9681
 1066SOL     OW14656   2.801   3.069  15.153  0.3828  0.2861 -0.2045
 1066SOL    HW114657   2.793   3.148  15.101 -1.1274 -0.0648 -0.5015
 1066SOL    HW214658   2.812   3.102  15.243 -0.4602 -2.0765  0.7687
 1067SOL     OW14659   4.138   4.514   7.149 -0.0987 -0.5883 -0.3651
 1067SOL    HW114660   4.086   4.578   7.100  1.3316  0.4799 -0.4679
 1067SOL    HW214661   4.082   4.438   7.132 -1.3947 -0.1302  1.8854
 1068SOL     OW14662   0.768   1.763  12.931  0.3885  0.2510 -0.9605
 1068SOL    HW114663   0.838   1.700  12.946  0.2722  0.4481  0.4610
 1068SOL    HW214664   0.818   1.835  12.892  1.3867  1.4295  2.4334
 1069SOL     OW14665   0.019   0.999   7.044  0.0149 -0.0056 -0.1083
 1069SOL    HW114666   0.010   1.042   7.129 -0.4892 -0.2696 -0.0282
 1069SOL    HW214667   0.009   0.905   7.060 -0.4347  0.4395  2.2474
 1070SOL     OW14668   2.472   2.791   5.099 -0.2892  0.3386  0.0396
 1070SOL    HW114669   2.503   2.744   5.021 -1.3019 -1.0044  0.4238
 1070SOL    HW214670   2.380   2.765   5.106 -0.5747  1.0653 -1.0229
 1071SOL     OW14671   0.850   3.533   4.933 -0.3967 -0.2902 -0.3794
 1071SOL    HW114672   0.839   3.439   4.946 -0.7323 -0.0275  1.2850
 1071SOL    HW214673   0.934   3.543   4.979 -0.6110  1.9565 -0.4713
 1072SOL     OW14674   2.644   3.006  13.801 -0.1078 -0.2753  0.1204
 1072SOL    HW114675   2.701   2.980  13.728 -1.0322 -0.0556 -0.6745
 1072SOL    HW214676   2.596   3.080  13.764  1.8900  0.3966 -1.1214
 1073SOL     OW14677   4.449   0.894  13.206  0.3026 -0.8731 -0.3289
 1073SOL    HW114678   4.391   0.969  13.218 -2.2089 -2.6339 -1.5175
 1073SOL    HW214679   4.384   0.835  13.168  0.4218  0.0899 -2.0027
 1074SOL     OW14680   4.440   1.101  17.365 -0.3202 -0.3535 -0.1627
 1074SOL    HW114681   4.452   1.185  17.321  1.1931 -0.2995  0.3726
 1074SOL    HW214682   4.513   1.046  17.339 -1.5219 -1.7715 -0.5781
 1075SOL     OW14683   4.356   1.687   6.034 -0.0041  0.1476 -0.6192
 1075SOL    HW114684   4.342   1.728   6.119  0.2698  1.2857 -1.1214
 1075SOL    HW214685   4.350   1.758   5.970  0.9336  0.8636  0.0774
 1076SOL     OW14686   2.054   0.274  13.316  0.9734 -0.6460 -0.2885
 1076SOL    HW114687   1.986   0.292  13.380  0.3335 -0.4639 -1.0149
 1076SOL    HW214688   2.021   0.192  13.278 -1.2014 -0.5890  1.5169
 1077SOL     OW14689   0.098   2.181   9.739  0.2445 -0.0169 -0.1062
 1077SOL    HW114690   0.186   2.163   9.706  0.2642 -1.3524  0.6774
 1077SOL    HW214691   0.119   2.263   9.785 -1.8115 -0.7906  2.1920
 1078SOL     OW14692   0.603   4.195   2.115  0.0647 -0.2688 -0.1980
 1078SOL    HW114693   0.649   4.144   2.047  1.2553  1.1100 -0.4225
 1078SOL    HW214694   0.679   4.239   2.152 -2.5781  3.3087  0.8997
 1079SOL     OW14695   4.070   1.220   5.374 -0.3258  0.6513 -0.5822
 1079SOL    HW114696   4.085   1.208   5.280 -4.0900  0.7908 -1.2279
 1079SOL    HW214697   4.091   1.130   5.400 -0.2599  1.0977  0.9204
 1080SOL     OW14698   2.590   2.272   4.734 -0.4365 -0.0526  0.0931
 1080SOL    HW114699   2.554   2.211   4.671 -0.8019  1.1194 -0.8299
 1080SOL    HW214700   2.523   2.340   4.738 -2.5196 -2.0811 -0.5676
 1081SOL     OW14701   0.741   1.810   5.655  0.3252  0.0878  0.5414
 1081SOL    HW114702   0.681   1.746   5.694 -2.3944  1.4890 -1.3665
 1081SOL    HW214703   0.812   1.812   5.720  0.0203 -2.2374  0.9563
 1082SOL     OW14704   4.667   3.962   8.504  1.1396  0.4120 -0.1984
 1082SOL    HW114705   4.690   4.003   8.587  1.2758  1.3752 -0.7045
 1082SOL    HW214706   4.632   3.876   8.526 -1.0122  1.3460 -0.0385
 1083SOL     OW14707   0.332   1.967   2.524 -0.5684 -0.1787 -0.0252
 1083SOL    HW114708   0.405   1.936   2.578  0.3736 -0.2529 -1.3628
 1083SOL    HW214709   0.277   2.015   2.586 -0.8640  1.6850 -1.7615
 1084SOL     OW14710   4.557   3.404  10.102  0.4074  0.3019  0.6757
 1084SOL    HW114711   4.505   3.440  10.031  0.4212  0.8393  0.9376
 1084SOL    HW214712   4.566   3.311  10.079 -0.1778  0.6341 -0.8913
 1085SOL     OW14713   2.027   4.535   5.583  0.3149 -0.3918 -0.1489
 1085SOL    HW114714   2.024   4.610   5.524 -1.3576 -0.0238  0.4026
 1085SOL    HW214715   2.006   4.591   5.658 -0.1842 -1.7619  0.7151
 1086SOL     OW14716   2.236   4.717   4.535 -0.4774  0.0527 -0.3952
 1086SOL    HW114717   2.197   4.717   4.448 -0.6346  0.6373 -0.3262
 1086SOL    HW214718   2.250   0.091   4.540 -0.2149 -0.1425  2.6294
 1087SOL     OW14719   2.576   4.536   1.466 -0.0229 -0.5111 -0.7160
 1087SOL    HW114720   2.646   4.512   1.405  1.8295  0.7278  0.9348
 1087SOL    HW214721   2.549   4.457   1.513  1.5154 -1.1231 -0.8736
 1088SOL     OW14722   3.448   3.045   9.518 -0.4735 -0.1581 -0.0336
 1088SOL    HW114723   3.427   3.137   9.499  2.2751  0.0473 -2.0076
 1088SOL    HW214724   3.539   3.059   9.545 -0.4170 -0.7445  0.0697
 1089SOL     OW14725   0.333   2.791  14.406  0.7850 -0.0601 -0.4150
 1089SOL    HW114726   0.238   2.786  14.391  0.8388 -0.1687 -0.7129
 1089SOL    HW214727   0.348   2.878  14.443 -1.3085 -1.1543  3.0585
 1090SOL     OW14728   2.857   4.130  10.874 -0.4609 -0.0115 -0.6724
 1090SOL    HW114729   2.836   4.217  10.840  3.1125  2.0904  2.5200
 1090SOL    HW214730   2.940   4.118  10.829 -0.1770  1.4491 -0.5287
 1091SOL     OW14731   0.525   2.065  16.269  0.5748  0.4846 -0.2702
 1091SOL    HW114732   0.522   2.143  16.215 -4.5034  0.0268 -0.6791
 1091SOL    HW214733   0.613   2.062  16.307  0.0986 -1.5209  0.6799
 1092SOL     OW14734   0.696   0.266   8.702  0.1975  0.3671 -0.2033
 1092SOL    HW114735   0.745   0.324   8.760  0.9336  2.3236 -2.7897
 1092SOL    HW214736   0.680   0.325   8.629 -1.4318 -1.0318 -0.9792
 1093SOL     OW14737   1.293   1.615   3.945 -0.1512  0.1855  0.3935
 1093SOL    HW114738   1.264   1.696   3.987 -1.2835  0.8349 -1.6501
 1093SOL    HW214739   1.217   1.585   3.896 -1.0067  1.9533  0.6346
 1094SOL     OW14740   2.533   0.862   3.553 -0.1181 -0.0536 -0.7197
 1094SOL    HW114741   2.547   0.795   3.619  1.5340  0.6015 -0.3994
 1094SOL    HW214742   2.575   0.941   3.587 -1.6767 -0.6523  2.5703
 1095SOL     OW14743   2.268   2.353   1.807  0.1280 -0.3434  0.0827
 1095SOL    HW114744   2.202   2.379   1.870  1.7398  0.6666  1.3445
 1095SOL    HW214745   2.285   2.438   1.766  1.2769 -1.1505 -1.1277
 1096SOL     OW14746   3.252   2.334   2.776 -0.0472  0.1274  0.1883
 1096SOL    HW114747   3.193   2.400   2.740  1.2397  1.3016  0.2854
 1096SOL    HW214748   3.323   2.393   2.798 -0.4656  0.4619  0.6539
 1097SOL     OW14749   0.781   3.380   6.473 -0.4893 -0.1274  0.0478
 1097SOL    HW114750   0.834   3.341   6.543 -1.6106 -0.9531  0.4370
 1097SOL    HW214751   0.833   3.459   6.459 -0.6582 -0.2125 -1.0916
 1098SOL     OW14752   0.315   4.241   5.642 -0.5674  0.3087  0.2386
 1098SOL    HW114753   0.330   4.321   5.593 -0.2751  0.7633  1.0819
 1098SOL    HW214754   0.294   4.274   5.730  1.0974  1.9617 -0.0006
 1099SOL     OW14755   1.515   4.274   6.937 -0.2194 -0.4557  0.5384
 1099SOL    HW114756   1.478   4.289   7.024  1.1388  2.6595  0.5715
 1099SOL    HW214757   1.433   4.257   6.890 -1.2658  1.1441  1.7981
 1100SOL     OW14758   0.412   3.252  16.896  0.4372 -0.1476  0.1014
 1100SOL    HW114759   0.459   3.226  16.817  2.9536  0.2267  1.4766
 1100SOL    HW214760   0.489   3.261  16.953  1.8490 -0.1381 -1.8133
 1101SOL     OW14761   0.994   3.603  13.502  0.0123  0.7437 -0.2161
 1101SOL    HW114762   0.973   3.586  13.594 -2.0673  1.1463 -0.6113
 1101SOL    HW214763   0.916   3.568  13.459  0.4581 -1.7360  0.9724
 1102SOL     OW14764   1.681   0.995   3.639  0.4806  0.0017 -0.1048
 1102SOL    HW114765   1.693   1.007   3.545  0.8792 -2.6539 -0.3851
 1102SOL    HW214766   1.600   1.043   3.656  0.3830  0.1949 -1.1257
 1103SOL     OW14767   1.205   3.077   8.371 -0.0592 -0.3933 -0.2202
 1103SOL    HW114768   1.271   3.041   8.312  0.9089 -0.1333  0.7252
 1103SOL    HW214769   1.160   2.996   8.395 -1.4013  0.0817 -1.0669
 1104SOL     OW14770   2.491   4.531   2.667 -0.0153 -0.9127 -0.1577
 1104SOL    HW114771   2.552   4.579   2.610  0.1805  0.5278  1.2909
 1104SOL    HW214772   2.502   4.580   2.748 -1.3776  0.8571 -1.0336
 1105SOL     OW14773   2.787   3.526  16.552 -0.2824  0.6711 -0.2902
 1105SOL    HW114774   2.779   3.498  16.461 -1.0899  2.0879 -0.6577
 1105SOL    HW214775   2.702   3.570  16.557 -1.5663 -1.6775 -1.0613
 1106SOL     OW14776   4.407   0.366  16.770 -0.0190 -0.4103  0.3568
 1106SOL    HW114777   4.316   0.354  16.795 -0.4875  2.7647  0.1616
 1106SOL    HW214778   4.430   0.426  16.840 -0.5629  1.0152 -0.6892
 1107SOL     OW14779   3.323   1.901   2.020 -0.1027 -0.2765  0.5914
 1107SOL    HW114780   3.247   1.857   2.058  0.0388 -1.7137 -0.7836
 1107SOL    HW214781   3.354   1.845   1.949 -0.4527  3.2695 -2.3193
 1108SOL     OW14782   3.190   0.106   8.789 -0.1448  0.0517  0.1807
 1108SOL    HW114783   3.149   0.191   8.804  0.8659  1.2577 -3.9128
 1108SOL    HW214784   3.117   0.049   8.765  0.2498 -0.6342  0.5716
 1109SOL     OW14785   3.295   0.798   8.492 -0.9040  0.2111 -0.4280
 1109SOL    HW114786   3.336   0.761   8.414 -1.3480 -0.7025 -0.2296
 1109SOL    HW214787   3.247   0.871   8.453 -0.2489  1.3751  0.9663
 1110SOL     OW14788   0.982   3.084   4.557  0.3316  0.0220  0.4669
 1110SOL    HW114789   1.021   2.998   4.567 -2.8011 -0.8352  5.5026
 1110SOL    HW214790   0.940   3.095   4.642  0.2306  1.3087  0.2636
 1111SOL     OW14791   2.313   1.427   4.159 -0.5784 -0.2258  0.4414
 1111SOL    HW114792   2.276   1.497   4.105 -0.4580 -0.3322  0.2242
 1111SOL    HW214793   2.348   1.474   4.235  2.3203 -2.2327  0.3263
 1112SOL     OW14794   2.704   2.783   2.052 -0.2349 -0.3131 -0.5396
 1112SOL    HW114795   2.727   2.708   1.998  0.7742 -2.0882  2.3686
 1112SOL    HW214796   2.793   2.808   2.074 -0.6525  0.4284  0.2716
 1113SOL     OW14797   4.268   3.437   1.237 -0.1714  0.1578  0.2673
 1113SOL    HW114798   4.187   3.409   1.280  1.0660 -1.7858  1.3363
 1113SOL    HW214799   4.309   3.354   1.214 -0.8623 -0.0640 -0.1625
 1114SOL     OW14800   2.574   2.403   6.690 -0.2886 -0.2399 -0.4781
 1114SOL    HW114801   2.664   2.379   6.711 -0.3423  1.0398  1.2468
 1114SOL    HW214802   2.530   2.318   6.697 -1.6034  0.6423  1.9842
 1115SOL     OW14803   3.968   3.373   3.171  0.2800 -0.5355 -0.0130
 1115SOL    HW114804   3.915   3.293   3.180  0.7379 -1.0592 -1.8398
 1115SOL    HW214805   4.021   3.344   3.097 -1.4695  3.2001 -2.7023
 1116SOL     OW14806   4.443   3.809   5.993  0.5086  0.4928 -0.1699
 1116SOL    HW114807   4.481   3.870   6.055  1.5238 -0.3585  0.0435
 1116SOL    HW214808   4.416   3.729   6.037  2.6431 -1.1149 -1.7825
 1117SOL     OW14809   0.760   0.803  13.383  0.4434  0.1638  0.1198
 1117SOL    HW114810   0.855   0.807  13.384  0.3046  3.2879 -0.4206
 1117SOL    HW214811   0.742   0.761  13.299  0.8661 -1.1244  0.6687
 1118SOL     OW14812   3.856   1.674   2.626 -0.7371 -0.0062 -0.3226
 1118SOL    HW114813   3.842   1.584   2.597 -2.7821 -0.1066  0.9259
 1118SOL    HW214814   3.787   1.681   2.692 -0.9118  3.2261 -0.8588
 1119SOL     OW14815   4.494   4.556   0.747 -0.0045 -0.1318 -0.1005
 1119SOL    HW114816   4.504   4.462   0.763  0.1907  0.4706  3.3253
 1119SOL    HW214817   4.402   4.563   0.722  0.4362  1.5720 -1.2792
 1120SOL     OW14818   1.425   1.049   3.743 -0.1594 -0.0482 -0.4161
 1120SOL    HW114819   1.370   1.127   3.741 -0.1757 -0.0164  1.2634
 1120SOL    HW214820   1.382   0.994   3.677 -3.9551  1.2904  0.9091
 1121SOL     OW14821   2.794   3.689  13.336 -0.2269 -0.2427  0.6997
 1121SOL    HW114822   2.735   3.635  13.387  0.1696  0.2245  1.6620
 1121SOL    HW214823   2.751   3.775  13.336 -1.0625 -0.6642  0.5519
 1122SOL     OW14824   2.258   3.057  15.419 -0.1774 -0.1112  0.1158
 1122SOL    HW114825   2.332   3.003  15.395 -0.5343  0.0478 -1.3363
 1122SOL    HW214826   2.203   3.006  15.479 -0.8576 -2.5766 -2.6387
 1123SOL     OW14827   2.662   1.300   0.765 -0.6262 -0.6340 -0.2649
 1123SOL    HW114828   2.615   1.382   0.752  0.8546  0.3620  0.6375
 1123SOL    HW214829   2.743   1.327   0.807 -0.5197  0.0860 -0.9308
 1124SOL     OW14830   4.007   1.872  10.230  0.4433 -0.5552  0.2303
 1124SOL    HW114831   4.077   1.856  10.168 -1.9601 -1.5067 -2.2248
 1124SOL    HW214832   4.018   1.802  10.294 -1.4822 -2.4363 -1.5052
 1125SOL     OW14833   4.444   2.589   2.317  0.5266 -0.4640 -0.1766
 1125SOL    HW114834   4.481   2.640   2.244  1.5094 -1.8436 -0.6500
 1125SOL    HW214835   4.522   2.558   2.363 -0.3286 -1.5611  0.5036
 1126SOL     OW14836   3.488   0.668  16.740 -0.1553  0.4401 -0.1446
 1126SOL    HW114837   3.477   0.575  16.722 -1.5399  0.0332  2.7790
 1126SOL    HW214838   3.479   0.668  16.835  1.3876  0.6253  0.0004
 1127SOL     OW14839   1.123   0.998   7.205  0.1470 -0.1077  0.2913
 1127SOL    HW114840   1.045   0.973   7.254  0.0770  0.0787  0.2758
 1127SOL    HW214841   1.201   0.963   7.248  0.4357 -1.0042 -0.9488
 1128SOL     OW14842   0.573   4.184  17.365 -0.5432  0.3839  0.0703
 1128SOL    HW114843   0.487   4.218  17.391 -0.2909  1.4296 -0.4876
 1128SOL    HW214844   0.629   4.261  17.373  0.6417 -0.0976 -3.8680
 1129SOL     OW14845   3.596   4.563   6.095  0.5083 -0.3859  0.2505
 1129SOL    HW114846   3.513   4.526   6.124  0.1051 -0.1921 -0.6609
 1129SOL    HW214847   3.617   4.618   6.171  0.9279 -1.3083  0.8021
 1130SOL     OW14848   4.086   3.797  15.298 -0.1959  0.2833  0.3283
 1130SOL    HW114849   4.067   3.841  15.215  1.5242  0.4997  0.0347
 1130SOL    HW214850   4.144   3.725  15.274 -1.8404 -0.0888 -2.4500
 1131SOL     OW14851   3.899   4.394   1.619 -0.2846  0.5839  0.0354
 1131SOL    HW114852   3.910   4.484   1.587  0.2343  0.5578  0.1511
 1131SOL    HW214853   3.990   4.365   1.622 -0.4055 -0.0551 -2.6285
 1132SOL     OW14854   3.997   4.124   3.782  0.0940 -0.2083  0.0670
 1132SOL    HW114855   4.028   4.215   3.774  1.0986 -0.3920  1.9134
 1132SOL    HW214856   3.989   4.130   3.877  0.4329  0.9362  0.0342
 1133SOL     OW14857   3.616   4.353   3.375  0.2211  0.2101 -0.0586
 1133SOL    HW114858   3.592   4.333   3.284 -2.5049  4.1156 -0.1531
 1133SOL    HW214859   3.537   4.396   3.408  0.0697  0.0918 -0.2585
 1134SOL     OW14860   1.583   2.003   4.044  0.4690 -0.1297 -0.4315
 1134SOL    HW114861   1.604   1.936   3.978 -0.8814 -1.0331  0.0672
 1134SOL    HW214862   1.650   2.011   4.111 -2.1070 -0.1611  2.1181
 1135SOL     OW14863   3.284   3.033   8.680 -0.5386 -0.2914 -0.2062
 1135SOL    HW114864   3.320   3.100   8.621 -2.5582  0.3626 -0.6800
 1135SOL    HW214865   3.212   3.085   8.714 -0.8959 -0.3928 -0.8170
 1136SOL     OW14866   1.212   2.266   2.704 -0.0253  0.0621 -0.2417
 1136SOL    HW114867   1.246   2.221   2.627 -0.1655 -0.6222  0.1013
 1136SOL    HW214868   1.154   2.334   2.669 -0.8586 -0.6174 -0.1880
 1137SOL     OW14869   1.879   3.235   5.466 -0.5506  0.1598 -0.3920
 1137SOL    HW114870   1.898   3.215   5.375 -1.3915 -2.6202  0.0242
 1137SOL    HW214871   1.964   3.266   5.498 -0.8709  0.5222  0.1120
 1138SOL     OW14872   3.884   0.540   4.698  0.3885 -0.1844 -0.1018
 1138SOL    HW114873   3.852   0.623   4.734 -0.4126 -0.3648 -0.3897
 1138SOL    HW214874   3.844   0.534   4.611  2.7929 -0.5777 -1.1767
 1139SOL     OW14875   4.104   3.375  12.397 -0.0896  0.7226  0.0454
 1139SOL    HW114876   4.120   3.465  12.369  0.0386  0.9801  0.9398
 1139SOL    HW214877   4.069   3.401  12.483 -0.7214 -1.2282  0.3862
 1140SOL     OW14878   2.558   1.009   0.514 -0.7465 -0.3218 -0.2861
 1140SOL    HW114879   2.551   0.915   0.499 -1.4787 -0.3589  0.2576
 1140SOL    HW214880   2.606   1.025   0.433  2.3288 -0.1303  1.5480
 1141SOL     OW14881   2.225   0.171  12.998  0.2389 -0.4606  0.2618
 1141SOL    HW114882   2.235   0.116  13.076  0.8039  0.6802  1.0014
 1141SOL    HW214883   2.243   0.110  12.927 -1.6583 -0.0813 -0.5520
 1142SOL     OW14884   2.222   4.596   2.712 -0.6562 -0.3896 -0.0512
 1142SOL    HW114885   2.312   4.589   2.680 -1.9892 -1.6741 -3.5636
 1142SOL    HW214886   2.228   4.507   2.749 -1.9802  0.6480  2.6589
 1143SOL     OW14887   3.804   3.845   7.077  0.1441 -0.3304  0.1871
 1143SOL    HW114888   3.861   3.921   7.087 -1.2664  0.8014 -0.2578
 1143SOL    HW214889   3.725   3.891   7.048 -0.6732 -1.9337 -0.1303
 1144SOL     OW14890   1.688   4.172   8.406 -0.7584 -0.1239 -0.2438
 1144SOL    HW114891   1.595   4.179   8.384 -0.6459  0.0484 -0.6543
 1144SOL    HW214892   1.721   4.170   8.316 -0.4226 -0.9826 -0.1001
 1145SOL     OW14893   1.945   1.450  17.309 -0.0399  0.6303  0.3261
 1145SOL    HW114894   1.884   1.445  17.236  0.0167 -1.3954  0.4116
 1145SOL    HW214895   1.988   1.533  17.288  0.3278  0.1482 -0.8599
 1146SOL     OW14896   4.261   3.223   2.608 -0.0586  0.0813 -0.1046
 1146SOL    HW114897   4.186   3.190   2.657  0.7766 -1.0114  0.4143
 1146SOL    HW214898   4.264   3.316   2.630  0.9028  0.4740 -1.8489
 1147SOL     OW14899   0.611   4.045  12.417  0.2961 -0.2798  0.0844
 1147SOL    HW114900   0.555   4.065  12.342  0.8266  0.2214 -0.1806
 1147SOL    HW214901   0.546   4.001  12.471  2.1770 -2.1766  0.8122
 1148SOL     OW14902   4.301   0.695   6.950 -0.8341  0.6253  0.6814
 1148SOL    HW114903   4.351   0.770   6.917  0.0990 -0.3603 -0.1297
 1148SOL    HW214904   4.353   0.677   7.028 -0.8197  0.2651  0.5881
 1149SOL     OW14905   0.068   0.073  17.302 -0.0386 -0.1645 -0.5292
 1149SOL    HW114906   0.113   0.142  17.351 -0.5092 -0.7382  0.7045
 1149SOL    HW214907   4.715   0.061  17.362  2.7094  0.1034  2.9183
 1150SOL     OW14908   2.153   4.472   3.854 -0.0459  0.5896 -0.1285
 1150SOL    HW114909   2.151   4.502   3.763 -0.6713 -0.5116 -0.4690
 1150SOL    HW214910   2.204   4.540   3.898  0.8794  0.2790 -0.7214
 1151SOL     OW14911   4.711   0.689   8.439  0.1185 -0.2737 -0.5236
 1151SOL    HW114912   4.659   0.652   8.368 -2.1225  0.3355  0.7942
 1151SOL    HW214913   4.652   0.758   8.467  1.1573  0.8798 -1.1790
 1152SOL     OW14914   1.033   2.656   1.020  0.6453  0.6545  0.7313
 1152SOL    HW114915   1.054   2.593   0.952  2.5613  0.3065  1.6574
 1152SOL    HW214916   1.096   2.632   1.088  0.8112  1.2620  0.7927
 1153SOL     OW14917   0.030   2.893   3.010  0.1969 -0.7908  0.2037
 1153SOL    HW114918   0.082   2.948   2.952  0.0896  0.8479  1.6400
 1153SOL    HW214919   4.698   2.955   3.061 -0.4928  1.2277 -2.9621
 1154SOL     OW14920   0.159   0.628  13.449  0.3352 -0.1636 -0.3279
 1154SOL    HW114921   0.112   0.577  13.516 -1.6302  1.4701 -0.4555
 1154SOL    HW214922   0.082   0.674  13.415  0.1685 -0.9190 -0.9674
 1155SOL     OW14923   0.928   2.951   6.647  0.1117 -0.5099 -0.5865
 1155SOL    HW114924   0.890   2.864   6.636  2.3312 -1.4166 -0.8994
 1155SOL    HW214925   0.924   2.962   6.742  1.5648  1.1654 -0.7152
 1156SOL     OW14926   1.952   2.276   7.890  0.1929 -0.4992  0.1261
 1156SOL    HW114927   1.862   2.245   7.901 -0.1504 -0.5352 -2.8119
 1156SOL    HW214928   1.958   2.264   7.796  1.4340  0.1036  0.1324
 1157SOL     OW14929   3.483   1.416   9.458 -0.2603  0.4742  0.6353
 1157SOL    HW114930   3.507   1.388   9.370 -1.8396  2.4754 -0.4334
 1157SOL    HW214931   3.562   1.462   9.485  1.0578 -0.4160 -1.7231
 1158SOL     OW14932   2.703   3.680   6.877 -0.0196 -0.1481 -0.2692
 1158SOL    HW114933   2.744   3.596   6.900 -0.8082 -0.7274 -1.0076
 1158SOL    HW214934   2.617   3.648   6.849 -0.1875  2.3798 -2.5548
 1159SOL     OW14935   0.397   1.381   2.844 -0.0522  0.1509  0.0110
 1159SOL    HW114936   0.316   1.354   2.800 -0.0105 -1.1034  0.6849
 1159SOL    HW214937   0.363   1.429   2.920  1.1046  0.4229  0.3584
 1160SOL     OW14938   2.171   2.779   5.663  0.0773 -0.0379 -0.5082
 1160SOL    HW114939   2.177   2.873   5.648  0.6048 -0.0905 -0.6242
 1160SOL    HW214940   2.187   2.774   5.757 -1.2632 -0.4856 -0.3155
 1161SOL     OW14941   0.108   1.969   7.010 -0.0543  0.2783  0.6301
 1161SOL    HW114942   0.065   1.902   6.956  0.0311 -0.0818  1.0058
 1161SOL    HW214943   0.182   1.930   7.056  0.7700 -1.0389 -1.8855
 1162SOL     OW14944   1.305   2.662   3.901  0.6161  0.5910  0.0291
 1162SOL    HW114945   1.343   2.744   3.870 -1.5202  2.7349  2.9608
 1162SOL    HW214946   1.213   2.687   3.908  0.5771  1.0186 -2.1438
 1163SOL     OW14947   4.564   3.625   5.270  0.0434 -0.4482 -0.7180
 1163SOL    HW114948   4.541   3.675   5.348  1.6045  1.9828 -1.8157
 1163SOL    HW214949   4.606   3.695   5.221 -1.4411  1.4486  0.7213
 1164SOL     OW14950   0.145   0.874   7.939 -0.3029  0.3680  0.4761
 1164SOL    HW114951   0.163   0.910   8.026  2.1012  3.3274 -1.2094
 1164SOL    HW214952   0.211   0.925   7.891 -0.7211  1.0956  0.6705
 1165SOL     OW14953   2.142   2.986   0.612  0.0719  0.1769 -0.1604
 1165SOL    HW114954   2.116   2.994   0.520 -0.7439  0.7965  0.1281
 1165SOL    HW214955   2.100   2.906   0.643 -1.4636  0.5534 -1.2888
 1166SOL     OW14956   1.460   1.382  16.203  0.3991  0.0654 -0.0539
 1166SOL    HW114957   1.449   1.445  16.274 -2.4578 -0.7089  0.2132
 1166SOL    HW214958   1.505   1.310  16.248  1.4828  1.7230  1.5269
 1167SOL     OW14959   0.328   1.087   9.705  0.3788 -0.1052 -0.2302
 1167SOL    HW114960   0.291   1.036   9.633 -0.6245  0.5951 -0.1948
 1167SOL    HW214961   0.392   1.024   9.738 -0.7686 -1.3997 -0.4867
 1168SOL     OW14962   2.556   1.235   3.390 -0.9429  0.1508 -0.1434
 1168SOL    HW114963   2.467   1.204   3.406 -0.3904 -0.9538  0.9212
 1168SOL    HW214964   2.545   1.248   3.296  0.2848 -1.7035 -0.5605
 1169SOL     OW14965   4.385   3.787   1.552  0.2875  0.5003  0.1220
 1169SOL    HW114966   4.419   3.793   1.463  0.9086 -1.6933  0.2109
 1169SOL    HW214967   4.389   3.693   1.571 -2.4358  0.8859  2.5523
 1170SOL     OW14968   3.205   1.803   2.371  0.4669  0.0272  0.0474
 1170SOL    HW114969   3.281   1.756   2.404  1.6145  1.4143 -0.6012
 1170SOL    HW214970   3.214   1.888   2.414 -4.7996 -0.4467  2.0117
 1171SOL     OW14971   3.820   0.568   3.275  0.1263  0.1369  0.3665
 1171SOL    HW114972   3.750   0.601   3.218 -0.8026 -0.2143  1.3094
 1171SOL    HW214973   3.802   0.475   3.263  0.9458 -0.2805  2.3219
 1172SOL     OW14974   0.860   3.458  12.259  0.2642 -0.5789 -0.4061
 1172SOL    HW114975   0.874   3.421  12.172 -0.4299  1.3604 -1.3278
 1172SOL    HW214976   0.870   3.376  12.309  0.7482 -0.5160 -0.4035
 1173SOL     OW14977   0.445   1.122  16.632 -0.1533  0.2891  0.0314
 1173SOL    HW114978   0.362   1.169  16.641 -0.5946 -0.6168  0.6453
 1173SOL    HW214979   0.465   1.152  16.543  0.3552  0.3537  0.1668
 1174SOL     OW14980   2.343   3.596   1.334  0.0916  0.5183  0.1377
 1174SOL    HW114981   2.335   3.519   1.390 -1.7430  1.3830  1.0534
 1174SOL    HW214982   2.394   3.661   1.383  0.7978  0.1629 -0.1163
 1175SOL     OW14983   2.496   3.961   8.227  0.1175 -0.0813 -0.6203
 1175SOL    HW114984   2.491   4.056   8.229 -3.1053 -0.2351 -0.6332
 1175SOL    HW214985   2.522   3.940   8.137  0.3989 -2.1556 -0.0493
 1176SOL     OW14986   3.878   2.436  13.425 -0.0311  0.3277 -0.2556
 1176SOL    HW114987   3.956   2.404  13.471  0.0589  2.0375  0.7772
 1176SOL    HW214988   3.837   2.355  13.393 -1.6469  0.7594  0.7633
 1177SOL     OW14989   3.267   2.336  10.867 -0.7831  0.7054  0.2891
 1177SOL    HW114990   3.238   2.257  10.821  0.1128  0.9872 -0.7616
 1177SOL    HW214991   3.356   2.310  10.892 -0.6348 -0.5367 -1.5073
 1178SOL     OW14992   3.140   1.296   2.146 -0.0322 -0.2842  0.5371
 1178SOL    HW114993   3.221   1.304   2.197  0.8071 -1.8759 -0.5715
 1178SOL    HW214994   3.158   1.334   2.060 -0.6843  1.3170  1.1206
 1179SOL     OW14995   2.446   1.407   8.979 -0.1276  0.3409  0.0200
 1179SOL    HW114996   2.362   1.363   8.992 -0.9422  2.0218  0.5161
 1179SOL    HW214997   2.471   1.391   9.070 -2.2556 -1.7462  0.2443
 1180SOL     OW14998   1.950   3.714   2.007 -0.1364 -0.9168 -0.5285
 1180SOL    HW114999   1.893   3.790   1.994 -0.9349 -1.4257  0.0154
 1180SOL    HW215000   2.009   3.762   2.065 -0.8759 -1.6390  0.8259
 1181SOL     OW15001   3.434   2.530   2.920  0.0519 -0.3053  0.8842
 1181SOL    HW115002   3.510   2.529   2.862  1.3635 -0.0127  2.5791
 1181SOL    HW215003   3.408   2.621   2.906 -1.5442 -0.7902  0.7603
 1182SOL     OW15004   4.232   1.815   4.188  0.7689 -0.1485  0.4200
 1182SOL    HW115005   4.159   1.769   4.228  0.8929 -1.3473 -0.7227
 1182SOL    HW215006   4.278   1.849   4.265  1.0765  2.1948 -0.8067
 1183SOL     OW15007   4.283   3.725   9.104  0.0693 -0.0531  0.0691
 1183SOL    HW115008   4.328   3.674   9.171 -0.2683  0.3354  0.6024
 1183SOL    HW215009   4.212   3.666   9.077  0.5416 -0.0649 -1.1391
 1184SOL     OW15010   0.239   3.708   5.050  0.0544  0.1432  0.6621
 1184SOL    HW115011   0.296   3.764   5.102  0.2824 -0.4563  1.0576
 1184SOL    HW215012   0.298   3.681   4.979  0.5555 -0.6783  1.3808
 1185SOL     OW15013   0.608   3.395   2.431  0.3554 -0.7523  1.2712
 1185SOL    HW115014   0.552   3.317   2.440 -1.6172  0.5759  0.5132
 1185SOL    HW215015   0.628   3.412   2.523 -1.0051 -0.9982  1.6152
 1186SOL     OW15016   0.952   1.006   4.380 -0.4816 -0.2811 -0.1665
 1186SOL    HW115017   0.875   0.952   4.366 -1.3286  1.1043 -0.8690
 1186SOL    HW215018   0.929   1.091   4.342 -0.6430 -0.4455 -0.4384
 1187SOL     OW15019   0.381   4.271  17.618 -0.5243 -0.3747  0.3658
 1187SOL    HW115020   0.349   4.309   0.015  0.7909 -2.6255  1.9350
 1187SOL    HW215021   0.409   4.346  17.565 -0.2475 -0.8832 -0.2098
 1188SOL     OW15022   0.026   0.194   6.142 -0.7757  1.0553 -0.2567
 1188SOL    HW115023   0.090   0.249   6.187 -1.8634  0.3015  2.2324
 1188SOL    HW215024   4.714   0.144   6.217 -3.2611  1.2788 -1.1876
 1189SOL     OW15025   3.480   3.115  13.233 -0.2456  0.1052  0.1867
 1189SOL    HW115026   3.539   3.039  13.242  1.6025  1.5706  0.4822
 1189SOL    HW215027   3.491   3.152  13.320  2.1531 -0.0557 -0.0322
 1190SOL     OW15028   1.792   4.711  10.168 -0.7820  0.4832 -0.3655
 1190SOL    HW115029   1.715   0.043  10.190  0.0267  1.4037  0.2683
 1190SOL    HW215030   1.822   4.691  10.256  1.4607 -1.9209 -1.6955
 1191SOL     OW15031   3.809   3.444   6.781  0.0119  0.0196  0.2389
 1191SOL    HW115032   3.869   3.383   6.738  0.9452  0.4531  0.9276
 1191SOL    HW215033   3.826   3.528   6.739 -0.9918 -1.3403 -2.8333
 1192SOL     OW15034   3.903   3.697   9.238 -0.1273 -0.1439  0.1128
 1192SOL    HW115035   3.840   3.716   9.168 -1.1009  0.7451  1.2208
 1192SOL    HW215036   3.976   3.661   9.189  0.7729  1.6436  0.1434
 1193SOL     OW15037   3.396   3.160   1.849 -0.1974  0.4334  0.1058
 1193SOL    HW115038   3.429   3.231   1.794  0.4065  0.2974  0.2930
 1193SOL    HW215039   3.460   3.163   1.919  1.2125 -1.1885 -1.1110
 1194SOL     OW15040   1.099   2.658  10.614 -0.0635  0.1999  0.1457
 1194SOL    HW115041   1.006   2.679  10.616 -0.6523 -2.1857 -1.0755
 1194SOL    HW215042   1.126   2.726  10.676  0.4979  1.0692 -1.0472
 1195SOL     OW15043   3.289   0.814   5.598  0.2462  0.1050  0.0642
 1195SOL    HW115044   3.354   0.864   5.548  1.7199 -1.7851  0.0855
 1195SOL    HW215045   3.334   0.816   5.683 -2.3358  0.7137  1.3991
 1196SOL     OW15046   4.287   0.901   9.127 -0.5937 -0.1260  0.0177
 1196SOL    HW115047   4.375   0.920   9.093  0.2967 -3.9505  0.2129
 1196SOL    HW215048   4.244   0.882   9.044  0.4588  1.3010 -0.8567
 1197SOL     OW15049   3.362   0.022   9.044 -0.1394 -0.2591 -0.1371
 1197SOL    HW115050   3.381   0.052   8.955 -2.9740  0.5625 -0.4786
 1197SOL    HW215051   3.280   4.694   9.034  0.3390 -1.5692  2.3725
 1198SOL     OW15052   3.709   3.950   2.037  0.5864 -0.3802 -0.7268
 1198SOL    HW115053   3.751   3.926   1.954 -1.1113 -2.1074 -1.0891
 1198SOL    HW215054   3.652   3.874   2.050 -2.0740  1.3602 -1.9628
 1199SOL     OW15055   1.220   2.439  17.029  0.1652  0.1177  0.1730
 1199SOL    HW115056   1.276   2.516  17.027 -0.5159  0.6681  1.8043
 1199SOL    HW215057   1.172   2.457  17.110 -0.3455  2.0028 -0.5536
 1200SOL     OW15058   3.188   1.357   3.018  0.4410 -0.0597  0.1822
 1200SOL    HW115059   3.274   1.389   2.989  0.4574 -0.0991  0.1864
 1200SOL    HW215060   3.129   1.423   2.983  0.5497  0.0778  0.2611
 1201SOL     OW15061   1.177   1.789   5.731 -0.0118 -0.0539  0.2916
 1201SOL    HW115062   1.253   1.754   5.777  0.9390  0.2777 -1.0289
 1201SOL    HW215063   1.115   1.762   5.799 -1.8673 -0.4673 -1.5459
 1202SOL     OW15064   3.905   1.471   4.955  0.4055 -0.0260 -0.6878
 1202SOL    HW115065   3.831   1.428   4.998  1.3864 -1.1680 -0.1659
 1202SOL    HW215066   3.863   1.505   4.875 -1.3836 -2.1767 -0.6689
 1203SOL     OW15067   4.703   3.174   1.279 -0.2224  0.2096 -0.3667
 1203SOL    HW115068   4.687   3.219   1.196 -2.7847  0.7659  0.4407
 1203SOL    HW215069   4.661   3.228   1.346 -0.2038  0.0881 -0.2560
 1204SOL     OW15070   4.625   4.322   0.815 -0.2103 -0.2836 -0.3594
 1204SOL    HW115071   4.695   4.275   0.860  2.0630  2.6584 -0.8524
 1204SOL    HW215072   4.669   4.359   0.739  1.3745 -0.4275  0.4887
 1205SOL     OW15073   0.981   1.521   3.143  0.0108  0.0445  0.4533
 1205SOL    HW115074   1.052   1.570   3.103 -1.2674 -0.5227 -2.4571
 1205SOL    HW215075   0.936   1.476   3.072  1.0608 -0.3392  0.0361
 1206SOL     OW15076   0.388   1.280   7.589  0.1278 -1.0109 -0.2110
 1206SOL    HW115077   0.426   1.363   7.616 -2.5298  0.0294  0.3320
 1206SOL    HW215078   0.460   1.220   7.608  0.2754 -1.0778 -0.9931
 1207SOL     OW15079   2.843   3.089   7.107  0.1820 -0.0309 -0.0598
 1207SOL    HW115080   2.887   3.173   7.094 -3.3909  1.8264 -0.2597
 1207SOL    HW215081   2.777   3.117   7.171 -0.9210 -1.3238 -0.6259
 1208SOL     OW15082   0.159   4.065  16.661 -0.1085 -0.5047  0.6596
 1208SOL    HW115083   0.214   4.064  16.583  1.5397 -2.6602  1.8409
 1208SOL    HW215084   0.071   4.072  16.623  1.0318 -1.5379 -2.1475
 1209SOL     OW15085   2.229   0.869   8.324 -0.3646  0.0717 -0.0563
 1209SOL    HW115086   2.228   0.874   8.419 -1.6757 -0.8996 -0.0210
 1209SOL    HW215087   2.174   0.946   8.309 -0.1286  0.0104 -1.2409
 1210SOL     OW15088   0.851   1.086   5.402 -0.7036  0.5685 -0.3200
 1210SOL    HW115089   0.846   1.139   5.323  0.3667 -0.7077 -1.2547
 1210SOL    HW215090   0.943   1.090   5.429 -1.2717 -1.1859  1.8059
 1211SOL     OW15091   4.611   0.360   0.546 -0.2912 -0.2856 -0.4260
 1211SOL    HW115092   4.578   0.419   0.478 -2.2496  0.6612  1.3533
 1211SOL    HW215093   4.555   0.376   0.622  0.4959  1.7946 -0.2789
 1212SOL     OW15094   3.539   4.165   2.120 -0.2113  0.0317  0.7351
 1212SOL    HW115095   3.614   4.113   2.091 -0.4090  1.0639 -1.6106
 1212SOL    HW215096   3.469   4.127   2.067  0.7290 -1.0434  0.2520
 1213SOL     OW15097   4.285   0.096   6.947 -0.3064  0.6892  0.0069
 1213SOL    HW115098   4.309   0.119   7.037 -0.6011 -2.7119  0.9432
 1213SOL    HW215099   4.190   0.106   6.955 -0.3172  1.1515 -0.6555
 1214SOL     OW15100   3.018   3.872  13.934 -0.6213 -0.5341  0.0398
 1214SOL    HW115101   3.012   3.777  13.930  0.8408 -0.7915  3.4357
 1214SOL    HW215102   3.103   3.903  13.904 -0.9884  0.5025  0.0629
 1215SOL     OW15103   2.971   2.676   6.916 -0.1785 -0.1083 -0.1186
 1215SOL    HW115104   2.905   2.703   6.980 -1.6149 -3.5270 -0.1317
 1215SOL    HW215105   3.035   2.712   6.977  1.1650 -3.2980  0.3716
 1216SOL     OW15106   4.273   1.154   4.398  0.0823 -0.4390 -0.0765
 1216SOL    HW115107   4.225   1.093   4.454  1.1148 -2.7961 -1.7965
 1216SOL    HW215108   4.323   1.096   4.342  0.4944  0.8077 -0.9869
 1217SOL     OW15109   2.787   2.621   1.286 -0.0539 -0.5429  0.9129
 1217SOL    HW115110   2.699   2.629   1.249  0.6765  0.7444 -0.5474
 1217SOL    HW215111   2.842   2.601   1.210 -0.7507 -2.2347  0.8345
 1218SOL     OW15112   1.518   3.615   4.018  0.3329  0.0866 -0.2573
 1218SOL    HW115113   1.567   3.533   4.027  2.2879  1.4634  1.5309
 1218SOL    HW215114   1.588   3.670   4.052  0.1718  0.5007 -0.5934
 1219SOL     OW15115   2.548   0.168   7.433  0.2519  0.1584  0.2450
 1219SOL    HW115116   2.575   0.238   7.492  0.1985  1.0460 -0.7825
 1219SOL    HW215117   2.516   0.107   7.500 -2.1988  0.4328 -0.6929
 1220SOL     OW15118   1.430   3.719   8.888 -0.0283 -0.6099 -0.3846
 1220SOL    HW115119   1.435   3.804   8.932  2.3489  0.6208 -3.0276
 1220SOL    HW215120   1.368   3.676   8.946  0.0739  0.2328  0.3389
 1221SOL     OW15121   2.004   1.712   2.770  0.6263 -0.4435 -0.1593
 1221SOL    HW115122   1.915   1.743   2.789  1.1158  1.0175 -0.2771
 1221SOL    HW215123   1.994   1.621   2.742 -0.8740 -0.3750  0.1648
 1222SOL     OW15124   2.852   4.109   5.913 -0.6002 -0.3004  0.0583
 1222SOL    HW115125   2.774   4.073   5.871 -1.2389  0.3394  0.6941
 1222SOL    HW215126   2.860   4.053   5.990 -0.4375 -0.0180  0.2476
 1223SOL     OW15127   1.980   4.092   5.519  0.3150 -0.3583  0.0358
 1223SOL    HW115128   1.926   4.016   5.498 -0.0559 -0.1186  0.1333
 1223SOL    HW215129   2.038   4.094   5.443  2.3164  0.0591  1.5501
 1224SOL     OW15130   4.532   0.566   1.339  0.8707 -0.4223 -0.3920
 1224SOL    HW115131   4.492   0.485   1.371 -0.4493  0.5364  0.3827
 1224SOL    HW215132   4.455   0.618   1.317 -0.5173 -1.7401  1.3650
 1225SOL     OW15133   4.392   2.729   5.034  0.3692  0.4442 -0.3609
 1225SOL    HW115134   4.408   2.823   5.045 -1.5175  0.4664  2.3269
 1225SOL    HW215135   4.340   2.709   5.112 -0.3161  0.1085 -0.9047
 1226SOL     OW15136   3.524   2.078   5.372 -0.8222 -0.7834  0.2527
 1226SOL    HW115137   3.515   2.169   5.398  2.0210 -0.4930  0.2667
 1226SOL    HW215138   3.585   2.048   5.440  0.4233 -0.3098 -0.6660
 1227SOL     OW15139   4.505   3.849   3.150  0.0534  0.1483 -0.0863
 1227SOL    HW115140   4.568   3.900   3.201  2.0006 -2.2726 -0.0635
 1227SOL    HW215141   4.503   3.775   3.211  0.4868 -0.8377 -1.2497
 1228SOL     OW15142   0.349   0.888   1.046 -0.1022  0.2274  0.0091
 1228SOL    HW115143   0.309   0.945   1.112  0.3630 -1.3744  1.6835
 1228SOL    HW215144   0.421   0.945   1.019  0.7194 -0.4463  0.7992
 1229SOL     OW15145   2.004   1.598  12.648  0.7711 -0.2314 -0.4077
 1229SOL    HW115146   2.023   1.676  12.700 -1.0267 -1.9546  2.8561
 1229SOL    HW215147   1.910   1.601  12.667  1.1538  0.1861  1.4852
 1230SOL     OW15148   2.207   4.715   7.150  0.2237 -0.1350 -0.0675
 1230SOL    HW115149   2.221   4.704   7.056  1.7005 -1.5793  0.3372
 1230SOL    HW215150   2.242   0.083   7.152 -0.9374  0.3125  0.8150
 1231SOL     OW15151   1.603   1.934   7.467 -0.4030  0.0421 -0.4190
 1231SOL    HW115152   1.535   1.898   7.409 -1.3531  2.8152 -1.0350
 1231SOL    HW215153   1.544   1.981   7.526  2.6502  2.7890  0.4577
 1232SOL     OW15154   2.391   3.293   0.417 -0.3761  0.1105  0.1633
 1232SOL    HW115155   2.348   3.209   0.402  1.6881 -0.5888 -1.8520
 1232SOL    HW215156   2.438   3.306   0.335 -0.7777 -1.8274 -0.3817
 1233SOL     OW15157   2.184   2.756   5.204  0.4682  0.2925 -0.2982
 1233SOL    HW115158   2.179   2.848   5.229 -0.1041 -0.1168  1.0529
 1233SOL    HW215159   2.210   2.720   5.288  1.8082 -0.3692 -0.9869
 1234SOL     OW15160   3.760   0.239   0.501  0.2944 -0.1294 -0.5127
 1234SOL    HW115161   3.782   0.159   0.452  2.0006  0.7450 -1.1745
 1234SOL    HW215162   3.673   0.255   0.466 -0.3434  1.5110  1.8400
 1235SOL     OW15163   2.747   1.557  13.016 -0.1210 -0.9461  0.0192
 1235SOL    HW115164   2.654   1.540  13.033 -0.3040  0.4340  0.3646
 1235SOL    HW215165   2.789   1.473  12.997 -0.3482 -1.3610  1.3299
 1236SOL     OW15166   4.161   3.691   5.797  0.4323  0.3562 -0.4755
 1236SOL    HW115167   4.074   3.652   5.798 -0.7951  3.1156 -1.0731
 1236SOL    HW215168   4.151   3.743   5.877 -2.3098 -1.0988  0.1137
 1237SOL     OW15169   2.256   0.546   9.736 -0.1526 -0.0207 -0.8494
 1237SOL    HW115170   2.271   0.484   9.807  1.1442  1.5885  0.2957
 1237SOL    HW215171   2.208   0.495   9.671 -0.3743 -0.6955 -0.1414
 1238SOL     OW15172   2.150   3.585  15.935  0.5835  0.8072 -0.0260
 1238SOL    HW115173   2.087   3.517  15.910  0.7344  1.5651 -2.4755
 1238SOL    HW215174   2.224   3.549  15.887 -1.0140 -1.4404 -0.8007
 1239SOL     OW15175   1.933   1.131  17.505 -0.3788 -0.0652  0.3722
 1239SOL    HW115176   1.928   1.061  17.570  0.9174 -2.4705 -2.0912
 1239SOL    HW215177   2.027   1.132  17.485 -0.2601  0.0441  0.9538
 1240SOL     OW15178   4.366   3.154   7.178  0.0614 -0.8459 -0.0130
 1240SOL    HW115179   4.352   3.219   7.247  0.9258 -1.4956  0.7781
 1240SOL    HW215180   4.428   3.194   7.118 -0.7122 -1.7564 -1.4261
 1241SOL     OW15181   2.350   4.276   2.455 -0.0655  0.0672 -0.0846
 1241SOL    HW115182   2.303   4.193   2.459  0.2778  0.0517  3.2888
 1241SOL    HW215183   2.432   4.258   2.501  0.3878  0.9331 -0.5420
 1242SOL     OW15184   2.821   0.974   8.131 -0.3442 -0.1466 -0.0397
 1242SOL    HW115185   2.776   1.032   8.193 -1.3948 -0.9422 -0.0559
 1242SOL    HW215186   2.753   0.941   8.072  1.3239  0.5452 -2.3314
 1243SOL     OW15187   3.203   3.866   7.005  0.6754  0.6038 -0.0019
 1243SOL    HW115188   3.256   3.792   6.975  1.1496  1.4612 -1.3117
 1243SOL    HW215189   3.157   3.871   6.921  0.7455 -0.0333 -0.0791
 1244SOL     OW15190   1.761   3.679   4.122  0.3838 -0.2511 -0.4197
 1244SOL    HW115191   1.805   3.757   4.155  1.5763 -1.0227 -0.1738
 1244SOL    HW215192   1.770   3.614   4.192  1.0507 -1.5676 -1.7347
 1245SOL     OW15193   0.861   4.137   3.905 -0.3892  0.0795  0.5883
 1245SOL    HW115194   0.870   4.224   3.865  0.0143 -0.2690 -0.0700
 1245SOL    HW215195   0.931   4.130   3.970 -0.9378 -0.8479  1.0801
 1246SOL     OW15196   1.670   2.391   5.085 -0.2697  0.0785 -0.0560
 1246SOL    HW115197   1.750   2.389   5.032 -1.7815 -0.0277 -2.3442
 1246SOL    HW215198   1.681   2.470   5.138 -0.9932  0.8906 -1.1175
 1247SOL     OW15199   1.596   1.218  15.929  0.3034  0.9534 -0.6819
 1247SOL    HW115200   1.523   1.157  15.938  0.3317  0.7176 -2.0145
 1247SOL    HW215201   1.592   1.261  15.843 -2.0028  2.1801  0.0495
 1248SOL     OW15202   1.953   1.538  16.902  0.5975 -0.3595  0.6170
 1248SOL    HW115203   1.928   1.489  16.824  2.0274 -0.0384 -0.0312
 1248SOL    HW215204   1.884   1.504  16.960 -0.5016 -2.0529 -1.6910
 1249SOL     OW15205   1.665   3.892   2.469  0.0816  0.2869  0.2405
 1249SOL    HW115206   1.741   3.933   2.427 -0.5449  0.8703 -0.3104
 1249SOL    HW215207   1.700   3.856   2.551  0.5509  0.3850  0.0807
 1250SOL     OW15208   4.098   2.372  13.553  0.3648 -0.0047  0.5294
 1250SOL    HW115209   4.179   2.417  13.578  0.1319 -0.1565  1.5366
 1250SOL    HW215210   4.069   2.354  13.643 -1.3541  2.5984  0.5002
 1251SOL     OW15211   4.484   4.536  12.046  0.0568  0.7336  0.0092
 1251SOL    HW115212   4.513   4.466  11.986 -0.4085  0.0857  0.5441
 1251SOL    HW215213   4.559   4.556  12.102 -0.8545 -0.4800  1.6479
 1252SOL     OW15214   0.342   1.837   6.568  0.3299 -0.3126 -0.4166
 1252SOL    HW115215   0.426   1.874   6.541 -0.1485  0.0282 -1.4526
 1252SOL    HW215216   0.357   1.837   6.663 -0.8937  3.1603 -0.2094
 1253SOL     OW15217   4.220   4.587   5.121 -0.3588 -0.3602 -0.4538
 1253SOL    HW115218   4.241   4.496   5.103 -0.2866 -0.0685 -1.8290
 1253SOL    HW215219   4.159   4.599   5.048  0.4112  1.3915 -0.8070
 1254SOL     OW15220   0.001   3.129  14.600 -0.5006  0.6923 -0.7196
 1254SOL    HW115221   0.004   3.181  14.519 -0.2264  0.1221 -1.0749
 1254SOL    HW215222   0.041   3.193  14.659 -2.5873  1.6147 -0.3035
 1255SOL     OW15223   0.708   3.400   0.762  0.2281  0.1222  0.2468
 1255SOL    HW115224   0.714   3.410   0.857  0.6517 -0.4699  0.2840
 1255SOL    HW215225   0.640   3.334   0.753 -0.0473  0.3307  0.8041
 1256SOL     OW15226   3.663   0.217  10.279  0.7840  0.2845 -0.0629
 1256SOL    HW115227   3.696   0.249  10.195  0.3336  0.8798 -0.0143
 1256SOL    HW215228   3.700   0.284  10.338  2.8470 -1.4502  0.6185
 1257SOL     OW15229   3.680   2.058   4.939 -0.1232 -0.3226 -0.3707
 1257SOL    HW115230   3.596   2.089   4.905 -0.5679 -0.3854  0.6780
 1257SOL    HW215231   3.734   2.126   4.898 -1.4535  1.6672  1.1517
 1258SOL     OW15232   3.120   2.919   1.223 -1.2298  0.0749 -0.2746
 1258SOL    HW115233   3.061   2.952   1.290 -1.1869 -0.3583 -0.0262
 1258SOL    HW215234   3.089   2.830   1.209  2.0377 -1.0706 -0.2935
 1259SOL     OW15235   1.428   4.370   2.978 -0.1207  0.3755  0.5988
 1259SOL    HW115236   1.418   4.286   2.931 -1.9007  0.4716  0.8391
 1259SOL    HW215237   1.348   4.414   2.950 -0.5179 -0.0494  1.0820
 1260SOL     OW15238   3.202   1.317   5.796 -0.2062  0.0116  0.4540
 1260SOL    HW115239   3.156   1.282   5.872  0.0740 -0.2388  0.5099
 1260SOL    HW215240   3.222   1.243   5.739  1.5966  0.8244  0.0219
 1261SOL     OW15241   2.780   0.495  13.377 -0.0118  0.1919  0.2775
 1261SOL    HW115242   2.705   0.507  13.434 -0.0421 -1.2683  0.5587
 1261SOL    HW215243   2.784   0.399  13.376  0.5441  0.2196 -0.5032
 1262SOL     OW15244   3.053   1.474   6.755  0.1896 -0.4311  0.1934
 1262SOL    HW115245   3.032   1.413   6.684 -0.3008  0.8023 -0.7213
 1262SOL    HW215246   3.037   1.417   6.830  2.1582 -0.3597  0.6729
 1263SOL     OW15247   1.414   1.914   7.006  0.1970  0.1518  0.3733
 1263SOL    HW115248   1.339   1.945   6.956  1.3540  1.1365 -0.7577
 1263SOL    HW215249   1.479   1.942   6.941 -0.9698 -3.0578 -2.1731
 1264SOL     OW15250   0.029   0.226  15.725  0.2001  0.3075 -0.1862
 1264SOL    HW115251   0.044   0.278  15.804 -2.0029 -2.5809  2.1049
 1264SOL    HW215252   4.658   0.243  15.703  1.0218  2.8386 -1.7042
 1265SOL     OW15253   1.053   3.738   5.120  0.5589  0.2435 -1.0371
 1265SOL    HW115254   1.068   3.719   5.213  1.3494  0.8459 -1.0381
 1265SOL    HW215255   1.139   3.744   5.079  0.9113  0.3623 -0.2862
 1266SOL     OW15256   0.296   4.158   5.899 -0.7052 -0.0056 -0.2887
 1266SOL    HW115257   0.257   4.136   5.984 -2.8375 -0.5778 -1.4117
 1266SOL    HW215258   0.288   4.070   5.863 -3.7579 -0.1748  0.7646
 1267SOL     OW15259   3.470   2.010   7.224  0.3232 -0.0724 -0.4623
 1267SOL    HW115260   3.489   2.038   7.313 -1.6262 -0.6109  0.1194
 1267SOL    HW215261   3.375   1.995   7.222  0.5839 -2.0456  1.8635
 1268SOL     OW15262   0.823   3.274   7.505 -0.2050  0.8926 -0.2140
 1268SOL    HW115263   0.886   3.323   7.558 -0.1764  0.6767 -0.0499
 1268SOL    HW215264   0.882   3.219   7.455  0.6465  0.9376  0.7360
 1269SOL     OW15265   0.468   4.306   4.710  0.1862 -0.8068 -0.4506
 1269SOL    HW115266   0.484   4.252   4.787 -0.0949 -0.1893  0.0462
 1269SOL    HW215267   0.375   4.329   4.716  0.7646  1.2371  0.6132
 1270SOL     OW15268   3.980   2.546   7.998  0.4437  0.0414  0.1249
 1270SOL    HW115269   3.947   2.631   7.969 -1.2826 -0.5300  0.4204
 1270SOL    HW215270   3.903   2.489   7.999 -1.7489  3.0266  2.0680
 1271SOL     OW15271   0.917   3.754   8.027  0.0733 -0.2947  0.2649
 1271SOL    HW115272   0.960   3.836   8.003  1.4363 -1.0711  0.0169
 1271SOL    HW215273   0.841   3.780   8.079  1.2569  0.6895  1.4940
 1272SOL     OW15274   1.473   1.945   7.959 -0.2935  0.1353  0.1063
 1272SOL    HW115275   1.532   1.871   7.949 -0.8946 -0.3782  0.3283
 1272SOL    HW215276   1.512   1.977   8.041 -0.7012  2.1639 -0.4747
 1273SOL     OW15277   3.590   1.047  14.134 -0.4746  0.0840  0.0004
 1273SOL    HW115278   3.514   1.000  14.099  0.8733 -1.5981 -0.6446
 1273SOL    HW215279   3.593   0.994  14.213  3.1765  0.6487  0.2419
 1274SOL     OW15280   0.402   1.723  15.526 -0.3315  0.0300  0.3974
 1274SOL    HW115281   0.384   1.658  15.459 -2.6123 -0.5664  1.5805
 1274SOL    HW215282   0.498   1.725  15.521 -0.3837  0.2718 -0.5136
 1275SOL     OW15283   3.479   1.578  15.165  0.4509 -0.3871  0.1574
 1275SOL    HW115284   3.459   1.527  15.243 -1.7739 -1.1464 -0.8968
 1275SOL    HW215285   3.427   1.658  15.174  1.6026  0.2131  1.2975
 1276SOL     OW15286   1.443   3.671   6.089 -0.0442 -0.3539  0.0788
 1276SOL    HW115287   1.393   3.622   6.023 -1.9380 -0.0233  1.2539
 1276SOL    HW215288   1.497   3.601   6.125 -0.4691 -0.1111  1.1921
 1277SOL     OW15289   3.998   3.590   1.823 -0.0437 -0.0793 -0.2286
 1277SOL    HW115290   3.955   3.653   1.766 -0.8444 -0.1750  0.2717
 1277SOL    HW215291   3.960   3.510   1.788  1.4351 -0.4477 -1.0085
 1278SOL     OW15292   3.008   2.567   4.920  0.4692 -0.1414 -0.0869
 1278SOL    HW115293   2.995   2.640   4.859 -2.8773  0.0724  0.9000
 1278SOL    HW215294   2.987   2.595   5.009 -1.6027  1.2401 -1.0148
 1279SOL     OW15295   0.296   3.739   6.953  0.3918  0.1491 -0.0983
 1279SOL    HW115296   0.238   3.755   6.878 -0.1438 -0.2765  0.2248
 1279SOL    HW215297   0.315   3.645   6.949  2.0287  0.4652  0.2739
 1280SOL     OW15298   0.319   1.482  12.490  0.3420 -0.1171 -0.2811
 1280SOL    HW115299   0.364   1.419  12.547  2.2707  0.5135 -1.1130
 1280SOL    HW215300   0.238   1.498  12.539  1.6699  0.3402  1.7890
 1281SOL     OW15301   0.428   1.762   6.028 -0.2734 -0.3843 -0.2851
 1281SOL    HW115302   0.419   1.838   5.971  1.8993 -0.5723 -0.8772
 1281SOL    HW215303   0.340   1.751   6.064 -0.5868  2.0579 -0.3167
 1282SOL     OW15304   3.847   0.155  17.035 -0.1371  0.6149 -0.6331
 1282SOL    HW115305   3.778   0.205  16.992  0.0301 -0.7061 -2.4636
 1282SOL    HW215306   3.846   0.079  16.977  1.0605 -1.6542  2.3076
 1283SOL     OW15307   1.357   4.510   6.353  0.1507 -0.5902  0.3070
 1283SOL    HW115308   1.398   4.501   6.439  1.2490  0.3270 -0.1098
 1283SOL    HW215309   1.432   4.554   6.312  1.2670  0.5803  3.5938
 1284SOL     OW15310   0.046   2.909   2.421 -0.0102 -0.5587 -0.5108
 1284SOL    HW115311   0.042   2.958   2.339  2.1470 -0.4679 -0.5522
 1284SOL    HW215312   0.122   2.945   2.466  1.1136 -1.8412 -1.4240
 1285SOL     OW15313   1.533   3.434   6.602  0.0852 -0.0452 -0.2162
 1285SOL    HW115314   1.615   3.483   6.593 -0.7225  1.4038  0.2741
 1285SOL    HW215315   1.543   3.403   6.692  1.0616  1.0889  0.0729
 1286SOL     OW15316   1.365   2.940   8.207 -0.5314 -0.7468  0.2527
 1286SOL    HW115317   1.456   2.922   8.230 -0.8579 -0.3501  1.8505
 1286SOL    HW215318   1.346   2.850   8.179  1.1481 -0.6466 -1.2672
 1287SOL     OW15319   2.512   4.005   3.746 -0.5892 -0.1100  0.3305
 1287SOL    HW115320   2.419   4.017   3.761 -0.3663  0.4946  1.2262
 1287SOL    HW215321   2.553   4.045   3.823 -2.1783  1.2889  0.4362
 1288SOL     OW15322   2.893   3.041   9.821 -0.4328 -0.1134 -0.3639
 1288SOL    HW115323   2.834   3.055   9.746  2.1195  1.2895 -2.0979
 1288SOL    HW215324   2.949   3.118   9.813  0.2298 -0.6314 -0.6520
 1289SOL     OW15325   0.669   3.987  17.532  0.2527  0.4218 -0.9722
 1289SOL    HW115326   0.746   4.044  17.522 -0.1062  0.9788 -0.5070
 1289SOL    HW215327   0.618   4.030  17.463 -1.0823 -1.6752 -1.2958
 1290SOL     OW15328   0.928   3.533   3.990  0.2579 -0.4402  0.2268
 1290SOL    HW115329   0.947   3.517   4.083  1.0200 -1.7254 -0.1419
 1290SOL    HW215330   0.861   3.600   3.996  3.1697  2.3405  1.3179
 1291SOL     OW15331   3.411   4.216   9.222  0.0471 -0.3701  0.0257
 1291SOL    HW115332   3.395   4.133   9.267 -0.6501  0.7986  1.9399
 1291SOL    HW215333   3.461   4.185   9.146  2.8957 -1.7696  2.4849
 1292SOL     OW15334   4.696   4.129   8.825  0.1893  0.1334  0.3246
 1292SOL    HW115335   0.034   4.062   8.789 -0.7731 -0.0757 -0.8575
 1292SOL    HW215336   0.030   4.161   8.897  0.7476  0.4626 -0.2408
 1293SOL     OW15337   4.392   0.521   3.146 -0.0887  0.1058 -0.2419
 1293SOL    HW115338   4.345   0.437   3.150  0.4273 -0.3294 -3.2428
 1293SOL    HW215339   4.482   0.497   3.168  0.2321  1.0849 -0.4999
 1294SOL     OW15340   2.923   2.098  15.505  0.5199  0.2301 -0.0255
 1294SOL    HW115341   2.839   2.053  15.505 -0.2435  1.6271 -2.2880
 1294SOL    HW215342   2.974   2.059  15.434 -1.7121  1.5111 -2.3102
 1295SOL     OW15343   3.799   3.600   6.046  0.6633 -0.4086 -0.6793
 1295SOL    HW115344   3.713   3.600   6.005  1.3380  0.9211 -2.0998
 1295SOL    HW215345   3.789   3.534   6.114 -1.5629  1.7734  1.0985
 1296SOL     OW15346   0.144   4.500  13.523 -0.3006  0.2506  0.5332
 1296SOL    HW115347   0.088   4.441  13.574 -0.4413  0.3917  0.5395
 1296SOL    HW215348   0.227   4.454  13.528  0.4204  1.4785 -0.2292
 1297SOL     OW15349   2.708   1.046   3.709 -0.3247  0.0694 -0.6252
 1297SOL    HW115350   2.784   0.989   3.695  0.1065 -0.1825  2.9120
 1297SOL    HW215351   2.746   1.134   3.711 -0.2463  0.0196  0.1541
 1298SOL     OW15352   0.397   1.455   5.494 -0.0639 -0.0915 -0.5566
 1298SOL    HW115353   0.420   1.492   5.409  0.6497 -1.3747 -0.9179
 1298SOL    HW215354   0.348   1.381   5.460 -1.7986  1.0388 -0.4997
 1299SOL     OW15355   3.040   2.713  14.043 -0.1433 -0.3941 -1.1121
 1299SOL    HW115356   3.110   2.729  14.107 -2.4868  3.5269  0.4859
 1299SOL    HW215357   3.086   2.682  13.965  1.7236 -1.2416  0.3335
 1300SOL     OW15358   1.277   1.658  12.114 -0.5795  0.0104 -0.0144
 1300SOL    HW115359   1.366   1.648  12.149  0.1174  5.0709 -0.2880
 1300SOL    HW215360   1.265   1.749  12.088 -3.8434 -0.7410 -1.0249
 1301SOL     OW15361   1.290   3.036   6.724 -0.2001  0.2363  0.8793
 1301SOL    HW115362   1.236   3.034   6.645  0.0260 -1.5004  0.7676
 1301SOL    HW215363   1.219   3.037   6.789  0.4609 -1.3453  1.6125
 1302SOL     OW15364   1.721   2.712  11.077 -0.2752 -0.0801 -0.6123
 1302SOL    HW115365   1.784   2.735  11.008  1.2549 -1.2038  0.4141
 1302SOL    HW215366   1.649   2.774  11.071  1.0000  1.3556 -1.0619
 1303SOL     OW15367   2.930   0.818   2.210 -0.1994  0.7439 -0.0699
 1303SOL    HW115368   2.886   0.735   2.226  1.8745 -0.8650 -2.7263
 1303SOL    HW215369   2.854   0.876   2.208 -1.4443 -0.9772 -2.2667
 1304SOL     OW15370   2.086   4.275   4.096  0.0759  0.2037  1.0480
 1304SOL    HW115371   2.129   4.350   4.056  0.4829  0.0523  1.2008
 1304SOL    HW215372   1.999   4.277   4.058 -0.5263 -0.3721  2.3733
 1305SOL     OW15373   3.846   4.047  10.749  0.3575 -0.1059  0.1431
 1305SOL    HW115374   3.798   4.083  10.674 -1.1057 -1.4629  0.4319
 1305SOL    HW215375   3.796   4.088  10.820  0.4991 -1.2252  0.8903
 1306SOL     OW15376   2.446   2.496  14.223  0.2487  0.0009 -0.0629
 1306SOL    HW115377   2.355   2.479  14.250  1.1526 -1.1189  2.3271
 1306SOL    HW215378   2.449   2.436  14.148  1.5739  1.4733 -1.1709
 1307SOL     OW15379   1.202   4.172   6.397  0.0203 -0.0529  0.0312
 1307SOL    HW115380   1.189   4.097   6.339  1.3286 -0.6008  0.4528
 1307SOL    HW215381   1.298   4.179   6.398  0.0188  0.2255 -1.6922
 1308SOL     OW15382   2.800   4.389   2.741  0.2940  0.5703 -0.1171
 1308SOL    HW115383   2.813   4.454   2.811 -0.3728 -0.3837  0.9075
 1308SOL    HW215384   2.887   4.349   2.739 -0.3523 -0.8270 -0.0471
 1309SOL     OW15385   4.200   0.337   9.768 -0.1383 -0.0167 -0.0144
 1309SOL    HW115386   4.229   0.254   9.729  3.7461 -0.4404  3.7436
 1309SOL    HW215387   4.281   0.371   9.807  0.3515 -1.6121  0.3774
 1310SOL     OW15388   4.069   4.541   7.420  0.1429  0.0833 -0.2015
 1310SOL    HW115389   4.091   4.541   7.326 -2.0438 -2.3530 -0.7168
 1310SOL    HW215390   3.975   4.555   7.410 -0.0056 -2.0032 -1.8223
 1311SOL     OW15391   0.451   4.586   6.513  0.4652  0.5791  0.5391
 1311SOL    HW115392   0.451   4.598   6.608  1.2638  1.0193  0.4906
 1311SOL    HW215393   0.509   4.512   6.496 -1.8709 -0.6323 -2.2602
 1312SOL     OW15394   3.745   2.272   2.911 -0.1169 -0.2037  0.4285
 1312SOL    HW115395   3.759   2.356   2.953  1.6313 -0.8768  1.2271
 1312SOL    HW215396   3.696   2.307   2.837  1.3290 -2.0093 -1.4185
 1313SOL     OW15397   2.357   0.987   6.819  0.3314 -0.1042 -0.2624
 1313SOL    HW115398   2.263   0.997   6.834 -0.0311 -0.8291 -1.9981
 1313SOL    HW215399   2.372   1.071   6.775 -1.6516  0.5459  0.3117
 1314SOL     OW15400   2.424   1.811  11.306 -0.2847  0.2434 -0.5416
 1314SOL    HW115401   2.377   1.891  11.284  0.5499  0.5092 -1.3774
 1314SOL    HW215402   2.430   1.760  11.225 -0.2121 -0.0179 -0.3732
 1315SOL     OW15403   4.595   1.251   3.860 -0.4205  0.4167  0.4659
 1315SOL    HW115404   4.669   1.308   3.881 -0.4383  0.6787 -0.1967
 1315SOL    HW215405   4.531   1.312   3.825  0.1577  1.3222  1.0045
 1316SOL     OW15406   3.053   0.258   4.830 -0.7114  0.0076 -0.0274
 1316SOL    HW115407   3.123   0.200   4.860  0.9157  1.4004 -1.0784
 1316SOL    HW215408   3.111   0.325   4.792 -0.1216 -1.3218 -1.5213
 1317SOL     OW15409   4.388   0.348   4.997  0.1013  0.6627 -0.3420
 1317SOL    HW115410   4.437   0.376   5.074 -2.2627 -1.1221  1.8166
 1317SOL    HW215411   4.394   0.253   5.006  1.5712  0.9441  1.5507
 1318SOL     OW15412   4.387   4.445   4.324  0.3888  0.0357 -0.1986
 1318SOL    HW115413   4.292   4.444   4.311  0.4266 -0.5949 -0.4418
 1318SOL    HW215414   4.423   4.438   4.235 -0.7394 -0.3007 -0.6231
 1319SOL     OW15415   1.452   0.435  10.845  0.0964  0.0037  0.1226
 1319SOL    HW115416   1.365   0.402  10.867 -1.1745  3.0900 -0.2773
 1319SOL    HW215417   1.435   0.437  10.751  2.2393 -1.0621 -0.2890
 1320SOL     OW15418   1.940   1.762   8.831  0.3671 -0.7635  0.8002
 1320SOL    HW115419   2.020   1.750   8.883  1.0313 -1.0343 -0.2945
 1320SOL    HW215420   1.869   1.782   8.891  0.0360  1.5414 -0.3666
 1321SOL     OW15421   4.152   3.650  12.365  0.7417  0.1111  0.4641
 1321SOL    HW115422   4.216   3.655  12.294 -1.0965 -0.2796 -1.2198
 1321SOL    HW215423   4.147   3.742  12.391  1.4045 -0.1090  1.3795
 1322SOL     OW15424   0.073   0.645   0.693  0.2678 -0.1932 -0.0397
 1322SOL    HW115425   0.121   0.586   0.634 -1.9772 -0.6077 -1.4310
 1322SOL    HW215426   0.024   0.692   0.625 -1.8223 -2.4311 -0.0638
 1323SOL     OW15427   3.407   0.128   7.085  0.0110  0.3254  0.2376
 1323SOL    HW115428   3.313   0.136   7.072 -0.2653 -1.5541  1.0683
 1323SOL    HW215429   3.422   0.182   7.162 -1.1930 -0.3485  0.9438
 1324SOL     OW15430   2.606   0.191   5.980  0.4753 -0.4075  0.2267
 1324SOL    HW115431   2.515   0.216   5.993  0.2873 -0.9595  0.0052
 1324SOL    HW215432   2.638   0.249   5.912 -0.7525 -0.5126 -0.4349
 1325SOL     OW15433   2.545   0.584  13.545  0.0168 -0.1211 -0.5837
 1325SOL    HW115434   2.537   0.554  13.636 -2.2264  0.1300 -0.6952
 1325SOL    HW215435   2.496   0.519  13.494 -0.6507 -0.3739  0.3751
 1326SOL     OW15436   2.424   1.678  11.061  0.4166  0.3076 -0.4561
 1326SOL    HW115437   2.462   1.718  10.983  0.3522  1.4648  0.1063
 1326SOL    HW215438   2.477   1.600  11.076  0.4460  0.2253 -0.9981
 1327SOL     OW15439   0.806   2.349   7.937  0.0465  0.0622  0.1435
 1327SOL    HW115440   0.746   2.395   7.879 -3.0905 -1.6339  2.0049
 1327SOL    HW215441   0.747   2.321   8.007  0.2280 -1.3640 -0.2800
 1328SOL     OW15442   0.198   1.892   5.160 -0.5195  0.7528  0.5316
 1328SOL    HW115443   0.208   1.949   5.236 -0.2192  2.0502 -0.4873
 1328SOL    HW215444   0.169   1.808   5.195 -1.5853  0.7584 -0.3511
 1329SOL     OW15445   2.752   0.469   4.789  0.2718  0.1722  0.5374
 1329SOL    HW115446   2.751   0.402   4.857 -1.9705  0.0298  0.3378
 1329SOL    HW215447   2.679   0.431   4.741 -0.0584  0.5005  0.7835
 1330SOL     OW15448   1.341   0.715   8.351 -0.3711  0.5660 -0.1135
 1330SOL    HW115449   1.272   0.663   8.393 -0.6771  0.6771 -0.4719
 1330SOL    HW215450   1.336   0.679   8.262 -0.8846  1.3553 -0.4172
 1331SOL     OW15451   1.228   4.292   3.409 -0.3100 -0.4332  0.5023
 1331SOL    HW115452   1.301   4.241   3.374 -2.2040 -2.3713 -0.7116
 1331SOL    HW215453   1.268   4.358   3.466 -0.7343  1.7301 -1.7359
 1332SOL     OW15454   0.483   2.885  15.053 -0.1233 -0.5494 -0.2076
 1332SOL    HW115455   0.446   2.937  15.125 -0.0943  2.4054 -2.3645
 1332SOL    HW215456   0.430   2.916  14.980 -1.2413 -2.2542 -0.1220
 1333SOL     OW15457   0.790   4.444   6.670 -0.2830 -0.5410  0.5183
 1333SOL    HW115458   0.775   4.516   6.731  1.7064 -1.1937  1.7885
 1333SOL    HW215459   0.886   4.438   6.673 -0.2835 -0.6285  0.3753
 1334SOL     OW15460   1.013   2.662   5.582  0.2670 -0.1281 -0.4270
 1334SOL    HW115461   1.093   2.644   5.534  0.3408  1.9592 -1.0919
 1334SOL    HW215462   0.938   2.634   5.529 -0.1598  1.4806 -0.6628
 1335SOL     OW15463   0.072   1.443  11.731 -0.1265 -0.3149  0.1756
 1335SOL    HW115464   0.006   1.489  11.680 -0.3970  0.0231  0.8283
 1335SOL    HW215465   0.020   1.402  11.800 -0.0697 -0.7466 -0.0373
 1336SOL     OW15466   1.703   2.602   2.918 -0.1139  0.0703  0.0391
 1336SOL    HW115467   1.740   2.521   2.884 -0.2923 -0.1340  0.3270
 1336SOL    HW215468   1.728   2.665   2.850  0.5815  0.8702  1.0414
 1337SOL     OW15469   0.662   2.511  10.335  0.1550  0.1282 -0.1603
 1337SOL    HW115470   0.650   2.584  10.395 -0.1900 -0.0871  0.0369
 1337SOL    HW215471   0.610   2.443  10.377  2.5269 -1.2083  0.6150
 1338SOL     OW15472   0.459   0.505   4.721  0.2594 -0.1554  0.0341
 1338SOL    HW115473   0.523   0.500   4.791  1.7221  0.2249 -1.2723
 1338SOL    HW215474   0.394   0.440   4.749 -1.6982  1.1994 -1.2960
 1339SOL     OW15475   2.970   4.645   8.783 -0.0325 -0.0410 -0.3522
 1339SOL    HW115476   2.969   4.580   8.853  1.0648 -0.6872 -0.9302
 1339SOL    HW215477   2.876   4.647   8.763 -0.0482 -0.5598 -0.3207
 1340SOL     OW15478   3.336   0.259   4.552 -0.0795  0.4768  0.1686
 1340SOL    HW115479   3.405   0.325   4.548  0.7962 -0.4298  0.3442
 1340SOL    HW215480   3.348   0.198   4.479  0.0509 -0.5486  1.0404
 1341SOL     OW15481   4.123   1.977  15.390 -0.0748 -0.1404  0.2697
 1341SOL    HW115482   4.171   1.950  15.469 -1.3130 -0.9248  0.7550
 1341SOL    HW215483   4.034   1.965  15.424 -0.3827  1.4713  0.0582
 1342SOL     OW15484   1.831   2.230   8.483  0.0649  0.0377  0.6476
 1342SOL    HW115485   1.886   2.265   8.553  0.5946 -0.3487  0.4285
 1342SOL    HW215486   1.758   2.288   8.464 -1.2897 -1.4373  1.3214
 1343SOL     OW15487   1.296   1.312   4.135 -0.5499  0.1027 -0.3662
 1343SOL    HW115488   1.356   1.243   4.105  1.9376  2.1728 -0.2284
 1343SOL    HW215489   1.261   1.275   4.216  1.9539  3.5405  2.2864
 1344SOL     OW15490   2.578   2.653  17.314  0.0581  0.0047 -0.0932
 1344SOL    HW115491   2.594   2.561  17.335 -0.6470 -0.4966 -1.7982
 1344SOL    HW215492   2.496   2.638  17.267  0.7497  1.1903 -1.6779
 1345SOL     OW15493   4.073   1.794   1.589 -1.1786 -0.6280  0.9078
 1345SOL    HW115494   3.988   1.767   1.553 -2.3387  2.4561  1.2759
 1345SOL    HW215495   4.049   1.875   1.635  3.2313  2.7597 -2.7843
 1346SOL     OW15496   2.879   4.010   3.046 -0.6538 -0.3879 -0.5251
 1346SOL    HW115497   2.917   3.976   3.127 -0.5557 -0.1459 -0.4691
 1346SOL    HW215498   2.860   4.101   3.071  0.0047 -0.5184  0.4603
 1347SOL     OW15499   1.340   4.010   7.073  0.6059  0.4337 -0.2192
 1347SOL    HW115500   1.425   4.035   7.108 -0.0546  1.0352  0.9808
 1347SOL    HW215501   1.286   4.007   7.152 -2.2251 -0.6743 -2.1868
 1348SOL     OW15502   2.341   0.910   7.711  0.4765 -0.0647 -0.3688
 1348SOL    HW115503   2.408   0.925   7.644  0.0927  0.8851 -0.5456
 1348SOL    HW215504   2.283   0.983   7.686 -0.2209 -0.1924  0.8680
 1349SOL     OW15505   1.797   3.338  17.094 -0.5674  0.2396  0.3519
 1349SOL    HW115506   1.884   3.308  17.122 -1.2451  0.1184  2.3183
 1349SOL    HW215507   1.814   3.416  17.040  0.3854  0.1687  0.5521
 1350SOL     OW15508   4.332   0.643   5.049 -0.1064 -0.3623  0.2527
 1350SOL    HW115509   4.380   0.708   4.997 -0.0816  1.1596  2.1566
 1350SOL    HW215510   4.366   0.561   5.014  2.4392 -0.4008  2.8219
 1351SOL     OW15511   3.146   3.673   4.953  0.3479  0.5570  0.3985
 1351SOL    HW115512   3.129   3.608   5.021 -0.9851 -0.0584 -0.5290
 1351SOL    HW215513   3.242   3.675   4.950  0.3278  2.6542  1.5569
 1352SOL     OW15514   0.775   3.908  15.053 -0.2433 -0.1878 -0.2836
 1352SOL    HW115515   0.727   3.927  14.972 -0.1354  0.3968 -0.2114
 1352SOL    HW215516   0.833   3.838  15.024  0.8208 -0.1514  1.8384
 1353SOL     OW15517   1.748   3.666   5.918  0.3388 -0.0959 -0.4394
 1353SOL    HW115518   1.712   3.730   5.858 -0.1525 -0.7524 -0.8509
 1353SOL    HW215519   1.818   3.626   5.867 -0.5872 -2.4798  0.1201
 1354SOL     OW15520   3.896   3.324  11.893  0.1359  0.0425  0.3203
 1354SOL    HW115521   3.872   3.378  11.969 -1.3965  1.7257 -1.3590
 1354SOL    HW215522   3.896   3.238  11.935  1.3169  0.5915  1.4457
 1355SOL     OW15523   1.310   0.996   4.600  0.0581 -0.2523  0.5878
 1355SOL    HW115524   1.308   1.064   4.667  2.0763  0.5694 -0.1877
 1355SOL    HW215525   1.236   0.940   4.626 -0.2435  0.2828  0.8844
 1356SOL     OW15526   1.796   0.370   0.829  0.4856  0.1180  0.3327
 1356SOL    HW115527   1.811   0.320   0.909  2.3747  0.8720  0.4449
 1356SOL    HW215528   1.876   0.366   0.777  1.1533  0.6042  1.3103
 1357SOL     OW15529   4.363   3.852   2.938  0.3696 -0.0921  0.4432
 1357SOL    HW115530   4.413   3.843   3.019 -2.4637  1.4720  2.3505
 1357SOL    HW215531   4.319   3.937   2.947 -0.8880 -0.5527 -1.3345
 1358SOL     OW15532   3.365   4.669   9.577 -0.1274  0.3427 -0.2824
 1358SOL    HW115533   3.403   4.595   9.530  0.4232  0.4776 -0.0573
 1358SOL    HW215534   3.435   4.678   9.643  0.5100  1.1099 -1.0598
 1359SOL     OW15535   2.844   0.083   4.736 -0.9313  0.7153 -0.3030
 1359SOL    HW115536   2.921   0.124   4.776  0.6616 -2.7678  0.2249
 1359SOL    HW215537   2.881   4.720   4.707  0.6327  1.9712 -1.9334
 1360SOL     OW15538   3.356   4.511   6.984  0.2605  0.1847  0.6414
 1360SOL    HW115539   3.316   4.551   7.061  0.2846  1.0623  0.1989
 1360SOL    HW215540   3.284   4.454   6.957  1.7220 -1.6137  0.4718
 1361SOL     OW15541   4.610   2.738   7.527  0.0110 -0.3413 -0.0864
 1361SOL    HW115542   4.536   2.682   7.503 -0.0006 -0.2760 -0.2025
 1361SOL    HW215543   4.666   2.671   7.566 -0.6921 -1.3800 -0.8779
 1362SOL     OW15544   4.301   3.405   4.642  0.4030  0.0292 -0.5111
 1362SOL    HW115545   4.240   3.385   4.571 -0.7127 -0.7296  0.6553
 1362SOL    HW215546   4.264   3.341   4.704  2.1224 -1.7821 -1.3626
 1363SOL     OW15547   0.876   3.003   6.902  0.6395 -0.0971 -0.4628
 1363SOL    HW115548   0.843   2.958   6.980 -2.9880  3.7842  0.2660
 1363SOL    HW215549   0.950   3.053   6.936 -0.0493 -0.0770  1.0010
 1364SOL     OW15550   2.833   2.779  15.414  0.9904 -0.9994 -0.4866
 1364SOL    HW115551   2.852   2.776  15.320  1.2913  1.8438 -0.5207
 1364SOL    HW215552   2.844   2.687  15.438  0.0698 -1.8438 -3.3284
 1365SOL     OW15553   2.583   4.001   4.273  0.2586  0.4320 -0.0051
 1365SOL    HW115554   2.585   4.076   4.215  3.6661  0.8801  0.6778
 1365SOL    HW215555   2.509   4.014   4.332  2.7308  2.9843  2.5352
 1366SOL     OW15556   4.517   2.020   8.926 -0.0085 -0.2076 -0.0068
 1366SOL    HW115557   4.433   1.988   8.958 -1.1975  3.4119  0.5670
 1366SOL    HW215558   4.578   1.982   8.989 -0.0054  1.9944  1.3459
 1367SOL     OW15559   1.602   2.292   4.089  0.1770  0.1313 -0.4876
 1367SOL    HW115560   1.525   2.236   4.079  0.0999  0.3498 -1.1195
 1367SOL    HW215561   1.552   2.360   4.134 -0.4958 -0.9921  0.4406
 1368SOL     OW15562   2.062   0.257   9.078 -0.0354  0.2113  0.0391
 1368SOL    HW115563   2.140   0.242   9.131  1.4971 -1.2118 -2.6241
 1368SOL    HW215564   2.049   0.165   9.056  2.8723 -0.4060  0.9892
 1369SOL     OW15565   0.837   3.693   8.398 -0.1156  0.5144 -0.6162
 1369SOL    HW115566   0.916   3.700   8.451  0.3402  0.3604 -1.2713
 1369SOL    HW215567   0.866   3.624   8.338 -0.9570 -0.7942  0.4847
 1370SOL     OW15568   1.863   4.347   8.768 -0.0449  0.4030  0.1877
 1370SOL    HW115569   1.927   4.414   8.747 -1.7302  1.5620 -1.2736
 1370SOL    HW215570   1.899   4.323   8.854  0.5754  2.2523  0.4424
 1371SOL     OW15571   4.152   2.572   5.617  0.3163 -0.2279 -0.8496
 1371SOL    HW115572   4.244   2.590   5.634 -0.0811  0.1401  0.8622
 1371SOL    HW215573   4.128   2.647   5.563 -3.1666 -1.4766 -1.0680
 1372SOL     OW15574   3.736   0.940  10.931 -0.1277  0.7791  0.2750
 1372SOL    HW115575   3.755   0.979  11.016 -0.0208  0.6606  0.3056
 1372SOL    HW215576   3.694   0.856  10.950 -0.9426  0.9160 -0.8681
 1373SOL     OW15577   2.050   4.207   7.083 -0.0638 -0.5225  0.2673
 1373SOL    HW115578   2.061   4.203   7.178 -2.0542 -0.9330  0.4838
 1373SOL    HW215579   1.957   4.231   7.078 -0.0157 -0.6647 -1.4603
 1374SOL     OW15580   2.505   4.648   2.249 -0.6150 -0.1582 -0.0359
 1374SOL    HW115581   2.451   0.003   2.272 -1.5022 -0.3746 -1.4151
 1374SOL    HW215582   2.436   4.582   2.238 -2.5105  1.9890 -1.0289
 1375SOL     OW15583   3.862   3.963   5.571 -0.2082  0.1012 -0.4255
 1375SOL    HW115584   3.814   3.979   5.489  1.7876  0.2834 -1.5508
 1375SOL    HW215585   3.864   4.055   5.596 -0.2528 -0.6599  2.4074
 1376SOL     OW15586   2.469   0.386  15.296 -0.6152  0.0739 -0.5960
 1376SOL    HW115587   2.393   0.429  15.255  0.1224  1.4378 -0.5444
 1376SOL    HW215588   2.519   0.376  15.215  0.8406 -1.9474  0.5591
 1377SOL     OW15589   1.975   1.655   9.342 -0.1462  0.4406  0.2330
 1377SOL    HW115590   2.058   1.628   9.381 -0.2334 -0.1035  0.0391
 1377SOL    HW215591   1.908   1.643   9.409 -0.5624  2.8340  0.2366
 1378SOL     OW15592   3.181   1.109   5.384 -0.6273 -0.0667 -0.9382
 1378SOL    HW115593   3.112   1.164   5.347 -2.1756 -0.8375  0.7725
 1378SOL    HW215594   3.191   1.040   5.319 -2.6899  0.4443 -1.7835
 1379SOL     OW15595   2.991   0.631  16.144  0.5485  0.3819  0.0255
 1379SOL    HW115596   3.028   0.691  16.080  0.2870  1.5249  0.9384
 1379SOL    HW215597   3.061   0.566  16.145  0.9722  0.8983  2.5178
 1380SOL     OW15598   1.923   4.591   7.415  0.5024 -0.4639  0.3077
 1380SOL    HW115599   1.909   4.604   7.509  0.9059  1.3995  0.1160
 1380SOL    HW215600   1.852   4.530   7.400  1.7656 -1.5939 -1.0874
 1381SOL     OW15601   2.918   4.622   7.116 -0.1029  0.2291 -0.1081
 1381SOL    HW115602   2.928   4.528   7.099  0.5997  0.4252 -0.7461
 1381SOL    HW215603   2.910   4.630   7.211  0.3271  1.4275 -0.1715
 1382SOL     OW15604   2.951   3.667  17.442  0.2861 -0.2808 -0.4448
 1382SOL    HW115605   3.037   3.647  17.479  1.2750  0.5516 -2.3200
 1382SOL    HW215606   2.922   3.576  17.438 -0.3531 -0.1267  0.4542
 1383SOL     OW15607   1.605   2.933   7.019  0.0850  0.7484  0.2814
 1383SOL    HW115608   1.615   2.889   7.104 -1.3830 -0.3044 -0.0879
 1383SOL    HW215609   1.573   2.864   6.961  1.7869 -0.9104  1.2896
 1384SOL     OW15610   3.289   0.790   8.171  0.8504 -0.2910  0.3513
 1384SOL    HW115611   3.296   0.695   8.167  0.5349 -0.2431 -1.1120
 1384SOL    HW215612   3.196   0.806   8.189  0.4860 -0.9046 -0.9977
 1385SOL     OW15613   0.830   1.988   3.013  0.0727  0.4341 -0.6418
 1385SOL    HW115614   0.918   1.999   2.976  0.2871 -0.1409 -0.3170
 1385SOL    HW215615   0.786   1.917   2.968  1.0378 -2.2708  2.6848
 1386SOL     OW15616   4.279   4.006   2.430 -0.4527  0.6421 -0.1212
 1386SOL    HW115617   4.303   4.092   2.395  1.5646  0.2212  0.2277
 1386SOL    HW215618   4.347   4.000   2.497 -0.9485 -0.1727  0.3023
 1387SOL     OW15619   2.249   1.682  13.528  0.2298 -0.3946 -0.5369
 1387SOL    HW115620   2.265   1.643  13.614  1.0006  1.1612  0.0235
 1387SOL    HW215621   2.163   1.654  13.497 -0.5954  0.1789  1.2293
 1388SOL     OW15622   0.272   2.694  12.832 -0.0500  0.4220  0.2061
 1388SOL    HW115623   0.366   2.711  12.817 -0.0409  1.1091  1.0806
 1388SOL    HW215624   0.259   2.619  12.774 -2.7114  1.9496 -1.1207
 1389SOL     OW15625   2.736   4.104   3.920 -0.1436 -0.1842 -0.4589
 1389SOL    HW115626   2.699   4.131   4.004  0.0598 -2.3879  0.3437
 1389SOL    HW215627   2.793   4.175   3.891 -2.8160  1.2468 -2.1907
 1390SOL     OW15628   1.095   3.296   5.782  0.5259 -0.0616  0.4192
 1390SOL    HW115629   1.082   3.362   5.849 -0.4927  0.5499 -0.3741
 1390SOL    HW215630   1.130   3.352   5.713 -0.2190  1.3270  1.1950
 1391SOL     OW15631   1.209   0.767   3.178 -0.6377 -0.2898  0.2815
 1391SOL    HW115632   1.272   0.733   3.241 -0.6244 -0.3179  0.2532
 1391SOL    HW215633   1.125   0.755   3.222  0.9338 -1.3926  2.9951
 1392SOL     OW15634   0.341   1.038  14.958 -0.3280  0.3724 -0.5988
 1392SOL    HW115635   0.302   0.954  14.985  1.7192 -0.5973 -0.6433
 1392SOL    HW215636   0.428   1.004  14.935  0.3603  1.7954 -0.0724
 1393SOL     OW15637   3.057   2.641   1.177  0.1410 -0.1948  0.1251
 1393SOL    HW115638   3.151   2.622   1.167 -0.1494 -2.2466  1.1137
 1393SOL    HW215639   3.035   2.548   1.174 -1.3933  0.1304  1.5001
 1394SOL     OW15640   3.087   3.662   5.594 -0.2724  0.1511 -0.2966
 1394SOL    HW115641   3.138   3.618   5.527 -1.0943  0.2539 -1.0014
 1394SOL    HW215642   3.075   3.590   5.655  0.6620 -0.7325 -1.1527
 1395SOL     OW15643   0.975   1.200   6.098 -0.5528 -0.1457 -0.1273
 1395SOL    HW115644   1.067   1.223   6.088 -0.3094 -0.8882  0.4056
 1395SOL    HW215645   0.971   1.177   6.191 -0.0526  1.5746  0.3280
 1396SOL     OW15646   3.044   3.638  10.595  0.1479  0.0640 -0.3365
 1396SOL    HW115647   2.964   3.686  10.616  0.8555  1.6254 -1.2574
 1396SOL    HW215648   3.043   3.571  10.663  1.4770  1.0159  0.6264
 1397SOL     OW15649   0.168   0.675   2.547 -0.0487 -0.0930  0.5376
 1397SOL    HW115650   0.210   0.702   2.465  1.1748 -0.1450  1.1371
 1397SOL    HW215651   0.080   0.657   2.515 -0.6804  1.6036  1.3424
 1398SOL     OW15652   3.424   1.263   6.523 -0.3565 -0.0350 -0.4660
 1398SOL    HW115653   3.413   1.355   6.547 -0.6832 -0.1072 -0.3353
 1398SOL    HW215654   3.379   1.232   6.602  0.9752 -0.3860  0.1575
 1399SOL     OW15655   3.190   4.048   5.353 -0.2252 -0.5223 -0.0646
 1399SOL    HW115656   3.215   4.089   5.436  0.8025  0.5869 -0.9285
 1399SOL    HW215657   3.274   4.033   5.309 -1.0770  2.0261 -2.5116
 1400SOL     OW15658   2.762   3.713   5.558 -0.6347  0.1304 -0.1269
 1400SOL    HW115659   2.766   3.706   5.463 -0.6150 -1.3306 -0.0238
 1400SOL    HW215660   2.853   3.714   5.587 -0.4958 -0.4846 -0.5354
 1401SOL     OW15661   0.028   2.821  12.940  0.9414 -0.6175 -0.1821
 1401SOL    HW115662   0.082   2.748  12.973  2.0993  0.5562  0.5373
 1401SOL    HW215663   4.720   2.864  13.021 -0.7086 -2.4050  0.1928
 1402SOL     OW15664   4.156   0.177   7.450  0.5702  0.0537  0.0389
 1402SOL    HW115665   4.102   0.256   7.462  0.3532 -0.1866  0.6506
 1402SOL    HW215666   4.133   0.115   7.518 -0.6100  1.2231  0.7132
 1403SOL     OW15667   0.166   3.972   1.032 -0.7703 -0.4399  0.4387
 1403SOL    HW115668   0.130   3.885   1.047 -0.5891 -0.8228 -1.3135
 1403SOL    HW215669   0.243   3.941   0.984 -1.8496  0.6615 -1.9918
 1404SOL     OW15670   1.686   1.036   4.428  0.8928 -0.2308 -0.2343
 1404SOL    HW115671   1.691   1.059   4.336  2.8510  1.3616  0.2883
 1404SOL    HW215672   1.628   0.959   4.431 -0.1386  0.6430  2.6437
 1405SOL     OW15673   2.852   1.234   6.139 -0.2248  0.0509 -0.5439
 1405SOL    HW115674   2.818   1.147   6.159  0.0492 -0.0586 -0.5624
 1405SOL    HW215675   2.772   1.271   6.100 -0.0506  0.6917 -0.2957
 1406SOL     OW15676   3.790   1.070   4.010  0.1009 -0.9373 -0.3489
 1406SOL    HW115677   3.836   1.141   4.055  0.1353 -0.6674 -0.8166
 1406SOL    HW215678   3.793   1.107   3.922  0.1825  1.0610  0.4760
 1407SOL     OW15679   3.712   1.506   6.563 -0.1797 -0.5123 -0.1528
 1407SOL    HW115680   3.640   1.534   6.507  0.4534 -0.3814 -0.9090
 1407SOL    HW215681   3.737   1.419   6.532 -1.1694 -2.1504  3.6266
 1408SOL     OW15682   3.418   3.650   6.866  0.0102 -0.9472  1.0059
 1408SOL    HW115683   3.463   3.596   6.930 -0.0603 -1.6775  0.4336
 1408SOL    HW215684   3.329   3.617   6.866 -0.8495  1.3752  0.7228
 1409SOL     OW15685   4.347   3.889   3.524  0.2533 -0.2485 -0.9900
 1409SOL    HW115686   4.283   3.893   3.595  0.2272 -3.0602 -0.8839
 1409SOL    HW215687   4.357   3.983   3.506 -0.3221  0.3234  1.6536
 1410SOL     OW15688   4.104   1.470   7.156  0.2960  0.4519  0.0541
 1410SOL    HW115689   4.173   1.531   7.183  0.3476  1.0884 -1.5542
 1410SOL    HW215690   4.033   1.535   7.152  1.1921  1.5800  2.1237
 1411SOL     OW15691   1.164   1.270   8.400  0.2849  0.2281 -0.2666
 1411SOL    HW115692   1.101   1.226   8.458 -0.6246  0.4172 -1.1021
 1411SOL    HW215693   1.163   1.358   8.436  0.9845 -0.4502  1.4360
 1412SOL     OW15694   1.507   3.708   7.286 -0.4428  0.0567 -0.0537
 1412SOL    HW115695   1.490   3.720   7.379 -0.7826 -2.2632  0.1998
 1412SOL    HW215696   1.420   3.702   7.247 -2.0479 -0.1365  3.5399
 1413SOL     OW15697   0.100   3.219   9.232 -0.6784  0.2328  0.2105
 1413SOL    HW115698   0.149   3.202   9.313  1.5109  0.7835 -0.9740
 1413SOL    HW215699   0.011   3.187   9.240 -0.2298 -0.6220  1.9180
 1414SOL     OW15700   0.718   3.780  16.265  0.5701  0.0269  0.7515
 1414SOL    HW115701   0.766   3.852  16.225 -1.4951  0.7651 -0.3778
 1414SOL    HW215702   0.788   3.725  16.301  1.6769  0.4302 -0.7923
 1415SOL     OW15703   1.924   1.229   8.733  0.0865 -0.0350 -0.4844
 1415SOL    HW115704   1.932   1.147   8.782  0.5313 -0.7148 -1.7009
 1415SOL    HW215705   1.981   1.292   8.778  0.1007 -2.0334  2.2600
 1416SOL     OW15706   3.561   1.787   4.476 -0.3543 -0.1479 -0.1126
 1416SOL    HW115707   3.644   1.824   4.446 -0.5217 -0.5957 -1.1288
 1416SOL    HW215708   3.520   1.864   4.515  1.8290  0.9055  0.0695
 1417SOL     OW15709   1.749   0.040  17.154  0.4739  0.3814 -0.1783
 1417SOL    HW115710   1.798   0.105  17.103  0.8336  1.0118  0.9739
 1417SOL    HW215711   1.794   0.031  17.238 -1.2841 -1.6067  0.5477
 1418SOL     OW15712   2.483   0.254  16.599 -0.6263  0.4503  0.2004
 1418SOL    HW115713   2.476   0.333  16.653  1.7220  1.5065 -1.0504
 1418SOL    HW215714   2.394   0.219  16.601  0.1160 -1.4181  0.3128
 1419SOL     OW15715   2.770   1.348   9.029  0.5657 -0.4163  0.0407
 1419SOL    HW115716   2.818   1.348   9.112  0.9629 -1.8578 -0.1899
 1419SOL    HW215717   2.683   1.366   9.067  0.7372  0.0384  0.2133
 1420SOL     OW15718   1.800   0.039   4.638  0.0827  0.1011 -0.3411
 1420SOL    HW115719   1.793   0.014   4.546  0.7734 -2.8954  0.4228
 1420SOL    HW215720   1.713   0.019   4.671  0.0464  2.9353  1.2573
 1421SOL     OW15721   2.226   1.290  13.898  0.2360 -0.3504 -0.4465
 1421SOL    HW115722   2.166   1.281  13.972  2.1779  2.8231  1.5136
 1421SOL    HW215723   2.282   1.359  13.931 -0.4950 -0.5005  1.1129
 1422SOL     OW15724   3.045   0.176  10.744 -0.0066  0.0219 -0.2121
 1422SOL    HW115725   3.044   0.207  10.653 -0.8562  1.1253  0.1739
 1422SOL    HW215726   3.066   0.251  10.800 -1.0725 -0.2219  0.4930
 1423SOL     OW15727   3.549   2.887   1.804 -0.2943  0.1678  0.1750
 1423SOL    HW115728   3.599   2.964   1.776  3.7832 -2.1104  1.2095
 1423SOL    HW215729   3.462   2.907   1.769 -0.6199  1.9132  1.9833
 1424SOL     OW15730   4.327   3.840   5.136  0.3841 -0.2722 -0.3471
 1424SOL    HW115731   4.313   3.770   5.199 -1.9064  0.0153 -0.5567
 1424SOL    HW215732   4.420   3.862   5.148  0.6381 -1.2094 -0.5581
 1425SOL     OW15733   4.285   4.571   5.990 -0.2564 -0.4260 -0.0389
 1425SOL    HW115734   4.342   4.552   5.916  1.1093  0.7175  0.7333
 1425SOL    HW215735   4.331   4.638   6.040  0.8715 -1.8418  0.7842
 1426SOL     OW15736   1.924   4.703   5.771 -0.5165  0.4314 -0.3651
 1426SOL    HW115737   1.842   4.691   5.819 -0.5190  0.3081 -0.3990
 1426SOL    HW215738   1.977   0.035   5.831 -0.4022 -0.0655 -0.0253
 1427SOL     OW15739   1.146   1.484   8.593  0.1587 -0.1260  0.1192
 1427SOL    HW115740   1.195   1.497   8.674 -1.7287  3.5587  0.6580
 1427SOL    HW215741   1.056   1.465   8.621 -0.0009  0.8513  0.2720
 1428SOL     OW15742   4.718   3.300   2.429  0.0999 -0.4306  0.3506
 1428SOL    HW115743   4.654   3.231   2.450 -2.2828  1.2454 -1.5288
 1428SOL    HW215744   4.669   3.382   2.428  0.8604  0.0215 -0.0279
 1429SOL     OW15745   3.827   3.632   6.397 -0.0394 -0.2580 -0.0258
 1429SOL    HW115746   3.831   3.726   6.416  0.0883 -0.1033 -0.8080
 1429SOL    HW215747   3.890   3.598   6.460  1.3972  2.2782 -0.0852
 1430SOL     OW15748   2.150   2.274  11.995  0.0183  0.3704 -0.1269
 1430SOL    HW115749   2.156   2.205  12.061  0.6981 -0.1481 -0.7192
 1430SOL    HW215750   2.056   2.271  11.977 -0.1124 -0.0952  0.6410
 1431SOL     OW15751   2.883   1.974   7.703 -0.3330  0.2983 -0.0401
 1431SOL    HW115752   2.828   1.910   7.658 -0.8726  2.0636 -1.8650
 1431SOL    HW215753   2.915   1.915   7.772 -0.9069  0.0284 -0.0048
 1432SOL     OW15754   4.311   2.432   4.376  0.0090 -0.2586 -0.1604
 1432SOL    HW115755   4.253   2.409   4.449  0.7336 -2.2561 -0.2158
 1432SOL    HW215756   4.247   2.436   4.305 -0.2462  1.4539  0.1600
 1433SOL     OW15757   1.262   1.444   5.317 -0.1007 -0.0948  0.4310
 1433SOL    HW115758   1.229   1.365   5.273  1.4462 -0.1315 -0.6865
 1433SOL    HW215759   1.180   1.477   5.352  1.0493  2.5870  0.6121
 1434SOL     OW15760   2.982   1.603   7.318  0.0509  0.0384 -0.4956
 1434SOL    HW115761   3.002   1.695   7.332  3.9818 -0.6508 -1.7090
 1434SOL    HW215762   3.062   1.556   7.338 -0.2350  0.4457  1.5642
 1435SOL     OW15763   3.091   4.418   4.457 -0.1408  0.1240 -0.1550
 1435SOL    HW115764   3.033   4.398   4.531 -2.0909  1.1192 -1.4134
 1435SOL    HW215765   3.178   4.425   4.496  0.1413 -0.8133 -0.6161
 1436SOL     OW15766   4.035   1.135   7.797 -0.1171 -0.4298 -0.5727
 1436SOL    HW115767   4.101   1.109   7.732 -0.1979  0.4668 -1.0129
 1436SOL    HW215768   3.985   1.200   7.748  0.4013  1.4381  1.3704
 1437SOL     OW15769   1.038   1.104   4.936  0.0450 -0.3205  0.3869
 1437SOL    HW115770   1.012   1.176   4.880  0.7161 -1.6119 -1.5684
 1437SOL    HW215771   0.957   1.065   4.968  0.0534  0.8953  1.9047
 1438SOL     OW15772   4.229   4.679   4.127 -0.0591  0.0117 -1.0458
 1438SOL    HW115773   4.319   4.677   4.159 -0.6931  0.3184  0.8011
 1438SOL    HW215774   4.239   4.694   4.033  0.9478 -2.2140 -1.2954
 1439SOL     OW15775   2.429   3.401   4.445 -0.2965 -0.7443 -0.1486
 1439SOL    HW115776   2.480   3.429   4.521  0.4656  2.4234 -1.8479
 1439SOL    HW215777   2.497   3.395   4.378  0.5016 -0.3784  0.6338
 1440SOL     OW15778   4.478   1.480  11.836 -0.5535  0.0354 -0.3679
 1440SOL    HW115779   4.435   1.455  11.917  1.8122 -0.9934  0.5814
 1440SOL    HW215780   4.440   1.414  11.778 -0.0156  2.1739 -3.1521
 1441SOL     OW15781   4.595   3.864   5.154 -0.5694  0.3917  0.3126
 1441SOL    HW115782   4.648   3.878   5.076 -1.7433  2.8995 -0.0476
 1441SOL    HW215783   4.623   3.929   5.219 -0.9128 -1.2415  2.1025
 1442SOL     OW15784   1.157   1.908  12.007 -0.0449  0.4212 -0.1054
 1442SOL    HW115785   1.158   1.990  12.057 -2.4980 -0.4823  1.4220
 1442SOL    HW215786   1.101   1.922  11.931  0.0526  3.0061  0.2882
 1443SOL     OW15787   2.050   2.153  11.201  0.7942 -0.2059 -0.1987
 1443SOL    HW115788   2.110   2.215  11.242 -1.8634  1.0644  1.7713
 1443SOL    HW215789   1.990   2.214  11.157  0.2735 -1.2130 -0.8685
 1444SOL     OW15790   4.560   3.277   5.676 -0.4945 -0.0268 -0.5924
 1444SOL    HW115791   4.584   3.196   5.720  0.7077  2.0324  2.5753
 1444SOL    HW215792   4.476   3.286   5.722  1.0093  2.4665  1.7504
 1445SOL     OW15793   0.433   1.790   6.835  0.3453 -0.5264  0.3808
 1445SOL    HW115794   0.450   1.703   6.799  0.2015 -1.4463  2.5076
 1445SOL    HW215795   0.401   1.776   6.924  2.4947 -0.7837  1.1224
 1446SOL     OW15796   1.267   0.541   3.919 -0.4079 -0.3867 -0.5099
 1446SOL    HW115797   1.231   0.472   3.975 -1.7338 -0.3496 -1.3123
 1446SOL    HW215798   1.236   0.615   3.972  0.4890 -1.2966  1.2664
 1447SOL     OW15799   3.300   1.435  10.635 -0.0600  0.1816 -0.2378
 1447SOL    HW115800   3.335   1.352  10.666 -2.4863 -0.5656  0.5146
 1447SOL    HW215801   3.339   1.503  10.690  1.4037  1.0749 -2.3802
 1448SOL     OW15802   1.922   4.006  10.538 -0.5816  0.4423 -0.3861
 1448SOL    HW115803   1.963   4.004  10.624  0.0278 -0.4245 -0.6859
 1448SOL    HW215804   1.899   3.913  10.531 -0.1110  0.4546 -2.2051
 1449SOL     OW15805   2.862   0.831  10.120  0.1676  0.7728  0.4044
 1449SOL    HW115806   2.816   0.771  10.061  0.3417  0.9945  0.0405
 1449SOL    HW215807   2.791   0.872  10.168 -0.1201 -1.3207  1.7194
 1450SOL     OW15808   0.586   3.190  14.151 -0.2808 -0.5541  0.5506
 1450SOL    HW115809   0.659   3.157  14.099 -0.7601  1.6262 -1.4495
 1450SOL    HW215810   0.514   3.175  14.089 -0.7331  3.3694  0.1835
 1451SOL     OW15811   4.620   1.004   6.072  0.2813 -0.0324 -0.2986
 1451SOL    HW115812   4.643   0.917   6.038  2.3476  0.6820 -0.6717
 1451SOL    HW215813   4.698   1.058   6.066 -1.4320  2.3241 -1.2742
 1452SOL     OW15814   2.795   4.661   3.899  0.8059  0.0870  0.1355
 1452SOL    HW115815   2.872   4.687   3.949  0.7681  0.2716  0.0969
 1452SOL    HW215816   2.739   0.017   3.910 -1.7459 -1.7218 -0.1962
 1453SOL     OW15817   2.132   3.915   2.081  0.4414 -0.4767 -0.3399
 1453SOL    HW115818   2.163   3.982   2.020 -0.2261 -0.4884 -0.6935
 1453SOL    HW215819   2.123   3.964   2.163 -2.0191 -1.9390  0.2642
 1454SOL     OW15820   3.081   4.615   9.195 -0.7693  0.3940 -0.2441
 1454SOL    HW115821   3.127   4.533   9.211  0.2605  0.8601 -0.7301
 1454SOL    HW215822   3.114   4.670   9.266  0.1518 -2.1130  1.2705
 1455SOL     OW15823   1.242   4.211   2.679  0.3464  0.6274  0.2257
 1455SOL    HW115824   1.200   4.189   2.597  1.4897 -2.7058  0.5472
 1455SOL    HW215825   1.334   4.198   2.656  0.5936  2.6108  0.0745
 1456SOL     OW15826   0.570   2.663  12.687  0.4873 -0.0508  0.1331
 1456SOL    HW115827   0.634   2.734  12.695  0.4524  0.0061 -0.0710
 1456SOL    HW215828   0.598   2.611  12.762  0.7490  1.7390  1.2723
 1457SOL     OW15829   1.442   3.935   4.264  0.3418 -0.1390  0.0945
 1457SOL    HW115830   1.502   3.904   4.332 -2.9423 -1.3338  2.4730
 1457SOL    HW215831   1.447   4.026   4.293 -3.1443  0.3809 -0.8722
 1458SOL     OW15832   2.632   2.708  16.037 -0.3986 -0.2648 -0.0025
 1458SOL    HW115833   2.612   2.631  15.984  0.1608 -0.3475 -0.0875
 1458SOL    HW215834   2.683   2.763  15.977  0.7116  0.0082  1.1995
 1459SOL     OW15835   1.875   1.578   1.220 -0.7597  0.0073  0.1347
 1459SOL    HW115836   1.808   1.573   1.151 -0.6313  0.2191 -0.0054
 1459SOL    HW215837   1.852   1.663   1.258 -0.1801 -0.4822  1.5490
 1460SOL     OW15838   4.405   1.812  13.696 -0.5339 -0.0510  0.4356
 1460SOL    HW115839   4.411   1.906  13.711  0.8927 -0.2261  0.9555
 1460SOL    HW215840   4.311   1.798  13.687 -0.3049 -0.4345 -1.3215
 1461SOL     OW15841   2.247   3.581  13.436 -0.3927 -0.1466  0.5444
 1461SOL    HW115842   2.203   3.612  13.516 -0.6095 -1.4936  0.9478
 1461SOL    HW215843   2.195   3.617  13.364 -0.5858 -0.7626  0.3768
 1462SOL     OW15844   4.420   0.724   2.414 -0.5751 -0.2294 -0.9135
 1462SOL    HW115845   4.436   0.799   2.471  0.6291 -1.4218  0.2958
 1462SOL    HW215846   4.508   0.687   2.411 -0.4721  0.0830 -1.7019
 1463SOL     OW15847   1.486   0.328  16.814 -0.0073  0.1788  0.5865
 1463SOL    HW115848   1.520   0.280  16.889 -1.9269 -1.4084  0.4480
 1463SOL    HW215849   1.404   0.362  16.849 -0.7178 -2.6225  1.5648
 1464SOL     OW15850   0.650   3.966  17.208 -0.3669 -0.2188 -0.0703
 1464SOL    HW115851   0.563   3.930  17.192  0.5480 -1.7755 -1.5747
 1464SOL    HW215852   0.631   4.041  17.264  0.8865  0.0831 -0.0493
 1465SOL     OW15853   1.374   2.652  10.860  0.0956 -0.2662 -0.4145
 1465SOL    HW115854   1.462   2.615  10.870  0.2064  0.1589  0.1544
 1465SOL    HW215855   1.337   2.583  10.805 -0.4172  0.4027 -0.8950
 1466SOL     OW15856   4.260   0.192   4.530 -0.5872  0.2207 -0.1740
 1466SOL    HW115857   4.228   0.248   4.601  0.1428 -0.6653  0.8478
 1466SOL    HW215858   4.303   0.118   4.573 -0.9206  0.5728  0.7778
 1467SOL     OW15859   1.898   1.289   8.291  0.0002  0.1578  0.5051
 1467SOL    HW115860   1.858   1.260   8.374 -1.8756  1.9001  0.2100
 1467SOL    HW215861   1.885   1.383   8.300 -3.4393 -0.4164  1.7975
 1468SOL     OW15862   3.381   4.367  14.118  0.3991 -0.3176 -0.5832
 1468SOL    HW115863   3.403   4.398  14.030 -2.5068  2.3026 -0.3882
 1468SOL    HW215864   3.450   4.303  14.135  1.2490  0.5883 -0.6268
 1469SOL     OW15865   2.919   2.246   7.156  0.3657  0.4817 -0.2663
 1469SOL    HW115866   2.976   2.203   7.221 -0.4067  0.3466  0.3312
 1469SOL    HW215867   2.883   2.312   7.214 -0.5179 -1.1746  1.0887
 1470SOL     OW15868   1.675   1.872  14.676 -0.0580  0.1728  0.1961
 1470SOL    HW115869   1.614   1.905  14.609 -1.1265 -0.9673  0.5946
 1470SOL    HW215870   1.628   1.880  14.759  1.5077  0.5244  1.0314
 1471SOL     OW15871   0.371   2.489   2.031  0.2395  0.0208 -0.4931
 1471SOL    HW115872   0.429   2.539   2.088 -0.3180  2.2575 -1.8602
 1471SOL    HW215873   0.313   2.562   2.008 -0.4557  0.3313  2.1725
 1472SOL     OW15874   1.192   2.790   4.687 -0.4056 -0.1917 -0.0601
 1472SOL    HW115875   1.268   2.733   4.696 -1.8779 -2.2223 -0.3371
 1472SOL    HW215876   1.132   2.717   4.667  0.1452 -1.6695  3.7837
 1473SOL     OW15877   0.307   2.484  15.231 -0.6917  0.9799 -0.9669
 1473SOL    HW115878   0.341   2.420  15.294  1.7396 -0.2337 -3.4851
 1473SOL    HW215879   0.363   2.463  15.155 -0.3864 -2.6263  0.2846
 1474SOL     OW15880   0.699   1.989   8.341  0.0380 -0.4904  0.0291
 1474SOL    HW115881   0.767   2.053   8.323  0.4656 -1.1934 -0.9083
 1474SOL    HW215882   0.701   1.934   8.262 -0.6292  2.1965 -1.8523
 1475SOL     OW15883   3.221   3.531   6.321 -0.6418 -0.7631  0.0941
 1475SOL    HW115884   3.137   3.496   6.289  0.7732 -1.4461 -2.8353
 1475SOL    HW215885   3.208   3.625   6.310  0.6465 -0.7206 -0.9997
 1476SOL     OW15886   2.081   0.356  17.463  0.0545 -0.2875 -0.5326
 1476SOL    HW115887   2.084   0.260  17.469  0.7729 -0.2310 -0.0200
 1476SOL    HW215888   2.158   0.375  17.410  0.2077 -0.3751 -0.3450
 1477SOL     OW15889   0.123   2.480  11.840  0.2347  0.1234 -0.7236
 1477SOL    HW115890   0.065   2.431  11.782 -0.0586 -0.0817 -0.2654
 1477SOL    HW215891   0.209   2.442  11.821  0.4505  0.3070 -0.1196
 1478SOL     OW15892   0.634   3.583  16.892 -0.3499 -0.4776 -0.1266
 1478SOL    HW115893   0.578   3.605  16.817 -0.3554  0.1353  0.0596
 1478SOL    HW215894   0.722   3.610  16.866 -0.0990 -1.8413 -0.7012
 1479SOL     OW15895   4.650   2.613   1.431 -0.0570 -0.1692 -0.1459
 1479SOL    HW115896   4.590   2.594   1.360 -0.7399  0.6818  0.2132
 1479SOL    HW215897   4.672   2.705   1.421 -0.1922 -0.2511 -1.1728
 1480SOL     OW15898   0.577   2.182   1.832  0.2888  0.6131  0.0069
 1480SOL    HW115899   0.610   2.144   1.750  0.4030 -0.8576  0.7352
 1480SOL    HW215900   0.587   2.105   1.887  0.1822 -0.1450 -1.0342
 1481SOL     OW15901   1.639   2.001   0.602 -0.6185 -0.0834 -0.8576
 1481SOL    HW115902   1.667   2.059   0.673  1.3539 -0.2407 -1.5158
 1481SOL    HW215903   1.630   2.065   0.531  2.8995  1.0151 -0.2855
 1482SOL     OW15904   0.298   1.694  10.069  0.1893  1.0984  0.1429
 1482SOL    HW115905   0.297   1.599  10.086  1.1686  1.2266  0.8838
 1482SOL    HW215906   0.217   1.695  10.019  0.5150 -0.9360 -0.4542
 1483SOL     OW15907   1.621   3.485  17.246 -0.1667  0.2031  0.5364
 1483SOL    HW115908   1.682   3.430  17.196  1.0051  1.8689  0.1362
 1483SOL    HW215909   1.555   3.490  17.177 -0.1567 -0.1852  0.4963
 1484SOL     OW15910   3.946   4.238   2.023 -0.5415 -0.2538 -0.0020
 1484SOL    HW115911   4.031   4.197   2.006 -0.0604  0.5561  0.4469
 1484SOL    HW215912   3.899   4.185   1.959 -0.6690 -1.3732  1.0386
 1485SOL     OW15913   0.720   4.638   5.029  0.3458  0.5261 -0.5239
 1485SOL    HW115914   0.687   4.601   4.947 -1.8820  0.8060  0.2553
 1485SOL    HW215915   0.805   4.594   5.037  0.5171  1.2248  1.6777
 1486SOL     OW15916   1.912   0.564  17.352 -1.1320  0.4060  0.2749
 1486SOL    HW115917   1.977   0.559  17.282 -2.3794 -1.9594 -0.7117
 1486SOL    HW215918   1.950   0.513  17.424  1.3734  2.5878  0.5090
 1487SOL     OW15919   0.652   2.010  12.064  0.4225 -0.9155  0.4416
 1487SOL    HW115920   0.694   2.093  12.086 -0.9350  0.3326 -1.7759
 1487SOL    HW215921   0.597   1.986  12.139 -0.6733 -0.7082 -0.3008
 1488SOL     OW15922   3.027   3.117   1.062  0.0563 -0.1299  0.3263
 1488SOL    HW115923   3.098   3.170   1.099  1.6768 -1.3340 -1.0374
 1488SOL    HW215924   3.040   3.029   1.098  2.2840  0.4297  0.9061
 1489SOL     OW15925   1.056   0.935  11.790 -0.2734  0.2535  0.1010
 1489SOL    HW115926   1.103   1.011  11.826 -0.0247 -0.3917  1.1398
 1489SOL    HW215927   1.087   0.938  11.700  1.4242  0.2238  0.6942
 1490SOL     OW15928   2.216   1.298   9.033 -0.3659  0.5648 -1.0215
 1490SOL    HW115929   2.244   1.223   9.085  0.3391  0.7341 -1.1489
 1490SOL    HW215930   2.192   1.350   9.109 -3.0931 -1.1987 -0.6814
 1491SOL     OW15931   0.468   1.531  15.341 -0.0008 -0.1115 -0.0135
 1491SOL    HW115932   0.508   1.518  15.256 -0.6248  1.3968 -0.5492
 1491SOL    HW215933   0.489   1.442  15.369 -1.6360 -0.5206 -0.0959
 1492SOL     OW15934   0.973   0.637   2.423  0.0049 -0.3076  0.0597
 1492SOL    HW115935   0.931   0.707   2.373  1.0777 -0.5680 -1.1972
 1492SOL    HW215936   1.045   0.690   2.456  0.0847 -2.6396  3.6161
 1493SOL     OW15937   3.585   3.664   2.455 -0.2386 -0.1891 -0.0132
 1493SOL    HW115938   3.522   3.643   2.387  1.6390  1.2758 -2.2212
 1493SOL    HW215939   3.622   3.576   2.462  0.2188  0.1385  1.5554
 1494SOL     OW15940   1.819   1.337  10.454  0.1179  0.3413 -0.5952
 1494SOL    HW115941   1.819   1.264  10.516 -0.2249  1.6084  0.9141
 1494SOL    HW215942   1.890   1.299  10.403  0.6678  1.5050 -0.7134
 1495SOL     OW15943   2.768   3.818  14.043  0.3397  0.4161  0.7116
 1495SOL    HW115944   2.813   3.734  14.038 -2.0943 -0.9725  1.7698
 1495SOL    HW215945   2.846   3.873  14.042 -0.0362  0.9606  1.2543
 1496SOL     OW15946   0.373   1.616   8.368 -0.0184  0.1363  0.1718
 1496SOL    HW115947   0.465   1.633   8.386  0.1723 -1.2254  0.4695
 1496SOL    HW215948   0.376   1.556   8.294  0.3462  0.7059 -0.2736
 1497SOL     OW15949   0.746   3.255   8.313 -0.2231 -0.2784  0.1995
 1497SOL    HW115950   0.720   3.196   8.383 -0.1995  0.4376  0.8123
 1497SOL    HW215951   0.680   3.251   8.244  0.0846  0.5198 -0.1507
 1498SOL     OW15952   4.473   4.023   7.888 -0.0119  0.5218  0.1441
 1498SOL    HW115953   4.467   4.012   7.983  3.5736 -0.0165  0.2868
 1498SOL    HW215954   4.385   4.059   7.877 -0.2227  0.2670  1.0332
 1499SOL     OW15955   0.415   0.195   5.234  0.1502  0.2726  0.1143
 1499SOL    HW115956   0.370   0.274   5.265 -0.6468 -0.9710  2.1108
 1499SOL    HW215957   0.361   0.166   5.160  2.7951 -0.7950 -1.3671
 1500SOL     OW15958   0.704   1.773   2.916  0.6909  0.1983 -0.3344
 1500SOL    HW115959   0.714   1.697   2.974 -1.8732 -1.1202 -1.5606
 1500SOL    HW215960   0.638   1.734   2.857  0.0391  1.0631 -0.1706
 1501SOL     OW15961   2.633   2.171   8.223 -0.3666  0.0655  0.3539
 1501SOL    HW115962   2.551   2.134   8.255  0.4651 -1.7711  0.3841
 1501SOL    HW215963   2.603   2.256   8.191  4.5004  1.1705 -1.3463
 1502SOL     OW15964   0.285   0.084   2.400 -0.1503 -0.4242  0.3277
 1502SOL    HW115965   0.192   0.066   2.400 -0.0814 -0.7682  1.8367
 1502SOL    HW215966   0.295   0.099   2.306 -2.1898 -0.5637  0.1025
 1503SOL     OW15967   3.289   3.888   6.046  0.3362  0.0299 -0.9136
 1503SOL    HW115968   3.380   3.860   6.039  0.4446 -0.1693  1.5059
 1503SOL    HW215969   3.288   3.969   5.995 -0.7854  1.3810  1.2807
 1504SOL     OW15970   3.255   2.155   1.895 -0.1015  0.0639  0.2635
 1504SOL    HW115971   3.343   2.173   1.864 -0.1400  2.0142  1.3121
 1504SOL    HW215972   3.272   2.070   1.937 -0.5020 -0.4665 -0.6339
 1505SOL     OW15973   3.031   0.866   8.281  0.0173  0.2000  0.2216
 1505SOL    HW115974   2.983   0.913   8.213 -0.7688  0.6972  1.1137
 1505SOL    HW215975   3.009   0.927   8.352 -1.1146  0.2839 -0.1941
 1506SOL     OW15976   3.201   2.085   9.095  0.4097  0.6672 -0.0915
 1506SOL    HW115977   3.231   2.065   9.183  0.1256 -0.5150 -0.2545
 1506SOL    HW215978   3.150   2.165   9.105 -2.5169 -1.0584 -1.0611
 1507SOL     OW15979   0.895   0.477   0.524  0.8208  0.1285 -0.0098
 1507SOL    HW115980   0.839   0.444   0.594  0.5858  0.6990  0.0706
 1507SOL    HW215981   0.979   0.451   0.561 -1.1293 -1.5279  3.3073
 1508SOL     OW15982   0.234   1.269   8.842 -0.0057  0.0049  0.3093
 1508SOL    HW115983   0.246   1.202   8.774 -0.7455 -0.4340  0.6057
 1508SOL    HW215984   0.298   1.236   8.904 -1.0207 -0.5929  1.0280
 1509SOL     OW15985   3.183   2.262   8.118  0.3299  0.0908  0.5071
 1509SOL    HW115986   3.165   2.307   8.201  0.9976  0.1136  0.6389
 1509SOL    HW215987   3.141   2.178   8.137 -1.1945  0.6619 -0.3515
 1510SOL     OW15988   0.125   3.606  17.504 -0.4989 -0.3515  0.1473
 1510SOL    HW115989   0.064   3.678  17.518 -0.1422 -0.3283  1.5373
 1510SOL    HW215990   0.169   3.610  17.589  0.4612  3.1076 -0.4968
 1511SOL     OW15991   2.204   0.170  13.928 -0.3011  0.4472 -0.0280
 1511SOL    HW115992   2.143   0.159  14.001  1.4493 -0.7484  1.2414
 1511SOL    HW215993   2.244   0.083  13.933  0.3612  0.6732 -1.3501
 1512SOL     OW15994   1.287   4.654   4.350  0.1500 -0.4025  0.2517
 1512SOL    HW115995   1.288   4.703   4.268 -0.7097 -2.0151 -0.7242
 1512SOL    HW215996   1.227   4.580   4.342  1.1912 -1.1429 -0.6926
 1513SOL     OW15997   3.992   1.558   1.860 -0.5762 -0.3951 -0.0270
 1513SOL    HW115998   3.986   1.653   1.863 -0.7451 -0.4286  0.6381
 1513SOL    HW215999   3.903   1.539   1.829 -0.6524  1.5738 -1.0186
 1514SOL     OW16000   2.052   1.060   8.934 -0.1790  0.2496  0.3345
 1514SOL    HW116001   1.991   1.117   8.981 -2.3195 -1.5025 -0.2903
 1514SOL    HW216002   2.131   1.049   8.987  0.3622  0.8836 -0.3408
 1515SOL     OW16003   1.935   1.657   5.295 -0.1338 -0.1869 -0.2639
 1515SOL    HW116004   2.012   1.615   5.256 -0.5808 -2.7931  1.6828
 1515SOL    HW216005   1.970   1.745   5.314  1.0454 -1.0288  1.4851
 1516SOL     OW16006   0.551   3.459   1.164 -0.5016 -0.2438  0.0052
 1516SOL    HW116007   0.490   3.532   1.146 -0.1751 -0.5294 -2.2817
 1516SOL    HW216008   0.486   3.394   1.189 -1.9077  0.8475 -0.7941
 1517SOL     OW16009   1.273   1.166   7.834 -0.3101  0.4002  0.5468
 1517SOL    HW116010   1.186   1.148   7.869 -0.1742  0.4657  0.9123
 1517SOL    HW216011   1.309   1.081   7.807  0.4900  0.9520 -0.1340
 1518SOL     OW16012   0.842   1.933  13.802  0.2889 -0.0325  0.3211
 1518SOL    HW116013   0.753   1.956  13.776  0.6038 -0.7853 -1.4752
 1518SOL    HW216014   0.841   1.939  13.897 -2.4521  0.0598  0.2741
 1519SOL     OW16015   1.396   0.425  13.727  0.1037 -0.1664 -0.3815
 1519SOL    HW116016   1.344   0.364  13.676 -0.7103  1.6260 -1.6655
 1519SOL    HW216017   1.396   0.499  13.667 -0.4398  0.9602  0.9914
 1520SOL     OW16018   1.569   4.443  10.519  0.4802  0.2021 -0.0801
 1520SOL    HW116019   1.631   4.515  10.504  0.7814 -0.0582 -0.0733
 1520SOL    HW216020   1.627   4.367  10.515 -1.8149 -1.4723 -1.5458
 1521SOL     OW16021   1.300   0.142   2.545 -0.1426 -0.3549 -0.0625
 1521SOL    HW116022   1.357   0.086   2.597 -0.7051  0.5820  1.5706
 1521SOL    HW216023   1.219   0.138   2.596 -0.8242 -0.9807 -1.1877
 1522SOL     OW16024   0.777   4.699   4.613 -0.0076  0.3297 -0.5051
 1522SOL    HW116025   0.743   4.627   4.667 -0.2015 -1.2980 -2.8246
 1522SOL    HW216026   0.824   0.018   4.687 -0.6463 -2.7752  1.5747
 1523SOL     OW16027   0.562   0.132   6.930  0.2574 -0.3480  0.1064
 1523SOL    HW116028   0.469   0.152   6.921  0.6964  1.3378 -0.6772
 1523SOL    HW216029   0.549   0.082   7.010 -0.5876  1.1624  0.9129
 1524SOL     OW16030   4.231   0.348  15.390  0.1480  0.0240 -0.0302
 1524SOL    HW116031   4.162   0.403  15.427 -1.4928 -1.0716 -1.4377
 1524SOL    HW216032   4.236   0.393  15.306 -1.7316 -0.3648 -0.3496
 1525SOL     OW16033   0.438   1.323   7.336  0.3462  0.6287 -0.2661
 1525SOL    HW116034   0.413   1.295   7.424  0.1456 -0.4731 -0.6660
 1525SOL    HW216035   0.377   1.267   7.287 -0.2810  1.4618 -0.4238
 1526SOL     OW16036   4.018   0.588   6.429 -0.1109  0.6150  0.5354
 1526SOL    HW116037   4.111   0.608   6.439  0.0996 -0.2873  0.4087
 1526SOL    HW216038   3.987   0.667   6.473 -1.9076  0.8572 -1.1696
 1527SOL     OW16039   1.705   1.004   0.560 -0.6797 -0.4731 -0.3848
 1527SOL    HW116040   1.611   1.011   0.546 -1.0287 -3.2710  0.7420
 1527SOL    HW216041   1.707   0.945   0.635  1.3223  1.4331  1.0713
 1528SOL     OW16042   0.187   3.642  12.583 -0.1450 -0.1014  0.1941
 1528SOL    HW116043   0.275   3.669  12.557 -0.2414 -0.3603 -0.3818
 1528SOL    HW216044   0.128   3.699  12.534  2.6922  1.1150 -1.8089
 1529SOL     OW16045   1.639   2.024  11.228 -0.5363 -0.2631  0.0886
 1529SOL    HW116046   1.705   1.968  11.268 -0.3798  1.4190  2.1728
 1529SOL    HW216047   1.605   1.965  11.161 -0.4865 -1.0253  0.7365
 1530SOL     OW16048   1.230   4.638   5.971  0.1271 -0.0763 -0.4765
 1530SOL    HW116049   1.312   4.603   5.936  0.8169 -0.3712  1.4243
 1530SOL    HW216050   1.237   0.009   5.941  0.1335  0.5737  1.4895
 1531SOL     OW16051   2.768   2.668  14.051  0.2541  0.1781  0.1066
 1531SOL    HW116052   2.739   2.600  14.112  0.6050  1.5119  1.7419
 1531SOL    HW216053   2.862   2.652  14.048  0.7611  2.5481  3.5837
 1532SOL     OW16054   1.953   4.361  15.202 -0.1275  0.1067 -0.0898
 1532SOL    HW116055   1.997   4.315  15.131  1.1670  1.5272 -0.1969
 1532SOL    HW216056   1.913   4.291  15.253  0.6822 -1.9905 -2.2832
 1533SOL     OW16057   0.265   0.458  16.093  0.2567 -0.6063 -0.8298
 1533SOL    HW116058   0.239   0.542  16.129  0.7927 -0.8438  0.1303
 1533SOL    HW216059   0.307   0.425  16.172 -0.9977  0.8904  0.4409
 1534SOL     OW16060   3.051   4.591   3.471 -0.5086 -0.7807  0.9201
 1534SOL    HW116061   3.114   4.532   3.429 -1.0512 -0.5327 -0.2458
 1534SOL    HW216062   3.071   4.596   3.565 -0.1027 -0.8769  0.8381
 1535SOL     OW16063   2.790   2.664   1.795 -0.3179 -0.2443 -0.4556
 1535SOL    HW116064   2.733   2.684   1.720  1.6175 -0.6436 -2.0390
 1535SOL    HW216065   2.872   2.671   1.747  1.3939 -2.2745  2.2575
 1536SOL     OW16066   2.441   3.597   6.772 -0.0029 -0.3206  0.6348
 1536SOL    HW116067   2.432   3.550   6.855 -2.4641 -0.1881  0.4575
 1536SOL    HW216068   2.359   3.645   6.763  0.9702  1.1269 -0.4185
 1537SOL     OW16069   2.582   3.253  16.330 -0.1146 -0.0710  0.2074
 1537SOL    HW116070   2.499   3.249  16.377  0.0057 -1.8095  0.3075
 1537SOL    HW216071   2.556   3.255  16.239 -3.9597 -2.2163  1.2696
 1538SOL     OW16072   2.150   3.587   9.422  0.3084 -0.6497  0.4500
 1538SOL    HW116073   2.224   3.592   9.361 -0.8960 -1.5519 -1.0805
 1538SOL    HW216074   2.189   3.639   9.493 -1.5380 -0.1397  1.0979
 1539SOL     OW16075   2.001   2.343   5.277  0.4390  0.7075  0.0035
 1539SOL    HW116076   2.028   2.422   5.230  1.0928 -0.4622 -1.5885
 1539SOL    HW216077   2.029   2.371   5.365  1.2785  1.8992 -0.6384
 1540SOL     OW16078   3.314   4.387   2.057  0.3652  0.3975  0.1448
 1540SOL    HW116079   3.305   4.479   2.031  1.7708  0.1156 -1.3285
 1540SOL    HW216080   3.295   4.389   2.150  0.9016  1.4729  0.2191
 1541SOL     OW16081   2.153   1.266  17.220  0.4708  0.3111 -0.7187
 1541SOL    HW116082   2.080   1.322  17.246  1.9961  1.4205  1.1815
 1541SOL    HW216083   2.165   1.215  17.300 -1.5536 -1.1527 -1.3482
 1542SOL     OW16084   4.226   2.678  11.052 -0.4014  0.4157 -0.3428
 1542SOL    HW116085   4.159   2.708  11.113  0.1014 -1.1306  0.9719
 1542SOL    HW216086   4.191   2.713  10.970 -1.5482 -1.2969 -0.6062
 1543SOL     OW16087   0.467   2.380   4.577  0.0875  0.5765 -0.4173
 1543SOL    HW116088   0.426   2.456   4.618  0.5279  0.8096 -0.4190
 1543SOL    HW216089   0.558   2.384   4.605 -0.4487 -0.8643  1.4807
 1544SOL     OW16090   3.117   1.011   9.809 -0.2866 -0.1851  0.5405
 1544SOL    HW116091   3.069   1.093   9.821  1.8983  1.2649 -0.6027
 1544SOL    HW216092   3.085   0.980   9.724 -1.2366 -0.3096  0.9400
 1545SOL     OW16093   4.694   3.398   1.088  0.2888  0.5728  0.4919
 1545SOL    HW116094   4.666   3.434   1.004 -0.7422 -0.8885  0.2024
 1545SOL    HW216095   4.637   3.450   1.145 -1.4586 -2.2363  1.3079
 1546SOL     OW16096   2.275   0.734   1.022 -0.5282  0.1120  0.4299
 1546SOL    HW116097   2.204   0.797   1.031 -1.7089 -1.4103  1.7902
 1546SOL    HW216098   2.225   0.661   0.985  0.0168  0.2414 -0.5760
 1547SOL     OW16099   4.702   2.109  11.360  0.2691 -0.6818  0.2626
 1547SOL    HW116100   0.002   2.032  11.413  0.9759  0.2074  1.2567
 1547SOL    HW216101   0.061   2.116  11.308 -0.8653  2.0884 -1.1439
 1548SOL     OW16102   2.638   3.236  15.817  0.3470  0.2285 -0.3951
 1548SOL    HW116103   2.681   3.171  15.761 -1.4102 -1.5715  0.3329
 1548SOL    HW216104   2.705   3.305  15.820  0.2324  0.3353 -0.3215
 1549SOL     OW16105   0.846   0.194  14.274 -0.1586  0.2407 -0.1054
 1549SOL    HW116106   0.809   0.272  14.315  0.9270  0.0107  1.3312
 1549SOL    HW216107   0.852   0.231  14.186  1.2617 -1.0040 -0.5307
 1550SOL     OW16108   2.920   2.398   5.294 -0.4927 -0.5857 -0.6522
 1550SOL    HW116109   2.924   2.316   5.244  1.3295 -1.2284  0.5338
 1550SOL    HW216110   2.834   2.384   5.334 -1.3638  1.7657 -1.6598
 1551SOL     OW16111   4.240   3.087   0.336 -0.2406 -0.1540  0.3602
 1551SOL    HW116112   4.282   3.047   0.260  1.9508 -1.7961  2.4313
 1551SOL    HW216113   4.148   3.071   0.315 -0.1129  0.5499 -0.7599
 1552SOL     OW16114   2.711   3.665   7.807 -0.7684  1.0725 -0.3146
 1552SOL    HW116115   2.739   3.647   7.897  0.7707 -0.3246 -1.0724
 1552SOL    HW216116   2.616   3.663   7.816 -0.6377  1.7917  1.2832
 1553SOL     OW16117   3.770   3.148   7.057  0.4666 -0.3284  0.2821
 1553SOL    HW116118   3.841   3.157   7.120 -0.5212 -1.0075  1.4823
 1553SOL    HW216119   3.829   3.112   6.990 -0.7082 -0.3139 -0.7698
 1554SOL     OW16120   0.169   3.196   5.846  0.3688 -0.0879 -0.1120
 1554SOL    HW116121   0.119   3.230   5.921  0.2682 -0.7397  0.1107
 1554SOL    HW216122   0.202   3.279   5.810  0.0794  0.9296  1.9835
 1555SOL     OW16123   0.555   3.652   1.584 -0.0464  0.3256 -0.3970
 1555SOL    HW116124   0.565   3.690   1.671 -0.6438 -1.9589  0.6438
 1555SOL    HW216125   0.465   3.675   1.562 -1.0273 -1.9868  1.2802
 1556SOL     OW16126   0.096   2.729  12.539 -0.3283 -0.3489 -0.2716
 1556SOL    HW116127   0.129   2.782  12.467 -1.5258 -0.1473 -0.6787
 1556SOL    HW216128   0.026   2.790  12.564  1.3577  1.8238 -0.9049
 1557SOL     OW16129   1.556   4.625  17.542 -0.2399 -0.4722  0.3857
 1557SOL    HW116130   1.625   4.558  17.539  0.3049  0.0386  1.6016
 1557SOL    HW216131   1.551   4.631  17.446 -1.9022 -1.5986  0.3905
 1558SOL     OW16132   1.773   0.822   3.273 -0.2287  0.5154 -0.1024
 1558SOL    HW116133   1.760   0.755   3.340  1.4191  2.3181  1.9888
 1558SOL    HW216134   1.688   0.828   3.229 -0.3508 -1.6305 -0.1865
 1559SOL     OW16135   1.060   4.521   2.413  0.4349 -0.4823 -0.0084
 1559SOL    HW116136   0.968   4.544   2.405  0.4470  0.1550  1.6461
 1559SOL    HW216137   1.068   4.451   2.348 -0.9168 -1.3471  0.7634
 1560SOL     OW16138   0.196   2.120   7.713  0.3038  0.2560  0.0042
 1560SOL    HW116139   0.250   2.104   7.791 -1.6630 -0.9477  1.1024
 1560SOL    HW216140   0.232   2.055   7.653 -1.2153 -1.2688  0.7759
 1561SOL     OW16141   0.537   0.133  12.675  0.0221 -0.4867 -0.2923
 1561SOL    HW116142   0.591   0.160  12.601 -2.1187  1.1513 -1.2705
 1561SOL    HW216143   0.460   0.186  12.653 -1.3413 -2.0628  0.6598
 1562SOL     OW16144   2.898   0.108   9.166  0.0417 -0.2549 -0.6789
 1562SOL    HW116145   2.960   0.037   9.151 -0.2526 -0.4891 -0.7809
 1562SOL    HW216146   2.850   0.074   9.242  1.2001 -1.9493 -0.7055
 1563SOL     OW16147   2.052   1.044   6.318 -0.2220  0.1154 -0.5247
 1563SOL    HW116148   2.065   0.949   6.311  1.5148  0.1214  2.6192
 1563SOL    HW216149   1.980   1.055   6.256  0.5823 -1.8346 -1.8035
 1564SOL     OW16150   3.830   3.976   4.672  0.0222  0.7852  0.1212
 1564SOL    HW116151   3.923   3.956   4.665 -0.3020 -0.5789 -0.3812
 1564SOL    HW216152   3.805   3.912   4.738  0.5309 -0.2948 -0.7259
 1565SOL     OW16153   3.512   4.368   6.768 -0.1206  0.6318  0.0739
 1565SOL    HW116154   3.481   4.381   6.858  1.1565  0.8190  0.4869
 1565SOL    HW216155   3.471   4.285   6.744 -0.4433 -0.0088  2.8371
 1566SOL     OW16156   1.524   0.095  10.563 -0.0494 -0.0180  0.4881
 1566SOL    HW116157   1.588   0.037  10.522  0.2247 -0.2732  1.2669
 1566SOL    HW216158   1.540   0.179  10.520  3.7690 -0.8860  0.2480
 1567SOL     OW16159   0.285   2.812   0.481  0.4469  0.6618 -0.1314
 1567SOL    HW116160   0.322   2.729   0.452 -0.4991  0.3735 -0.5049
 1567SOL    HW216161   0.276   2.860   0.399 -1.3220 -2.0718 -1.5261
 1568SOL     OW16162   2.980   0.040   0.108  0.2945 -0.1805 -0.2909
 1568SOL    HW116163   2.993   4.673   0.072  0.9135  0.0180 -0.5546
 1568SOL    HW216164   2.960   0.034   0.201  3.1603  0.1858  0.3340
 1569SOL     OW16165   1.541   1.070   8.717  0.7827  0.4416 -0.7453
 1569SOL    HW116166   1.487   1.122   8.657  0.0852  2.0594  1.2545
 1569SOL    HW216167   1.540   0.985   8.675 -0.1771  1.3289 -2.5025
 1570SOL     OW16168   0.448   3.193  15.642  0.2267 -0.3613 -0.0038
 1570SOL    HW116169   0.538   3.222  15.636  0.4644 -1.0303  0.3059
 1570SOL    HW216170   0.416   3.244  15.567  1.1766 -1.7962 -1.3885
 1571SOL     OW16171   3.438   2.255   8.422 -0.2499  0.0418 -0.1335
 1571SOL    HW116172   3.403   2.210   8.499 -0.9843  0.9074  0.0414
 1571SOL    HW216173   3.532   2.262   8.441 -0.0821 -2.6628 -0.0015
 1572SOL     OW16174   4.168   4.619   3.292 -0.4749 -0.0925  0.0488
 1572SOL    HW116175   4.234   4.680   3.323 -0.4069 -1.4621  2.5805
 1572SOL    HW216176   4.092   4.641   3.345 -2.3705 -1.9299 -1.8757
 1573SOL     OW16177   3.744   4.350   2.441  0.0804 -0.3489 -0.3899
 1573SOL    HW116178   3.797   4.365   2.363  0.3881  0.8289  0.0406
 1573SOL    HW216179   3.813   4.327   2.503  1.3146  2.3294 -0.7777
 1574SOL     OW16180   3.999   4.705   4.536  0.1054  0.3006 -0.2804
 1574SOL    HW116181   4.044   0.008   4.455 -0.2301 -1.1951 -0.9097
 1574SOL    HW216182   3.921   0.039   4.529 -0.4586 -0.8550 -3.3125
 1575SOL     OW16183   4.676   3.771   1.055  0.3866  0.3109  0.2317
 1575SOL    HW116184   4.581   3.756   1.058  0.0847  1.8705 -1.7704
 1575SOL    HW216185   4.686   3.754   0.962 -0.9887 -0.2276  0.1828
 1576SOL     OW16186   0.652   4.667   9.419  0.2550 -0.2249 -0.3862
 1576SOL    HW116187   0.627   4.584   9.378 -1.1580 -1.1116  2.2225
 1576SOL    HW216188   0.677   4.623   9.501 -0.9665  1.5461  0.9262
 1577SOL     OW16189   1.699   2.610  10.290 -0.0292 -0.1207 -0.0203
 1577SOL    HW116190   1.671   2.548  10.357 -0.1005 -0.5373 -0.4384
 1577SOL    HW216191   1.626   2.671  10.290  0.0025 -0.0774  0.3291
 1578SOL     OW16192   0.598   1.975   6.541 -0.1547  0.1712  0.0303
 1578SOL    HW116193   0.647   1.896   6.520 -3.6819 -2.0811  0.2877
 1578SOL    HW216194   0.657   2.045   6.514  2.9008 -2.0125  1.1073
 1579SOL     OW16195   2.990   2.133   4.146  0.4107 -0.2996 -0.2190
 1579SOL    HW116196   2.960   2.223   4.162 -1.0609 -0.2825 -3.0116
 1579SOL    HW216197   2.917   2.086   4.105 -1.3389 -0.7201  3.4274
 1580SOL     OW16198   0.000   0.822   4.896  0.2181 -0.4630  0.3543
 1580SOL    HW116199   0.086   0.825   4.853  0.1431  1.0135  0.2912
 1580SOL    HW216200   4.680   0.908   4.886  0.0167 -0.4111  1.6556
 1581SOL     OW16201   3.425   1.991  13.035  1.0168  0.2025  0.0341
 1581SOL    HW116202   3.346   2.000  13.088  1.6850  0.2276  1.0445
 1581SOL    HW216203   3.488   2.055  13.070  1.7698 -1.1099  1.0999
 1582SOL     OW16204   2.542   3.585  13.953  0.1649  0.3267  0.4800
 1582SOL    HW116205   2.633   3.589  13.985  0.7189 -1.0490 -0.9235
 1582SOL    HW216206   2.561   3.598  13.860  0.4723 -0.6893  0.3985
 1583SOL     OW16207   0.173   4.236   6.250 -0.1797 -0.1324  0.5221
 1583SOL    HW116208   0.141   4.316   6.208  1.7961 -1.1475 -2.8798
 1583SOL    HW216209   0.133   4.250   6.336  1.2100  1.2263  0.9399
 1584SOL     OW16210   1.485   1.174   3.997 -0.3531  0.2094 -0.4641
 1584SOL    HW116211   1.444   1.144   3.916 -4.0385  0.0859  1.4235
 1584SOL    HW216212   1.516   1.262   3.976 -0.0362 -0.3769 -2.3965
 1585SOL     OW16213   2.260   3.564   4.584  0.1501  0.0613  0.3947
 1585SOL    HW116214   2.329   3.626   4.607  0.3545 -0.2604  0.6556
 1585SOL    HW216215   2.311   3.502   4.533 -0.8804  0.6320 -1.3102
 1586SOL     OW16216   2.244   3.956   4.169  0.0981  0.4139  0.1480
 1586SOL    HW116217   2.258   3.993   4.082 -0.8803 -1.6785 -0.9033
 1586SOL    HW216218   2.277   4.017   4.234 -1.6716  0.7873  0.7165
 1587SOL     OW16219   0.790   3.053   7.780 -0.5920  0.1242 -0.4771
 1587SOL    HW116220   0.779   3.102   7.861 -1.3880  0.4929 -0.8106
 1587SOL    HW216221   0.809   3.126   7.721  0.4920  0.6360  0.5168
 1588SOL     OW16222   0.615   2.724   2.537 -0.2609  0.2333 -0.7416
 1588SOL    HW116223   0.529   2.708   2.497 -0.2547  0.6794 -0.9299
 1588SOL    HW216224   0.596   2.804   2.586 -2.5160 -1.0408  0.4821
 1589SOL     OW16225   2.311   3.528   7.474 -0.1644  0.3703 -0.0952
 1589SOL    HW116226   2.285   3.564   7.389  2.3583  2.0642 -0.1537
 1589SOL    HW216227   2.222   3.513   7.504  0.4374 -0.0438  1.4920
 1590SOL     OW16228   1.579   2.704   0.005 -0.6512  0.0847  0.2677
 1590SOL    HW116229   1.601   2.693   0.097  0.7033 -0.6905 -0.1455
 1590SOL    HW216230   1.558   2.797   0.006  1.1201  0.4430  3.1627
 1591SOL     OW16231   0.209   3.019  12.801 -0.6260  0.5267  0.2897
 1591SOL    HW116232   0.196   2.925  12.816 -0.1300  0.2193 -1.1680
 1591SOL    HW216233   0.288   3.007  12.748 -1.6970 -1.0046 -0.9689
 1592SOL     OW16234   2.192   1.623   4.037  0.2148  0.3344 -0.2014
 1592SOL    HW116235   2.115   1.677   4.054  0.7219  0.3315  2.1095
 1592SOL    HW216236   2.179   1.606   3.944  1.5033 -2.3688  0.1158
 1593SOL     OW16237   4.116   2.184  14.390 -0.5646 -0.4891  0.1555
 1593SOL    HW116238   4.204   2.220  14.380 -0.4266 -0.3361  1.9274
 1593SOL    HW216239   4.071   2.267  14.378 -0.2418 -0.6536 -2.3003
 1594SOL     OW16240   2.656   3.396  12.729  0.2629 -0.2158  0.4560
 1594SOL    HW116241   2.736   3.374  12.775 -0.0726  2.0822  2.1087
 1594SOL    HW216242   2.595   3.406  12.802  0.0854  1.5324  0.0571
 1595SOL     OW16243   2.607   0.512   2.984  0.3372  0.2407 -0.2222
 1595SOL    HW116244   2.682   0.473   3.029  3.0788  4.2567 -1.3191
 1595SOL    HW216245   2.612   0.456   2.907  0.9889  1.9752 -1.4252
 1596SOL     OW16246   4.038   0.210   1.996  0.2707  0.0417 -0.0442
 1596SOL    HW116247   3.960   0.246   1.954  0.3604 -0.9113 -1.0130
 1596SOL    HW216248   4.111   0.231   1.938  0.2034 -0.0280 -0.1519
 1597SOL     OW16249   2.084   3.829  16.761  0.5230  0.7810 -0.1954
 1597SOL    HW116250   2.154   3.835  16.827 -0.4090  3.3940  0.5528
 1597SOL    HW216251   2.027   3.897  16.795  0.9398 -0.8010  3.6271
 1598SOL     OW16252   2.606   1.535   0.220  0.1703  0.5944 -0.5070
 1598SOL    HW116253   2.638   1.599   0.283  2.2103  0.6501 -1.5703
 1598SOL    HW216254   2.553   1.590   0.163 -0.4033  1.3939  0.8091
 1599SOL     OW16255   1.616   3.743   7.958 -0.7276  0.5051 -0.4676
 1599SOL    HW116256   1.659   3.762   7.875 -0.7949 -1.1221 -0.8751
 1599SOL    HW216257   1.646   3.819   8.008 -2.1029  0.5898  0.2349
 1600SOL     OW16258   1.217   4.336   8.416 -0.1123 -0.5245 -0.0606
 1600SOL    HW116259   1.223   4.369   8.506 -1.2972  0.7362 -0.4481
 1600SOL    HW216260   1.140   4.385   8.388 -0.1983  0.0005  1.0994
 1601SOL     OW16261   4.348   2.055   3.207 -0.0509  0.6235  0.3215
 1601SOL    HW116262   4.263   2.052   3.252  0.6868 -0.2341  1.6702
 1601SOL    HW216263   4.372   2.144   3.231  0.4607  1.1145 -1.9964
 1602SOL     OW16264   0.862   1.321   2.991 -0.1192 -0.1818  0.5616
 1602SOL    HW116265   0.878   1.236   3.032 -1.9849 -0.8664 -0.1456
 1602SOL    HW216266   0.790   1.303   2.931  1.0464  0.3130 -0.9838
 1603SOL     OW16267   4.656   2.350   8.426  0.6159  0.1119  0.3762
 1603SOL    HW116268   4.563   2.334   8.441  0.4259  0.9425  0.0844
 1603SOL    HW216269   4.656   2.361   8.331 -3.3618 -1.5541  0.1855
 1604SOL     OW16270   1.208   4.207   4.556 -0.3893  0.3680 -0.0912
 1604SOL    HW116271   1.231   4.229   4.646  3.0479 -0.4187 -0.7806
 1604SOL    HW216272   1.130   4.151   4.564  0.1404 -0.4622 -0.7064
 1605SOL     OW16273   1.118   1.516  15.955 -0.2367  0.2156  0.6493
 1605SOL    HW116274   1.088   1.433  15.919  1.7662 -0.5879  0.8293
 1605SOL    HW216275   1.082   1.578  15.891  1.4486 -0.7420 -1.2162
 1606SOL     OW16276   2.445   2.861   1.830  0.2657  0.7866 -0.0237
 1606SOL    HW116277   2.495   2.781   1.815  0.8057  1.0117  0.5438
 1606SOL    HW216278   2.497   2.938   1.805  2.3250 -0.1739  1.2512
 1607SOL     OW16279   4.329   2.579   3.962  0.4449 -0.0247  0.0948
 1607SOL    HW116280   4.384   2.565   4.039  0.4967  0.5805  0.1679
 1607SOL    HW216281   4.372   2.521   3.899 -0.9011  1.2194 -1.9822
 1608SOL     OW16282   2.292   4.479   2.270 -0.2701  0.1759  0.0511
 1608SOL    HW116283   2.226   4.521   2.325 -1.2741 -2.1051  0.5867
 1608SOL    HW216284   2.327   4.413   2.329 -0.2372  0.9580  0.9004
 1609SOL     OW16285   3.012   1.472  10.283 -0.2246  0.4471  0.3661
 1609SOL    HW116286   2.919   1.462  10.300  0.0592 -1.2852  0.8285
 1609SOL    HW216287   3.035   1.427  10.201 -0.1102  0.8070  0.1972
 1610SOL     OW16288   1.908   2.934   7.785 -0.0014  0.2505 -0.3620
 1610SOL    HW116289   1.939   2.903   7.700  0.3447 -1.3387  0.3291
 1610SOL    HW216290   1.817   2.961   7.769 -0.5192 -0.0055  2.1683
 1611SOL     OW16291   3.781   4.081   5.301  0.3207  0.1082 -0.0013
 1611SOL    HW116292   3.786   4.013   5.234 -2.9340  1.4132 -1.5370
 1611SOL    HW216293   3.793   4.158   5.245 -1.3097  0.1860 -0.2384
 1612SOL     OW16294   2.775   2.191   9.708  0.0151 -0.1819  0.1557
 1612SOL    HW116295   2.684   2.170   9.686  0.0008  1.4198 -1.3565
 1612SOL    HW216296   2.823   2.122   9.661 -1.5474  0.1867 -1.9961
 1613SOL     OW16297   1.435   4.532  10.781 -0.2649 -0.0266  0.0810
 1613SOL    HW116298   1.525   4.546  10.811  0.4978 -1.1848 -1.6550
 1613SOL    HW216299   1.450   4.489  10.697  2.3206 -1.0334  1.0234
 1614SOL     OW16300   4.702   0.858  10.848 -0.5887 -0.8940  0.3236
 1614SOL    HW116301   4.669   0.926  10.907 -0.1363 -0.5277  0.1546
 1614SOL    HW216302   4.643   0.791  10.884 -0.8091 -0.9368 -0.1233
 1615SOL     OW16303   0.948   0.512   7.484 -0.5196  0.0038 -0.8348
 1615SOL    HW116304   0.974   0.477   7.398 -1.0685  2.7685 -2.1156
 1615SOL    HW216305   0.860   0.476   7.491 -1.1123  1.4904 -0.7410
 1616SOL     OW16306   2.676   0.414  12.577  0.6098  0.3122 -0.0413
 1616SOL    HW116307   2.619   0.378  12.645 -1.4827  1.5295 -1.1537
 1616SOL    HW216308   2.690   0.506  12.602  0.0728  1.2146 -2.9817
 1617SOL     OW16309   1.439   3.546   3.745  0.3564 -0.1166  0.0260
 1617SOL    HW116310   1.531   3.542   3.717  0.9730 -0.3406  2.0871
 1617SOL    HW216311   1.408   3.471   3.695 -3.0467  1.3608 -0.0377
 1618SOL     OW16312   0.060   2.316   7.599 -0.2471 -0.2271  1.2709
 1618SOL    HW116313   0.002   2.275   7.535 -0.4189  0.0831  1.2260
 1618SOL    HW216314   0.103   2.245   7.647 -0.2337 -1.8356 -1.1143
 1619SOL     OW16315   1.700   2.131   9.063 -0.0103 -0.2386  0.0421
 1619SOL    HW116316   1.610   2.106   9.042 -0.0428  0.5386 -0.7557
 1619SOL    HW216317   1.693   2.226   9.063  1.3943 -0.1257  0.7755
 1620SOL     OW16318   0.966   3.467   8.738 -0.2564  0.8235 -0.4028
 1620SOL    HW116319   0.940   3.502   8.653 -1.0371 -2.6758 -1.5787
 1620SOL    HW216320   1.058   3.493   8.740  0.2222 -0.7191 -3.2025
 1621SOL     OW16321   2.973   1.566  14.013 -0.7523  0.1552 -0.8235
 1621SOL    HW116322   2.956   1.575  14.107  1.6116 -1.3777 -0.2550
 1621SOL    HW216323   2.950   1.477  13.986  2.1215 -1.4622  1.9811
 1622SOL     OW16324   0.819   3.527   1.896 -1.0667  0.8344 -0.4351
 1622SOL    HW116325   0.785   3.500   1.981 -0.1735  0.5643 -0.1616
 1622SOL    HW216326   0.896   3.575   1.924  0.4246 -2.0362  0.4324
 1623SOL     OW16327   0.453   3.305   3.228  0.0722 -0.3728 -0.3588
 1623SOL    HW116328   0.365   3.341   3.239 -0.1611 -0.8815 -0.5621
 1623SOL    HW216329   0.479   3.304   3.320  2.3760  2.5606 -1.0057
 1624SOL     OW16330   2.813   1.724  15.161  0.8362  0.0971  0.4378
 1624SOL    HW116331   2.806   1.674  15.079 -0.5553  0.7336  0.1657
 1624SOL    HW216332   2.780   1.660  15.223  2.1470 -0.8480  0.1547
 1625SOL     OW16333   2.558   3.340   2.620 -0.3121  0.0950  0.2609
 1625SOL    HW116334   2.466   3.325   2.640 -0.5310  0.0944 -0.7408
 1625SOL    HW216335   2.563   3.434   2.603 -0.9897  0.7295  3.6016
 1626SOL     OW16336   0.939   1.187   4.049  0.8076  0.3087  0.0157
 1626SOL    HW116337   0.906   1.219   3.966  0.0184 -1.0375 -0.1885
 1626SOL    HW216338   1.001   1.121   4.016  0.0815  0.2683 -1.2541
 1627SOL     OW16339   3.675   3.090   9.683  0.1912  0.4683 -0.1506
 1627SOL    HW116340   3.722   3.173   9.698 -0.2004  0.4799  1.0277
 1627SOL    HW216341   3.744   3.033   9.647 -0.0835  0.2289 -0.2935
 1628SOL     OW16342   3.710   1.423   8.932  0.1190  0.3281  0.6314
 1628SOL    HW116343   3.650   1.358   8.896  0.5372  1.0513 -1.3222
 1628SOL    HW216344   3.695   1.394   9.022 -0.8141 -0.2536  0.2864
 1629SOL     OW16345   2.511   2.708  13.945  0.4659 -0.0108 -0.6061
 1629SOL    HW116346   2.520   2.620  13.907  1.6445 -0.4777  0.7426
 1629SOL    HW216347   2.419   2.696  13.968  0.3486  0.6816 -0.7233
 1630SOL     OW16348   2.883   2.930  14.019 -0.8290 -0.1961  0.1246
 1630SOL    HW116349   2.930   2.847  14.029  0.7985  0.4831 -1.9329
 1630SOL    HW216350   2.949   2.993  14.047 -2.0351  1.4327 -0.7522
 1631SOL     OW16351   0.577   2.401   7.526  0.0211 -0.5223 -0.6676
 1631SOL    HW116352   0.482   2.389   7.525  0.0277 -0.6838  1.0214
 1631SOL    HW216353   0.604   2.351   7.449 -2.6907  0.0486 -2.0197
 1632SOL     OW16354   0.391   1.669   4.377  0.2733  0.0495 -0.6381
 1632SOL    HW116355   0.419   1.739   4.318  1.9225  0.3299  0.4677
 1632SOL    HW216356   0.298   1.668   4.353 -0.1490 -1.1630  1.0874
 1633SOL     OW16357   3.315   1.538   7.334 -0.1357 -0.3418 -0.8655
 1633SOL    HW116358   3.354   1.615   7.375 -2.8026  0.3773  0.3034
 1633SOL    HW216359   3.389   1.481   7.357  0.3580 -0.1920 -2.0946
 1634SOL     OW16360   1.368   1.208   2.696  0.2456 -0.3641  0.1172
 1634SOL    HW116361   1.414   1.247   2.771  2.3502  0.5376 -1.6472
 1634SOL    HW216362   1.435   1.231   2.632 -0.7668  0.9424 -0.4806
 1635SOL     OW16363   2.649   4.710   7.904  0.3850 -0.2687  0.7531
 1635SOL    HW116364   2.672   4.621   7.879  0.5723 -0.1794  0.6103
 1635SOL    HW216365   2.553   4.709   7.907  0.4086  2.1643  2.3203
 1636SOL     OW16366   3.769   3.730   0.324 -0.2931  0.4831  0.2051
 1636SOL    HW116367   3.758   3.818   0.361  1.2504  1.0453 -0.6772
 1636SOL    HW216368   3.744   3.677   0.400  2.8993 -0.9278  0.2597
 1637SOL     OW16369   0.350   2.979  14.818 -0.2271 -0.3093  0.0143
 1637SOL    HW116370   0.386   3.062  14.787 -2.2434  0.8327  0.7772
 1637SOL    HW216371   0.277   2.968  14.757  0.5267 -2.7891 -0.4764
 1638SOL     OW16372   2.574   3.709   5.886  0.3855 -0.1311 -0.8477
 1638SOL    HW116373   2.634   3.637   5.902 -1.9107 -2.1513 -1.4222
 1638SOL    HW216374   2.577   3.747   5.974  2.1139 -3.1679  0.4060
 1639SOL     OW16375   1.416   0.916  17.229  0.7728 -0.5777 -0.2094
 1639SOL    HW116376   1.403   0.822  17.239  0.2501 -0.4642  0.1513
 1639SOL    HW216377   1.479   0.938  17.298  1.1316 -2.3327  0.0181
 1640SOL     OW16378   1.176   3.725   9.259  0.2195  0.2472  0.6055
 1640SOL    HW116379   1.229   3.805   9.265 -0.5565  0.8786 -0.8879
 1640SOL    HW216380   1.119   3.740   9.335  1.1680 -0.5047  1.4726
 1641SOL     OW16381   1.657   3.240   5.648  0.1761  0.6537  0.7084
 1641SOL    HW116382   1.624   3.173   5.588  0.5353 -0.9873  2.3503
 1641SOL    HW216383   1.716   3.287   5.589 -0.7833 -0.0235 -0.7843
 1642SOL     OW16384   3.451   4.427   2.813  0.0554  0.0126 -0.9275
 1642SOL    HW116385   3.533   4.435   2.764  0.4760  0.2241 -0.1935
 1642SOL    HW216386   3.406   4.376   2.746 -0.7193 -1.9864  1.0910
 1643SOL     OW16387   4.006   1.278   6.102  0.2858  0.1747 -0.3243
 1643SOL    HW116388   3.946   1.273   6.027  0.3529 -1.7361 -0.2689
 1643SOL    HW216389   4.012   1.372   6.117  3.3115  0.2525 -1.9973
 1644SOL     OW16390   1.061   4.409   5.974 -0.3750  0.0483 -0.5296
 1644SOL    HW116391   1.135   4.470   5.980 -0.9578  0.6745  0.3091
 1644SOL    HW216392   1.056   4.379   6.064 -0.5705 -3.5374 -1.7321
 1645SOL     OW16393   4.530   0.530   5.778  0.2949 -0.2552  0.2218
 1645SOL    HW116394   4.551   0.553   5.687 -0.9336 -2.1445 -0.5253
 1645SOL    HW216395   4.436   0.515   5.770 -0.1218  1.0974  2.4580
 1646SOL     OW16396   4.284   3.972   5.444 -0.4270  0.1444 -0.5322
 1646SOL    HW116397   4.215   3.910   5.468 -0.4420  0.4267  0.1547
 1646SOL    HW216398   4.357   3.914   5.425 -1.3037 -1.0989 -0.1095
 1647SOL     OW16399   0.619   1.659   5.845 -0.1291  0.3030 -0.2431
 1647SOL    HW116400   0.570   1.579   5.865 -1.6069  1.1475 -0.5481
 1647SOL    HW216401   0.580   1.716   5.910  0.6122 -0.5910  0.9806
 1648SOL     OW16402   0.318   4.070   5.054 -0.0646 -0.7678 -0.7507
 1648SOL    HW116403   0.370   3.989   5.061 -1.5486 -1.8250 -1.9732
 1648SOL    HW216404   0.288   4.067   4.963 -1.5581 -0.4135 -0.2702
 1649SOL     OW16405   0.527   0.069   8.093 -0.3883 -0.0899  0.2199
 1649SOL    HW116406   0.552   0.160   8.110  1.4801 -0.6017  0.2478
 1649SOL    HW216407   0.548   0.014   8.168  3.9353  0.5126 -0.5525
 1650SOL     OW16408   0.737   4.184   3.386 -0.1340 -0.7812 -0.0148
 1650SOL    HW116409   0.795   4.108   3.383 -0.6041 -1.1239 -0.4629
 1650SOL    HW216410   0.796   4.239   3.437 -0.1816 -0.4417 -0.3299
 1651SOL     OW16411   2.963   3.371   0.577  0.3860  0.2297 -0.4040
 1651SOL    HW116412   2.976   3.340   0.667 -1.3598  0.8349  0.0510
 1651SOL    HW216413   3.005   3.304   0.523 -0.8913 -1.2858  0.4871
 1652SOL     OW16414   0.909   2.397   2.751  0.4133 -0.0656 -0.0887
 1652SOL    HW116415   0.815   2.410   2.737  0.4824  0.4998 -0.0142
 1652SOL    HW216416   0.923   2.327   2.687 -0.5352 -1.2448  0.9816
 1653SOL     OW16417   2.857   0.249   5.383 -0.3300  1.4233  0.1665
 1653SOL    HW116418   2.852   0.335   5.425 -0.9977  1.2140  0.5206
 1653SOL    HW216419   2.884   0.265   5.293 -0.9656  0.1571 -0.2549
 1654SOL     OW16420   4.375   3.223  17.436  0.2577  0.3856 -0.7922
 1654SOL    HW116421   4.289   3.254  17.463  0.4938  1.1671 -0.9622
 1654SOL    HW216422   4.426   3.289  17.481 -0.6451 -1.1060  2.4216
 1655SOL     OW16423   2.234   0.697   6.777 -0.1429  0.0098 -0.0629
 1655SOL    HW116424   2.173   0.703   6.851  1.6575  3.1097  1.1833
 1655SOL    HW216425   2.294   0.632   6.814  2.6475  1.1298 -2.6800
 1656SOL     OW16426   0.280   3.710  16.919  0.6238  0.3308  0.5145
 1656SOL    HW116427   0.335   3.706  16.841 -1.9204 -0.1222 -1.2617
 1656SOL    HW216428   0.314   3.636  16.970 -1.8621 -1.3749 -0.2722
 1657SOL     OW16429   2.542   3.536   5.631  0.0715  0.1608  0.2054
 1657SOL    HW116430   2.613   3.601   5.622  0.2093 -0.3800 -2.5157
 1657SOL    HW216431   2.477   3.598   5.599 -1.3263 -1.3984  0.0558
 1658SOL     OW16432   4.501   4.482   7.898  0.5386  1.0223  0.2118
 1658SOL    HW116433   4.536   4.443   7.978 -1.0547 -1.5223 -0.3376
 1658SOL    HW216434   4.406   4.479   7.907  0.5457 -2.3337 -0.8506
 1659SOL     OW16435   0.256   4.563   2.663  0.1761 -0.2314 -0.4503
 1659SOL    HW116436   0.201   4.486   2.645 -2.9247  2.4402 -2.3103
 1659SOL    HW216437   0.310   4.557   2.585 -1.8144 -1.5224 -1.7523
 1660SOL     OW16438   1.084   0.064   6.221  0.2466 -0.1457  0.0264
 1660SOL    HW116439   1.161   0.046   6.167  0.8658 -0.7831  1.1056
 1660SOL    HW216440   1.115   0.042   6.309 -0.8675 -0.6887  0.2878
 1661SOL     OW16441   1.586   1.619   0.287 -0.1486  0.1560  0.3429
 1661SOL    HW116442   1.619   1.584   0.205 -0.7110 -1.0310  0.6338
 1661SOL    HW216443   1.663   1.602   0.340  0.7328 -0.6937 -1.2428
 1662SOL     OW16444   1.499   2.226   2.253 -0.0998  0.1103  0.1878
 1662SOL    HW116445   1.466   2.225   2.343 -0.5333 -0.4740  0.0141
 1662SOL    HW216446   1.489   2.134   2.231  0.4380  0.1248 -0.1114
 1663SOL     OW16447   1.350   3.360   2.968  0.0460  0.3857 -0.0909
 1663SOL    HW116448   1.438   3.379   3.000  1.1294 -0.9249 -2.3166
 1663SOL    HW216449   1.374   3.282   2.918  0.4193  0.1151  0.5086
 1664SOL     OW16450   2.217   1.825  11.980  0.1662 -0.1142  0.1873
 1664SOL    HW116451   2.156   1.784  12.041  0.5497 -0.6186  0.2343
 1664SOL    HW216452   2.256   1.896  12.031 -0.4359 -0.5614  1.2786
 1665SOL     OW16453   3.293   2.279   7.328  0.6462 -0.5088 -0.2945
 1665SOL    HW116454   3.305   2.314   7.240  0.3798  3.4722  1.2787
 1665SOL    HW216455   3.215   2.223   7.329  1.4334 -1.5644  1.7441
 1666SOL     OW16456   0.196   0.468   0.551 -0.1129 -0.1401  0.5241
 1666SOL    HW116457   0.155   0.384   0.573  2.3560 -1.9599 -1.7774
 1666SOL    HW216458   0.267   0.426   0.503  1.7044  0.7765  2.4324
 1667SOL     OW16459   1.972   2.844   2.079  0.2199 -0.1487  0.1692
 1667SOL    HW116460   2.045   2.822   2.020 -1.0585 -0.4190 -1.2934
 1667SOL    HW216461   1.954   2.935   2.057 -0.8696 -0.3303  0.3275
 1668SOL     OW16462   4.037   3.143   4.004  0.0365 -0.3660 -0.0999
 1668SOL    HW116463   4.122   3.188   4.004  0.0986 -0.4852  1.2275
 1668SOL    HW216464   4.058   3.070   4.063  2.4679  1.6592  1.5408
 1669SOL     OW16465   1.721   1.070   1.479 -0.3434 -0.2661  0.4627
 1669SOL    HW116466   1.770   1.128   1.421  0.9609 -2.1932 -0.3440
 1669SOL    HW216467   1.722   0.983   1.441  1.8478  0.5293 -1.2745
 1670SOL     OW16468   1.351   0.278   8.004  0.4532 -0.2766 -0.3772
 1670SOL    HW116469   1.370   0.273   7.910  1.3776  0.4816 -0.2339
 1670SOL    HW216470   1.429   0.315   8.045 -0.1192 -0.4900  0.8947
 1671SOL     OW16471   1.587   1.371   8.247 -0.3103 -0.0867  0.3980
 1671SOL    HW116472   1.642   1.384   8.324  2.5913 -0.1575 -1.6887
 1671SOL    HW216473   1.583   1.463   8.220  1.3923 -0.3770 -0.8614
 1672SOL     OW16474   1.732   1.434   3.610  0.4333  0.1893 -0.6060
 1672SOL    HW116475   1.709   1.368   3.676  0.7245  0.9303  0.2458
 1672SOL    HW216476   1.645   1.449   3.573  0.3069  0.0153 -0.3747
 1673SOL     OW16477   3.090   1.582   9.513  0.5670  0.1380  0.1365
 1673SOL    HW116478   3.125   1.665   9.545  0.1132  0.8608 -1.2661
 1673SOL    HW216479   3.005   1.573   9.556  0.9070  0.3502  0.8470
 1674SOL     OW16480   3.236   2.450   6.838  0.0839  0.2654  0.2193
 1674SOL    HW116481   3.184   2.501   6.776  0.0578 -1.0390 -0.8337
 1674SOL    HW216482   3.241   2.365   6.796  2.5406  1.5267 -2.0090
 1675SOL     OW16483   0.067   0.217   4.758 -0.1778 -0.1044 -0.0642
 1675SOL    HW116484   0.095   0.142   4.706 -2.6080 -2.0296  1.3968
 1675SOL    HW216485   4.713   0.244   4.705 -0.1700 -0.4082 -0.2296
 1676SOL     OW16486   3.740   2.685   5.605  0.3857 -0.8837  0.1726
 1676SOL    HW116487   3.676   2.617   5.627 -0.0326 -0.1966  1.0904
 1676SOL    HW216488   3.804   2.679   5.677  0.2433 -0.0511  0.3770
 1677SOL     OW16489   4.513   0.552   5.462 -0.0374  0.3820  0.3367
 1677SOL    HW116490   4.464   0.581   5.385  1.1971 -1.0503 -0.9780
 1677SOL    HW216491   4.463   0.473   5.485  0.5750 -0.0280  0.2502
 1678SOL     OW16492   2.968   0.874   7.012  0.1535 -0.3605 -0.6952
 1678SOL    HW116493   2.952   0.849   7.103 -0.4935  0.7019 -0.5200
 1678SOL    HW216494   2.876   0.901   7.009  0.5369  0.8224 -1.8350
 1679SOL     OW16495   3.536   2.794  15.432 -0.0189 -0.0249  0.3596
 1679SOL    HW116496   3.617   2.829  15.395  0.5729 -2.6200 -0.7873
 1679SOL    HW216497   3.560   2.754  15.516 -0.7768 -0.9500  0.1382
 1680SOL     OW16498   3.041   0.173   1.521 -0.5026 -0.2413  0.2155
 1680SOL    HW116499   3.056   0.233   1.448  0.6252  1.4494  1.8678
 1680SOL    HW216500   3.076   0.215   1.599  1.2855 -0.4452 -0.4861
 1681SOL     OW16501   4.576   2.678   4.812  0.3779 -0.0635  0.2216
 1681SOL    HW116502   4.582   2.589   4.847 -0.0241 -0.4930 -0.7943
 1681SOL    HW216503   4.499   2.709   4.860  0.2237 -0.7541  0.4233
 1682SOL     OW16504   4.553   0.965  14.791 -0.0019  0.4033 -0.2140
 1682SOL    HW116505   4.605   0.973  14.871 -1.2261  2.0948  0.4134
 1682SOL    HW216506   4.568   1.057  14.768 -0.9565 -0.0576 -2.6264
 1683SOL     OW16507   0.941   1.015   8.194  0.2885  0.5812 -0.8626
 1683SOL    HW116508   0.976   1.103   8.207 -1.0968  1.0708 -0.4144
 1683SOL    HW216509   0.870   1.010   8.258  0.4927 -0.4739 -0.7174
 1684SOL     OW16510   3.549   0.835   5.201  0.0570 -0.1919 -0.2279
 1684SOL    HW116511   3.597   0.894   5.144 -0.1473  0.6655  0.4952
 1684SOL    HW216512   3.616   0.766   5.202  0.3567  0.1120  1.8032
 1685SOL     OW16513   3.829   0.556  12.259 -0.1519  0.0215  0.0425
 1685SOL    HW116514   3.822   0.651  12.262  1.1107  0.0706  1.5507
 1685SOL    HW216515   3.907   0.541  12.206  0.5769  3.4893  0.1681
 1686SOL     OW16516   4.597   4.279  10.474  0.0628 -0.4475  0.5640
 1686SOL    HW116517   4.594   4.359  10.421 -1.0780 -0.1049  1.1394
 1686SOL    HW216518   4.525   4.304  10.532  0.0795 -3.1602  1.7342
 1687SOL     OW16519   2.781   2.814   7.994  0.0638 -0.7130  0.8419
 1687SOL    HW116520   2.776   2.909   7.981  0.2287 -0.6857  0.9728
 1687SOL    HW216521   2.706   2.779   7.946 -0.1387 -0.1016  0.7090
 1688SOL     OW16522   0.837   0.604   4.315  0.1551 -0.5878  0.3555
 1688SOL    HW116523   0.797   0.529   4.270  0.0029 -1.0757  1.3237
 1688SOL    HW216524   0.763   0.664   4.328  1.1235  0.0135  2.9179
 1689SOL     OW16525   1.433   2.460   2.433  0.5964 -0.3812  0.1916
 1689SOL    HW116526   1.355   2.451   2.378  1.0117 -0.4064 -0.3976
 1689SOL    HW216527   1.439   2.552   2.458 -2.0894 -0.5385  1.4200
 1690SOL     OW16528   3.238   0.876   7.412 -0.2726  0.5205  0.0576
 1690SOL    HW116529   3.278   0.865   7.326 -2.1146 -0.1761 -0.7108
 1690SOL    HW216530   3.303   0.835   7.471  0.3114  1.8518  0.3314
 1691SOL     OW16531   3.413   3.651   2.248 -0.1267  0.3641 -0.6278
 1691SOL    HW116532   3.438   3.681   2.161 -0.0088  0.2394 -0.6350
 1691SOL    HW216533   3.351   3.721   2.271  1.4003  1.9177 -1.2030
 1692SOL     OW16534   4.040   1.070   9.569  0.3411 -0.4062  0.0340
 1692SOL    HW116535   4.055   1.114   9.485 -1.1247 -0.9620 -0.5091
 1692SOL    HW216536   4.046   0.981   9.535 -2.4144 -0.2602 -0.8092
 1693SOL     OW16537   3.851   1.600   7.854  0.6170  0.0425 -0.4625
 1693SOL    HW116538   3.913   1.527   7.855 -0.2521 -0.7166 -1.4795
 1693SOL    HW216539   3.895   1.671   7.807  1.9737 -0.0851  0.6081
 1694SOL     OW16540   1.858   4.150  17.487  0.3268 -0.0194 -0.0308
 1694SOL    HW116541   1.861   4.060  17.453 -0.8890 -0.8638  2.1010
 1694SOL    HW216542   1.918   4.191  17.424 -0.9338  0.1416 -1.1137
 1695SOL     OW16543   1.928   4.406  10.875  0.2781 -0.2503  0.1196
 1695SOL    HW116544   2.021   4.422  10.889  0.2473 -0.9471  1.1395
 1695SOL    HW216545   1.933   4.320  10.916 -0.9157  0.4212  1.6732
 1696SOL     OW16546   1.271   1.689   8.934  0.3575 -0.2881  0.4254
 1696SOL    HW116547   1.177   1.687   8.954  0.7848 -0.3920  2.4397
 1696SOL    HW216548   1.281   1.595   8.920 -0.6926 -0.2615 -0.4827
 1697SOL     OW16549   1.434   0.407   5.331 -0.2720 -0.0295  0.2989
 1697SOL    HW116550   1.474   0.321   5.343  0.8792  0.7410  1.8233
 1697SOL    HW216551   1.506   0.467   5.313 -2.4004  2.9727  1.8199
 1698SOL     OW16552   4.176   0.234   1.543  0.5901  0.1854 -0.5386
 1698SOL    HW116553   4.086   0.205   1.556  1.4840 -2.1290  0.4180
 1698SOL    HW216554   4.207   0.179   1.472  2.0402  0.8524 -0.4105
 1699SOL     OW16555   0.994   2.482   6.934 -0.0607  0.0640 -0.3286
 1699SOL    HW116556   0.948   2.562   6.960 -1.8124 -0.9211 -0.4507
 1699SOL    HW216557   1.044   2.515   6.859  2.8087 -2.2919  0.5235
 1700SOL     OW16558   1.764   2.371   2.515  0.6125  0.4291 -0.2020
 1700SOL    HW116559   1.812   2.376   2.597 -0.9005  2.8121  0.5370
 1700SOL    HW216560   1.685   2.332   2.553 -0.1585  1.4506 -0.7514
 1701SOL     OW16561   0.546   3.954  16.889  0.2986  0.1161  0.0423
 1701SOL    HW116562   0.525   4.039  16.930  0.6183 -0.0340  0.5160
 1701SOL    HW216563   0.617   3.933  16.949  0.4331  0.0874 -0.1281
 1702SOL     OW16564   3.015   1.563   8.275 -0.0734  0.1682 -0.0027
 1702SOL    HW116565   3.032   1.642   8.326  2.1896  0.2471 -0.8884
 1702SOL    HW216566   3.100   1.546   8.233  1.0879  0.9615  2.0244
 1703SOL     OW16567   2.831   1.704  17.398 -0.6584 -0.2054  0.3596
 1703SOL    HW116568   2.773   1.668  17.465 -3.3696  2.4807 -0.5061
 1703SOL    HW216569   2.909   1.652  17.419 -1.5861 -0.8782  2.1695
 1704SOL     OW16570   0.995   2.080  11.651  0.0849 -0.6442  0.1858
 1704SOL    HW116571   1.006   2.067  11.557 -0.8085  0.5394 -0.0848
 1704SOL    HW216572   1.001   1.988  11.677  0.4246 -0.8166 -0.5043
 1705SOL     OW16573   1.483   1.463   1.988 -0.1890 -0.5327  0.0479
 1705SOL    HW116574   1.447   1.386   2.032 -0.1781  0.1730  1.2964
 1705SOL    HW216575   1.519   1.510   2.063 -0.2876 -1.9026  0.9624
 1706SOL     OW16576   3.638   3.591   5.438 -0.4098 -0.1327 -0.2605
 1706SOL    HW116577   3.680   3.507   5.417  1.4156  0.2645  1.7273
 1706SOL    HW216578   3.580   3.606   5.363  0.7698 -3.3467 -1.8071
 1707SOL     OW16579   2.083   0.740   4.622 -0.0831 -0.3794 -0.3843
 1707SOL    HW116580   2.140   0.687   4.678  1.0771  1.4297  0.1530
 1707SOL    HW216581   2.103   0.824   4.664  2.4256 -0.9808 -0.3839
 1708SOL     OW16582   4.297   1.745   6.294  0.1046 -0.5690  0.0056
 1708SOL    HW116583   4.383   1.785   6.306  0.1879 -0.5272 -0.6857
 1708SOL    HW216584   4.274   1.768   6.384  0.6374  1.2469 -0.3278
 1709SOL     OW16585   1.912   3.729  10.618 -0.0443  0.1734  0.0971
 1709SOL    HW116586   1.818   3.742  10.604 -0.2953  1.1685  2.5630
 1709SOL    HW216587   1.919   3.696  10.708 -2.3120 -1.5415 -0.3534
 1710SOL     OW16588   2.939   2.851  15.171  0.2316 -0.3849 -0.4695
 1710SOL    HW116589   2.889   2.929  15.147  1.0574 -0.7256 -3.3763
 1710SOL    HW216590   2.995   2.886  15.240 -1.6813 -0.3413  1.0487
 1711SOL     OW16591   1.151   2.303   9.114 -0.6356  0.2696  0.0985
 1711SOL    HW116592   1.083   2.270   9.172 -0.5220  2.0436  1.2347
 1711SOL    HW216593   1.175   2.217   9.079 -0.1737  0.7473 -0.7437
 1712SOL     OW16594   3.709   2.505  17.147 -0.1167 -0.1724 -0.4349
 1712SOL    HW116595   3.705   2.557  17.067 -1.5450 -0.0780 -0.3009
 1712SOL    HW216596   3.680   2.420  17.113 -1.2036 -0.2614  0.6817
 1713SOL     OW16597   2.277   0.928  16.188  0.5327 -0.0609 -0.4293
 1713SOL    HW116598   2.362   0.907  16.227  0.0737  1.6097  1.4487
 1713SOL    HW216599   2.272   1.024  16.189 -0.3851 -0.1053 -1.0621
 1714SOL     OW16600   2.316   2.978  16.164 -0.2586 -0.6317  0.0682
 1714SOL    HW116601   2.285   2.898  16.122 -1.1409  1.0093 -2.3713
 1714SOL    HW216602   2.232   3.024  16.156  0.3574  0.6035  0.6183
 1715SOL     OW16603   0.386   3.896  17.432 -0.6657  0.0843  0.2177
 1715SOL    HW116604   0.366   3.903  17.525  1.0227  1.2710  0.4964
 1715SOL    HW216605   0.344   3.973  17.394 -2.2913 -0.6470  0.5747
 1716SOL     OW16606   1.979   1.504   3.501  0.0190  0.0815  0.5837
 1716SOL    HW116607   1.987   1.599   3.489  0.3791 -0.3185 -2.3216
 1716SOL    HW216608   1.893   1.492   3.542  0.1151 -1.0851  0.4504
 1717SOL     OW16609   3.573   3.357   0.956 -0.2323 -0.7476 -0.8157
 1717SOL    HW116610   3.602   3.283   0.904  0.7246 -3.0884  3.0592
 1717SOL    HW216611   3.597   3.345   1.048 -0.1625  2.6733 -0.3714
 1718SOL     OW16612   3.059   2.792   8.027  0.5798  0.1573 -0.4367
 1718SOL    HW116613   3.083   2.858   8.092  2.7184 -1.3113  0.2725
 1718SOL    HW216614   2.964   2.790   8.040  0.5687  2.3783 -0.1452
 1719SOL     OW16615   1.931   2.525   5.787  0.0053 -0.7480  0.2466
 1719SOL    HW116616   1.957   2.486   5.871  0.3459 -1.0977 -0.0198
 1719SOL    HW216617   1.915   2.614   5.819  2.0271  0.0120 -0.8195
 1720SOL     OW16618   0.200   4.574   6.938 -0.0597  0.0826 -0.1758
 1720SOL    HW116619   0.140   4.646   6.958 -0.9518 -0.3843 -1.1765
 1720SOL    HW216620   0.210   4.532   7.024 -0.7789 -1.0118 -0.6287
 1721SOL     OW16621   0.166   2.490   1.750  0.0388 -0.4007  0.4183
 1721SOL    HW116622   0.100   2.451   1.807  0.0883 -1.0081  0.0559
 1721SOL    HW216623   0.246   2.440   1.763  1.1216  1.6848  1.7211
 1722SOL     OW16624   0.121   3.666   1.287  0.1851  0.8011 -0.0789
 1722SOL    HW116625   0.090   3.755   1.299  1.4111  1.2346 -0.1136
 1722SOL    HW216626   0.047   3.637   1.233 -1.3697  0.2183  2.3963
 1723SOL     OW16627   4.009   2.009   0.368  0.0803  0.1216  0.8298
 1723SOL    HW116628   4.081   1.951   0.393  1.2976  1.5108  0.5330
 1723SOL    HW216629   4.036   2.061   0.293  0.4059  0.5567  1.2444
 1724SOL     OW16630   0.249   2.607   4.222  0.1453  0.3069 -0.0284
 1724SOL    HW116631   0.297   2.660   4.157  0.3438  1.3680  0.9788
 1724SOL    HW216632   0.312   2.535   4.225  0.4551  0.5224 -1.3217
 1725SOL     OW16633   2.775   2.791   4.642 -0.6406 -0.0491  0.3489
 1725SOL    HW116634   2.846   2.813   4.702 -0.4975  1.3457 -0.3364
 1725SOL    HW216635   2.737   2.710   4.679  1.3704 -1.5722 -0.9603
 1726SOL     OW16636   1.015   4.510   8.328  0.0872  0.3512 -0.2952
 1726SOL    HW116637   1.023   4.604   8.343 -3.3621  0.4371  0.9853
 1726SOL    HW216638   0.930   4.513   8.284 -0.8396  2.9498  1.6357
 1727SOL     OW16639   4.366   4.291   2.624  0.1524 -0.5181  0.0006
 1727SOL    HW116640   4.448   4.325   2.661  0.0220 -0.7985  0.5467
 1727SOL    HW216641   4.395   4.200   2.626 -5.5025 -2.3536 -3.0103
 1728SOL     OW16642   0.837   0.059   6.311  0.1300  0.3047 -0.1399
 1728SOL    HW116643   0.859   4.690   6.338 -0.8564 -0.1351 -0.8012
 1728SOL    HW216644   0.912   0.088   6.258 -0.0175  3.5571  1.4155
 1729SOL     OW16645   3.276   4.677   6.386  0.2124  0.8066  0.2318
 1729SOL    HW116646   3.290   0.042   6.347  1.3969  0.9615  0.9945
 1729SOL    HW216647   3.331   4.681   6.464 -1.1123 -0.5239  1.2338
 1730SOL     OW16648   4.409   2.659   1.899 -0.1565  0.5614  0.2659
 1730SOL    HW116649   4.344   2.729   1.904  1.5280  2.1572 -0.2645
 1730SOL    HW216650   4.467   2.698   1.833 -2.5450  0.3822 -1.9843
 1731SOL     OW16651   4.315   4.391  13.669  0.0798  0.4067  0.1279
 1731SOL    HW116652   4.344   4.412  13.580  0.3852  1.0742  0.3899
 1731SOL    HW216653   4.401   4.390  13.711  0.6890 -0.8616 -1.1503
 1732SOL     OW16654   2.951   3.937   1.390 -0.2116  0.3829  0.0138
 1732SOL    HW116655   2.989   4.007   1.338  2.8458 -0.2321  1.4314
 1732SOL    HW216656   2.973   3.856   1.344 -0.4560  0.1888  0.2374
 1733SOL     OW16657   0.946   4.074   5.280 -0.5816 -0.6153  0.0254
 1733SOL    HW116658   0.918   4.150   5.230  2.8425  0.3689 -0.3334
 1733SOL    HW216659   0.921   4.088   5.371 -3.4430 -1.7089 -0.5861
 1734SOL     OW16660   2.241   3.483   6.439 -0.2712 -0.4644 -0.0997
 1734SOL    HW116661   2.195   3.400   6.456 -0.6413 -0.5781 -1.6585
 1734SOL    HW216662   2.224   3.525   6.523  1.1157 -1.2602  0.5698
 1735SOL     OW16663   4.077   1.526   6.061  0.7450  0.0010  0.4775
 1735SOL    HW116664   4.066   1.538   5.967  3.4788 -1.8113 -0.1050
 1735SOL    HW216665   4.159   1.574   6.075  1.3585 -0.0231 -2.9715
 1736SOL     OW16666   0.946   3.497   4.476  0.5306  0.2534  0.3262
 1736SOL    HW116667   0.854   3.470   4.467  0.7620 -0.3796 -0.1234
 1736SOL    HW216668   0.932   3.566   4.542 -0.2458  0.2533  0.1645
 1737SOL     OW16669   3.432   0.957   6.792  0.1960  0.3124 -0.4502
 1737SOL    HW116670   3.440   1.025   6.859 -0.6150 -1.0367  1.0377
 1737SOL    HW216671   3.517   0.912   6.799  0.3136  0.9510  2.1710
 1738SOL     OW16672   0.998   2.926   2.528  0.5179  0.2545  0.1386
 1738SOL    HW116673   0.970   2.928   2.437 -0.7043 -1.8396  0.4523
 1738SOL    HW216674   1.016   3.018   2.547  2.3056  0.5765 -3.2665
 1739SOL     OW16675   4.542   3.544   1.242 -0.3632 -0.1718 -0.4843
 1739SOL    HW116676   4.448   3.546   1.223 -0.3981 -0.3443 -0.3340
 1739SOL    HW216677   4.548   3.544   1.337  0.9568 -1.0440 -0.5677
 1740SOL     OW16678   3.924   3.754   1.164 -0.3016 -0.1301  0.5493
 1740SOL    HW116679   3.882   3.827   1.209 -0.1639  0.3073 -0.0211
 1740SOL    HW216680   3.858   3.687   1.182 -2.0443  1.1260 -1.0861
 1741SOL     OW16681   3.423   2.127   7.727 -0.0442  0.1576  0.2414
 1741SOL    HW116682   3.346   2.155   7.678  0.1094 -0.4246 -0.3353
 1741SOL    HW216683   3.394   2.147   7.817 -0.0344 -0.1536  0.3148
 1742SOL     OW16684   0.340   0.875   4.900  0.7039  0.1825  0.0004
 1742SOL    HW116685   0.304   0.963   4.905  0.0307 -0.0923  0.0409
 1742SOL    HW216686   0.327   0.845   4.990 -0.9590  0.6795 -0.0647
 1743SOL     OW16687   0.513   4.628   5.482  0.1046 -0.0412 -0.2296
 1743SOL    HW116688   0.471   4.662   5.561 -0.6017  0.5964 -0.8837
 1743SOL    HW216689   0.559   4.551   5.515  0.7899 -0.0004 -1.0813
 1744SOL     OW16690   2.089   3.605  15.635 -0.1042  0.1217  0.1829
 1744SOL    HW116691   2.168   3.563  15.602 -0.8292 -1.0356 -0.0801
 1744SOL    HW216692   2.064   3.535  15.696  0.9671 -0.9866 -0.6647
 1745SOL     OW16693   4.139   0.104   8.854  0.0472  0.2749  0.3093
 1745SOL    HW116694   4.050   0.137   8.849  0.1481  0.8366  2.1127
 1745SOL    HW216695   4.123   0.014   8.882 -0.5446  0.5095  0.7389
 1746SOL     OW16696   0.723   1.265   4.586 -0.1198  0.2795 -0.3108
 1746SOL    HW116697   0.752   1.289   4.498 -1.6206 -0.1886 -0.9472
 1746SOL    HW216698   0.693   1.175   4.574  0.7553 -0.2752  1.6892
 1747SOL     OW16699   3.198   1.495   7.084 -0.2284 -0.6170 -0.1286
 1747SOL    HW116700   3.255   1.504   7.008  0.6280  0.8118  0.7005
 1747SOL    HW216701   3.248   1.524   7.160  1.8264  1.4613 -2.2963
 1748SOL     OW16702   0.581   2.230   2.939  0.2883 -0.4236  0.0567
 1748SOL    HW116703   0.514   2.250   3.005  1.4074  1.3938  0.6405
 1748SOL    HW216704   0.662   2.253   2.984  1.4531  0.4484 -2.4866
 1749SOL     OW16705   0.585   3.368   6.272  0.1126 -0.6215 -0.3140
 1749SOL    HW116706   0.660   3.373   6.332 -1.7660  2.7077  1.7495
 1749SOL    HW216707   0.619   3.426   6.204  1.2962  0.0660  0.8831
 1750SOL     OW16708   1.576   1.219   1.640  1.1760 -0.1858 -0.9320
 1750SOL    HW116709   1.511   1.247   1.575  1.0794  2.0836  0.1424
 1750SOL    HW216710   1.607   1.143   1.592  3.5814 -0.7177  1.4623
 1751SOL     OW16711   1.721   2.270   2.123 -0.2072  0.6355  0.1096
 1751SOL    HW116712   1.647   2.277   2.183  0.2595 -0.0343  0.7618
 1751SOL    HW216713   1.682   2.276   2.036 -2.5280 -0.0778  1.1028
 1752SOL     OW16714   1.129   3.183   8.635  0.7805  0.2750  0.3838
 1752SOL    HW116715   1.138   3.182   8.540  0.6043 -0.7852  0.3705
 1752SOL    HW216716   1.199   3.122   8.657  0.9765 -0.1646 -1.4829
 1753SOL     OW16717   3.175   2.453  10.271 -0.1603  0.1903  0.3616
 1753SOL    HW116718   3.203   2.494  10.189 -0.9688 -0.0100 -0.0141
 1753SOL    HW216719   3.229   2.374  10.258 -0.3904  0.1416 -0.3270
 1754SOL     OW16720   3.271   0.599   9.203  0.3591  0.4147  0.1729
 1754SOL    HW116721   3.293   0.618   9.294 -0.6128 -0.8308  0.6735
 1754SOL    HW216722   3.178   0.624   9.211  0.4711  1.1235 -0.7153
 1755SOL     OW16723   1.207   3.322   0.335  0.4036  0.8473  0.2843
 1755SOL    HW116724   1.236   3.378   0.408  0.2243 -1.3014  2.0150
 1755SOL    HW216725   1.159   3.385   0.281 -0.5429  0.3564  0.5527
 1756SOL     OW16726   4.379   1.338   2.984 -0.0627  0.0411  0.6657
 1756SOL    HW116727   4.305   1.286   3.016 -0.7990 -0.5247 -1.9229
 1756SOL    HW216728   4.339   1.424   2.969  1.6144  0.8816  0.9053
 1757SOL     OW16729   2.345   3.725   3.695  0.2793  0.0449 -0.1084
 1757SOL    HW116730   2.327   3.632   3.679 -1.5308  0.4416 -0.3683
 1757SOL    HW216731   2.261   3.756   3.728 -1.1562  0.0606 -3.7498
 1758SOL     OW16732   0.149   3.412   2.754  0.3464 -0.0023 -0.3683
 1758SOL    HW116733   0.210   3.402   2.681  0.0166 -0.8934 -0.5277
 1758SOL    HW216734   0.074   3.352   2.750  0.1690  0.4363 -3.3022
 1759SOL     OW16735   2.833   1.530   1.558 -0.3510 -0.4219 -0.0114
 1759SOL    HW116736   2.855   1.438   1.543  1.0072 -0.0814 -0.0876
 1759SOL    HW216737   2.757   1.528   1.499  0.4414  0.5004 -1.0632
 1760SOL     OW16738   2.182   3.681   6.692 -0.0472 -0.0836 -0.2180
 1760SOL    HW116739   2.132   3.753   6.652 -0.7300 -0.5329 -0.1626
 1760SOL    HW216740   2.113   3.632   6.737 -0.2502  0.6659  0.2961
 1761SOL     OW16741   4.019   4.466   4.920  0.2686 -0.2596  0.1258
 1761SOL    HW116742   3.988   4.376   4.914 -0.3330 -0.2406  2.9895
 1761SOL    HW216743   4.109   4.461   4.888 -0.0006  0.2075 -0.7044
 1762SOL     OW16744   3.847   3.556   4.459  0.1487 -0.3014  0.6445
 1762SOL    HW116745   3.882   3.638   4.423  0.1470 -0.8209 -0.5346
 1762SOL    HW216746   3.868   3.571   4.551  4.4671  2.1563 -0.7314
 1763SOL     OW16747   1.255   3.386   8.046  0.2087  0.1243  0.1448
 1763SOL    HW116748   1.332   3.434   8.076 -0.2481  1.8986 -1.5548
 1763SOL    HW216749   1.211   3.347   8.122  1.1809 -0.5131  0.3925
 1764SOL     OW16750   0.921   1.513   2.190 -0.2287  0.4112 -0.3616
 1764SOL    HW116751   0.966   1.432   2.212 -0.5695  0.6440  1.2359
 1764SOL    HW216752   0.980   1.557   2.129 -0.8482  1.5668 -0.1242
 1765SOL     OW16753   4.502   1.026   4.630 -0.6781  0.1438  0.0522
 1765SOL    HW116754   4.445   1.101   4.612 -0.5946  0.6148  1.7002
 1765SOL    HW216755   4.453   0.957   4.585  2.6940 -1.5614 -0.9520
 1766SOL     OW16756   0.864   1.547   5.791  0.3438  0.3402  0.4110
 1766SOL    HW116757   0.778   1.578   5.821 -0.5780  0.5788 -2.4830
 1766SOL    HW216758   0.867   1.571   5.699 -1.2170 -0.7751  0.0651
 1767SOL     OW16759   2.335   4.292   0.125 -0.4409  0.3139  0.3445
 1767SOL    HW116760   2.304   4.206   0.095 -0.0237  0.9866 -1.9931
 1767SOL    HW216761   2.427   4.274   0.104 -0.4570  0.4399  0.1655
 1768SOL     OW16762   4.260   0.476   2.505 -0.0257 -0.4775  0.8488
 1768SOL    HW116763   4.252   0.453   2.598 -2.1458 -2.0970  0.2328
 1768SOL    HW216764   4.294   0.566   2.500 -2.3643  0.5930  4.1777
 1769SOL     OW16765   2.766   1.482   6.956 -0.0700  0.1468  0.3249
 1769SOL    HW116766   2.842   1.439   6.916 -1.0108 -2.5829  1.4692
 1769SOL    HW216767   2.804   1.569   6.966  0.4552  0.2227 -2.3518
 1770SOL     OW16768   4.397   1.827  13.400  0.0683 -0.1210  0.2670
 1770SOL    HW116769   4.442   1.835  13.484 -1.7480 -0.2505  1.2444
 1770SOL    HW216770   4.321   1.885  13.398 -0.6563 -1.1026 -0.9444
 1771SOL     OW16771   2.210   0.817   3.123 -0.8638  0.0978  0.0212
 1771SOL    HW116772   2.259   0.735   3.128 -1.3141 -0.2000 -0.4434
 1771SOL    HW216773   2.128   0.802   3.075  0.2542  1.2691 -2.2786
 1772SOL     OW16774   3.782   0.872   3.802 -0.0012 -0.4110 -0.3918
 1772SOL    HW116775   3.871   0.841   3.783 -0.5333 -0.5404 -2.6159
 1772SOL    HW216776   3.796   0.919   3.884  4.3062 -2.1428 -0.1138
 1773SOL     OW16777   4.341   0.167   2.293  0.0682 -0.0585 -0.0133
 1773SOL    HW116778   4.333   0.258   2.264 -0.2372 -0.5624 -1.5016
 1773SOL    HW216779   4.327   0.115   2.215 -1.9211  1.1005 -0.4189
 1774SOL     OW16780   2.374   1.706   3.620 -0.1405 -0.0813  0.0788
 1774SOL    HW116781   2.280   1.712   3.609  0.0891  1.5586 -1.0015
 1774SOL    HW216782   2.369   1.615   3.649 -1.8005 -0.7178 -2.2498
 1775SOL     OW16783   2.320   0.226   7.179  0.5965 -0.2139  0.6371
 1775SOL    HW116784   2.260   0.298   7.198 -0.0256 -0.3195 -0.9094
 1775SOL    HW216785   2.377   0.216   7.255  2.0368  0.7927 -0.2808
 1776SOL     OW16786   1.913   3.979   7.237 -0.1375  0.5146 -0.2299
 1776SOL    HW116787   1.916   3.953   7.145 -3.1566 -1.4228  0.2057
 1776SOL    HW216788   2.004   4.007   7.242 -0.0801  0.3246 -0.2251
 1777SOL     OW16789   3.068   4.010   4.745  0.1049  0.2657  0.8245
 1777SOL    HW116790   3.002   4.051   4.799 -1.0217  1.0242 -1.1319
 1777SOL    HW216791   3.145   4.064   4.765  1.5801 -1.6292  0.3158
 1778SOL     OW16792   3.924   4.448   4.554 -0.0484  0.3170 -0.6267
 1778SOL    HW116793   3.961   4.536   4.562  1.5996 -0.5670  1.2954
 1778SOL    HW216794   4.004   4.397   4.545 -1.4493 -2.0672  0.3006
 1779SOL     OW16795   0.391   3.990   3.208  0.1246 -0.3740  0.0236
 1779SOL    HW116796   0.310   3.955   3.247  1.2231  0.2721  2.8659
 1779SOL    HW216797   0.352   4.037   3.134 -1.0832 -2.4017 -0.6342
 1780SOL     OW16798   2.637   1.827   3.008  1.1656 -1.2128 -0.0496
 1780SOL    HW116799   2.626   1.912   3.051  1.5635 -2.0656  1.7180
 1780SOL    HW216800   2.576   1.830   2.934  0.5123  0.1237  0.5386
 1781SOL     OW16801   0.010   3.326  10.832  0.5092 -0.4321  0.1220
 1781SOL    HW116802   4.702   3.403  10.782 -0.8306 -1.4787 -0.7369
 1781SOL    HW216803   0.092   3.310  10.785  0.4491 -0.1848 -0.0664
 1782SOL     OW16804   3.662   1.902   2.337 -0.5609 -0.2071 -0.2197
 1782SOL    HW116805   3.596   1.953   2.289 -1.6071 -2.1714 -0.8730
 1782SOL    HW216806   3.608   1.849   2.396  0.5847  0.0071  1.0196
 1783SOL     OW16807   2.241   2.177  16.768 -0.1541 -0.6018  0.1378
 1783SOL    HW116808   2.160   2.129  16.784  0.1236 -1.2034 -0.2665
 1783SOL    HW216809   2.256   2.226  16.849  3.2913 -0.6706 -0.4330
 1784SOL     OW16810   1.479   0.778   3.897  0.4675  0.2490  0.0532
 1784SOL    HW116811   1.414   0.848   3.896  1.6168  1.3236 -0.2520
 1784SOL    HW216812   1.483   0.759   3.991 -2.2931  1.1586  0.3572
 1785SOL     OW16813   3.596   4.529   2.581 -0.3455  0.3188 -0.1801
 1785SOL    HW116814   3.668   4.568   2.630  0.5186 -0.8497 -0.5122
 1785SOL    HW216815   3.649   4.480   2.517 -1.6643 -0.7796 -0.4533
 1786SOL     OW16816   1.570   1.603   6.468 -0.0292  0.2077  0.0394
 1786SOL    HW116817   1.543   1.583   6.557  0.1736  0.6074  0.1926
 1786SOL    HW216818   1.574   1.517   6.426  0.6761  0.2812 -0.0382
 1787SOL     OW16819   0.761   1.519   3.961 -0.5529 -1.3817 -0.6899
 1787SOL    HW116820   0.789   1.589   3.902 -0.0599 -0.4962  0.5960
 1787SOL    HW216821   0.678   1.552   3.996  0.6902  2.4724 -1.3711
 1788SOL     OW16822   0.759   2.493   2.476 -0.3963 -0.3449 -0.1053
 1788SOL    HW116823   0.704   2.568   2.500 -0.9076 -0.9797  0.7152
 1788SOL    HW216824   0.737   2.430   2.544  0.3630 -0.1659  0.2930
 1789SOL     OW16825   1.773   2.859   4.902 -0.4395 -0.0351 -0.0536
 1789SOL    HW116826   1.743   2.809   4.826 -0.8707 -1.4099  1.0210
 1789SOL    HW216827   1.832   2.795   4.943  0.0932  0.7708  0.4462
 1790SOL     OW16828   2.753   3.407   3.879  0.1250 -0.3369  0.4705
 1790SOL    HW116829   2.694   3.481   3.896 -1.1230 -1.0165 -1.0002
 1790SOL    HW216830   2.780   3.417   3.788 -1.1165 -2.1215 -0.0950
 1791SOL     OW16831   0.816   4.018   4.818  0.1843  0.0894  0.1874
 1791SOL    HW116832   0.734   4.034   4.866 -1.0068 -2.2992 -1.0360
 1791SOL    HW216833   0.874   3.991   4.889  0.0853  2.1132  1.0273
 1792SOL     OW16834   1.633   4.174  13.433 -0.4150 -0.1019  0.7511
 1792SOL    HW116835   1.638   4.246  13.495  1.1663 -1.1035  1.7766
 1792SOL    HW216836   1.559   4.118  13.457 -0.2721 -1.3617 -1.7172
 1793SOL     OW16837   4.378   3.522   1.603  0.1344 -0.0652 -0.1990
 1793SOL    HW116838   4.398   3.502   1.694  2.3654  0.2781 -0.6024
 1793SOL    HW216839   4.331   3.440   1.591  0.1113 -0.0313 -0.3409
 1794SOL     OW16840   0.315   4.254   3.761 -0.5330 -0.3726  0.0704
 1794SOL    HW116841   0.304   4.163   3.734  0.1383 -1.1555  2.4301
 1794SOL    HW216842   0.282   4.298   3.682  0.7615 -1.1173 -0.8908
 1795SOL     OW16843   1.517   3.194   5.211  0.1453 -0.3357 -0.4071
 1795SOL    HW116844   1.585   3.135   5.179  1.5708 -0.3153  2.5793
 1795SOL    HW216845   1.461   3.195   5.134  0.7192  0.7459 -0.8152
 1796SOL     OW16846   3.547   1.929   4.068  0.3733 -0.3119 -0.2653
 1796SOL    HW116847   3.494   1.924   3.989  0.5373 -0.0201 -0.3946
 1796SOL    HW216848   3.482   1.901   4.133  0.5075  1.2807  0.5628
 1797SOL     OW16849   3.576   4.127   4.795  0.3987 -0.4929  0.0859
 1797SOL    HW116850   3.629   4.175   4.732 -1.7985  1.7317 -0.0734
 1797SOL    HW216851   3.514   4.089   4.733 -0.4047  1.2753 -0.1917
 1798SOL     OW16852   1.886   2.193  11.897  0.3882 -0.2965  0.4012
 1798SOL    HW116853   1.925   2.105  11.900  0.1681 -0.4357 -0.6861
 1798SOL    HW216854   1.798   2.169  11.867  0.1474  0.0723  0.8249
 1799SOL     OW16855   2.785   3.308   8.030 -0.4891 -0.1655  0.1704
 1799SOL    HW116856   2.707   3.307   8.085 -0.3235  4.8533  0.4589
 1799SOL    HW216857   2.785   3.396   7.993 -0.3717  0.1040  0.8060
 1800SOL     OW16858   1.493   2.626   4.477  0.3897 -0.3849 -0.2076
 1800SOL    HW116859   1.475   2.532   4.473 -3.0508  0.3655 -2.2487
 1800SOL    HW216860   1.538   2.636   4.393  2.0435 -1.0051  0.6039
 1801SOL     OW16861   2.099   0.637   7.013 -0.0187  0.0200 -0.1286
 1801SOL    HW116862   2.156   0.575   7.057  0.0971  0.8290  0.8620
 1801SOL    HW216863   2.066   0.693   7.083 -2.1099 -0.1849 -0.9505
 1802SOL     OW16864   2.063   3.247   0.152 -0.2945 -0.7929  0.2773
 1802SOL    HW116865   2.027   3.158   0.145 -2.2940  0.1506 -1.3018
 1802SOL    HW216866   2.149   3.229   0.114 -0.8211 -1.5398 -0.5855
 1803SOL     OW16867   3.118   1.271   9.133 -0.8103 -0.0842 -0.0987
 1803SOL    HW116868   3.040   1.230   9.169  0.3225 -2.8703 -0.8049
 1803SOL    HW216869   3.138   1.344   9.192 -2.2468 -0.3644  0.7393
 1804SOL     OW16870   2.841   3.278   4.671 -0.4086 -0.2999  0.4031
 1804SOL    HW116871   2.908   3.312   4.731 -0.7629 -0.2112  0.7485
 1804SOL    HW216872   2.767   3.252   4.726 -2.2743  1.3766 -1.2913
 1805SOL     OW16873   1.341   3.453   2.561 -0.1354  0.0718 -0.7855
 1805SOL    HW116874   1.318   3.474   2.470 -0.5844  1.8107 -0.2815
 1805SOL    HW216875   1.427   3.495   2.568  0.1609 -0.6137 -0.3635
 1806SOL     OW16876   1.726   3.922   5.782 -0.4655  0.1326 -0.3313
 1806SOL    HW116877   1.818   3.940   5.798 -0.0780 -0.2553 -2.0943
 1806SOL    HW216878   1.711   3.939   5.689  0.8793  0.3698 -0.5042
 1807SOL     OW16879   1.788   0.647   4.565  0.4058 -0.7816 -0.4416
 1807SOL    HW116880   1.742   0.618   4.644  2.5771 -0.4429  0.9650
 1807SOL    HW216881   1.879   0.665   4.590 -0.0978  0.0601  0.7769
 1808SOL     OW16882   2.849   4.020  13.766  0.0671 -0.0169  0.3285
 1808SOL    HW116883   2.899   4.068  13.699  0.0200 -0.7521 -0.2312
 1808SOL    HW216884   2.916   3.977  13.819 -0.1374  0.9977  1.3974
 1809SOL     OW16885   1.056   1.557  15.485 -0.1635  0.6846 -0.1703
 1809SOL    HW116886   0.976   1.585  15.442  0.6480  2.6983 -0.3550
 1809SOL    HW216887   1.089   1.496  15.419 -1.7424 -1.6941  1.2581
 1810SOL     OW16888   3.484   2.473   6.456 -0.2557  0.3667 -0.3084
 1810SOL    HW116889   3.537   2.514   6.388  0.0100 -1.0157 -0.9397
 1810SOL    HW216890   3.419   2.541   6.470  0.7289  1.4498 -1.0336
 1811SOL     OW16891   1.870   2.142  11.549 -0.0924  0.1671 -0.1061
 1811SOL    HW116892   1.870   2.060  11.500  2.2520 -0.3036  0.7101
 1811SOL    HW216893   1.959   2.144  11.585 -0.0921 -2.5810  0.0348
 1812SOL     OW16894   2.255   3.313   6.162 -0.1999 -0.0980 -0.3567
 1812SOL    HW116895   2.216   3.400   6.175 -0.7909 -0.3295 -0.6033
 1812SOL    HW216896   2.232   3.283   6.250  1.9335 -1.2251 -0.1804
 1813SOL     OW16897   2.427   1.245   6.764  0.2904  0.0481  0.5819
 1813SOL    HW116898   2.475   1.325   6.744  0.4455 -0.1290  0.2574
 1813SOL    HW216899   2.337   1.274   6.747  0.1056 -0.4509  0.6952
 1814SOL     OW16900   2.935   4.627   5.018  0.1556  0.2511 -0.4090
 1814SOL    HW116901   2.840   4.642   5.012  0.5203  2.7423  0.3024
 1814SOL    HW216902   2.931   4.534   5.041 -1.5667  0.7758  1.5512
 1815SOL     OW16903   0.943   2.100  14.982 -0.2139 -0.0165  0.3583
 1815SOL    HW116904   1.006   2.146  15.037  0.7607 -0.0307 -0.7573
 1815SOL    HW216905   0.941   2.147  14.898 -2.5990  2.5486  1.8514
 1816SOL     OW16906   4.030   1.425   8.534 -0.3812  0.1032 -0.2021
 1816SOL    HW116907   4.111   1.476   8.543  0.2754 -0.5744 -2.1599
 1816SOL    HW216908   4.018   1.392   8.622 -0.0208  1.8504  0.5111
 1817SOL     OW16909   3.900   4.356   9.638 -0.3674 -0.3511 -0.3754
 1817SOL    HW116910   3.915   4.380   9.547 -0.7966 -0.5745 -0.5048
 1817SOL    HW216911   3.852   4.431   9.672  1.4510  0.6855 -0.0983
 1818SOL     OW16912   1.998   3.586  12.442 -0.0818  0.4048 -0.0104
 1818SOL    HW116913   1.942   3.510  12.425 -0.9259  0.3313  3.0205
 1818SOL    HW216914   2.054   3.573  12.366 -0.0895  1.4182 -0.1892
 1819SOL     OW16915   4.102   4.080  10.794  0.5701 -0.2109  0.1358
 1819SOL    HW116916   4.007   4.069  10.792  0.4400  0.8276  0.2128
 1819SOL    HW216917   4.123   4.031  10.873 -1.0334 -0.6269  0.3146
 1820SOL     OW16918   0.241   1.715   4.937 -0.1300  0.0116 -0.1875
 1820SOL    HW116919   0.204   1.783   4.995 -0.2861 -1.7177  1.7599
 1820SOL    HW216920   0.330   1.750   4.932  0.8097 -2.9064 -3.2915
 1821SOL     OW16921   2.809   2.668  16.258  0.4515 -0.3077  0.2900
 1821SOL    HW116922   2.846   2.756  16.253  0.8232 -0.3756  1.7783
 1821SOL    HW216923   2.748   2.679  16.185  0.9059  2.9266  0.4089
 1822SOL     OW16924   3.193   3.253   5.290 -0.1052 -0.0130 -0.6894
 1822SOL    HW116925   3.133   3.309   5.340  0.9065  0.6520 -0.2187
 1822SOL    HW216926   3.256   3.264   5.361 -0.0930  1.2893 -0.8925
 1823SOL     OW16927   2.841   0.250  12.853  0.5718 -0.3360  0.5782
 1823SOL    HW116928   2.884   0.231  12.936  0.4393 -1.7054  0.3407
 1823SOL    HW216929   2.818   0.342  12.859 -1.1815 -0.6374 -1.2753
 1824SOL     OW16930   2.564   1.337   8.185  0.7855  0.2914  0.1509
 1824SOL    HW116931   2.598   1.365   8.269  0.3069 -0.8294  0.7236
 1824SOL    HW216932   2.604   1.408   8.135  0.8451 -0.6938 -1.1947
 1825SOL     OW16933   2.682   3.068   2.617 -0.2991 -0.1078  0.0059
 1825SOL    HW116934   2.764   3.085   2.663 -1.6288  3.5178  1.0589
 1825SOL    HW216935   2.650   3.158   2.622 -1.9970 -0.8508  2.9329
 1826SOL     OW16936   4.176   4.615   8.144  0.0203 -0.9132 -0.6173
 1826SOL    HW116937   4.196   4.603   8.051  1.3356  1.1458 -0.6049
 1826SOL    HW216938   4.263   4.601   8.181  0.5690  1.4188 -1.0205
 1827SOL     OW16939   4.532   0.627  10.505  0.0498  0.9310  0.2763
 1827SOL    HW116940   4.450   0.607  10.551  0.0396 -2.8054 -1.3132
 1827SOL    HW216941   4.581   0.544  10.511  0.1680  0.9888  0.0820
 1828SOL     OW16942   2.273   4.259   2.032 -0.7345  0.2461  0.4006
 1828SOL    HW116943   2.180   4.270   2.051 -1.3301 -2.0016 -1.2780
 1828SOL    HW216944   2.299   4.323   2.098  1.9379  0.3286 -0.7146
 1829SOL     OW16945   4.604   3.413   8.035  0.5179  0.1664 -0.3896
 1829SOL    HW116946   4.648   3.401   8.119  0.1997 -2.2435 -0.5477
 1829SOL    HW216947   4.592   3.508   8.038  0.4842  0.1834 -0.9612
 1830SOL     OW16948   2.658   4.378   6.058 -0.3486  0.4718  0.5192
 1830SOL    HW116949   2.746   4.358   6.091 -1.5900 -0.2068  3.4477
 1830SOL    HW216950   2.664   4.470   6.030 -1.7628  1.0053  1.9577
 1831SOL     OW16951   2.443   0.650  11.464  0.1140  0.1670  0.1555
 1831SOL    HW116952   2.374   0.629  11.528 -0.9055 -0.1160 -1.0266
 1831SOL    HW216953   2.486   0.724  11.506  4.6997 -1.4233 -1.7713
 1832SOL     OW16954   1.754   0.243  17.400 -0.6739 -0.3456  0.2925
 1832SOL    HW116955   1.767   0.148  17.404 -2.7104 -0.5207  3.0577
 1832SOL    HW216956   1.842   0.274  17.419 -1.3611  0.8564  1.5283
 1833SOL     OW16957   0.940   2.593   2.303  0.1360 -0.1018  0.2792
 1833SOL    HW116958   0.872   2.590   2.370 -1.1753 -1.6938 -1.1293
 1833SOL    HW216959   0.923   2.672   2.251  0.9375 -0.6453 -0.8174
 1834SOL     OW16960   2.639   0.748   3.298 -0.1749  0.1376  0.3054
 1834SOL    HW116961   2.567   0.749   3.235  1.2349  2.1108 -1.2587
 1834SOL    HW216962   2.596   0.781   3.377 -0.4529 -0.5559  0.4466
 1835SOL     OW16963   2.102   0.284   0.852 -0.4320  0.0071 -0.4655
 1835SOL    HW116964   2.087   0.231   0.931 -0.4493 -0.6447 -0.9019
 1835SOL    HW216965   2.184   0.242   0.825 -0.9198 -2.1988  1.4587
 1836SOL     OW16966   4.336   0.089   7.733  0.0118 -0.5419 -0.5216
 1836SOL    HW116967   4.325   0.033   7.656  1.0185 -0.8061 -0.4753
 1836SOL    HW216968   4.246   0.110   7.760  0.4463  0.5401  0.0849
 1837SOL     OW16969   3.571   1.633   4.162 -0.4318  0.1946  0.1307
 1837SOL    HW116970   3.552   1.720   4.127  0.7856 -1.2307 -4.1147
 1837SOL    HW216971   3.614   1.665   4.241 -1.8713  0.4117  0.8356
 1838SOL     OW16972   1.656   1.658   7.740  0.1796  0.0107 -0.1204
 1838SOL    HW116973   1.617   1.681   7.824  2.2516  0.5988  0.6871
 1838SOL    HW216974   1.700   1.741   7.721 -0.4129  0.3902  0.1455
 1839SOL     OW16975   4.272   0.669   5.978 -0.0875  0.1953  0.1560
 1839SOL    HW116976   4.196   0.631   5.934 -0.8868 -0.3054  1.9858
 1839SOL    HW216977   4.312   0.718   5.906 -2.3462 -0.7966 -1.7443
 1840SOL     OW16978   4.656   2.931   1.988 -0.1610  0.3463 -0.0580
 1840SOL    HW116979   4.715   2.946   1.914 -1.3345  2.5202 -0.5681
 1840SOL    HW216980   4.690   2.995   2.051 -0.6418  2.5713 -2.0465
 1841SOL     OW16981   1.503   0.318   0.080 -0.2948  0.1148 -0.1683
 1841SOL    HW116982   1.432   0.375   0.108 -0.9459 -0.4718 -0.6272
 1841SOL    HW216983   1.561   0.380   0.035  1.2310 -0.8735  0.4150
 1842SOL     OW16984   2.346   3.671   7.234 -0.0264 -0.1199 -0.3222
 1842SOL    HW116985   2.292   3.708   7.164  1.6604  4.3727  0.7725
 1842SOL    HW216986   2.413   3.621   7.187  0.8409  0.1051  0.6792
 1843SOL     OW16987   0.984   3.935  12.552  0.0217 -0.1490 -0.0720
 1843SOL    HW116988   0.961   3.849  12.519  0.8058 -0.4195  0.0741
 1843SOL    HW216989   1.074   3.939  12.521 -0.4979 -1.7740 -1.7876
 1844SOL     OW16990   2.551   0.420  12.823  0.1109  0.2482  0.6675
 1844SOL    HW116991   2.524   0.334  12.854  0.2800  0.8081  2.3740
 1844SOL    HW216992   2.598   0.450  12.901 -2.1488 -1.2896  2.6112
 1845SOL     OW16993   2.457   1.984  11.784  0.5372 -0.1872  0.0780
 1845SOL    HW116994   2.499   1.917  11.837  0.2298  0.8832  1.6638
 1845SOL    HW216995   2.388   1.942  11.733  2.3922 -1.5692 -1.3230
 1846SOL     OW16996   4.169   1.662   7.413 -0.0419 -0.5107 -0.7578
 1846SOL    HW116997   4.120   1.728   7.363 -0.0682  0.2293  0.2337
 1846SOL    HW216998   4.250   1.662   7.362  1.1322 -1.5906  1.1237
 1847SOL     OW16999   1.136   3.384   9.007 -0.6182  0.2652 -0.7273
 1847SOL    HW117000   1.126   3.293   8.979  2.4217 -1.1463  2.8056
 1847SOL    HW217001   1.145   3.377   9.102 -0.9230  3.5060 -0.4502
 1848SOL     OW17002   4.395   3.535   5.002 -0.6973 -0.0638  0.4796
 1848SOL    HW117003   4.418   3.610   5.056  0.0411  0.3919 -0.4701
 1848SOL    HW217004   4.454   3.467   5.036 -0.2360 -0.1188 -0.4449
 1849SOL     OW17005   2.527   3.000  15.352 -0.3475  0.2777 -0.5002
 1849SOL    HW117006   2.558   2.988  15.263 -0.3458 -0.2999 -0.4168
 1849SOL    HW217007   2.551   3.092  15.363 -2.5261  0.8084 -0.1120
 1850SOL     OW17008   1.210   2.948   5.235  0.0329 -0.4428 -0.2680
 1850SOL    HW117009   1.215   2.961   5.140 -1.9185  2.5898  0.0163
 1850SOL    HW217010   1.268   3.016   5.269 -0.1899  0.8568 -2.4402
 1851SOL     OW17011   3.119   3.580   3.071  0.1038 -0.1471  0.0150
 1851SOL    HW117012   3.164   3.504   3.034 -0.4940 -1.1122  1.2525
 1851SOL    HW217013   3.074   3.607   2.991 -0.8039 -0.5573  0.3938
 1852SOL     OW17014   4.034   4.013   7.127 -0.3844 -0.3709 -0.0160
 1852SOL    HW117015   4.066   4.090   7.080  0.8668 -0.0313  1.3830
 1852SOL    HW217016   4.079   3.945   7.077 -1.8938 -0.1451 -1.6854
 1853SOL     OW17017   0.353   1.150   6.825 -0.0447 -0.2390  0.0865
 1853SOL    HW117018   0.296   1.133   6.750  0.2734 -1.1807  0.0655
 1853SOL    HW217019   0.300   1.222   6.859 -0.7239 -0.1391 -1.1732
 1854SOL     OW17020   0.824   3.560   9.522  0.5573 -0.2271 -0.3594
 1854SOL    HW117021   0.861   3.473   9.504 -1.1836 -1.4705  2.0321
 1854SOL    HW217022   0.812   3.598   9.435 -1.4528  1.1382  0.5198
 1855SOL     OW17023   2.966   3.609   7.474 -0.3761  0.1746 -0.6231
 1855SOL    HW117024   2.935   3.696   7.448 -4.0856 -0.7340  0.7963
 1855SOL    HW217025   3.044   3.601   7.418 -0.8501  0.4424 -1.3314
 1856SOL     OW17026   2.827   1.738   9.133 -0.2596 -0.3655 -0.6257
 1856SOL    HW117027   2.757   1.702   9.078 -1.2980  1.7242 -0.6565
 1856SOL    HW217028   2.841   1.825   9.097 -4.3538  0.2678 -0.7186
 1857SOL     OW17029   2.156   0.367  12.400  0.2508  0.1941 -0.0702
 1857SOL    HW117030   2.240   0.326  12.423  0.1713 -1.1788 -2.1911
 1857SOL    HW217031   2.152   0.350  12.306 -1.8443  2.0991 -0.3219
 1858SOL     OW17032   0.465   4.575   1.195  0.1089  0.4648  0.2722
 1858SOL    HW117033   0.518   4.510   1.150 -2.2852 -0.0401 -1.8074
 1858SOL    HW217034   0.428   4.521   1.264  1.3643 -1.5904 -0.6773
 1859SOL     OW17035   0.946   1.216   8.882 -0.1071  0.2973  0.2862
 1859SOL    HW117036   1.016   1.157   8.854 -2.0478 -1.8773  0.0404
 1859SOL    HW217037   0.993   1.240   8.962  2.1078 -1.1248 -0.5807
 1860SOL     OW17038   2.686   0.329   6.787  0.4150 -0.3241 -0.2038
 1860SOL    HW117039   2.638   0.260   6.833  2.0224 -0.7446  0.8467
 1860SOL    HW217040   2.660   0.322   6.696  0.6476  1.4248 -0.4181
 1861SOL     OW17041   0.233   1.107   4.909  0.6056 -0.2954  0.0967
 1861SOL    HW117042   0.239   1.177   4.974 -0.8891 -1.3790  1.4167
 1861SOL    HW217043   0.143   1.114   4.877  0.5193 -1.6848  0.0333
 1862SOL     OW17044   4.325   3.107   4.319 -0.0842 -0.1488 -0.0444
 1862SOL    HW117045   4.390   3.112   4.389 -1.1047 -0.3438  0.9122
 1862SOL    HW217046   4.269   3.182   4.339  0.0145 -0.0040 -0.3027
 1863SOL     OW17047   0.558   2.160   4.697  0.0696 -0.4400 -0.2069
 1863SOL    HW117048   0.504   2.220   4.646  3.3645  1.8927 -0.9076
 1863SOL    HW217049   0.590   2.095   4.634  0.0813  1.4440 -2.1334
 1864SOL     OW17050   3.410   1.335   8.711 -0.0062 -0.5375  0.5514
 1864SOL    HW117051   3.416   1.269   8.780  2.9033  0.0570  0.8901
 1864SOL    HW217052   3.317   1.351   8.701 -0.0498  0.6192  2.8595
 1865SOL     OW17053   1.124   0.789   1.450  0.2063 -0.1620 -0.2214
 1865SOL    HW117054   1.119   0.858   1.516 -3.0230  0.0116 -0.6371
 1865SOL    HW217055   1.180   0.726   1.493  2.0955  1.9936  0.4709
 1866SOL     OW17056   1.832   4.406   5.438 -0.6703 -0.4421 -0.1276
 1866SOL    HW117057   1.919   4.422   5.474 -0.9197 -2.3676  1.3156
 1866SOL    HW217058   1.762   4.444   5.492 -0.5491 -1.7748  0.9570
 1867SOL     OW17059   2.094   3.085  17.495 -0.2887  0.3524 -0.0829
 1867SOL    HW117060   2.047   3.065  17.576 -1.5107 -1.2291 -1.1808
 1867SOL    HW217061   2.154   3.010  17.499 -2.0755 -1.0813 -0.1262
 1868SOL     OW17062   3.326   1.106   0.176  0.2026  0.1963 -0.0680
 1868SOL    HW117063   3.339   1.016   0.205 -0.6874  0.0917  0.0097
 1868SOL    HW217064   3.397   1.135   0.119  0.6835  0.6367  0.7588
 1869SOL     OW17065   4.667   0.720   3.138 -0.2037  0.1177 -0.3888
 1869SOL    HW117066   0.032   0.690   3.110 -1.3361 -2.0104 -1.5557
 1869SOL    HW217067   4.657   0.796   3.080 -0.7675  3.0482  3.5799
 1870SOL     OW17068   0.758   4.111   1.893 -0.8977  0.6179 -0.1173
 1870SOL    HW117069   0.850   4.085   1.889 -1.0241 -0.0117  1.2054
 1870SOL    HW217070   0.725   4.063   1.817 -2.7368  1.0117  0.4375
 1871SOL     OW17071   0.020   4.003   3.962  0.0696 -0.2562 -0.3669
 1871SOL    HW117072   0.008   3.922   4.012 -0.7827  0.1371  0.0645
 1871SOL    HW217073   4.652   4.040   3.967  2.3631  5.3541 -1.3247
 1872SOL     OW17074   3.104   1.329   8.695  0.2664 -0.1811  0.7786
 1872SOL    HW117075   3.117   1.266   8.767  0.1259 -2.5786 -1.2981
 1872SOL    HW217076   3.016   1.362   8.712  0.4001 -0.1215  1.3457
 1873SOL     OW17077   2.036   0.618   0.595 -0.3635 -0.1867  0.4270
 1873SOL    HW117078   2.019   0.541   0.541  1.1724  0.0337 -0.3783
 1873SOL    HW217079   2.122   0.602   0.635  0.3225 -0.4287 -1.1449
 1874SOL     OW17080   4.496   0.552   0.976 -0.7577 -0.0294  0.2070
 1874SOL    HW117081   4.477   0.487   1.043  3.5643 -3.5530 -1.9904
 1874SOL    HW217082   4.436   0.623   0.999  0.3953  0.4853  1.6060
 1875SOL     OW17083   4.202   3.635   5.341  0.2887 -0.2930  0.5824
 1875SOL    HW117084   4.180   3.701   5.406 -1.9461  1.1328 -1.6609
 1875SOL    HW217085   4.278   3.590   5.380  1.2715  2.8021  2.1876
 1876SOL     OW17086   2.580   0.057   9.502 -0.4905 -0.9290 -0.1017
 1876SOL    HW117087   2.522   0.086   9.572 -0.9598  1.4667 -1.4808
 1876SOL    HW217088   2.515   0.027   9.438  0.1422 -0.8829 -0.7684
 1877SOL     OW17089   2.241   3.194   6.406  0.6745 -0.2151  0.6601
 1877SOL    HW117090   2.151   3.208   6.435  1.1234 -0.5303  2.1841
 1877SOL    HW217091   2.252   3.110   6.450 -0.1672 -1.1467 -0.8788
 1878SOL     OW17092   4.233   3.101   4.671  0.2964 -0.1204 -0.2049
 1878SOL    HW117093   4.269   3.143   4.749 -0.2349  2.6415 -1.4717
 1878SOL    HW217094   4.162   3.056   4.716 -1.3395  1.2542 -1.4306
 1879SOL     OW17095   3.833   2.721   1.207 -0.1798 -0.2587  0.5257
 1879SOL    HW117096   3.826   2.750   1.116  1.4985  2.1395  1.1678
 1879SOL    HW217097   3.790   2.636   1.209  1.7215 -1.2203  0.5802
 1880SOL     OW17098   3.673   0.765   2.753  0.1448 -0.5371  0.4435
 1880SOL    HW117099   3.761   0.757   2.792 -0.0857  1.0729  1.3090
 1880SOL    HW217100   3.688   0.839   2.695  1.0394 -2.7257 -2.1156
 1881SOL     OW17101   2.741   0.447   7.177  0.1969  0.4301 -0.2700
 1881SOL    HW117102   2.750   0.534   7.216  0.3216  1.1840 -1.9786
 1881SOL    HW217103   2.648   0.456   7.153  0.0868 -0.4596 -0.1826
 1882SOL     OW17104   3.373   2.907   1.079  0.3196  0.0244 -0.1832
 1882SOL    HW117105   3.357   2.827   1.029 -0.7426  0.8321 -1.1420
 1882SOL    HW217106   3.300   2.893   1.140  1.8363 -0.0025  1.6255
 1883SOL     OW17107   0.118   3.724   8.547 -0.0091 -0.2238  0.2559
 1883SOL    HW117108   0.054   3.663   8.512 -1.0336  0.8409  0.2643
 1883SOL    HW217109   0.200   3.675   8.543 -0.2948 -0.6045 -1.1585
 1884SOL     OW17110   3.366   3.833   4.783  0.1692  0.1070 -0.3206
 1884SOL    HW117111   3.407   3.793   4.707 -1.0555  0.4847 -1.1788
 1884SOL    HW217112   3.289   3.875   4.744  1.4076  2.0555 -0.6610
 1885SOL     OW17113   1.246   1.143   7.434 -0.2323  0.6625 -0.6046
 1885SOL    HW117114   1.173   1.152   7.373 -0.9061 -1.3274 -0.0993
 1885SOL    HW217115   1.215   1.059   7.470  1.4981  0.9132  1.4539
 1886SOL     OW17116   2.505   1.504   2.780  0.2160 -0.0293  0.6042
 1886SOL    HW117117   2.415   1.523   2.752  0.0503 -2.1750 -0.3078
 1886SOL    HW217118   2.568   1.541   2.718  1.2036 -0.3297  1.4471
 1887SOL     OW17119   0.307   3.946  17.104  0.4699  0.0773  0.4287
 1887SOL    HW117120   0.352   3.896  17.035 -1.5140  0.5516 -1.2047
 1887SOL    HW217121   0.234   3.884  17.107  1.9036 -1.5948  0.9090
 1888SOL     OW17122   3.801   0.923   9.359 -0.5200  0.4892 -0.0208
 1888SOL    HW117123   3.878   0.923   9.417  1.4168 -0.4736 -2.5446
 1888SOL    HW217124   3.857   0.928   9.281 -1.3951 -1.6565 -0.7833
 1889SOL     OW17125   3.381   0.933   2.862  0.3369 -0.0817 -0.1742
 1889SOL    HW117126   3.428   0.968   2.787 -0.6236 -0.9997 -1.2047
 1889SOL    HW217127   3.312   0.999   2.869 -2.1679 -2.2664 -4.7074
 1890SOL     OW17128   2.913   3.084   7.945  0.7857 -0.3766 -0.0457
 1890SOL    HW117129   2.841   3.141   7.970 -0.3886  0.0344 -4.3760
 1890SOL    HW217130   2.986   3.132   7.985 -1.3736  2.3327  0.6668
 1891SOL     OW17131   3.986   2.241   8.208 -0.3394 -0.3937  0.2643
 1891SOL    HW117132   3.967   2.320   8.258  0.9065 -0.8587  1.4767
 1891SOL    HW217133   3.937   2.259   8.128  0.9822 -0.8013 -0.6287
 1892SOL     OW17134   2.292   1.744   5.032 -0.3461 -0.1671 -0.5683
 1892SOL    HW117135   2.272   1.712   5.120 -0.1545 -1.7383 -1.0787
 1892SOL    HW217136   2.365   1.683   5.014 -1.0613 -1.1527 -0.1516
 1893SOL     OW17137   1.248   4.696   8.033  0.2306  0.3564  0.4028
 1893SOL    HW117138   1.289   4.618   8.069  0.0553  0.8067  1.5885
 1893SOL    HW217139   1.275   0.059   8.071  2.2799  0.7778 -2.0070
 1894SOL     OW17140   1.292   3.751   4.984 -0.3410  0.1821 -0.0068
 1894SOL    HW117141   1.375   3.754   5.032 -0.3083 -1.8481  0.0560
 1894SOL    HW217142   1.306   3.830   4.932 -1.4696  1.2088  1.2429
 1895SOL     OW17143   2.255   1.178   4.033  0.0767 -0.9326 -0.4036
 1895SOL    HW117144   2.348   1.157   4.019  0.2436 -0.1779 -0.3984
 1895SOL    HW217145   2.258   1.272   4.050 -2.6967 -0.6518 -1.5290
 1896SOL     OW17146   2.325   1.698  15.448  0.4317 -0.1085  0.5903
 1896SOL    HW117147   2.393   1.638  15.479 -0.1310  0.2453  2.4596
 1896SOL    HW217148   2.323   1.677  15.354 -0.7338 -1.5328  0.9286
 1897SOL     OW17149   2.410   2.794  15.529  0.3388 -0.4076  0.4597
 1897SOL    HW117150   2.391   2.846  15.607 -1.9127  1.8288 -1.6001
 1897SOL    HW217151   2.456   2.861  15.478 -0.1266  0.3632  1.0515
 1898SOL     OW17152   3.187   1.473   1.903  0.8450 -0.4294  0.5096
 1898SOL    HW117153   3.157   1.561   1.880  1.4042 -0.2718  0.3798
 1898SOL    HW217154   3.139   1.410   1.850 -0.0216  0.3287  0.3964
 1899SOL     OW17155   4.440   1.699   8.774  0.2354 -0.1022 -0.3588
 1899SOL    HW117156   4.417   1.645   8.698  0.5612 -1.4864  0.5314
 1899SOL    HW217157   4.367   1.673   8.830 -1.1119  2.6380 -0.8450
 1900SOL     OW17158   2.035   0.317   5.635 -0.7623  0.2235  0.4027
 1900SOL    HW117159   1.957   0.260   5.634 -0.7412  0.2303 -1.9349
 1900SOL    HW217160   2.011   0.381   5.702 -1.2360  1.5903 -1.0611
 1901SOL     OW17161   1.179   2.567   3.592  0.2017 -0.0427  0.2900
 1901SOL    HW117162   1.200   2.534   3.504  1.2043  0.8710  0.1898
 1901SOL    HW217163   1.267   2.588   3.622 -0.4863  2.2489  0.7080
 1902SOL     OW17164   2.999   1.850   5.329 -0.7995 -0.0870 -0.2391
 1902SOL    HW117165   2.972   1.780   5.389  1.2861  0.7438  1.6723
 1902SOL    HW217166   2.938   1.838   5.256 -2.8305 -2.2725  1.8183
 1903SOL     OW17167   4.215   3.374   6.993 -0.6213 -0.2017 -0.2097
 1903SOL    HW117168   4.261   3.431   7.055  1.7005 -2.4879  0.1953
 1903SOL    HW217169   4.294   3.346   6.947  1.4981 -0.2580  3.4413
 1904SOL     OW17170   1.984   2.212   1.906 -0.3040 -0.0775  0.2440
 1904SOL    HW117171   2.063   2.220   1.959 -0.4035 -1.7481  0.6633
 1904SOL    HW217172   1.922   2.176   1.969  1.2731 -0.0656  1.8183
 1905SOL     OW17173   0.668   0.002   2.658 -0.3344 -0.7254 -0.5458
 1905SOL    HW117174   0.743   0.040   2.612 -0.5813 -0.6406 -0.8813
 1905SOL    HW217175   0.684   0.035   2.746  0.2644  0.7056 -1.1987
 1906SOL     OW17176   4.486   3.229   0.724  0.1083 -0.0466 -0.7759
 1906SOL    HW117177   4.526   3.313   0.745 -0.7274 -0.4221  2.4502
 1906SOL    HW217178   4.544   3.199   0.655 -0.1646 -1.6979 -0.2890
 1907SOL     OW17179   4.466   0.369   1.855 -0.1929  0.0235 -0.3005
 1907SOL    HW117180   4.487   0.461   1.839  0.2786 -0.2537 -1.2925
 1907SOL    HW217181   4.487   0.355   1.947 -1.4666 -1.0236 -0.1705
 1908SOL     OW17182   2.419   4.557   4.658 -0.1073 -0.1141  0.2285
 1908SOL    HW117183   2.506   4.590   4.636  0.0089 -0.1171  0.6806
 1908SOL    HW217184   2.366   4.627   4.621  0.3847  1.1186  1.8837
 1909SOL     OW17185   1.005   3.190   3.533 -0.5873  0.5333 -0.3073
 1909SOL    HW117186   1.014   3.266   3.590  0.2736 -0.0586  0.3519
 1909SOL    HW217187   1.015   3.227   3.446 -1.3719  1.8673  0.1655
 1910SOL     OW17188   0.230   2.238  14.585  0.0579 -0.6765 -0.2641
 1910SOL    HW117189   0.140   2.222  14.613 -1.4509  0.5548 -4.4060
 1910SOL    HW217190   0.285   2.235  14.663 -0.8885  0.3701  0.4424
 1911SOL     OW17191   0.183   3.739   4.328 -0.1088 -0.2713 -0.5418
 1911SOL    HW117192   0.152   3.789   4.404  0.2505 -3.9013  1.9755
 1911SOL    HW217193   0.266   3.703   4.357  0.0680  0.0498 -0.6425
 1912SOL     OW17194   2.734   1.730  13.335  0.4335  0.8786  0.7092
 1912SOL    HW117195   2.656   1.755  13.285  0.0963 -0.7440  0.4311
 1912SOL    HW217196   2.720   1.636  13.347 -0.5005  0.7363 -1.4265
 1913SOL     OW17197   1.344   4.197   7.756  0.0131 -0.0066 -0.3353
 1913SOL    HW117198   1.397   4.137   7.702  0.4035 -1.6712  1.8818
 1913SOL    HW217199   1.259   4.171   7.720 -0.6156 -0.0207  1.1675
 1914SOL     OW17200   1.195   1.912   3.142  0.6437 -0.0605  0.5376
 1914SOL    HW117201   1.206   1.984   3.080 -1.1789  0.4792  0.8632
 1914SOL    HW217202   1.141   1.958   3.206 -2.2950 -1.4179 -0.9764
 1915SOL     OW17203   3.357   1.108  11.147 -0.1821 -0.1583 -0.0442
 1915SOL    HW117204   3.277   1.059  11.165 -0.0220 -1.6747 -3.4956
 1915SOL    HW217205   3.363   1.155  11.231  0.3194 -0.9449  0.3601
 1916SOL     OW17206   4.295   0.491   5.684 -0.1090 -0.5988  0.5655
 1916SOL    HW117207   4.307   0.410   5.635 -1.4506  0.0608 -0.8511
 1916SOL    HW217208   4.200   0.490   5.698 -0.0934 -1.9394  0.5441
 1917SOL     OW17209   3.250   1.733   5.586  0.0545  0.2186 -0.1614
 1917SOL    HW117210   3.301   1.812   5.565 -0.2962  0.3983 -0.3472
 1917SOL    HW217211   3.294   1.706   5.666  2.5401 -0.5045 -1.7660
 1918SOL     OW17212   2.857   4.052  10.248 -0.3083 -0.3089  0.2534
 1918SOL    HW117213   2.816   4.070  10.332  0.0362 -0.1484  0.3889
 1918SOL    HW217214   2.948   4.027  10.265  0.0343 -0.3210 -1.5759
 1919SOL     OW17215   0.937   4.669   3.469 -0.4233  0.6360 -0.1285
 1919SOL    HW117216   0.948   4.700   3.559  2.4206  0.1655 -0.3146
 1919SOL    HW217217   0.846   4.639   3.470 -0.0092 -0.6378 -0.7888
 1920SOL     OW17218   4.085   0.145   4.282  0.3069 -0.0662 -0.2150
 1920SOL    HW117219   4.127   0.089   4.217 -2.7049 -1.2458 -1.1597
 1920SOL    HW217220   4.150   0.160   4.351  0.5127 -1.7466 -0.0640
 1921SOL     OW17221   3.806   3.947  11.887  0.0519  0.4258  0.7832
 1921SOL    HW117222   3.727   3.919  11.932 -0.0839 -1.6458 -0.7585
 1921SOL    HW217223   3.829   4.026  11.937 -0.2090  0.9446  0.0772
 1922SOL     OW17224   2.258   2.377   6.189  0.8148 -0.2593  0.2682
 1922SOL    HW117225   2.271   2.283   6.203  0.4162 -0.2670  0.5714
 1922SOL    HW217226   2.340   2.409   6.228  0.2140  0.5882  0.8323
 1923SOL     OW17227   4.651   4.435   1.862  0.4892 -0.2498 -0.3821
 1923SOL    HW117228   0.004   4.399   1.812  1.7247  0.4540  0.9261
 1923SOL    HW217229   4.686   4.427   1.950  0.9068 -2.2153 -0.7290
 1924SOL     OW17230   3.682   4.336   4.618  0.2479 -0.1612 -0.3273
 1924SOL    HW117231   3.658   4.351   4.526 -0.0768 -2.3932 -0.5939
 1924SOL    HW217232   3.772   4.369   4.619  0.1321  0.0218  3.2882
 1925SOL     OW17233   1.955   2.779   6.788 -0.3716 -0.0129 -0.0355
 1925SOL    HW117234   1.897   2.848   6.755 -0.9484  0.1581  1.3547
 1925SOL    HW217235   2.038   2.825   6.795  0.1285 -0.9528  0.2535
 1926SOL     OW17236   4.540   3.160  10.947 -0.0039 -0.6675 -0.3334
 1926SOL    HW117237   4.464   3.217  10.938  0.6641  0.5421  1.7131
 1926SOL    HW217238   4.604   3.213  10.899 -0.1465 -1.2805 -1.2178
 1927SOL     OW17239   3.852   4.196  15.327  1.0468 -0.3535  0.5223
 1927SOL    HW117240   3.804   4.124  15.370 -1.6760  1.1481 -0.0390
 1927SOL    HW217241   3.784   4.263  15.332  0.5064 -0.6812 -2.3392
 1928SOL     OW17242   2.363   4.087   9.790 -0.2056  0.2989  0.2766
 1928SOL    HW117243   2.440   4.031   9.797 -0.8664 -0.7083 -0.5022
 1928SOL    HW217244   2.398   4.176   9.797  2.0218 -0.2535 -4.0199
 1929SOL     OW17245   2.222   4.646   9.613  0.0326  0.4219 -0.2945
 1929SOL    HW117246   2.180   4.710   9.555 -1.8102  1.3151  2.0593
 1929SOL    HW217247   2.144   4.619   9.662 -1.3995  3.3404 -0.9565
 1930SOL     OW17248   2.563   1.803  13.567 -0.1921 -0.2681  0.4777
 1930SOL    HW117249   2.569   1.764  13.480  3.1234  1.3579 -0.0008
 1930SOL    HW217250   2.565   1.724  13.622 -1.5100 -1.5261 -1.2814
 1931SOL     OW17251   1.952   3.937  17.100  0.3214  0.9189 -0.4330
 1931SOL    HW117252   1.914   3.851  17.084 -1.8883  2.2250 -2.2416
 1931SOL    HW217253   1.985   3.964  17.014  0.1969 -1.6686 -1.2946
 1932SOL     OW17254   0.231   1.034  16.422  0.1794  0.2024  0.7487
 1932SOL    HW117255   0.185   0.961  16.464 -2.4241  0.7339 -1.1665
 1932SOL    HW217256   0.320   0.999  16.416 -0.4633 -0.7949 -2.6634
 1933SOL     OW17257   4.094   3.105   6.203 -0.3593  0.4912  0.3560
 1933SOL    HW117258   4.188   3.088   6.207 -0.0179  2.3291  0.2289
 1933SOL    HW217259   4.067   3.058   6.282 -1.7764  1.2979  0.3379
 1934SOL     OW17260   3.738   4.338   2.938 -0.1389  0.1555  0.3260
 1934SOL    HW117261   3.717   4.297   2.854 -0.6882  0.1222  0.4792
 1934SOL    HW217262   3.824   4.378   2.925  0.1070  0.6258  3.2814
 1935SOL     OW17263   1.504   3.726   8.252 -0.2510 -0.2280  0.7318
 1935SOL    HW117264   1.463   3.684   8.177  0.0701  0.4810  0.1608
 1935SOL    HW217265   1.592   3.739   8.217 -0.4800  0.1453  0.3072
 1936SOL     OW17266   4.069   3.058   2.427  0.1724 -0.4419  0.7138
 1936SOL    HW117267   3.996   3.115   2.453 -1.3330 -2.4559  0.9390
 1936SOL    HW217268   4.121   3.066   2.507  2.1696  0.5447 -0.6927
 1937SOL     OW17269   3.347   3.014   3.009  0.2921 -0.1341 -0.3266
 1937SOL    HW117270   3.374   3.024   2.918 -0.9720  0.9614 -0.5806
 1937SOL    HW217271   3.316   2.923   3.012  0.4975 -0.2622 -2.1219
 1938SOL     OW17272   2.336   0.574   7.984  0.5759  0.0806  0.3258
 1938SOL    HW117273   2.411   0.522   8.012 -0.9375 -2.9377 -1.2085
 1938SOL    HW217274   2.351   0.639   8.053 -0.5822  0.5822  0.1097
 1939SOL     OW17275   1.647   3.038   7.651  0.3493 -0.2106 -0.2108
 1939SOL    HW117276   1.606   3.122   7.672  3.4821  1.1343  0.4674
 1939SOL    HW217277   1.660   3.039   7.556  0.6579  0.2043 -0.1639
 1940SOL     OW17278   2.068   4.291  17.348  0.5628 -0.2130 -0.5736
 1940SOL    HW117279   2.146   4.237  17.343 -1.0671 -2.4038 -2.2561
 1940SOL    HW217280   2.081   4.338  17.430 -2.0064  0.3088 -0.4453
 1941SOL     OW17281   0.077   0.404   7.340 -0.6684 -0.1872  0.3153
 1941SOL    HW117282   0.014   0.384   7.271  1.8260 -2.4768 -1.2763
 1941SOL    HW217283   0.046   0.363   7.421 -1.6738 -0.2814 -0.1231
 1942SOL     OW17284   3.644   2.903  13.323 -0.1975  0.3815  0.2984
 1942SOL    HW117285   3.683   2.951  13.396 -1.5095  2.4329 -0.3429
 1942SOL    HW217286   3.710   2.842  13.291 -0.4647  1.1676 -1.7644
 1943SOL     OW17287   0.789   2.150   6.431  0.0601 -0.4693 -0.1082
 1943SOL    HW117288   0.779   2.243   6.454 -1.1282 -0.6071 -0.0580
 1943SOL    HW217289   0.820   2.159   6.341 -0.1132  0.4562 -0.0767
 1944SOL     OW17290   1.402   4.301  11.260  0.4464  0.1252 -0.5012
 1944SOL    HW117291   1.374   4.380  11.306  1.6043 -0.1310  0.6456
 1944SOL    HW217292   1.326   4.242  11.263  0.8141 -0.4002 -1.4289
 1945SOL     OW17293   3.379   0.096   5.228 -0.0433  0.1253  0.1207
 1945SOL    HW117294   3.289   0.126   5.241  0.4577  1.8641 -0.5054
 1945SOL    HW217295   3.361   0.015   5.180  1.0497 -0.9869  1.5896
 1946SOL     OW17296   3.170   3.053   7.011  0.3796 -0.0421  0.1366
 1946SOL    HW117297   3.127   3.064   6.926 -0.5953  4.4464  1.2239
 1946SOL    HW217298   3.106   2.994   7.052  1.0825 -0.5669  0.4829
 1947SOL     OW17299   2.137   3.882  13.502 -0.1183  0.3091  0.1905
 1947SOL    HW117300   2.228   3.860  13.520  0.5258  1.6916 -1.3997
 1947SOL    HW217301   2.146   3.897  13.408  0.6479  0.4271  0.2877
 1948SOL     OW17302   2.731   2.067  12.288  0.6718 -0.5469  0.4152
 1948SOL    HW117303   2.640   2.069  12.317  0.9153 -0.2215  1.1443
 1948SOL    HW217304   2.724   2.104  12.199 -0.1337  0.9460  1.1036
 1949SOL     OW17305   0.366   3.202   4.292  0.3477  0.1820 -0.4115
 1949SOL    HW117306   0.453   3.187   4.255  1.0073 -0.7231  1.5205
 1949SOL    HW217307   0.361   3.297   4.285 -3.5295  0.1218  1.1005
 1950SOL     OW17308   2.382   4.005   2.579 -0.8517  0.4029  0.2802
 1950SOL    HW117309   2.403   3.920   2.618 -1.6214  0.5560  1.0423
 1950SOL    HW217310   2.447   4.009   2.509 -1.0095 -1.4222  0.0204
 1951SOL     OW17311   3.529   1.411   1.353 -0.5067 -0.4187  0.2351
 1951SOL    HW117312   3.522   1.328   1.400  0.4170 -1.0117 -0.6852
 1951SOL    HW217313   3.552   1.386   1.264  0.0860  1.3996 -0.1115
 1952SOL     OW17314   4.626   4.414   2.483  0.4178 -0.4370  0.8653
 1952SOL    HW117315   4.562   4.482   2.458  1.3940 -0.6838 -2.3043
 1952SOL    HW217316   4.626   4.421   2.578  2.0657 -1.9366  0.9700
 1953SOL     OW17317   3.210   3.516   7.748 -0.3094  0.3655 -0.0495
 1953SOL    HW117318   3.269   3.451   7.785 -1.2114 -1.5186 -1.8986
 1953SOL    HW217319   3.259   3.596   7.766  1.0257 -0.6175  0.6055
 1954SOL     OW17320   0.666   3.226   9.358  0.1332  0.1802 -0.0169
 1954SOL    HW117321   0.662   3.221   9.263 -1.7222 -1.2541  0.1207
 1954SOL    HW217322   0.622   3.146   9.387  0.2798  0.5723  1.3163
 1955SOL     OW17323   3.311   0.870  10.314 -0.1582  0.2946 -0.0204
 1955SOL    HW117324   3.232   0.819  10.301  0.9940 -0.8775 -2.4002
 1955SOL    HW217325   3.368   0.843  10.242 -0.8620  1.2577 -0.9457
 1956SOL     OW17326   2.697   0.737  16.660  0.5939 -0.0997 -0.3704
 1956SOL    HW117327   2.762   0.807  16.653  0.9947 -0.4311  0.0431
 1956SOL    HW217328   2.646   0.760  16.582  1.2469  5.4883  0.8322
 1957SOL     OW17329   3.609   0.169   4.045  0.0690  0.0527  0.1096
 1957SOL    HW117330   3.627   0.253   4.085 -0.0528 -0.1377  0.5581
 1957SOL    HW217331   3.600   0.205   3.957 -2.4065 -0.2614  0.2322
 1958SOL     OW17332   3.181   1.870   2.806 -0.1343  0.0962  0.4099
 1958SOL    HW117333   3.134   1.911   2.879  0.4639  2.4390 -0.5501
 1958SOL    HW217334   3.196   1.949   2.755 -0.7398 -0.1679 -0.1734
 1959SOL     OW17335   4.671   0.600   2.404 -0.5141 -0.0418  0.5608
 1959SOL    HW117336   0.003   0.592   2.324 -1.1607 -0.8268  0.2163
 1959SOL    HW217337   4.646   0.508   2.409  1.2299 -0.4512  1.9824
 1960SOL     OW17338   0.671   4.477   8.704 -0.0848  0.2008  0.1777
 1960SOL    HW117339   0.739   4.493   8.769  0.7620  2.3261 -1.2535
 1960SOL    HW217340   0.731   4.442   8.638 -1.0005  1.3772 -1.2763
 1961SOL     OW17341   1.018   1.616  10.564 -0.6342 -0.4338 -0.1986
 1961SOL    HW117342   1.032   1.530  10.524 -1.6683  0.1666 -1.8411
 1961SOL    HW217343   1.031   1.670  10.486  0.3959  1.1798  1.1120
 1962SOL     OW17344   3.830   3.178   2.533 -0.0789  0.3320  1.0068
 1962SOL    HW117345   3.797   3.220   2.453 -2.0385  2.2917  2.8633
 1962SOL    HW217346   3.791   3.091   2.528  1.6438 -0.4410  0.9665
 1963SOL     OW17347   1.576   2.844   8.502 -0.8355 -0.3060 -0.2286
 1963SOL    HW117348   1.523   2.802   8.434 -1.3151 -0.1431  0.0420
 1963SOL    HW217349   1.616   2.773   8.553  2.2612  0.7006 -1.2487
 1964SOL     OW17350   3.105   1.587   8.649  0.2223  0.4118  0.0245
 1964SOL    HW117351   3.112   1.492   8.635  1.3278  0.6410 -0.9153
 1964SOL    HW217352   3.169   1.596   8.719  0.5980  1.4471 -0.4568
 1965SOL     OW17353   0.988   4.014   3.363 -0.5396 -0.1048 -0.2289
 1965SOL    HW117354   1.053   4.073   3.402  1.1339 -0.4085 -2.5766
 1965SOL    HW217355   0.994   4.037   3.270  0.7437  0.8668  0.0984
 1966SOL     OW17356   4.241   1.347   0.574 -0.0793 -0.2497 -0.1388
 1966SOL    HW117357   4.314   1.285   0.565  0.2134  0.1736 -0.6241
 1966SOL    HW217358   4.176   1.306   0.518 -0.3093 -1.1998  0.8108
 1967SOL     OW17359   1.524   3.278   0.958  0.2994  0.2799  0.7245
 1967SOL    HW117360   1.511   3.186   0.932  0.9877  0.6379 -0.8749
 1967SOL    HW217361   1.579   3.310   0.887  1.3409 -1.7244  0.6146
 1968SOL     OW17362   2.701   0.832   4.899  0.5361 -0.5209 -0.2716
 1968SOL    HW117363   2.609   0.832   4.925  0.3814  2.0958 -0.7512
 1968SOL    HW217364   2.708   0.742   4.868  0.1397 -1.0101  1.0917
 1969SOL     OW17365   4.701   4.297   9.862 -0.1720 -0.1246  0.2986
 1969SOL    HW117366   4.640   4.347   9.917 -0.9359  0.5364 -1.1538
 1969SOL    HW217367   0.061   4.309   9.912 -0.0712  0.7928 -0.0861
 1970SOL     OW17368   4.559   0.069   1.035 -0.2958  0.2765 -0.3963
 1970SOL    HW117369   4.509   0.151   1.037 -1.2804 -0.3303 -0.5612
 1970SOL    HW217370   4.598   0.077   0.948 -1.4434  0.3745 -0.8930
 1971SOL     OW17371   0.225   3.297   7.370  0.1724 -0.3478  0.1685
 1971SOL    HW117372   0.173   3.272   7.446 -0.5066 -1.7289 -0.7532
 1971SOL    HW217373   0.178   3.374   7.338 -1.1020  0.2312  3.4407
 1972SOL     OW17374   2.461   2.588   7.894  0.2167  0.0934 -0.5872
 1972SOL    HW117375   2.415   2.670   7.877  1.4103  0.5403 -1.6634
 1972SOL    HW217376   2.397   2.550   7.954  0.6856  0.2353  0.0058
 1973SOL     OW17377   4.675   2.530   6.692 -0.4150  0.2391  0.8950
 1973SOL    HW117378   4.665   2.485   6.608 -3.8736 -0.2368  1.5456
 1973SOL    HW217379   4.590   2.574   6.694 -1.0882 -1.0827  1.5268
 1974SOL     OW17380   0.519   0.110   3.009  0.2943  0.7680  0.4985
 1974SOL    HW117381   0.483   0.022   3.001  0.7377  0.5174  1.2467
 1974SOL    HW217382   0.599   0.100   2.957 -0.4870 -0.2449 -0.4990
 1975SOL     OW17383   3.514   1.127   4.803 -0.1523  0.5253 -0.0092
 1975SOL    HW117384   3.470   1.187   4.864  0.1334 -0.8964  1.6017
 1975SOL    HW217385   3.440   1.070   4.782  0.7682  0.1677 -2.2079
 1976SOL     OW17386   2.739   3.063   5.368 -0.3997  0.1245  0.1020
 1976SOL    HW117387   2.791   3.096   5.295  0.8478 -1.2059  0.3738
 1976SOL    HW217388   2.727   3.138   5.426 -1.7585  1.6330 -2.1439
 1977SOL     OW17389   4.145   1.141   4.063  0.3739 -0.6755  0.2856
 1977SOL    HW117390   4.226   1.189   4.079 -0.5871  0.6767  1.0892
 1977SOL    HW217391   4.114   1.170   3.977  2.2376 -0.0335 -0.1645
 1978SOL     OW17392   3.741   1.980  15.955 -0.0679 -0.2250 -0.6717
 1978SOL    HW117393   3.679   1.978  15.882  1.7202  1.9681 -2.2702
 1978SOL    HW217394   3.757   2.075  15.959 -0.0333 -0.2578 -0.0789
 1979SOL     OW17395   2.394   0.533   0.580 -0.0612 -0.2362 -0.2153
 1979SOL    HW117396   2.455   0.460   0.565  0.3464 -0.3786  2.1544
 1979SOL    HW217397   2.313   0.496   0.545 -1.1651  0.4672  1.6020
 1980SOL     OW17398   1.170   3.990   7.290  0.3179 -0.3724  0.0473
 1980SOL    HW117399   1.126   3.914   7.329  0.7309 -1.1865 -1.0883
 1980SOL    HW217400   1.103   4.057   7.288 -0.7669 -1.4367  0.5506
 1981SOL     OW17401   1.796   2.957   2.384 -0.3833  0.7427  0.5596
 1981SOL    HW117402   1.815   2.882   2.328 -1.6087 -0.8032  2.2439
 1981SOL    HW217403   1.701   2.960   2.393 -0.6880  2.0353 -2.9557
 1982SOL     OW17404   2.844   4.281   9.192  0.6814 -0.1436  0.0007
 1982SOL    HW117405   2.860   4.318   9.279  0.5097 -1.3940  0.5665
 1982SOL    HW217406   2.900   4.206   9.210 -0.0669 -0.8619 -0.6755
 1983SOL     OW17407   3.940   1.816   1.928  0.0852  0.2656  0.2369
 1983SOL    HW117408   3.882   1.819   1.852 -1.6660 -0.5292  1.5542
 1983SOL    HW217409   3.977   1.905   1.920  1.2236 -0.2510 -0.2575
 1984SOL     OW17410   0.061   3.418   8.603 -0.1587 -0.4970  0.5203
 1984SOL    HW117411   0.083   3.426   8.695  0.0402 -2.0948  0.6074
 1984SOL    HW217412   0.143   3.380   8.569  0.4222  1.1841  0.0503
 1985SOL     OW17413   2.589   4.189   2.168 -0.2815 -0.0871 -0.0218
 1985SOL    HW117414   2.573   4.151   2.081  3.2064  0.5446 -0.9494
 1985SOL    HW217415   2.652   4.259   2.155  0.0399 -0.3922 -0.1129
 1986SOL     OW17416   4.682   2.276   4.928 -0.4168 -0.5241  0.4285
 1986SOL    HW117417   0.016   2.241   4.858 -0.4434  0.1533  0.0656
 1986SOL    HW217418   4.664   2.195   4.975 -2.4374  0.2961  1.0856
 1987SOL     OW17419   4.547   0.631   8.233 -0.0527 -0.4059 -0.3155
 1987SOL    HW117420   4.469   0.686   8.232  0.2713  0.0343 -1.3393
 1987SOL    HW217421   4.503   0.549   8.208  0.3247 -1.1590  1.5031
 1988SOL     OW17422   2.023   2.128   9.075 -0.2943 -0.1567 -0.2537
 1988SOL    HW117423   2.094   2.067   9.096  0.1921  0.6401  0.3837
 1988SOL    HW217424   1.969   2.109   9.152  0.5456  0.5342  0.5004
 1989SOL     OW17425   0.422   4.543   4.402  0.3692  0.1676  0.1286
 1989SOL    HW117426   0.392   4.508   4.318  0.2239 -0.6303  0.5178
 1989SOL    HW217427   0.340   4.539   4.452 -1.4497  0.2171 -2.8364
 1990SOL     OW17428   3.712   2.951   4.906 -0.4035  0.5146  0.4312
 1990SOL    HW117429   3.629   2.981   4.943  0.0072  1.2559  0.7373
 1990SOL    HW217430   3.751   2.906   4.981  2.3371 -0.7618 -1.7695
 1991SOL     OW17431   4.281   0.447  12.287 -0.0373 -0.2342 -0.0400
 1991SOL    HW117432   4.332   0.423  12.364  0.1891 -1.8340 -0.7003
 1991SOL    HW217433   4.200   0.395  12.289  1.2104 -2.0139  4.1794
 1992SOL     OW17434   3.470   4.485   9.430  0.3045  0.3720  0.3347
 1992SOL    HW117435   3.527   4.501   9.355  0.0594  1.8467  0.4565
 1992SOL    HW217436   3.534   4.440   9.485 -0.2776 -1.1462 -0.2338
 1993SOL     OW17437   4.124   4.493  15.863 -0.6273  0.0719  0.4552
 1993SOL    HW117438   4.097   4.458  15.778  0.7616  1.4800 -0.5487
 1993SOL    HW217439   4.041   4.501  15.909  1.2719  0.6449  3.7874
 1994SOL     OW17440   4.534   3.650  10.281 -0.1389 -0.4557 -0.6960
 1994SOL    HW117441   4.545   3.586  10.210 -0.7040 -0.2555 -0.9689
 1994SOL    HW217442   4.599   3.627  10.346  0.8456 -0.3965 -1.6620
 1995SOL     OW17443   1.848   1.373   2.098  0.3465 -0.2281 -0.8960
 1995SOL    HW117444   1.943   1.367   2.110  0.1528 -2.0360 -0.2601
 1995SOL    HW217445   1.845   1.395   2.005  1.8215 -1.8037 -1.3112
 1996SOL     OW17446   0.043   4.337   6.535  0.4544 -0.1889 -0.1298
 1996SOL    HW117447   0.039   4.404   6.467 -2.3304  0.1046  0.3205
 1996SOL    HW217448   0.099   4.377   6.602  1.0924  0.7109 -1.2004
 1997SOL     OW17449   2.006   2.279   4.005  0.1446 -0.3093  0.3280
 1997SOL    HW117450   1.976   2.246   3.920 -0.4552  0.6362  0.1707
 1997SOL    HW217451   2.099   2.258   3.997 -0.5768 -2.6249 -1.9734
 1998SOL     OW17452   2.038   2.700   3.038  0.0167  0.2084 -0.5714
 1998SOL    HW117453   2.112   2.747   3.001 -0.0408  0.6157 -0.1739
 1998SOL    HW217454   1.973   2.742   2.981 -0.5489 -0.3662 -0.3476
 1999SOL     OW17455   1.946   0.407   0.417 -0.3276  0.0598  0.4191
 1999SOL    HW117456   1.920   0.367   0.335 -1.5772  1.3452  0.1964
 1999SOL    HW217457   1.889   0.354   0.473  0.0803 -1.1766 -0.3365
 2000SOL     OW17458   2.855   4.192   6.951 -0.2619  0.1098  0.5468
 2000SOL    HW117459   2.818   4.104   6.953 -1.8055  0.7289 -0.3949
 2000SOL    HW217460   2.909   4.192   7.030 -2.0258  0.9994  1.7448
 2001SOL     OW17461   1.111   0.118  16.206 -0.4532 -0.5295  0.1786
 2001SOL    HW117462   1.139   0.119  16.115  1.8819 -0.1948  0.9191
 2001SOL    HW217463   1.015   0.117  16.207 -0.4566 -0.0426  0.7709
 2002SOL     OW17464   0.865   3.729   2.743  0.3559  0.2205  0.0077
 2002SOL    HW117465   0.842   3.821   2.731 -2.9073 -0.7370 -1.2454
 2002SOL    HW217466   0.779   3.688   2.753  1.2779 -2.3194 -2.2892
 2003SOL     OW17467   2.862   1.856   4.779 -0.2476 -0.1973  0.2903
 2003SOL    HW117468   2.903   1.775   4.808  0.8130 -0.1970 -1.2120
 2003SOL    HW217469   2.936   1.908   4.746 -0.4676 -1.6819 -2.5861
 2004SOL     OW17470   4.312   2.047   2.933  0.3806 -0.4393  0.2776
 2004SOL    HW117471   4.218   2.029   2.932  0.5107 -0.8314 -3.9296
 2004SOL    HW217472   4.323   2.049   3.028  0.7513 -1.1883  0.2510
 2005SOL     OW17473   0.382   2.601  17.042  0.7949  0.1780 -0.3637
 2005SOL    HW117474   0.330   2.554  17.107 -0.6181 -0.4868 -1.9784
 2005SOL    HW217475   0.354   2.550  16.966  0.5966 -1.6146  0.9216
 2006SOL     OW17476   0.427   2.824  16.844  0.0770  0.1618 -0.0051
 2006SOL    HW117477   0.358   2.805  16.780  0.0436  1.7053 -0.4441
 2006SOL    HW217478   0.431   2.753  16.908 -2.1247  0.8284  0.8986
 2007SOL     OW17479   3.718   2.848   6.589 -0.4069 -0.1444  0.0722
 2007SOL    HW117480   3.660   2.920   6.563  1.2300  0.5667 -1.5928
 2007SOL    HW217481   3.698   2.794   6.512  0.6321  1.2624 -1.2046
 2008SOL     OW17482   3.720   4.141   2.751 -0.1565  0.0466  0.3955
 2008SOL    HW117483   3.698   4.062   2.801 -2.2886  0.7676  0.6012
 2008SOL    HW217484   3.737   4.103   2.665 -0.2327 -0.6455  0.6815
 2009SOL     OW17485   0.145   2.639   2.365 -0.3007  0.2237 -0.2421
 2009SOL    HW117486   0.079   2.577   2.396 -0.3934  0.3444 -0.1955
 2009SOL    HW217487   0.100   2.721   2.387  0.5850  0.1026  2.0359
 2010SOL     OW17488   2.230   0.387  12.763 -0.1576  0.0895  0.1650
 2010SOL    HW117489   2.304   0.336  12.729 -0.7976 -0.9690  0.3551
 2010SOL    HW217490   2.164   0.318  12.754 -0.2979  0.2150  0.2309
 2011SOL     OW17491   4.005   2.867   3.406 -0.7621  0.3333  0.0886
 2011SOL    HW117492   4.098   2.875   3.427 -1.2548 -0.0063  2.3762
 2011SOL    HW217493   3.975   2.957   3.423  0.3161  0.5786  0.6587
 2012SOL     OW17494   2.747   0.356   0.354  0.6774  0.2196  0.6640
 2012SOL    HW117495   2.792   0.424   0.404 -0.7129  2.2212 -0.7900
 2012SOL    HW217496   2.673   0.399   0.311 -0.0221 -1.6059  0.0296
 2013SOL     OW17497   1.995   4.014  10.287  0.0488  0.5702  0.1680
 2013SOL    HW117498   1.903   3.997  10.268  0.3823 -1.0956 -0.0026
 2013SOL    HW217499   1.997   4.035  10.380 -0.2935 -1.2435  0.5943
 2014SOL     OW17500   3.646   0.067   4.681  0.6769  0.7693  0.2151
 2014SOL    HW117501   3.640   0.041   4.589 -0.7494  0.6500  0.3353
 2014SOL    HW217502   3.668   4.704   4.722 -1.4425  0.3367  0.5191
 2015SOL     OW17503   1.226   2.188   7.732  0.0466  0.1345  0.1661
 2015SOL    HW117504   1.272   2.121   7.682  2.0794  2.7068 -1.4753
 2015SOL    HW217505   1.132   2.174   7.721 -0.0600 -0.2678  1.6654
 2016SOL     OW17506   0.966   4.230   8.127  0.5149 -0.0600 -0.1292
 2016SOL    HW117507   1.004   4.188   8.204  0.8274  1.7866  0.7210
 2016SOL    HW217508   1.048   4.272   8.099  1.5974 -1.5542  0.8134
 2017SOL     OW17509   4.498   1.652  13.942  0.1855 -0.7454 -0.0013
 2017SOL    HW117510   4.506   1.689  13.854 -1.7100 -3.2094 -1.2353
 2017SOL    HW217511   4.404   1.672  13.949 -0.1852 -3.0419  1.4277
 2018SOL     OW17512   2.350   1.465  11.560  0.3152  0.0220  0.1342
 2018SOL    HW117513   2.337   1.501  11.647 -0.6677 -1.1009  0.4603
 2018SOL    HW217514   2.425   1.513  11.526  1.4059 -2.5821 -1.1733
 2019SOL     OW17515   4.635   1.597  11.444  0.5117  0.3151  0.2306
 2019SOL    HW117516   4.714   1.626  11.488  2.4211  0.4522 -3.2847
 2019SOL    HW217517   4.652   1.619  11.352 -0.5292  0.9560  0.1896
 2020SOL     OW17518   0.979   4.526   7.733  0.2035 -0.2125  1.0506
 2020SOL    HW117519   0.893   4.526   7.776 -1.9118  0.8015 -3.0958
 2020SOL    HW217520   0.999   4.433   7.723  2.2251  0.1988  1.2740
 2021SOL     OW17521   3.237   3.730   8.424  0.2987  0.6367  0.0900
 2021SOL    HW117522   3.143   3.743   8.419  0.3511  0.8627 -0.2694
 2021SOL    HW217523   3.242   3.635   8.411 -0.8835  0.7427 -1.1218
 2022SOL     OW17524   0.316   2.577  11.011 -0.2510  0.0103  0.1494
 2022SOL    HW117525   0.400   2.564  11.056 -0.4516 -1.4248  0.0936
 2022SOL    HW217526   0.354   2.613  10.931  0.0942 -1.2886 -0.2669
 2023SOL     OW17527   1.009   2.037  14.400  0.2396 -0.1111 -0.2494
 2023SOL    HW117528   0.997   2.013  14.492  2.4529 -0.7975 -0.1502
 2023SOL    HW217529   0.933   2.096  14.397  1.6070  1.6211 -0.2835
 2024SOL     OW17530   1.616   2.800  13.393 -0.1873  0.3065  0.2914
 2024SOL    HW117531   1.612   2.789  13.298 -2.4522 -2.4653  0.7133
 2024SOL    HW217532   1.708   2.823  13.407  0.2631 -0.0646 -2.0572
 2025SOL     OW17533   0.319   2.116   9.981  0.1485  0.4622  0.4676
 2025SOL    HW117534   0.345   2.029  10.012  0.0648 -0.2010 -1.3375
 2025SOL    HW217535   0.322   2.093   9.888 -0.2496  0.1300  0.5366
 2026SOL     OW17536   1.775   1.670   2.465 -0.3813 -0.6314 -0.5633
 2026SOL    HW117537   1.839   1.654   2.395  3.3391 -2.4195  3.2788
 2026SOL    HW217538   1.819   1.745   2.504  2.4269 -3.2869  1.3497
 2027SOL     OW17539   4.348   3.397   2.153 -0.1478 -0.3419 -0.2939
 2027SOL    HW117540   4.276   3.458   2.166  0.3967  0.4573 -1.0075
 2027SOL    HW217541   4.321   3.325   2.210 -0.1732 -0.9918 -1.1136
 2028SOL     OW17542   0.747   0.325   0.692 -0.3146 -0.0935  0.0129
 2028SOL    HW117543   0.754   0.310   0.786  1.0004  1.0892  0.1146
 2028SOL    HW217544   0.761   0.238   0.656  0.9125 -0.6007  1.7260
 2029SOL     OW17545   0.505   2.767   7.448 -0.2440  0.3028  0.3182
 2029SOL    HW117546   0.593   2.768   7.409  0.7307  2.5843  2.6212
 2029SOL    HW217547   0.520   2.788   7.540 -0.0348 -0.1044  0.3806
 2030SOL     OW17548   2.883   1.999   8.756 -0.1649  0.3533 -0.3866
 2030SOL    HW117549   2.897   1.908   8.734  0.5662  0.1404  0.9460
 2030SOL    HW217550   2.972   2.035   8.753 -0.2142  0.3620 -1.5465
 2031SOL     OW17551   2.006   3.819   6.105 -0.3468 -0.4453 -0.3779
 2031SOL    HW117552   2.043   3.810   6.192 -0.3877  0.9122 -0.2180
 2031SOL    HW217553   2.077   3.774   6.058 -0.8377 -1.2349 -0.3576
 2032SOL     OW17554   0.026   3.698   7.382  0.0796  0.6851 -0.4354
 2032SOL    HW117555   0.012   3.774   7.439 -0.9748  1.8491 -2.2822
 2032SOL    HW217556   0.108   3.725   7.340  0.3957  1.0325  0.3998
 2033SOL     OW17557   2.111   2.221   4.845 -0.9279 -0.6827 -0.1268
 2033SOL    HW117558   2.159   2.139   4.856 -2.6688 -1.6762 -0.0795
 2033SOL    HW217559   2.099   2.237   4.751  2.9485  1.3129 -0.3208
 2034SOL     OW17560   4.638   4.488   5.979 -0.3743 -0.5857 -0.0891
 2034SOL    HW117561   4.615   4.412   5.925 -0.3851 -2.1342  2.0545
 2034SOL    HW217562   4.611   4.566   5.931 -2.2608  0.9413  3.4423
 2035SOL     OW17563   0.262   4.058   8.357  0.3760  0.7145  0.2508
 2035SOL    HW117564   0.217   4.039   8.439 -0.1422 -0.9753 -0.4485
 2035SOL    HW217565   0.341   4.098   8.395  2.4743 -2.4797 -0.7554
 2036SOL     OW17566   2.772   1.456   4.774  0.0885 -0.0920  0.0793
 2036SOL    HW117567   2.756   1.407   4.854 -0.2537  0.9801  0.6564
 2036SOL    HW217568   2.683   1.457   4.740  0.1424 -0.6077 -0.0847
 2037SOL     OW17569   2.288   3.215   6.705 -0.1299  0.2406 -0.4481
 2037SOL    HW117570   2.307   3.241   6.615  0.0098 -2.5209 -1.2240
 2037SOL    HW217571   2.377   3.206   6.737 -0.0363  0.2714 -0.6939
 2038SOL     OW17572   0.741   4.678   3.858 -0.1809 -0.3750 -0.8385
 2038SOL    HW117573   0.696   4.713   3.935 -2.3779  0.3302 -2.4114
 2038SOL    HW217574   0.719   0.028   3.797 -0.8768 -0.4125 -0.6300
 2039SOL     OW17575   1.959   0.834   6.100 -0.0461 -0.4416  0.4822
 2039SOL    HW117576   1.919   0.918   6.123 -0.6950 -0.9562  1.2354
 2039SOL    HW217577   2.035   0.860   6.048 -1.4741  0.6756 -1.0431
 2040SOL     OW17578   4.250   0.297   6.506  0.2851 -0.2183 -0.4315
 2040SOL    HW117579   4.189   0.323   6.575 -0.2314 -0.4357 -0.8024
 2040SOL    HW217580   4.195   0.243   6.449 -1.6761  2.8643 -1.4680
 2041SOL     OW17581   2.874   1.657   5.506 -0.1928 -0.8290 -0.6530
 2041SOL    HW117582   2.903   1.590   5.568  2.5513  1.6033  0.7167
 2041SOL    HW217583   2.818   1.717   5.555  2.3003  2.1412 -1.4508
 2042SOL     OW17584   3.027   0.690   9.251 -0.6661 -0.0128  0.0695
 2042SOL    HW117585   3.035   0.785   9.254 -1.6807 -0.0004  2.0659
 2042SOL    HW217586   2.962   0.682   9.320  0.4886 -0.2834  1.1263
 2043SOL     OW17587   1.868   1.565  13.044 -0.2676 -0.0132 -0.3730
 2043SOL    HW117588   1.804   1.630  13.015  0.3651  0.4429 -0.7197
 2043SOL    HW217589   1.829   1.522  13.121 -1.7374  0.2153 -0.9887
 2044SOL     OW17590   3.989   3.830   0.006  0.1686  0.0698 -0.1515
 2044SOL    HW117591   3.938   3.911   0.016  0.4370  0.2191  0.0098
 2044SOL    HW217592   3.924   3.761   0.021 -0.3903  1.3162  3.1560
 2045SOL     OW17593   4.548   2.924   6.072  0.3598  0.4351  0.8952
 2045SOL    HW117594   4.482   2.858   6.049  0.3378  0.7332  0.1274
 2045SOL    HW217595   4.602   2.875   6.134 -2.1287 -1.8459  1.3110
 2046SOL     OW17596   3.681   0.395  15.572 -0.0063  0.1312 -0.4545
 2046SOL    HW117597   3.696   0.395  15.667  1.3730  3.1958 -0.6816
 2046SOL    HW217598   3.590   0.368  15.578 -0.0330  0.1689 -0.6930
 2047SOL     OW17599   3.708   0.319   7.638 -0.2187 -0.5406  0.7697
 2047SOL    HW117600   3.678   0.363   7.718 -3.5031  0.1102 -0.8050
 2047SOL    HW217601   3.675   0.232   7.658  0.9524 -1.2608 -0.4527
 2048SOL     OW17602   0.704   2.837  15.199 -0.1162 -0.4000  0.5307
 2048SOL    HW117603   0.769   2.841  15.128  0.0667 -0.2916  0.7058
 2048SOL    HW217604   0.621   2.841  15.151 -0.2522  1.1974  0.9008
 2049SOL     OW17605   2.768   4.565  14.876 -0.3233  0.5915 -0.0375
 2049SOL    HW117606   2.798   4.587  14.964  0.6798  0.4745 -0.3481
 2049SOL    HW217607   2.855   4.572  14.837  0.4244  2.0971  1.8802
 2050SOL     OW17608   0.933   2.720  14.795  0.1000 -0.1552 -0.4208
 2050SOL    HW117609   1.021   2.752  14.816  0.2083 -1.9039  1.7752
 2050SOL    HW217610   0.872   2.780  14.838 -1.8237 -2.4511  0.0522
 2051SOL     OW17611   4.033   1.967   6.623  0.2091  0.0052  0.3196
 2051SOL    HW117612   3.993   1.911   6.557 -0.1090  0.2712  0.2877
 2051SOL    HW217613   3.961   2.027   6.640 -0.8527 -1.1253 -0.1074
 2052SOL     OW17614   0.118   3.213   4.413 -0.0429  0.1063 -0.2423
 2052SOL    HW117615   0.198   3.210   4.360 -0.2224 -0.1379 -0.4984
 2052SOL    HW217616   0.145   3.294   4.456 -1.1500  0.1155  0.4170
 2053SOL     OW17617   0.747   2.230   5.654  0.3941  0.4821  0.1554
 2053SOL    HW117618   0.837   2.197   5.650  0.6007  1.1684 -1.0651
 2053SOL    HW217619   0.746   2.299   5.587  1.3956 -0.5559 -0.9263
 2054SOL     OW17620   2.256   1.908  13.367  0.4565  0.4777  0.6105
 2054SOL    HW117621   2.298   1.860  13.438  0.3897 -0.3029  0.1131
 2054SOL    HW217622   2.277   1.858  13.288  0.5124  2.1986 -0.4669
 2055SOL     OW17623   4.236   2.486  14.463 -0.1677  0.5367  0.1462
 2055SOL    HW117624   4.282   2.412  14.423  0.1995  1.0586 -0.3940
 2055SOL    HW217625   4.212   2.452  14.549 -1.2056  1.4779  0.2182
 2056SOL     OW17626   2.676   1.414   4.130 -0.1166 -0.2283 -0.5706
 2056SOL    HW117627   2.694   1.479   4.197  2.1553  1.0169 -2.3493
 2056SOL    HW217628   2.743   1.432   4.063 -0.9809  0.6229 -1.2069
 2057SOL     OW17629   2.248   1.048   4.436 -0.1486  0.2322 -0.0292
 2057SOL    HW117630   2.227   0.982   4.370 -3.8504  3.2951 -1.8881
 2057SOL    HW217631   2.165   1.049   4.484 -0.9768 -0.9616 -1.4637
 2058SOL     OW17632   1.377   1.399   7.990  0.1463 -0.5098  0.4752
 2058SOL    HW117633   1.445   1.389   8.057  0.5293 -0.4199  0.1015
 2058SOL    HW217634   1.380   1.319   7.937 -0.0183  1.2093 -2.1619
 2059SOL     OW17635   4.060   0.513  15.541 -0.1834  0.3005  0.2538
 2059SOL    HW117636   3.988   0.485  15.597 -2.2288  0.0508 -2.4679
 2059SOL    HW217637   4.135   0.511  15.600 -0.0389 -1.4714  0.0077
 2060SOL     OW17638   0.341   0.293   7.369  0.5141  0.1424  0.0274
 2060SOL    HW117639   0.270   0.291   7.305 -2.5092  0.3878  3.3576
 2060SOL    HW217640   0.292   0.282   7.451  0.6907  0.2493  0.1476
 2061SOL     OW17641   3.358   4.250   1.836  0.6669 -0.4836  0.4167
 2061SOL    HW117642   3.341   4.298   1.917 -2.7999 -0.0018 -0.5580
 2061SOL    HW217643   3.267   4.240   1.806  0.8876  1.5490 -0.9753
 2062SOL     OW17644   4.635   3.407   4.322 -0.5314  0.7901 -0.3922
 2062SOL    HW117645   4.644   3.347   4.396  0.1496 -0.4052 -1.4575
 2062SOL    HW217646   4.553   3.452   4.345 -1.5820 -1.3148 -0.0168
 2063SOL     OW17647   0.695   2.255  14.671 -0.1800  0.0299  0.3540
 2063SOL    HW117648   0.780   2.222  14.699 -0.6012 -1.8859 -0.6137
 2063SOL    HW217649   0.724   2.345  14.681  3.0353 -0.8635 -0.8765
 2064SOL     OW17650   3.215   0.586   1.050 -0.2965  0.1978 -0.5704
 2064SOL    HW117651   3.192   0.679   1.055 -1.2749 -0.1465  1.6860
 2064SOL    HW217652   3.126   0.550   1.052 -0.9955  2.0074  1.2295
 2065SOL     OW17653   2.973   2.852   8.571 -0.3059  0.1838  0.2183
 2065SOL    HW117654   2.993   2.890   8.656 -1.5339  0.2382  0.4899
 2065SOL    HW217655   2.944   2.762   8.589 -0.5869 -0.1809 -2.0510
 2066SOL     OW17656   1.026   4.507   5.737  0.3780 -0.5051 -0.0842
 2066SOL    HW117657   1.117   4.538   5.742  0.3988 -0.3276 -1.6148
 2066SOL    HW217658   1.013   4.464   5.822 -0.3741 -0.5965 -0.2473
 2067SOL     OW17659   2.380   1.487  12.230  0.1288  0.1384 -0.3151
 2067SOL    HW117660   2.355   1.455  12.143 -1.2421 -0.9359  0.4734
 2067SOL    HW217661   2.299   1.537  12.244 -0.3388 -0.1275 -2.0089
 2068SOL     OW17662   0.429   0.860  10.704  0.1807 -0.0533  0.0973
 2068SOL    HW117663   0.452   0.936  10.650  1.0597 -0.9906 -0.8357
 2068SOL    HW217664   0.350   0.834  10.656  0.2310  0.8428 -0.4850
 2069SOL     OW17665   2.938   2.350   0.758  0.0517 -0.4409  0.2422
 2069SOL    HW117666   2.878   2.412   0.799 -0.7769 -0.3778 -1.0297
 2069SOL    HW217667   2.887   2.281   0.713 -1.6513  0.3258  1.0082
 2070SOL     OW17668   1.360   2.654   3.390  0.3227  0.2906  0.0400
 2070SOL    HW117669   1.405   2.727   3.432  0.7942 -0.5450  1.0017
 2070SOL    HW217670   1.425   2.628   3.325 -1.2956 -1.7585 -0.7962
 2071SOL     OW17671   4.460   2.422   8.136 -0.3407  0.5369 -0.6408
 2071SOL    HW117672   4.454   2.380   8.050 -1.4290  2.0464 -1.2953
 2071SOL    HW217673   4.553   2.445   8.136  0.3444 -2.2154 -1.9726
 2072SOL     OW17674   2.718   4.658   6.008  0.2111  0.1017 -0.1478
 2072SOL    HW117675   2.669   0.020   6.004  1.0959  0.6257 -0.2077
 2072SOL    HW217676   2.751   4.674   6.096 -1.3586  0.3739  0.3932
 2073SOL     OW17677   0.279   2.671   6.315  0.6441  0.0549  0.4667
 2073SOL    HW117678   0.284   2.695   6.407  1.5392  0.3280  0.3429
 2073SOL    HW217679   0.265   2.577   6.322  1.5172  0.0470  1.9594
 2074SOL     OW17680   4.489   0.277  15.755 -0.3208 -0.0195 -0.4169
 2074SOL    HW117681   4.421   0.210  15.755 -0.3949  0.0565  0.3969
 2074SOL    HW217682   4.492   0.292  15.661 -0.1912  0.0602 -0.4009
 2075SOL     OW17683   1.793   2.305   1.721  0.1724 -0.3628 -0.2514
 2075SOL    HW117684   1.798   2.400   1.734  0.7328 -0.5575  1.0080
 2075SOL    HW217685   1.864   2.267   1.773 -1.0665 -0.6997  1.1999
 2076SOL     OW17686   2.058   0.689   9.161  0.4680 -0.2535 -0.0311
 2076SOL    HW117687   1.987   0.650   9.110  0.3336 -0.4523  0.3086
 2076SOL    HW217688   2.137   0.651   9.121  0.5645 -0.6471  0.5275
 2077SOL     OW17689   1.738   4.215  10.513 -0.5255 -0.2477  0.5125
 2077SOL    HW117690   1.819   4.165  10.503  0.8742  2.0882  0.1621
 2077SOL    HW217691   1.723   4.179  10.601 -1.9515  0.7097  0.6526
 2078SOL     OW17692   2.627   0.868   7.991  0.0375  0.3881  0.4209
 2078SOL    HW117693   2.597   0.953   7.957 -1.6609 -0.9185 -1.3745
 2078SOL    HW217694   2.542   0.837   8.022 -0.7231 -0.3717 -2.3773
 2079SOL     OW17695   2.782   2.894  15.895  0.4778 -0.0608  0.0055
 2079SOL    HW117696   2.758   2.911  15.804  3.1092  0.9695 -0.5162
 2079SOL    HW217697   2.833   2.971  15.921  2.0802 -0.8012 -0.9458
 2080SOL     OW17698   0.170   2.282   7.962 -0.0298 -0.3623 -0.1284
 2080SOL    HW117699   0.236   2.341   7.925  2.0688 -1.8801  1.2570
 2080SOL    HW217700   0.155   2.225   7.887  1.0885 -0.8494  0.0167
 2081SOL     OW17701   2.656   4.646   2.486 -0.3164  0.0661  0.2097
 2081SOL    HW117702   2.590   4.639   2.417  0.8606  1.8523 -1.1217
 2081SOL    HW217703   2.734   4.608   2.446 -1.6942  0.1940 -2.6225
 2082SOL     OW17704   2.089   2.742  15.332  0.1077 -0.4387 -0.4793
 2082SOL    HW117705   2.095   2.805  15.259  0.3848  1.3687  1.0991
 2082SOL    HW217706   2.173   2.695  15.333  0.0678 -0.5226 -1.1844
 2083SOL     OW17707   0.809   0.105   7.674  0.3583  0.5606 -0.4161
 2083SOL    HW117708   0.801   0.200   7.659 -2.4002  0.5577  1.0184
 2083SOL    HW217709   0.828   0.106   7.768  0.2824 -2.6795 -0.3814
 2084SOL     OW17710   2.200   0.868   9.300  0.2370  0.1711 -0.1932
 2084SOL    HW117711   2.158   0.882   9.385 -1.4006  1.9069 -1.2857
 2084SOL    HW217712   2.142   0.808   9.254  1.2972  0.6665 -2.1755
 2085SOL     OW17713   4.291   3.484   0.951  0.5486 -0.0670  0.4051
 2085SOL    HW117714   4.316   3.504   1.042  1.1608 -1.5318  0.5534
 2085SOL    HW217715   4.243   3.559   0.918  3.0842  1.5546  0.3624
 2086SOL     OW17716   1.062   2.931   3.635  0.4749 -0.4522 -0.0694
 2086SOL    HW117717   1.144   2.922   3.587  0.7483  2.3443 -0.0996
 2086SOL    HW217718   1.045   3.023   3.621 -1.8794 -0.5537  2.1749
 2087SOL     OW17719   3.962   4.561  12.191  0.6158  0.1619 -0.0855
 2087SOL    HW117720   4.043   4.546  12.240  0.2990 -1.0024  0.0723
 2087SOL    HW217721   3.929   4.623  12.256 -0.1416 -0.2640 -0.0634
 2088SOL     OW17722   0.127   2.443   7.276  0.3692  0.1106  0.2297
 2088SOL    HW117723   0.127   2.537   7.259  1.3541  0.5488  2.6374
 2088SOL    HW217724   0.051   2.416   7.226  0.7989  1.1341 -0.9615
 2089SOL     OW17725   3.037   3.244   9.754  0.3159 -1.0255  0.1934
 2089SOL    HW117726   3.098   3.239   9.680 -0.3042  0.6121 -0.4188
 2089SOL    HW217727   3.085   3.296   9.817  0.4509 -0.4585 -0.3775
 2090SOL     OW17728   2.890   1.055  17.499  0.3482  0.6925  1.1265
 2090SOL    HW117729   2.963   1.011  17.456 -1.5753 -1.9961  0.6119
 2090SOL    HW217730   2.824   1.039  17.431  2.0948  0.2999 -0.4512
 2091SOL     OW17731   0.201   3.873   3.377  0.3718 -0.2765  0.1951
 2091SOL    HW117732   0.143   3.819   3.322  0.7585 -0.9950  0.4907
 2091SOL    HW217733   0.232   3.804   3.436 -0.9043 -1.4749 -0.5314
 2092SOL     OW17734   1.235   4.498   7.133  0.2484  0.1974 -0.1661
 2092SOL    HW117735   1.314   4.444   7.138 -0.2145 -0.5624 -1.2026
 2092SOL    HW217736   1.193   4.462   7.055  1.7067 -0.5347 -0.6161
 2093SOL     OW17737   3.963   3.697   5.221  1.2734  0.0977  0.8224
 2093SOL    HW117738   3.923   3.617   5.187 -1.7667  1.5348  1.0908
 2093SOL    HW217739   4.034   3.653   5.269 -0.5057 -1.4775  2.0187
 2094SOL     OW17740   0.945   0.266   8.412 -0.3059 -0.1059  0.2837
 2094SOL    HW117741   0.861   0.308   8.393  0.9650  2.3670  0.2434
 2094SOL    HW217742   0.993   0.298   8.336 -0.1432 -0.2819  0.3124
 2095SOL     OW17743   3.707   2.325   7.796  0.1312  0.5612  0.5826
 2095SOL    HW117744   3.653   2.251   7.768  0.9217 -0.1143  0.8437
 2095SOL    HW217745   3.729   2.360   7.709  0.2958  0.6663  0.6666
 2096SOL     OW17746   2.520   3.376   3.432  0.0514  0.6438 -0.0045
 2096SOL    HW117747   2.514   3.315   3.358  1.8554 -1.0784  1.2824
 2096SOL    HW217748   2.614   3.364   3.445 -0.1450  1.8848  2.5347
 2097SOL     OW17749   2.246   1.353   6.607  0.4140  0.1949  0.4776
 2097SOL    HW117750   2.195   1.430   6.632  0.3312  0.0569  0.7281
 2097SOL    HW217751   2.301   1.383   6.534  1.2036  0.0147  1.0018
 2098SOL     OW17752   1.614   2.821  16.249  0.0937  0.0377 -0.4511
 2098SOL    HW117753   1.593   2.784  16.335  0.6585 -2.5815 -1.4277
 2098SOL    HW217754   1.701   2.786  16.231  0.3910  0.4831  0.1037
 2099SOL     OW17755   2.204   2.792   1.953 -0.4547 -0.4309  0.1030
 2099SOL    HW117756   2.277   2.810   1.894 -1.0761 -1.4432 -0.9660
 2099SOL    HW217757   2.257   2.805   2.032 -0.9089 -1.0719  0.5187
 2100SOL     OW17758   0.828   4.001   2.675 -0.1112  0.7160 -0.2494
 2100SOL    HW117759   0.751   4.023   2.623  0.5096 -1.0237 -1.8909
 2100SOL    HW217760   0.824   4.036   2.765 -0.1244  0.8595 -0.3051
 2101SOL     OW17761   1.231   4.520  15.609  0.4900  0.4509  0.4541
 2101SOL    HW117762   1.240   4.540  15.516 -0.4395  1.4757  0.5793
 2101SOL    HW217763   1.162   4.583  15.632 -0.7296 -0.8514  0.3752
 2102SOL     OW17764   4.051   3.723  16.724  0.1117  0.0320  0.4027
 2102SOL    HW117765   4.143   3.710  16.748  1.0220  0.0755 -3.0876
 2102SOL    HW217766   4.003   3.720  16.807 -0.3902  0.2017  0.1213
 2103SOL     OW17767   0.747   0.276  15.662 -0.6507 -0.7148  0.1102
 2103SOL    HW117768   0.782   0.354  15.706 -1.5942  0.0811 -0.5622
 2103SOL    HW217769   0.651   0.284  15.666 -0.7023 -0.8414 -1.1293
 2104SOL     OW17770   1.726   2.772   3.524  0.7388 -0.1987 -0.0241
 2104SOL    HW117771   1.634   2.797   3.528  0.0572 -2.3699 -1.4212
 2104SOL    HW217772   1.752   2.823   3.448 -1.2480  0.1602 -0.4712
 2105SOL     OW17773   2.134   2.174  14.515 -0.6172 -0.1201 -0.0330
 2105SOL    HW117774   2.177   2.259  14.511 -1.1565  0.0897 -1.4669
 2105SOL    HW217775   2.041   2.198  14.518 -0.5471  0.0399  0.7935
 2106SOL     OW17776   2.479   1.696  15.788  0.1407  0.2804 -0.1608
 2106SOL    HW117777   2.424   1.773  15.778 -0.8659 -0.6714 -1.8851
 2106SOL    HW217778   2.517   1.691  15.701 -2.9222 -0.8050 -1.4388
 2107SOL     OW17779   3.690   1.164   3.078 -0.4669 -0.0386  0.0470
 2107SOL    HW117780   3.666   1.074   3.102  0.2407 -0.1175  0.4641
 2107SOL    HW217781   3.698   1.198   3.167  0.0926 -0.5200  0.1849
 2108SOL     OW17782   4.667   2.902   4.672 -0.0611  0.4200  0.3578
 2108SOL    HW117783   0.025   2.868   4.627 -0.3819  0.7003 -0.4123
 2108SOL    HW217784   4.628   2.817   4.691 -0.6517 -0.2644 -3.8647
 2109SOL     OW17785   1.894   3.734  10.107  0.0654  0.0729 -0.6361
 2109SOL    HW117786   1.938   3.738  10.023  0.9345 -1.5286 -0.2601
 2109SOL    HW217787   1.913   3.823  10.137 -0.4988  0.1388 -0.4837
 2110SOL     OW17788   1.889   0.109   3.276  0.2980 -0.0150  0.7412
 2110SOL    HW117789   1.901   0.134   3.368  0.9900 -0.0411  0.6536
 2110SOL    HW217790   1.867   0.191   3.233 -0.3999 -0.3496  0.4508
 2111SOL     OW17791   0.488   3.883   5.096  0.4134  0.2035 -0.6905
 2111SOL    HW117792   0.537   3.801   5.086 -1.8379 -1.0986 -1.2122
 2111SOL    HW217793   0.535   3.921   5.170  0.9424  0.3574 -1.1109
 2112SOL     OW17794   4.052   2.108   6.255 -0.3603 -0.3369 -0.2407
 2112SOL    HW117795   4.093   2.135   6.173  0.4340  1.5365  0.7730
 2112SOL    HW217796   4.121   2.061   6.300  1.6099  0.6188 -2.2812
 2113SOL     OW17797   0.239   2.491  17.270 -0.0457 -0.1634  0.4955
 2113SOL    HW117798   0.160   2.438  17.276 -1.0976  1.5074  1.7868
 2113SOL    HW217799   0.297   2.438  17.324  1.1914 -0.6363 -1.3353
 2114SOL     OW17800   3.785   1.671   8.435  0.2500  0.3630  0.2007
 2114SOL    HW117801   3.797   1.655   8.529  2.0452  0.0435 -0.0902
 2114SOL    HW217802   3.871   1.644   8.404  0.0378  1.7939 -1.5934
 2115SOL     OW17803   1.140   3.732   1.665  0.1402  0.3401  0.2446
 2115SOL    HW117804   1.228   3.765   1.646 -0.0045  0.8056  0.3897
 2115SOL    HW217805   1.141   3.656   1.607 -0.0896  1.6423 -1.4757
 2116SOL     OW17806   4.234   4.481   7.874 -0.2640 -0.3224  0.2863
 2116SOL    HW117807   4.142   4.468   7.897 -0.1903 -1.6874 -0.1812
 2116SOL    HW217808   4.215   4.474   7.781 -0.2781  0.7724  0.2083
 2117SOL     OW17809   2.360   2.390  15.818  0.4924 -0.4445 -0.0494
 2117SOL    HW117810   2.272   2.421  15.796  1.7514  2.8759 -0.3966
 2117SOL    HW217811   2.421   2.428  15.755 -0.1811  0.2425 -0.2859
 2118SOL     OW17812   3.916   3.159   2.992  0.4053 -0.4660  0.2309
 2118SOL    HW117813   3.822   3.139   2.989  0.2998  0.1023 -0.1880
 2118SOL    HW217814   3.937   3.074   3.031  2.1644 -0.0311  0.2027
 2119SOL     OW17815   3.875   2.378  12.619  0.4453  0.2149  0.3795
 2119SOL    HW117816   3.935   2.340  12.684  0.5962  0.3289  0.3070
 2119SOL    HW217817   3.868   2.301  12.562 -1.0380  0.5173  0.1584
 2120SOL     OW17818   3.284   1.854  15.325  0.1621 -0.5830  0.6734
 2120SOL    HW117819   3.228   1.782  15.352  1.8885 -1.0985  2.9357
 2120SOL    HW217820   3.305   1.884  15.414  0.0018  0.9185  0.2180
 2121SOL     OW17821   1.973   1.413   5.498 -0.1178  0.0014  0.9069
 2121SOL    HW117822   1.950   1.480   5.434  0.2059  1.2622  2.1078
 2121SOL    HW217823   1.889   1.367   5.509  0.8057 -1.6256  1.1353
 2122SOL     OW17824   1.135   1.675   3.007  0.4123  0.1674 -0.1044
 2122SOL    HW117825   1.123   1.695   2.914 -0.2159 -0.7760 -0.2254
 2122SOL    HW217826   1.169   1.758   3.042 -1.5698  0.5362  0.9370
 2123SOL     OW17827   4.422   1.704  15.456 -0.3095 -0.3226 -0.0923
 2123SOL    HW117828   4.342   1.693  15.507  0.2401 -1.3449  0.5396
 2123SOL    HW217829   4.391   1.644  15.388  2.2355 -0.9500 -0.6892
 2124SOL     OW17830   3.772   1.394  10.396 -0.6623 -0.6872 -0.0389
 2124SOL    HW117831   3.843   1.342  10.433  0.9307  0.8093 -0.9806
 2124SOL    HW217832   3.739   1.328  10.335  1.1206 -2.3336  0.7642
 2125SOL     OW17833   2.985   2.380  14.902  0.0235  0.3123  0.3115
 2125SOL    HW117834   2.904   2.392  14.852 -0.1227 -1.4719  0.1198
 2125SOL    HW217835   2.962   2.437  14.975 -1.2498  0.5079 -0.2311
 2126SOL     OW17836   4.554   1.839   6.652  0.2112 -0.1227  0.0943
 2126SOL    HW117837   4.585   1.808   6.737  0.0400  0.9364  0.5483
 2126SOL    HW217838   4.504   1.917   6.678  0.4015 -0.4814  1.5588
 2127SOL     OW17839   3.512   2.238   0.296  0.4773  0.2246 -0.1535
 2127SOL    HW117840   3.608   2.242   0.298  0.4607 -0.0860  1.2059
 2127SOL    HW217841   3.486   2.262   0.385 -1.2133  1.9207 -1.1050
 2128SOL     OW17842   3.592   2.289   6.629  0.0217  0.2433 -0.3189
 2128SOL    HW117843   3.503   2.256   6.639 -0.1014  0.4698 -0.6823
 2128SOL    HW217844   3.571   2.362   6.571 -0.2119  0.3607 -0.0839
 2129SOL     OW17845   1.193   1.407  10.443  0.0415 -0.5380 -0.1398
 2129SOL    HW117846   1.169   1.325  10.400 -0.7662  0.2214 -1.1340
 2129SOL    HW217847   1.275   1.370  10.475 -0.2836 -0.6637  0.5396
 2130SOL     OW17848   2.125   4.081   2.292 -0.4935  0.1472 -0.0446
 2130SOL    HW117849   2.087   4.059   2.377  0.0429  0.0249  0.1649
 2130SOL    HW217850   2.111   4.175   2.278 -2.5374 -0.4779 -2.1259
 2131SOL     OW17851   2.353   3.001   1.468  0.4004  0.3464 -0.2060
 2131SOL    HW117852   2.429   3.057   1.484 -0.6873  1.8273 -0.2147
 2131SOL    HW217853   2.398   2.939   1.410 -0.8040  0.0157 -0.8057
 2132SOL     OW17854   1.140   1.721  11.260 -0.3047  0.4394  0.2426
 2132SOL    HW117855   1.046   1.711  11.243 -0.1081 -0.0621 -0.5814
 2132SOL    HW217856   1.158   1.635  11.297 -0.5315  0.9127  1.4420
 2133SOL     OW17857   4.212   1.240   1.193 -0.1730 -0.0051 -0.6975
 2133SOL    HW117858   4.152   1.196   1.255  1.3229  0.7734  1.3061
 2133SOL    HW217859   4.279   1.276   1.251 -1.5024 -0.1294  0.9366
 2134SOL     OW17860   2.629   1.789   6.546  0.5171 -0.0500  0.1560
 2134SOL    HW117861   2.680   1.711   6.526 -0.9548 -1.0198  0.1072
 2134SOL    HW217862   2.613   1.779   6.640 -0.9392 -0.6955 -0.1519
 2135SOL     OW17863   3.215   0.232   0.097 -0.2594  0.0500 -0.0458
 2135SOL    HW117864   3.148   0.172   0.064  0.5255 -0.2138 -1.1847
 2135SOL    HW217865   3.160   0.306   0.124 -1.9986 -1.3708  0.3207
 2136SOL     OW17866   3.964   3.538   7.014  0.1369  0.1566 -0.6258
 2136SOL    HW117867   4.027   3.467   7.004  1.6190  1.3853 -0.1970
 2136SOL    HW217868   3.914   3.546   6.933  0.5505  2.3385 -0.6715
 2137SOL     OW17869   1.088   3.625   8.536  0.2066  0.3894 -0.2091
 2137SOL    HW117870   1.124   3.566   8.469 -0.1053  0.9224 -0.8434
 2137SOL    HW217871   1.151   3.605   8.605 -1.3443  2.0530  1.6723
 2138SOL     OW17872   2.580   3.266   4.781  0.4602 -0.4292  0.9543
 2138SOL    HW117873   2.534   3.204   4.725  1.6659  0.6911 -1.2506
 2138SOL    HW217874   2.563   3.239   4.872  2.1041 -1.0189  1.0988
 2139SOL     OW17875   3.473   3.353   3.627  0.1511  0.6563 -0.5315
 2139SOL    HW117876   3.456   3.259   3.624 -0.8459  0.8105  0.3866
 2139SOL    HW217877   3.474   3.371   3.721 -0.3258 -1.9727 -0.0412
 2140SOL     OW17878   3.989   4.014  16.452  0.5196 -0.0516  0.9660
 2140SOL    HW117879   4.009   4.032  16.360  1.4144  0.5838  1.2827
 2140SOL    HW217880   3.991   4.092  16.508 -0.9275  0.8858 -0.2839
 2141SOL     OW17881   0.425   0.335   5.599 -0.5565  0.3525 -0.5711
 2141SOL    HW117882   0.442   0.425   5.570 -2.0284  0.0112 -2.4869
 2141SOL    HW217883   0.405   0.304   5.511 -1.2536 -0.9992  0.0621
 2142SOL     OW17884   3.039   0.823   6.674  0.3802  0.5247  0.4108
 2142SOL    HW117885   3.062   0.750   6.733  2.4148  0.8442  0.0040
 2142SOL    HW217886   2.951   0.832   6.710  0.3767  0.8167  0.3278
 2143SOL     OW17887   3.525   2.115   2.984  0.2403  0.0762 -0.3819
 2143SOL    HW117888   3.468   2.164   3.044 -0.0215  0.7734 -1.1962
 2143SOL    HW217889   3.602   2.172   2.978  0.5702 -0.3294  0.0497
 2144SOL     OW17890   4.546   3.983  17.468  0.0048  0.7933  0.0301
 2144SOL    HW117891   4.503   4.044  17.528  0.5614 -0.5400  1.7958
 2144SOL    HW217892   4.469   3.974  17.411  0.8776  0.0034 -1.0171
 2145SOL     OW17893   4.029   0.805   9.489  0.2207  0.5518 -0.0786
 2145SOL    HW117894   3.996   0.729   9.442 -1.6539  0.4231  1.4464
 2145SOL    HW217895   4.018   0.767   9.576 -1.5174 -1.8405 -1.3626
 2146SOL     OW17896   4.160   2.023   7.185  0.3631  0.2623  0.6107
 2146SOL    HW117897   4.132   2.114   7.199  1.9736  0.8697 -0.2143
 2146SOL    HW217898   4.198   2.004   7.271  0.7666  3.7601  1.2002
 2147SOL     OW17899   3.931   3.191   4.520  0.4529 -0.5525 -0.4266
 2147SOL    HW117900   3.896   3.173   4.608 -2.2765 -0.4326 -1.4862
 2147SOL    HW217901   3.968   3.105   4.499  0.6964 -0.4231 -0.5346
 2148SOL     OW17902   1.668   3.506   7.611  0.5891 -0.5508  0.8537
 2148SOL    HW117903   1.573   3.501   7.600  0.7100  1.2667 -0.8996
 2148SOL    HW217904   1.689   3.560   7.536  2.8097  0.6371  2.3357
 2149SOL     OW17905   0.668   1.930   2.138  0.0182  0.3706 -0.4014
 2149SOL    HW117906   0.587   1.948   2.090  0.1641  2.0053 -0.0105
 2149SOL    HW217907   0.664   1.838   2.163 -1.2066  0.4339 -0.4007
 2150SOL     OW17908   2.590   2.422   8.095 -0.4755 -0.2098  0.3624
 2150SOL    HW117909   2.583   2.481   8.019 -1.0656  0.2857  0.8017
 2150SOL    HW217910   2.503   2.443   8.127 -0.5120  1.5628 -0.8980
 2151SOL     OW17911   2.570   1.563  15.040  0.3346  0.2624  0.0064
 2151SOL    HW117912   2.523   1.507  14.978  0.5289  1.1977 -0.9799
 2151SOL    HW217913   2.652   1.570  14.992  0.9989  0.1505  1.1163
 2152SOL     OW17914   0.132   3.505   3.023 -0.0756  0.2915  0.0164
 2152SOL    HW117915   0.143   3.504   2.928  0.8881 -0.0681  0.1318
 2152SOL    HW217916   0.037   3.515   3.025 -0.1106 -0.0363 -0.1134
 2153SOL     OW17917   0.121   0.075   2.858  0.1284 -0.3027  0.6593
 2153SOL    HW117918   0.157   0.013   2.794 -1.3612 -0.5921  0.1222
 2153SOL    HW217919   0.183   0.147   2.872  0.3730 -0.4018  0.0944
 2154SOL     OW17920   1.344   2.562  11.574  0.0313  0.7982 -0.5124
 2154SOL    HW117921   1.326   2.646  11.531  3.1662  2.3179  1.1112
 2154SOL    HW217922   1.349   2.590  11.666  4.7619  1.0728 -0.8495
 2155SOL     OW17923   2.657   0.915   8.645 -0.2307  0.7560  0.0783
 2155SOL    HW117924   2.659   0.945   8.736  1.7830 -2.6371  1.1387
 2155SOL    HW217925   2.591   0.970   8.602  0.7866  1.8110 -0.1296
 2156SOL     OW17926   0.135   4.384  13.123 -0.1250  0.2456  0.5583
 2156SOL    HW117927   0.168   4.304  13.163  0.7583  0.5108  0.3719
 2156SOL    HW217928   0.210   4.411  13.070  0.0814 -0.5202  0.4706
 2157SOL     OW17929   2.519   2.535  15.633  0.4617 -0.5012 -0.2629
 2157SOL    HW117930   2.525   2.492  15.548 -0.4126 -0.0968 -0.5270
 2157SOL    HW217931   2.495   2.620  15.597 -1.4946 -0.0095  2.1504
 2158SOL     OW17932   4.136   4.645   5.565  0.3580  0.0882  0.3651
 2158SOL    HW117933   4.112   4.653   5.657 -0.3823 -0.3151  0.2124
 2158SOL    HW217934   4.087   4.717   5.525  0.2961  0.5224  1.2113
 2159SOL     OW17935   1.727   1.845   5.604  0.0769 -0.0803  0.3694
 2159SOL    HW117936   1.761   1.935   5.598  1.1207 -0.6072 -1.4142
 2159SOL    HW217937   1.670   1.849   5.527  0.1949  2.8790  0.4171
 2160SOL     OW17938   1.419   2.035   7.255 -0.0924  0.2568 -0.5424
 2160SOL    HW117939   1.325   2.045   7.242  0.0101  1.4736 -0.3714
 2160SOL    HW217940   1.459   2.014   7.171  0.4383 -0.9304  0.0061
 2161SOL     OW17941   1.403   0.275   3.355  0.2480  0.1392 -0.2064
 2161SOL    HW117942   1.391   0.225   3.275  1.1909  0.0446 -0.2913
 2161SOL    HW217943   1.361   0.228   3.427  0.3972  0.6195  0.1986
 2162SOL     OW17944   3.762   3.893   9.449  0.7400 -0.2202 -0.0413
 2162SOL    HW117945   3.837   3.952   9.462  0.0280  0.4958  0.8657
 2162SOL    HW217946   3.800   3.806   9.437 -0.7655 -1.2742  2.7671
 2163SOL     OW17947   1.033   1.700  15.732 -0.7643  0.0130  0.2771
 2163SOL    HW117948   1.038   1.669  15.642 -0.7182 -0.0639  0.3057
 2163SOL    HW217949   0.938   1.694  15.738 -0.9208  1.8832 -0.4963
 2164SOL     OW17950   1.508   3.475   8.050  0.0173 -0.0303 -0.1303
 2164SOL    HW117951   1.542   3.541   7.988  0.2273 -0.3696 -0.3763
 2164SOL    HW217952   1.585   3.419   8.057  1.7155  2.4356  1.2396
 2165SOL     OW17953   3.904   1.944   2.642  0.0584  0.2962  0.9833
 2165SOL    HW117954   3.814   1.976   2.646 -0.7006 -1.9763  2.4652
 2165SOL    HW217955   3.894   1.852   2.617 -2.2145  0.8825 -0.2494
 2166SOL     OW17956   2.033   0.274   2.484 -0.4839 -0.2896 -0.5734
 2166SOL    HW117957   2.128   0.277   2.471 -0.3502  0.6646  0.6689
 2166SOL    HW217958   2.026   0.232   2.569  3.3880 -1.1573 -0.6860
 2167SOL     OW17959   1.095   3.991   2.853  0.0878  0.4348 -0.2246
 2167SOL    HW117960   1.103   3.934   2.777  1.8225 -0.3288  0.5338
 2167SOL    HW217961   1.178   4.037   2.840  1.5341 -2.0881  0.2085
 2168SOL     OW17962   0.521   4.516   2.543  0.3122  0.0028  0.3210
 2168SOL    HW117963   0.538   4.590   2.600  0.7313 -1.7965  2.5112
 2168SOL    HW217964   0.565   4.442   2.586  0.2758  0.2811  0.8266
 2169SOL     OW17965   0.232   2.749   0.922  0.0356  0.1192  0.1179
 2169SOL    HW117966   0.227   2.717   1.012  0.9129  0.3182  0.2409
 2169SOL    HW217967   0.303   2.813   0.925  0.4966 -0.3026 -1.6892
 2170SOL     OW17968   1.516   0.841  11.157 -0.0566 -0.7364 -0.0478
 2170SOL    HW117969   1.584   0.906  11.139 -0.0122 -0.4457  1.2224
 2170SOL    HW217970   1.532   0.828  11.250  0.0990  1.6012  0.2518
 2171SOL     OW17971   1.548   4.618   3.445  0.0067  0.3860  0.0940
 2171SOL    HW117972   1.502   4.580   3.370  1.3788 -0.4493 -0.3406
 2171SOL    HW217973   1.553   4.710   3.421 -2.2011  0.4472 -0.1010
 2172SOL     OW17974   1.713   4.677   4.401  0.1543  0.4123  0.4448
 2172SOL    HW117975   1.640   4.621   4.374  1.3408 -0.7632 -0.3164
 2172SOL    HW217976   1.753   4.711   4.322  0.4557  1.3428  1.0051
 2173SOL     OW17977   4.684   2.926   3.844 -0.1578 -0.1405 -0.0675
 2173SOL    HW117978   0.031   2.990   3.823 -0.1938 -0.3191 -0.7332
 2173SOL    HW217979   4.652   2.956   3.929  0.0530 -0.5515  0.1587
 2174SOL     OW17980   3.060   4.326   5.502  0.5491 -0.1533  0.3347
 2174SOL    HW117981   3.020   4.389   5.562  3.0269 -1.2642  3.1634
 2174SOL    HW217982   3.039   4.243   5.543 -0.9363  0.1655  0.2001
 2175SOL     OW17983   1.397   0.097  10.809 -0.3589  0.5025 -0.1289
 2175SOL    HW117984   1.421   0.113  10.718  0.1613  0.4747  0.0022
 2175SOL    HW217985   1.417   0.003  10.808  1.7489  0.9150  1.1894
 2176SOL     OW17986   4.401   0.105   2.578 -0.5235  0.0610  0.0596
 2176SOL    HW117987   4.369   0.015   2.579 -0.3278 -0.0131 -0.3631
 2176SOL    HW217988   4.371   0.133   2.492  0.2429  2.7866  0.6694
 2177SOL     OW17989   4.187   3.318   1.580  0.0040 -0.3351 -0.8107
 2177SOL    HW117990   4.119   3.349   1.520  0.0283 -0.7581 -1.0582
 2177SOL    HW217991   4.224   3.244   1.533  2.3982  0.1589  0.3007
 2178SOL     OW17992   3.476   3.607   2.815  0.6413 -0.1134 -0.8647
 2178SOL    HW117993   3.463   3.694   2.853 -0.7013 -0.2225 -1.1092
 2178SOL    HW217994   3.530   3.627   2.739  1.9774  1.1995  0.4160
 2179SOL     OW17995   3.722   2.929  16.494 -0.1001  0.3685 -0.3730
 2179SOL    HW117996   3.646   2.982  16.519 -0.5355  0.8704 -2.7550
 2179SOL    HW217997   3.734   2.943  16.400  0.3661 -0.7427 -0.4808
 2180SOL     OW17998   4.688   2.983   7.108  0.2036  0.1622 -0.1846
 2180SOL    HW117999   4.618   2.932   7.068  0.9630  0.5576 -1.9944
 2180SOL    HW218000   0.010   2.917   7.164  0.4723 -0.6432 -1.3340
 2181SOL     OW18001   3.361   1.875  16.644  0.0008  0.2287  0.5854
 2181SOL    HW118002   3.344   1.844  16.555 -0.0062  1.7307  0.0535
 2181SOL    HW218003   3.287   1.936  16.652  0.4644  0.8148  0.4200
 2182SOL     OW18004   4.240   3.963   5.935 -0.7475  0.3629 -0.4003
 2182SOL    HW118005   4.282   4.012   6.006 -2.2578 -0.1119  0.8119
 2182SOL    HW218006   4.317   3.925   5.892  0.3167  2.7284 -0.5761
 2183SOL     OW18007   0.001   4.688   7.109  0.2093  0.1417  0.4742
 2183SOL    HW118008   4.668   4.647   7.041  0.2256  0.6648  0.1473
 2183SOL    HW218009   4.702   4.638   7.188  0.5992  0.5203  0.8091
 2184SOL     OW18010   4.519   1.688   1.951 -0.4127 -0.3059 -0.2523
 2184SOL    HW118011   4.434   1.681   1.993 -0.7758 -0.9772 -1.0774
 2184SOL    HW218012   4.503   1.648   1.865  1.1838 -0.1731 -0.6108
 2185SOL     OW18013   3.559   1.626   6.373 -0.6335  0.1240 -0.0679
 2185SOL    HW118014   3.598   1.682   6.306 -1.0266  0.5649  0.0744
 2185SOL    HW218015   3.490   1.579   6.324  0.0413 -2.5351  1.5269
 2186SOL     OW18016   3.006   4.534   0.738  0.0312  0.5296  0.9339
 2186SOL    HW118017   3.100   4.514   0.732  0.2425  1.8518 -0.2631
 2186SOL    HW218018   2.991   4.551   0.645  2.0111  2.9833  1.0445
 2187SOL     OW18019   4.695   1.649   8.842 -0.2708  0.0732 -0.3780
 2187SOL    HW118020   4.606   1.666   8.810 -0.1186 -1.4285 -1.5557
 2187SOL    HW218021   4.716   1.573   8.789  0.2016  1.4135 -2.1011
 2188SOL     OW18022   2.626   0.895   9.769 -0.1702  0.0587 -0.2469
 2188SOL    HW118023   2.540   0.866   9.739 -0.3912  2.6004 -2.0835
 2188SOL    HW218024   2.680   0.817   9.782 -1.6039 -0.8806  0.1603
 2189SOL     OW18025   0.099   2.961   1.788 -0.1343  0.0870 -0.0477
 2189SOL    HW118026   0.150   2.883   1.767 -0.1490  0.6305 -2.0990
 2189SOL    HW218027   0.103   3.000   1.701 -1.7626 -0.9735 -0.5900
 2190SOL     OW18028   4.318   0.020   5.317  0.3271  0.8407  0.5570
 2190SOL    HW118029   4.273   0.104   5.310 -2.5866 -0.8353 -0.5869
 2190SOL    HW218030   4.265   4.688   5.258  1.4845  1.2621 -0.8650
 2191SOL     OW18031   3.731   2.058   5.547  0.1563  0.1183 -0.2945
 2191SOL    HW118032   3.721   2.141   5.500 -0.4532  1.2199  1.7846
 2191SOL    HW218033   3.811   2.066   5.599  0.9203 -0.8162 -1.3218
 2192SOL     OW18034   2.579   0.725   0.492  0.0737 -0.1493 -0.2402
 2192SOL    HW118035   2.527   0.647   0.508  0.6371 -0.1292  1.6826
 2192SOL    HW218036   2.671   0.703   0.511 -0.6903 -0.4016  3.1276
 2193SOL     OW18037   0.025   3.838   4.915 -0.2952  0.0295 -0.1161
 2193SOL    HW118038   0.008   3.775   4.844  0.3224 -0.8286  0.4934
 2193SOL    HW218039   0.091   3.789   4.965 -0.6352  2.1441  2.3704
 2194SOL     OW18040   3.934   0.539  17.132  0.1261  0.3387  0.5035
 2194SOL    HW118041   3.850   0.505  17.103 -0.7271 -0.3184  3.7745
 2194SOL    HW218042   3.921   0.631  17.111 -1.2726  0.1896  0.7452
 2195SOL     OW18043   2.179   1.898   5.650 -0.4141  0.4001  0.6928
 2195SOL    HW118044   2.262   1.851   5.646  0.2329  1.6159  0.0738
 2195SOL    HW218045   2.208   1.988   5.633  1.0984 -0.6385 -2.0961
 2196SOL     OW18046   1.459   0.068   7.078 -0.5854 -0.5247  0.5279
 2196SOL    HW118047   1.501   4.703   7.090  1.2398  0.6524  2.5415
 2196SOL    HW218048   1.505   0.109   7.151  0.1447  1.3804 -1.0178
 2197SOL     OW18049   2.540   2.822   2.763 -0.3094  0.1138  0.1466
 2197SOL    HW118050   2.515   2.899   2.815  1.0557  0.1338  0.7674
 2197SOL    HW218051   2.584   2.859   2.686  0.5287  0.5578  0.8326
 2198SOL     OW18052   1.405   4.675  15.121  0.2532  0.4800  0.1342
 2198SOL    HW118053   1.375   0.031  15.071 -0.5564 -0.2900 -0.5494
 2198SOL    HW218054   1.458   4.634  15.053  2.0671 -0.5640  2.1888
 2199SOL     OW18055   3.918   2.734  14.538  0.2856 -0.1953 -0.5482
 2199SOL    HW118056   3.865   2.674  14.485  1.2134 -1.2707 -0.2667
 2199SOL    HW218057   3.848   2.771  14.592  0.4856  0.6703 -0.8865
 2200SOL     OW18058   2.010   4.034   5.824 -0.0134 -0.4251  0.3255
 2200SOL    HW118059   1.991   4.067   5.912 -2.4561  1.8079 -1.0571
 2200SOL    HW218060   2.095   4.071   5.802 -0.8280  0.6331 -1.0365
 2201SOL     OW18061   0.251   3.167   9.856 -0.3462  0.9727 -0.2672
 2201SOL    HW118062   0.249   3.121   9.773  3.3287 -1.8772  1.2595
 2201SOL    HW218063   0.342   3.195   9.863 -0.2229  0.5243 -0.1506
 2202SOL     OW18064   4.269   3.899   4.040  0.2979 -0.2002 -0.2199
 2202SOL    HW118065   4.178   3.876   4.021 -0.0063  2.8792 -2.5385
 2202SOL    HW218066   4.269   3.985   3.998  1.0423 -0.6927 -1.2335
 2203SOL     OW18067   0.186   2.103   6.780  0.8624  0.1198 -0.3170
 2203SOL    HW118068   0.156   2.044   6.849  1.4597 -0.6224 -0.6994
 2203SOL    HW218069   0.281   2.103   6.775  0.8824  1.7624 -0.1385
 2204SOL     OW18070   4.090   3.216   5.141  0.4922  0.3572  0.1823
 2204SOL    HW118071   4.019   3.174   5.190  0.4035  2.8230  2.1987
 2204SOL    HW218072   4.160   3.199   5.204 -0.3605 -1.6013  0.6108
 2205SOL     OW18073   1.471   1.413   1.001  0.0872 -0.2257  0.2770
 2205SOL    HW118074   1.437   1.339   0.951  0.1837 -0.1672  0.1247
 2205SOL    HW218075   1.399   1.476   1.002  1.0067  0.8400 -0.1034
 2206SOL     OW18076   2.495   1.711   6.160 -0.4593 -0.0347 -0.2278
 2206SOL    HW118077   2.482   1.616   6.155 -2.2250  0.2410 -0.9365
 2206SOL    HW218078   2.421   1.754   6.118 -0.8935 -0.8912 -0.3506
 2207SOL     OW18079   2.846   3.251  14.051 -0.5499 -0.5058 -0.0747
 2207SOL    HW118080   2.934   3.214  14.049 -0.0384  0.6911  0.3007
 2207SOL    HW218081   2.799   3.168  14.039  0.5951 -1.2781  0.8193
 2208SOL     OW18082   3.939   2.787   7.565 -0.4259  0.5562 -0.0265
 2208SOL    HW118083   3.897   2.745   7.490 -2.5485  1.3023  0.7686
 2208SOL    HW218084   4.004   2.716   7.571 -0.1655  1.0085  2.5265
 2209SOL     OW18085   1.684   0.088  13.268 -0.3000  0.5067 -0.4968
 2209SOL    HW118086   1.701   0.176  13.235 -0.6122  0.2210 -1.4414
 2209SOL    HW218087   1.651   0.107  13.356 -1.4922  0.2394 -0.8862
 2210SOL     OW18088   2.699   4.064   4.815  0.5604  0.2528  0.1925
 2210SOL    HW118089   2.706   3.969   4.802  0.1946  0.2459  0.0399
 2210SOL    HW218090   2.649   4.074   4.896 -1.3298 -0.1362 -0.9130
 2211SOL     OW18091   1.914   2.972   8.286 -0.7099 -0.3404  0.4815
 2211SOL    HW118092   1.872   2.937   8.208  1.4395  0.8075 -1.1849
 2211SOL    HW218093   1.843   3.025   8.323 -0.2793  1.2950 -1.0162
 2212SOL     OW18094   2.243   1.897   3.971 -0.0439 -0.1426  0.4006
 2212SOL    HW118095   2.252   1.966   4.037  0.8685 -0.2346  0.3813
 2212SOL    HW218096   2.302   1.826   3.998  0.4507 -0.5197 -1.6849
 2213SOL     OW18097   4.639   0.835   1.495 -0.2742  0.0470  0.1727
 2213SOL    HW118098   4.579   0.910   1.500  0.8578  0.9395  0.4302
 2213SOL    HW218099   4.590   0.776   1.438 -2.1664  0.8941  0.9102
 2214SOL     OW18100   3.399   2.078   0.110 -0.2109 -0.0783 -0.0447
 2214SOL    HW118101   3.429   2.002   0.160 -0.8156 -1.3426 -1.6158
 2214SOL    HW218102   3.450   2.148   0.150  0.7759 -0.8346  0.0176
 2215SOL     OW18103   3.459   3.575   3.878  0.6292  0.1453 -0.7418
 2215SOL    HW118104   3.463   3.623   3.961  0.1621 -3.9165  1.6168
 2215SOL    HW218105   3.550   3.555   3.860  0.4255 -0.4986 -1.0141
 2216SOL     OW18106   1.429   0.235   7.739  0.2221 -0.2779  0.7082
 2216SOL    HW118107   1.465   0.150   7.765 -2.3467 -1.3317  0.7863
 2216SOL    HW218108   1.376   0.214   7.662  0.3021 -0.0007  0.5783
 2217SOL     OW18109   2.752   4.054   8.482 -0.2502  0.0594  0.1937
 2217SOL    HW118110   2.786   3.982   8.535 -1.8481  1.9091  3.7497
 2217SOL    HW218111   2.668   4.012   8.460  1.6293 -3.0750 -1.1071
 2218SOL     OW18112   1.571   2.072   4.396 -0.0976 -0.2417  0.1092
 2218SOL    HW118113   1.657   2.031   4.382  0.2693  0.5483  0.0571
 2218SOL    HW218114   1.525   1.997   4.433 -1.9551  0.5015 -0.7094
 2219SOL     OW18115   3.571   0.699   9.667 -0.0719  1.1258  0.3685
 2219SOL    HW118116   3.565   0.677   9.574  1.3174  1.3319  0.2233
 2219SOL    HW218117   3.591   0.616   9.709  0.7775  1.4190  0.5603
 2220SOL     OW18118   3.464   1.265  10.937  0.1643 -0.2173  0.1240
 2220SOL    HW118119   3.434   1.194  10.993 -1.7113  1.0222  0.6820
 2220SOL    HW218120   3.424   1.240  10.854 -0.5831 -0.9929  0.7239
 2221SOL     OW18121   0.829   0.191   2.526 -0.1372  0.0666 -0.0085
 2221SOL    HW118122   0.814   0.251   2.452 -0.2639 -2.4193 -1.9956
 2221SOL    HW218123   0.862   0.116   2.476  1.0319  0.9323 -0.5466
 2222SOL     OW18124   1.909   1.277   6.955  0.0293 -0.0799 -0.2140
 2222SOL    HW118125   1.927   1.367   6.930 -0.8470 -0.1293 -1.0508
 2222SOL    HW218126   1.889   1.284   7.048  2.2599 -2.1081  0.4261
 2223SOL     OW18127   2.700   1.408   3.534 -0.3260  0.0561 -0.7400
 2223SOL    HW118128   2.651   1.339   3.488 -2.3706  2.5472 -2.3308
 2223SOL    HW218129   2.670   1.486   3.486  0.0030  0.5125 -0.1954
 2224SOL     OW18130   3.569   1.504   4.508  0.3258 -0.1900 -0.4207
 2224SOL    HW118131   3.494   1.499   4.568  0.1556  2.5847 -0.3913
 2224SOL    HW218132   3.560   1.595   4.479 -1.2690 -0.5748 -1.1449
 2225SOL     OW18133   4.287   0.098   1.316  0.2379  0.7242 -0.0912
 2225SOL    HW118134   4.359   0.038   1.334  1.0261  2.2792  1.9432
 2225SOL    HW218135   4.239   0.036   1.262  1.0887 -0.5589  0.6427
 2226SOL     OW18136   0.557   3.489   4.066 -0.3769 -0.4336  0.0513
 2226SOL    HW118137   0.651   3.497   4.055 -0.1744  0.2649  2.2330
 2226SOL    HW218138   0.540   3.444   3.983  0.9683  0.9105 -0.9470
 2227SOL     OW18139   0.648   2.526   8.896 -0.0745  0.6140 -0.2188
 2227SOL    HW118140   0.592   2.502   8.822 -1.2283  1.2129  0.4681
 2227SOL    HW218141   0.581   2.501   8.959  0.0726 -1.9805 -1.1158
 2228SOL     OW18142   1.469   1.916   3.285 -0.1858 -0.0433  0.2505
 2228SOL    HW118143   1.543   1.956   3.331 -0.1438  0.4465 -0.2398
 2228SOL    HW218144   1.464   1.831   3.328  0.7695 -0.1215  0.2091
 2229SOL     OW18145   3.973   1.988   8.058  0.3736 -0.3112 -0.2602
 2229SOL    HW118146   4.002   2.052   8.123 -1.9370 -0.3939  0.8541
 2229SOL    HW218147   3.914   1.937   8.113  0.2878  0.1251  0.0512
 2230SOL     OW18148   3.424   1.772   1.158 -0.6722 -0.1483  0.0698
 2230SOL    HW118149   3.386   1.740   1.239 -0.2550  0.4830  0.5167
 2230SOL    HW218150   3.354   1.833   1.132 -0.4402 -0.3328 -0.9947
 2231SOL     OW18151   2.108   4.398   9.439 -0.2254  0.0816  0.0132
 2231SOL    HW118152   2.173   4.334   9.468 -2.5060 -2.0951  0.3884
 2231SOL    HW218153   2.088   4.439   9.523  0.7538 -0.4328  0.4924
 2232SOL     OW18154   1.155   0.784   2.556 -0.1044  0.3041 -0.3472
 2232SOL    HW118155   1.233   0.828   2.589  0.6108 -0.7147 -0.6909
 2232SOL    HW218156   1.120   0.747   2.637  0.7032  2.9058  1.1698
 2233SOL     OW18157   0.584   3.435  12.525  0.2873  0.5049 -0.2579
 2233SOL    HW118158   0.540   3.465  12.445  2.0379  1.1378 -0.9874
 2233SOL    HW218159   0.514   3.439  12.589  1.5483 -0.5611  1.1887
 2234SOL     OW18160   2.714   3.530   1.568 -0.4210 -0.1944  0.4573
 2234SOL    HW118161   2.664   3.476   1.629 -1.1717 -0.3738 -0.3171
 2234SOL    HW218162   2.793   3.556   1.616  1.5361  0.9032 -3.3058
 2235SOL     OW18163   3.943   3.153   8.655  0.5411  0.1231  0.2949
 2235SOL    HW118164   3.964   3.245   8.636 -2.4943  1.0514  1.4348
 2235SOL    HW218165   4.010   3.117   8.597  0.0903  0.4067 -0.3920
 2236SOL     OW18166   2.474   4.223  10.073  1.0202 -0.0129  0.3333
 2236SOL    HW118167   2.479   4.249  10.165  3.3563 -1.6072  0.6546
 2236SOL    HW218168   2.402   4.160  10.064  0.4866  0.6864 -0.3473
 2237SOL     OW18169   4.558   4.123  16.655  0.4473  0.1864 -0.4937
 2237SOL    HW118170   4.469   4.123  16.620  0.0781  3.6437  0.4033
 2237SOL    HW218171   4.572   4.030  16.672  0.5539 -0.0745 -2.0206
 2238SOL     OW18172   3.144   1.966   6.119 -0.1954  0.0875  0.3655
 2238SOL    HW118173   3.098   1.905   6.061 -0.0528 -0.3167  0.6874
 2238SOL    HW218174   3.194   1.910   6.177  0.4545  0.3057  0.0145
 2239SOL     OW18175   1.038   2.545   9.073 -0.0562  0.5687  0.1553
 2239SOL    HW118176   1.053   2.453   9.097  0.9366  0.1805 -1.9603
 2239SOL    HW218177   1.002   2.530   8.986 -0.7862  1.5691  0.2932
 2240SOL     OW18178   2.267   1.779   2.665  0.1757  0.7481 -0.0439
 2240SOL    HW118179   2.178   1.770   2.699 -0.5643  1.2918 -1.8203
 2240SOL    HW218180   2.289   1.687   2.647  1.4322  0.6262  2.1692
 2241SOL     OW18181   4.212   4.602   6.640  0.0191 -0.1780  0.0199
 2241SOL    HW118182   4.258   4.642   6.714 -0.4902  0.2474  0.1024
 2241SOL    HW218183   4.278   4.627   6.575  0.7085 -1.3020  0.2800
 2242SOL     OW18184   0.977   2.796   7.434  0.1360 -0.7701 -0.3107
 2242SOL    HW118185   1.068   2.772   7.415  0.3230  0.8880 -1.5379
 2242SOL    HW218186   0.959   2.767   7.523  0.9994 -0.8128 -0.1535
 2243SOL     OW18187   2.470   1.961   5.599 -0.2503 -0.2359 -0.0500
 2243SOL    HW118188   2.482   2.040   5.651 -0.3945 -0.7210  0.7183
 2243SOL    HW218189   2.557   1.921   5.597 -0.2008 -0.0253 -1.8581
 2244SOL     OW18190   4.519   3.422   3.969 -0.1562 -0.0268  0.0060
 2244SOL    HW118191   4.545   3.468   3.889 -3.5795  0.1602 -1.0087
 2244SOL    HW218192   4.601   3.387   4.002 -0.1606  1.1566  1.3187
 2245SOL     OW18193   2.346   2.109  12.592  0.3674  0.3885  0.4765
 2245SOL    HW118194   2.269   2.063  12.626  1.3579 -1.0290  0.7810
 2245SOL    HW218195   2.360   2.183  12.650  0.7674  2.2892 -2.0491
 2246SOL     OW18196   1.738   3.221   0.144  0.2173 -1.2359 -0.6449
 2246SOL    HW118197   1.657   3.191   0.102 -0.7557 -0.6945  0.8523
 2246SOL    HW218198   1.755   3.304   0.100 -0.3090  0.1178  1.6903
 2247SOL     OW18199   1.775   1.733  12.750  0.2002  0.2554 -0.6204
 2247SOL    HW118200   1.857   1.782  12.759  1.0649 -1.7610  2.2519
 2247SOL    HW218201   1.715   1.798  12.786 -1.3226  0.5402 -3.6524
 2248SOL     OW18202   1.193   2.698   0.441  0.1901 -0.2892 -0.0850
 2248SOL    HW118203   1.234   2.717   0.526 -3.0882 -0.7933  1.6217
 2248SOL    HW218204   1.194   2.787   0.406  1.2419 -0.3500 -0.2316
 2249SOL     OW18205   0.362   2.129   2.314  0.4426 -0.3286 -0.0582
 2249SOL    HW118206   0.381   2.068   2.385  1.1192 -0.7919 -0.6406
 2249SOL    HW218207   0.309   2.074   2.257  1.2132 -2.8205  1.6445
 2250SOL     OW18208   2.874   2.177  14.609 -0.1604 -0.7586 -0.0868
 2250SOL    HW118209   2.912   2.173  14.696 -0.7479  0.3093  0.2186
 2250SOL    HW218210   2.896   2.095  14.565 -0.0545  0.0713 -1.5921
 2251SOL     OW18211   3.080   4.442   3.882 -0.3669 -0.9418  0.4878
 2251SOL    HW118212   3.064   4.435   3.976  0.5396  0.5832  0.7642
 2251SOL    HW218213   3.005   4.396   3.844 -1.6201  0.0928  1.6733
 2252SOL     OW18214   0.669   3.872   6.696 -0.5575  0.0025 -0.0556
 2252SOL    HW118215   0.616   3.931   6.642 -0.5978  0.6064  0.6328
 2252SOL    HW218216   0.693   3.796   6.644 -2.1107 -1.4079  1.3099
 2253SOL     OW18217   4.606   3.584   2.083 -0.0253  0.2837 -1.1146
 2253SOL    HW118218   4.571   3.661   2.039 -0.0141  0.4103 -0.8992
 2253SOL    HW218219   4.533   3.526   2.103 -0.0504  0.7282  0.0736
 2254SOL     OW18220   3.360   4.174   7.068  0.5726  0.2480 -0.4947
 2254SOL    HW118221   3.345   4.195   7.160  1.5079  1.5004 -0.6187
 2254SOL    HW218222   3.301   4.110   7.029  0.1169  0.1075  0.4287
 2255SOL     OW18223   4.123   1.784   5.849  0.1489 -0.1896  0.0631
 2255SOL    HW118224   4.158   1.696   5.836 -1.5386 -0.6540 -1.4715
 2255SOL    HW218225   4.093   1.796   5.758  0.2832  1.1970  0.2053
 2256SOL     OW18226   4.447   4.148   8.922  0.0300 -0.1072 -0.7293
 2256SOL    HW118227   4.424   4.058   8.945 -0.7375  0.4198  0.6018
 2256SOL    HW218228   4.540   4.136   8.904  0.9131  2.0879  2.2984
 2257SOL     OW18229   3.348   2.375   4.119  0.1525  0.6556  0.5723
 2257SOL    HW118230   3.436   2.384   4.082  0.4100 -0.6464  0.8552
 2257SOL    HW218231   3.320   2.465   4.133  2.0660  1.4373 -0.6257
 2258SOL     OW18232   4.136   0.237   2.454 -0.0670  0.2374  0.1723
 2258SOL    HW118233   4.167   0.328   2.453 -1.8310  0.8462  2.1653
 2258SOL    HW218234   4.193   0.189   2.394  0.5698  1.3232 -0.0874
 2259SOL     OW18235   1.049   4.376   3.211 -0.2044  0.5259  0.6294
 2259SOL    HW118236   1.112   4.341   3.148  0.6650  2.0448  0.6469
 2259SOL    HW218237   1.099   4.351   3.289  0.0423  0.1285  0.3414
 2260SOL     OW18238   4.652   1.033   7.824 -0.5005  0.2233  0.1651
 2260SOL    HW118239   4.601   0.997   7.896 -1.2289  1.1965  0.1374
 2260SOL    HW218240   0.012   0.993   7.856 -0.4568  0.3700  0.2404
 2261SOL     OW18241   2.960   2.905  16.408 -0.5710  0.0491 -0.4041
 2261SOL    HW118242   3.015   2.974  16.371 -0.4068  0.2430  0.2091
 2261SOL    HW218243   2.888   2.962  16.434  1.9559  2.8754  0.3300
 2262SOL     OW18244   1.047   2.959   9.665  0.1593  0.6525  0.3587
 2262SOL    HW118245   1.077   3.034   9.614  0.9239 -0.2357 -0.4740
 2262SOL    HW218246   1.023   2.895   9.598  0.7362  1.7154 -0.8651
 2263SOL     OW18247   1.505   1.682   2.194  0.4373  0.4018 -0.1033
 2263SOL    HW118248   1.518   1.761   2.246  3.1881 -0.5741  0.7217
 2263SOL    HW218249   1.411   1.672   2.205  0.4328 -0.3476 -0.7858
 2264SOL     OW18250   0.339   4.486   5.729 -0.2395 -0.7044 -0.1289
 2264SOL    HW118251   0.246   4.509   5.734 -0.3257 -0.1734 -4.4112
 2264SOL    HW218252   0.377   4.519   5.811 -1.6369  2.8533 -0.9324
 2265SOL     OW18253   3.873   3.185   3.465  0.4557  0.4452  0.0889
 2265SOL    HW118254   3.795   3.209   3.415  0.4223 -2.8608 -1.4955
 2265SOL    HW218255   3.912   3.271   3.450 -1.2354  1.1999  0.0443
 2266SOL     OW18256   3.919   4.645   7.002  0.2696 -0.3685  0.1003
 2266SOL    HW118257   3.898   4.715   6.939  0.6033 -0.6350 -0.3064
 2266SOL    HW218258   3.850   4.580   6.988 -0.2994  0.1038  0.6736
 2267SOL     OW18259   2.522   1.122   0.948  0.1811  0.9319 -0.3703
 2267SOL    HW118260   2.457   1.067   0.903 -0.3338  0.7320  0.6203
 2267SOL    HW218261   2.530   1.191   0.882 -0.5308  2.5354  1.2395
 2268SOL     OW18262   3.137   1.952   3.792  0.0762 -0.2277 -0.2849
 2268SOL    HW118263   3.041   1.949   3.786 -0.1257 -1.4705  3.8481
 2268SOL    HW218264   3.146   1.923   3.882 -0.3615  1.0477  0.1615
 2269SOL     OW18265   2.604   2.945  16.206 -0.0001 -0.5031 -0.8333
 2269SOL    HW118266   2.511   2.966  16.194 -0.1084 -1.3630 -1.4818
 2269SOL    HW218267   2.614   2.857  16.170  2.6446 -0.5740  0.0504
 2270SOL     OW18268   2.050   3.272   5.244 -0.1182 -0.4499  0.5977
 2270SOL    HW118269   2.015   3.311   5.164 -1.8823  0.2918  1.7146
 2270SOL    HW218270   2.116   3.334   5.272  2.3269 -2.0676 -1.6128
 2271SOL     OW18271   0.009   1.861  13.697 -0.0301 -0.4841  0.6309
 2271SOL    HW118272   0.012   1.953  13.671 -1.2301 -0.9598 -1.2689
 2271SOL    HW218273   0.009   1.870  13.792 -0.0446 -1.2914  0.7052
 2272SOL     OW18274   4.010   3.409   3.429 -0.4108 -0.3502 -0.4967
 2272SOL    HW118275   4.018   3.416   3.334 -1.0250  1.3235 -0.4224
 2272SOL    HW218276   4.099   3.389   3.459 -1.6688 -3.2186  1.2638
 2273SOL     OW18277   3.336   1.540   3.229  0.0844 -0.2439 -0.2887
 2273SOL    HW118278   3.298   1.458   3.199  0.3705 -0.2721 -0.5773
 2273SOL    HW218279   3.265   1.566   3.287 -0.5389 -1.0385 -0.7029
 2274SOL     OW18280   1.376   3.724   1.080 -0.3666  0.0845 -0.3009
 2274SOL    HW118281   1.439   3.795   1.082  0.2513 -0.4999  0.9050
 2274SOL    HW218282   1.426   3.649   1.048 -1.9061 -1.4891  0.9140
 2275SOL     OW18283   1.018   1.568   7.017 -0.1111 -0.0852  0.3883
 2275SOL    HW118284   0.947   1.624   7.049  0.5848  1.0124  0.0330
 2275SOL    HW218285   0.976   1.486   6.993 -1.3803  1.0251 -1.1965
 2276SOL     OW18286   0.086   4.469   8.506  0.0554  0.4008  0.0986
 2276SOL    HW118287   0.152   4.524   8.549 -1.7378  2.6966 -0.0908
 2276SOL    HW218288   0.145   4.394   8.515 -2.9489 -1.7064  2.3709
 2277SOL     OW18289   4.273   1.705   2.050 -0.6887  0.4642 -0.9754
 2277SOL    HW118290   4.206   1.636   2.050  0.4161 -0.6078  1.5752
 2277SOL    HW218291   4.244   1.757   1.975  1.6548  0.1565 -2.1055
 2278SOL     OW18292   3.949   1.244   4.216 -0.6052  0.1841 -0.2768
 2278SOL    HW118293   4.029   1.224   4.167 -1.2595  0.9994 -1.6805
 2278SOL    HW218294   3.993   1.286   4.289  0.1346 -1.5257  0.2734
 2279SOL     OW18295   2.971   3.727   8.417 -0.4158 -0.0428  0.4869
 2279SOL    HW118296   2.949   3.773   8.498 -2.5658 -0.8743  0.3756
 2279SOL    HW218297   2.901   3.752   8.357 -0.5296 -0.1603  0.5698
 2280SOL     OW18298   1.861   2.873  14.750  0.0759 -0.0564  0.0971
 2280SOL    HW118299   1.869   2.927  14.672  1.2753 -0.8945 -0.3496
 2280SOL    HW218300   1.779   2.903  14.789  1.1841  2.4973  0.4581
 2281SOL     OW18301   4.397   4.127   6.079 -0.5435 -0.5856  0.0501
 2281SOL    HW118302   4.333   4.191   6.110 -2.2837 -1.0894 -2.4647
 2281SOL    HW218303   4.433   4.187   6.013 -0.7136 -2.3431 -1.6315
 2282SOL     OW18304   4.626   0.448   4.281 -0.4830 -0.2424 -0.3648
 2282SOL    HW118305   4.667   0.414   4.360 -1.5542  1.3766  0.8920
 2282SOL    HW218306   4.533   0.442   4.303  0.0279 -1.1462  1.5441
 2283SOL     OW18307   4.564   4.464   3.269 -0.6486 -0.3931  0.4122
 2283SOL    HW118308   4.605   4.545   3.239  1.3087 -0.7121  2.2770
 2283SOL    HW218309   4.475   4.490   3.292  0.8377  3.8977  1.3561
 2284SOL     OW18310   0.467   0.833  11.562 -0.0421 -0.3660 -0.5188
 2284SOL    HW118311   0.535   0.900  11.550  1.5364 -1.8936 -0.0928
 2284SOL    HW218312   0.506   0.757  11.519  0.6217 -0.6953  0.6729
 2285SOL     OW18313   1.879   4.360   4.604  1.2017  0.7844 -0.3080
 2285SOL    HW118314   1.949   4.366   4.669  1.1623  0.7105 -0.2585
 2285SOL    HW218315   1.932   4.355   4.525  0.8878  0.8198 -0.5171
 2286SOL     OW18316   3.054   1.860  15.641 -0.0830  0.2199 -0.2128
 2286SOL    HW118317   3.017   1.931  15.590  3.2426  1.8385 -0.4000
 2286SOL    HW218318   3.005   1.864  15.724 -1.7695  2.7632 -1.3343
 2287SOL     OW18319   4.258   0.384   4.716  0.9551 -0.6731 -0.0487
 2287SOL    HW118320   4.273   0.470   4.677  0.8864 -0.7176 -0.1741
 2287SOL    HW218321   4.290   0.391   4.806  0.9775 -0.5749 -0.0645
 2288SOL     OW18322   2.850   1.898   5.103  0.7110  0.6152 -0.9496
 2288SOL    HW118323   2.835   1.992   5.109 -0.8770  0.2903  0.2824
 2288SOL    HW218324   2.758   1.872   5.103  0.7813  0.3250  3.7348
 2289SOL     OW18325   0.830   1.143   2.237  0.0128  0.1113  0.1843
 2289SOL    HW118326   0.812   1.200   2.312 -2.3496  0.1904 -0.4403
 2289SOL    HW218327   0.838   1.206   2.165  0.5092 -0.5703 -0.3508
 2290SOL     OW18328   3.023   1.005  13.142  0.0686 -0.6024  0.2679
 2290SOL    HW118329   3.011   0.912  13.125 -0.2994 -0.6752  0.9479
 2290SOL    HW218330   2.933   1.037  13.141  0.7114  1.1501 -0.5744
 2291SOL     OW18331   0.987   2.175   7.391  0.3393 -0.3090 -0.0411
 2291SOL    HW118332   0.946   2.126   7.320  0.1984 -0.0707 -0.1217
 2291SOL    HW218333   1.058   2.110   7.390  0.7010  0.0823 -0.0044
 2292SOL     OW18334   2.932   3.754   2.911  0.0680  0.1234 -0.1240
 2292SOL    HW118335   2.904   3.798   2.991 -2.1728 -1.2611 -0.1366
 2292SOL    HW218336   2.850   3.722   2.874  0.2018 -0.1171 -0.2121
 2293SOL     OW18337   3.449   2.095   6.152  0.0657 -0.2349 -0.0205
 2293SOL    HW118338   3.386   2.023   6.143  1.6641 -1.3421 -2.1429
 2293SOL    HW218339   3.447   2.104   6.247 -3.8904 -1.3157  0.0022
 2294SOL     OW18340   2.592   2.695   1.555 -0.4171  0.0768 -0.4584
 2294SOL    HW118341   2.582   2.741   1.472  0.0352 -1.7929 -1.5391
 2294SOL    HW218342   2.624   2.610   1.526 -0.7394 -0.2127  0.0278
 2295SOL     OW18343   2.639   1.366   0.012  0.5880 -0.5109 -0.5933
 2295SOL    HW118344   2.646   1.396   0.102 -1.4253 -2.1441  0.1136
 2295SOL    HW218345   2.715   1.307   0.009 -1.8407 -3.6140 -0.9359
 2296SOL     OW18346   0.035   0.681  15.978  0.0041 -0.6415  0.4094
 2296SOL    HW118347   0.035   0.733  15.898 -0.2511 -1.3882 -0.0869
 2296SOL    HW218348   0.096   0.736  16.026 -0.2007 -0.8103  0.8619
 2297SOL     OW18349   0.604   0.859   6.885 -0.1319  0.3362  0.0910
 2297SOL    HW118350   0.663   0.925   6.919 -0.4916  0.4104  0.5735
 2297SOL    HW218351   0.622   0.863   6.791 -0.6958  2.1326  0.0662
 2298SOL     OW18352   2.661   4.370   5.764 -0.1461  0.3635 -0.2397
 2298SOL    HW118353   2.618   4.292   5.729 -1.2140  0.6239  0.4718
 2298SOL    HW218354   2.621   4.368   5.851 -0.1707 -1.7982 -0.2972
 2299SOL     OW18355   3.909   3.486  15.120  0.7428  0.5978  0.3046
 2299SOL    HW118356   3.844   3.438  15.070 -0.2213  1.0124  1.1401
 2299SOL    HW218357   3.867   3.572  15.130  0.6410  0.4652  1.0445
 2300SOL     OW18358   0.138   0.932  13.432 -0.3518 -0.0024 -0.2700
 2300SOL    HW118359   0.082   0.876  13.378  0.7217 -1.5263  0.2096
 2300SOL    HW218360   0.085   1.012  13.434 -0.0565  0.1647  0.7693
 2301SOL     OW18361   2.506   2.448  10.190  0.4099  0.7133  0.3097
 2301SOL    HW118362   2.417   2.444  10.155  0.4715  1.6848  0.0353
 2301SOL    HW218363   2.536   2.364  10.153 -3.3558  0.1512 -1.4702
 2302SOL     OW18364   0.669   3.550   5.996  0.3614  0.5929 -0.3284
 2302SOL    HW118365   0.682   3.473   5.941  0.9952  1.1845 -1.0346
 2302SOL    HW218366   0.758   3.570   6.025  0.5129 -0.0830 -0.3315
 2303SOL     OW18367   0.608   2.292  12.428 -0.2918 -0.2640  0.3830
 2303SOL    HW118368   0.607   2.384  12.400 -0.6014 -1.0378 -2.1771
 2303SOL    HW218369   0.703   2.284  12.439 -0.5947 -1.2196  2.2078
 2304SOL     OW18370   3.349   0.880   4.792 -0.1907 -0.1831  0.3603
 2304SOL    HW118371   3.372   0.792   4.762 -0.2705 -0.6694  1.7052
 2304SOL    HW218372   3.362   0.870   4.887 -0.4485 -2.1901  0.1845
 2305SOL     OW18373   3.661   4.508  17.406 -0.1791  0.1020  0.4427
 2305SOL    HW118374   3.616   4.440  17.355 -0.6930  1.2344 -0.6035
 2305SOL    HW218375   3.597   4.526  17.475 -2.6027 -1.3843 -1.4116
 2306SOL     OW18376   1.080   1.083   2.540 -0.2127 -0.1119  0.3334
 2306SOL    HW118377   1.118   1.096   2.626 -1.0088 -0.0283  0.6696
 2306SOL    HW218378   1.020   1.009   2.551 -1.9335  1.4387  1.3854
 2307SOL     OW18379   1.692   1.878   5.305 -0.2333 -0.4255  0.0340
 2307SOL    HW118380   1.753   1.807   5.319  0.8831  0.1375 -2.0234
 2307SOL    HW218381   1.743   1.955   5.281  0.0246 -0.0510  1.7917
 2308SOL     OW18382   3.321   1.703   1.647  0.7287  0.5721 -0.3431
 2308SOL    HW118383   3.343   1.796   1.658 -0.6549  0.8090  0.4417
 2308SOL    HW218384   3.244   1.711   1.704  1.2564  3.1081  0.0079
 2309SOL     OW18385   1.721   2.371   5.965  0.3563 -0.3598  0.3705
 2309SOL    HW118386   1.698   2.303   5.902 -2.1920 -0.4182  1.3705
 2309SOL    HW218387   1.715   2.326   6.050  1.4561  0.2359  0.7565
 2310SOL     OW18388   3.344   2.968  15.547 -0.3625  0.1537  0.2571
 2310SOL    HW118389   3.360   2.897  15.485  0.4033 -1.6647  2.5265
 2310SOL    HW218390   3.401   2.943  15.621  0.2319 -1.1679 -0.6416
 2311SOL     OW18391   3.682   3.671   3.170 -0.1573 -0.0175 -0.1810
 2311SOL    HW118392   3.635   3.604   3.122 -1.0153  1.1583 -0.9939
 2311SOL    HW218393   3.662   3.652   3.261  2.6637 -0.7577  0.2760
 2312SOL     OW18394   3.124   4.678   3.719 -0.1124  0.1491  0.1309
 2312SOL    HW118395   3.166   0.031   3.764 -0.5248  1.0151 -0.8994
 2312SOL    HW218396   3.131   4.605   3.781 -0.2902  1.0593  1.2236
 2313SOL     OW18397   4.339   3.946   7.245  0.3364  0.3004  0.4992
 2313SOL    HW118398   4.344   3.951   7.340 -0.2228 -0.6857  0.5724
 2313SOL    HW218399   4.254   3.903   7.235 -0.3455  1.8631 -0.5243
 2314SOL     OW18400   1.610   0.592   4.341  0.6461 -0.7932 -0.4082
 2314SOL    HW118401   1.627   0.634   4.257 -0.8676 -0.5483 -0.5944
 2314SOL    HW218402   1.606   0.663   4.405 -0.6093 -1.1469 -0.0866
 2315SOL     OW18403   3.630   4.032  16.745  0.8947  0.1387 -0.0719
 2315SOL    HW118404   3.644   3.939  16.726 -0.3648 -0.0195 -0.2117
 2315SOL    HW218405   3.710   4.058  16.792 -0.4116  2.5121  0.8215
 2316SOL     OW18406   3.120   1.879  17.521  0.3193 -0.7034 -0.0767
 2316SOL    HW118407   3.150   1.799  17.564 -0.7804 -0.0915  1.8496
 2316SOL    HW218408   3.036   1.886  17.567  0.2708 -0.1812 -0.2518
 2317SOL     OW18409   1.849   0.582  10.606 -0.2009  0.2015 -0.5218
 2317SOL    HW118410   1.791   0.507  10.607  0.4053 -0.2626  0.2672
 2317SOL    HW218411   1.911   0.545  10.668  1.4618  1.5123 -1.3872
 2318SOL     OW18412   4.170   1.635  15.569  0.1216 -0.6943 -0.3538
 2318SOL    HW118413   4.119   1.559  15.597  1.0475 -0.7275  1.1958
 2318SOL    HW218414   4.120   1.650  15.488  0.2718  0.6457 -0.2047
 2319SOL     OW18415   2.100   1.654  12.957 -0.4316  0.3297  0.1806
 2319SOL    HW118416   2.072   1.724  12.898 -2.7649 -1.1003 -0.4207
 2319SOL    HW218417   2.019   1.634  13.004 -1.7114 -2.9863 -3.4267
 2320SOL     OW18418   3.933   1.286  10.625 -0.1107  0.1860 -0.7737
 2320SOL    HW118419   3.894   1.217  10.678  0.1846  0.3367 -0.3479
 2320SOL    HW218420   3.941   1.358  10.688 -0.7896 -0.2801 -0.1612
 2321SOL     OW18421   4.655   2.900  17.502 -0.1101  0.1758 -0.4401
 2321SOL    HW118422   4.715   2.974  17.490  0.2218 -0.0580 -0.2083
 2321SOL    HW218423   4.584   2.926  17.443 -0.9929 -2.5554 -0.6057
 2322SOL     OW18424   0.348   2.749   7.749 -0.3419 -0.1472  0.2450
 2322SOL    HW118425   0.291   2.747   7.672 -0.6337  0.4590  0.4421
 2322SOL    HW218426   0.280   2.768   7.814 -1.4729 -1.2561 -0.6033
 2323SOL     OW18427   0.396   3.790  11.509  0.5904 -0.1292  0.2024
 2323SOL    HW118428   0.490   3.801  11.497  0.2059  0.2592 -2.4601
 2323SOL    HW218429   0.362   3.880  11.504 -0.2143 -0.3140  2.4281
 2324SOL     OW18430   3.543   4.034   5.475 -0.1580 -0.3411  0.0016
 2324SOL    HW118431   3.524   4.060   5.565  1.2311  1.4956 -0.2390
 2324SOL    HW218432   3.611   4.099   5.455  0.3396 -1.3866 -1.7042
 2325SOL     OW18433   2.026   4.043   7.604  0.2319  0.0335  0.0797
 2325SOL    HW118434   2.097   3.995   7.562 -0.7510 -2.2358  1.0269
 2325SOL    HW218435   1.950   3.995   7.571  1.3089 -0.8933 -1.0145
 2326SOL     OW18436   3.501   2.230   1.809  0.2179  0.8708 -0.3438
 2326SOL    HW118437   3.581   2.218   1.758  0.3824 -1.4790  0.4570
 2326SOL    HW218438   3.455   2.289   1.749  0.5150  1.0910 -0.3568
 2327SOL     OW18439   1.706   1.659   0.776 -0.2939  0.2857 -0.5451
 2327SOL    HW118440   1.654   1.690   0.702 -1.1701  2.4663  0.9889
 2327SOL    HW218441   1.789   1.705   0.762  0.7805 -2.3002 -2.6760
 2328SOL     OW18442   2.688   3.817   2.314 -0.1496  0.5635 -0.3817
 2328SOL    HW118443   2.626   3.816   2.242 -0.0173 -2.9489 -0.4751
 2328SOL    HW218444   2.658   3.898   2.355  0.9546  0.3028  0.9337
 2329SOL     OW18445   2.390   1.969   7.271  0.2302 -0.9206  0.4145
 2329SOL    HW118446   2.371   2.002   7.359  0.3891 -1.5590  0.6830
 2329SOL    HW218447   2.456   2.032   7.240 -0.1663  0.2741  1.9606
 2330SOL     OW18448   2.732   1.761   6.027  0.0580 -0.0662 -0.0187
 2330SOL    HW118449   2.658   1.756   6.088 -1.1865 -0.9345 -1.5754
 2330SOL    HW218450   2.711   1.682   5.976  0.6072  1.2071 -2.1918
 2331SOL     OW18451   0.187   3.617   0.083  0.0855  0.4763 -0.1178
 2331SOL    HW118452   0.264   3.579   0.125 -0.2234 -0.6101 -0.5256
 2331SOL    HW218453   0.117   3.601   0.147 -1.7681 -0.5076 -2.3585
 2332SOL     OW18454   4.567   1.455   8.127 -0.1346 -0.0463 -1.0603
 2332SOL    HW118455   4.473   1.468   8.127 -0.0516  0.5598 -0.4940
 2332SOL    HW218456   4.571   1.360   8.114 -0.4382 -0.4482  1.8072
 2333SOL     OW18457   3.006   2.800   3.044 -0.5572 -0.4627 -0.1681
 2333SOL    HW118458   3.041   2.772   3.129  1.8673  1.1382 -0.6630
 2333SOL    HW218459   3.036   2.729   2.988 -2.5595 -2.8398  1.7820
 2334SOL     OW18460   4.058   1.986   3.830 -0.4269  0.0240  0.2090
 2334SOL    HW118461   4.006   1.908   3.852 -2.0610  1.0667  0.0178
 2334SOL    HW218462   4.144   1.950   3.852 -0.5351  0.5479  1.5311
 2335SOL     OW18463   4.714   0.497  13.609  0.4405 -0.4748  0.1317
 2335SOL    HW118464   4.689   0.416  13.564 -0.5246 -0.2508  0.2659
 2335SOL    HW218465   4.633   0.544  13.589  1.3817  1.2264  0.3017
 2336SOL     OW18466   2.885   3.616  12.438 -0.4652  0.6842  0.2253
 2336SOL    HW118467   2.890   3.611  12.343 -1.0541  1.2620  0.1599
 2336SOL    HW218468   2.790   3.605  12.449 -0.6249  1.2594 -0.5530
 2337SOL     OW18469   1.969   1.937   4.893  0.0914  0.5550 -0.8352
 2337SOL    HW118470   1.938   1.969   4.808 -0.0855  0.6265 -0.7420
 2337SOL    HW218471   1.886   1.946   4.938  1.0767 -0.6404  1.2257
 2338SOL     OW18472   2.268   2.945   3.690  0.3200  0.3455 -0.1623
 2338SOL    HW118473   2.231   2.858   3.672  1.6734  0.1782 -2.0598
 2338SOL    HW218474   2.213   2.996   3.632  0.9764  0.9898 -0.2177
 2339SOL     OW18475   4.143   1.735   3.888 -0.3020 -0.5030 -0.5462
 2339SOL    HW118476   4.106   1.724   3.801 -0.0464 -1.5209 -0.5286
 2339SOL    HW218477   4.211   1.669   3.872  0.1920 -0.2066  0.3471
 2340SOL     OW18478   4.583   0.194   8.122 -0.1875  0.1907 -0.5158
 2340SOL    HW118479   4.562   0.123   8.061  0.2478 -1.8103  1.6697
 2340SOL    HW218480   4.624   0.261   8.068 -2.1963  0.5488 -1.5973
 2341SOL     OW18481   2.394   0.833   8.904 -0.0623 -0.8837  0.2718
 2341SOL    HW118482   2.387   0.754   8.958  2.3281 -0.3679  1.3344
 2341SOL    HW218483   2.385   0.779   8.825  1.2246 -0.0124 -0.4674
 2342SOL     OW18484   2.294   2.504   9.324  0.2654  0.4761 -0.2873
 2342SOL    HW118485   2.308   2.412   9.305 -1.8910 -0.1949  1.4186
 2342SOL    HW218486   2.219   2.518   9.266  0.2374  1.1141 -0.1021
 2343SOL     OW18487   0.475   2.728   0.090  0.3743  0.4120  0.5749
 2343SOL    HW118488   0.417   2.790   0.048  0.3689  0.3425  0.4806
 2343SOL    HW218489   0.446   2.650   0.043  0.4295  0.6978  0.0614
 2344SOL     OW18490   1.641   4.564  13.133 -0.0166 -0.6263 -0.5270
 2344SOL    HW118491   1.639   4.654  13.166 -1.1516 -0.1722 -1.8110
 2344SOL    HW218492   1.613   4.582  13.043 -1.5244  0.4144  0.1617
 2345SOL     OW18493   0.753   4.538   8.134 -0.4064  0.2436 -0.3868
 2345SOL    HW118494   0.797   4.501   8.057  0.6282  0.1753  0.2298
 2345SOL    HW218495   0.666   4.502   8.117 -0.5800  0.6914 -0.4415
 2346SOL     OW18496   2.493   1.854  10.869 -0.0447 -0.6881  0.5263
 2346SOL    HW118497   2.494   1.949  10.865  0.2913 -0.7342 -0.5309
 2346SOL    HW218498   2.401   1.848  10.840  0.2756  1.0718 -0.8190
 2347SOL     OW18499   2.254   1.557  15.681 -0.0479  0.1815  0.8246
 2347SOL    HW118500   2.332   1.593  15.724  0.6324  2.5384 -2.4091
 2347SOL    HW218501   2.290   1.531  15.596 -2.1927  2.2945 -0.7033
 2348SOL     OW18502   3.515   2.036   2.180 -0.1679 -0.0077 -0.6506
 2348SOL    HW118503   3.481   1.954   2.144 -0.7150  0.2613 -0.7382
 2348SOL    HW218504   3.459   2.092   2.127 -2.6076 -0.3518  1.5551
 2349SOL     OW18505   2.289   2.165   8.923 -0.7639  0.1401  0.7801
 2349SOL    HW118506   2.355   2.118   8.973  0.2582  0.2626 -0.4344
 2349SOL    HW218507   2.242   2.102   8.868 -0.8646 -0.3035  1.3888
 2350SOL     OW18508   0.177   2.111   1.761  0.3959 -0.2317  0.6649
 2350SOL    HW118509   0.196   2.039   1.821 -1.5293 -1.4820 -0.2360
 2350SOL    HW218510   0.238   2.181   1.784  0.7012  0.0245 -0.9453
 2351SOL     OW18511   0.560   2.451   5.085 -0.1426  0.4078  0.1027
 2351SOL    HW118512   0.623   2.464   5.014 -2.1176  1.1084 -1.5261
 2351SOL    HW218513   0.486   2.404   5.045  0.6649 -1.0275  0.2997
 2352SOL     OW18514   3.149   3.129   7.746 -0.2243  0.1292 -0.2577
 2352SOL    HW118515   3.089   3.175   7.687 -2.1967 -1.9581  0.1096
 2352SOL    HW218516   3.131   3.172   7.829 -1.8211 -2.1962  0.5998
 2353SOL     OW18517   3.625   2.749   3.895 -0.0683  0.0902 -0.2514
 2353SOL    HW118518   3.660   2.753   3.806 -1.8390  0.1543 -0.9524
 2353SOL    HW218519   3.702   2.747   3.952 -0.4645  0.0169  0.2815
 2354SOL     OW18520   0.042   1.070   7.317 -0.8978 -0.2206 -0.3161
 2354SOL    HW118521   4.668   1.082   7.329 -0.8034 -0.0559  0.2874
 2354SOL    HW218522   0.066   1.111   7.400  0.6134  1.1772 -1.4393
 2355SOL     OW18523   1.596   0.973   9.817 -0.3698  0.2077  1.0448
 2355SOL    HW118524   1.625   0.966   9.726 -1.0616  0.1884  0.8227
 2355SOL    HW218525   1.529   0.906   9.830 -0.2945  0.3245  2.0543
 2356SOL     OW18526   1.648   3.458   1.852  0.0954  0.3726  0.4172
 2356SOL    HW118527   1.734   3.426   1.825 -1.4390 -0.6180 -3.4306
 2356SOL    HW218528   1.594   3.383   1.828 -0.4559  1.0220 -0.4017
 2357SOL     OW18529   3.061   4.222   2.009  0.2600 -0.2348  0.3778
 2357SOL    HW118530   3.083   4.293   1.948 -0.8313 -1.0780 -0.9991
 2357SOL    HW218531   3.150   4.200   2.038  0.8748 -0.2898 -1.5077
 2358SOL     OW18532   4.041   1.328   2.449  0.0800 -0.3376 -0.4944
 2358SOL    HW118533   4.086   1.411   2.463  0.4439 -0.7386  0.7845
 2358SOL    HW218534   4.079   1.306   2.364 -1.6106  1.4491 -1.7023
 2359SOL     OW18535   1.494   3.398   9.015 -0.7260 -0.4686 -0.0785
 2359SOL    HW118536   1.451   3.452   9.082  1.1487 -0.3107  0.9756
 2359SOL    HW218537   1.484   3.308   9.045 -1.0294  0.2252  1.8935
 2360SOL     OW18538   2.336   3.528   5.805  0.2793  0.1991 -0.4453
 2360SOL    HW118539   2.394   3.530   5.729  0.6915  2.4639 -0.0538
 2360SOL    HW218540   2.393   3.482   5.867 -0.0646 -1.2346 -1.1888
 2361SOL     OW18541   4.115   0.208  12.329  0.2246  0.5592  0.1290
 2361SOL    HW118542   4.146   0.188  12.240  1.5025  0.7073  0.5520
 2361SOL    HW218543   4.172   0.144  12.371  2.1569  0.5350 -2.4968
 2362SOL     OW18544   3.979   4.720   3.487  0.2300 -0.0476  0.9086
 2362SOL    HW118545   3.919   0.008   3.561  0.0605  0.5520  0.6999
 2362SOL    HW218546   4.058   0.032   3.529 -0.1205  0.0658  1.4728
 2363SOL     OW18547   3.097   3.093  14.061 -0.2806 -0.0057 -0.3994
 2363SOL    HW118548   3.152   3.144  14.120 -0.9739  0.5256 -0.2028
 2363SOL    HW218549   3.157   3.032  14.019  0.3179  1.4112 -1.6225
 2364SOL     OW18550   4.146   1.952   2.204 -0.7942 -0.1957 -0.1570
 2364SOL    HW118551   4.058   1.926   2.232 -1.2186 -1.0203 -2.3066
 2364SOL    HW218552   4.160   1.877   2.147 -1.4928  0.9456 -1.8032
 2365SOL     OW18553   0.187   1.286   3.511 -0.0363 -0.4632  0.4786
 2365SOL    HW118554   0.093   1.287   3.491 -0.1466 -0.4179  1.0058
 2365SOL    HW218555   0.216   1.377   3.518  0.8599 -0.5501 -2.3290
 2366SOL     OW18556   0.198   2.070   9.111 -0.0495 -0.3744  1.0162
 2366SOL    HW118557   0.156   1.984   9.113  1.9725 -1.3230  3.0131
 2366SOL    HW218558   0.150   2.105   9.036 -0.2360 -0.9338  0.8753
 2367SOL     OW18559   3.727   3.316  14.961  1.0782 -0.0808  0.7468
 2367SOL    HW118560   3.661   3.272  15.016 -1.8299  1.2418 -1.6729
 2367SOL    HW218561   3.786   3.244  14.940  0.7505 -0.3207  0.6429
 2368SOL     OW18562   3.443   3.850   2.935  0.2026 -0.1939 -0.1050
 2368SOL    HW118563   3.391   3.873   2.858  1.3998  1.6853 -0.3625
 2368SOL    HW218564   3.527   3.894   2.924  0.2106 -1.0270 -3.4778
 2369SOL     OW18565   4.596   1.969   4.712 -0.0956 -0.2926 -0.3635
 2369SOL    HW118566   4.586   1.897   4.774  0.1663 -0.0937 -0.0928
 2369SOL    HW218567   4.514   1.960   4.664 -1.1136 -1.5607  1.5906
 2370SOL     OW18568   2.267   4.627  12.859 -0.8787  0.2522  0.1454
 2370SOL    HW118569   2.324   4.605  12.785 -0.3687 -1.5383  1.0473
 2370SOL    HW218570   2.319   4.582  12.926 -1.1363 -1.0355 -0.5039
 2371SOL     OW18571   4.312   4.618  11.335  0.8360  0.6854  0.0785
 2371SOL    HW118572   4.382   4.553  11.340 -0.3171 -0.6301 -1.0007
 2371SOL    HW218573   4.331   4.676  11.409 -1.0476 -2.1575  2.7678
 2372SOL     OW18574   3.544   2.179   9.846  0.1727  0.0926 -0.5274
 2372SOL    HW118575   3.554   2.103   9.789 -0.9436 -0.7787  0.4437
 2372SOL    HW218576   3.470   2.151   9.899  0.8035 -1.9443 -0.7238
 2373SOL     OW18577   2.903   1.285   7.539  0.3080  0.3961  1.1534
 2373SOL    HW118578   2.851   1.349   7.490 -1.4643  0.0078  2.5376
 2373SOL    HW218579   2.994   1.305   7.513  0.8371 -0.6652  2.1801
 2374SOL     OW18580   1.512   2.896   7.823  0.5404  0.1168 -0.5980
 2374SOL    HW118581   1.560   2.946   7.758 -0.6848 -1.3423 -2.6275
 2374SOL    HW218582   1.466   2.965   7.871  1.9837  0.1530  0.7479
 2375SOL     OW18583   2.811   0.604  14.058  0.7406 -0.4400  0.3684
 2375SOL    HW118584   2.757   0.558  14.122  1.0678  0.5536  1.3574
 2375SOL    HW218585   2.898   0.602  14.099  0.5330  0.3108  0.8493
 2376SOL     OW18586   3.165   3.419   5.718 -0.1721  0.5546 -0.1122
 2376SOL    HW118587   3.236   3.469   5.758 -0.5587  1.0381 -0.0340
 2376SOL    HW218588   3.150   3.352   5.785  1.7318  0.6204  0.3612
 2377SOL     OW18589   4.394   3.220   3.703 -0.1949 -0.0726 -0.0362
 2377SOL    HW118590   4.315   3.184   3.663 -0.4243 -1.3123  1.5635
 2377SOL    HW218591   4.395   3.312   3.676 -0.3044  0.2570  1.1010
 2378SOL     OW18592   3.548   4.323  12.287  0.2299 -0.3349 -0.3986
 2378SOL    HW118593   3.582   4.393  12.233  0.5138  1.4438  2.0738
 2378SOL    HW218594   3.458   4.325  12.255 -0.2128 -2.5024  0.6514
 2379SOL     OW18595   3.617   3.071   0.434 -0.2465  0.5081  0.2482
 2379SOL    HW118596   3.566   3.095   0.357 -1.8452 -0.9774  0.8397
 2379SOL    HW218597   3.682   3.014   0.393 -2.4507 -0.4985 -1.8495
 2380SOL     OW18598   2.518   1.340   7.432 -0.0787 -0.1246  0.2518
 2380SOL    HW118599   2.535   1.257   7.388 -0.7230 -0.3997  0.5272
 2380SOL    HW218600   2.594   1.389   7.398 -2.0905  2.1206 -0.9711
 2381SOL     OW18601   0.905   0.818   5.570  0.9204 -0.7650 -0.8730
 2381SOL    HW118602   0.937   0.906   5.591  2.5943 -1.0600 -2.1349
 2381SOL    HW218603   0.964   0.785   5.502  1.4622 -2.1215  0.2657
 2382SOL     OW18604   4.449   0.708   4.271  0.1303  0.0154 -0.4474
 2382SOL    HW118605   4.451   0.761   4.192 -0.3694  0.5725 -0.0848
 2382SOL    HW218606   4.504   0.631   4.253 -2.2849 -1.8046  0.0089
 2383SOL     OW18607   0.014   2.750   2.793 -0.3083  0.0034  0.2013
 2383SOL    HW118608   4.650   2.768   2.752  0.8471 -0.7222 -2.4954
 2383SOL    HW218609   0.006   2.789   2.880 -2.5931  1.9057 -0.8602
 2384SOL     OW18610   3.671   3.796  13.694  0.5495 -0.0272 -0.1033
 2384SOL    HW118611   3.595   3.743  13.669 -0.3980  1.2279  0.1616
 2384SOL    HW218612   3.718   3.732  13.747 -0.3005  0.6313  1.4221
 2385SOL     OW18613   2.438   1.802   1.911 -0.1220  0.0635 -0.2484
 2385SOL    HW118614   2.364   1.843   1.865 -0.4652  0.2737  0.4952
 2385SOL    HW218615   2.462   1.887   1.948 -1.2753  0.3043 -0.0320
 2386SOL     OW18616   1.221   0.209   5.898 -0.1711  0.2088 -0.5403
 2386SOL    HW118617   1.307   0.217   5.939 -0.1076  2.0860 -1.0605
 2386SOL    HW218618   1.201   0.302   5.901 -1.1864 -0.1162  2.4075
 2387SOL     OW18619   2.324   0.220   5.934 -0.2050 -0.1665  0.7172
 2387SOL    HW118620   2.338   0.199   5.842  0.6135 -0.3414  0.8794
 2387SOL    HW218621   2.318   0.315   5.929 -1.0836 -0.3352 -1.4228
 2388SOL     OW18622   0.026   1.476   6.981  0.0845 -0.4421  0.0377
 2388SOL    HW118623   4.665   1.458   7.028  0.3374 -1.3134  0.1516
 2388SOL    HW218624   0.062   1.392   6.952 -0.6680 -0.8017  0.1468
 2389SOL     OW18625   1.126   1.021   8.832 -0.1814  0.0006  0.2188
 2389SOL    HW118626   1.196   0.966   8.797  1.6287  0.5486  2.9837
 2389SOL    HW218627   1.078   0.952   8.877  0.4500  0.2819  1.3057
 2390SOL     OW18628   2.658   2.412   1.509  0.0416  0.1458  0.3978
 2390SOL    HW118629   2.739   2.462   1.497 -0.5625  0.1350 -3.7635
 2390SOL    HW218630   2.662   2.331   1.458 -0.3528  2.1933 -2.9647
 2391SOL     OW18631   3.756   1.080   6.774  0.4611 -0.2559  0.3938
 2391SOL    HW118632   3.687   1.137   6.810 -0.9290 -1.2195 -0.7768
 2391SOL    HW218633   3.836   1.117   6.811 -0.6387  0.3371  2.1718
 2392SOL     OW18634   3.118   3.546   3.397 -0.4877 -0.0364  0.0389
 2392SOL    HW118635   3.033   3.532   3.356 -0.6663  0.2311  0.3199
 2392SOL    HW218636   3.175   3.476   3.364  0.6426 -0.1180  2.2026
 2393SOL     OW18637   1.222   2.727   8.970  0.3092 -0.4570  0.0510
 2393SOL    HW118638   1.285   2.724   9.042  1.7858 -2.0963 -1.3273
 2393SOL    HW218639   1.163   2.656   8.996 -0.2260 -0.8668 -2.2789
 2394SOL     OW18640   0.631   4.376   4.470 -0.5881  0.0649 -0.0690
 2394SOL    HW118641   0.570   4.448   4.456  0.4823  1.1421  0.8520
 2394SOL    HW218642   0.584   4.341   4.545 -0.2009 -0.5047 -0.0909
 2395SOL     OW18643   3.648   1.653  13.750  0.2050  0.1226 -0.3166
 2395SOL    HW118644   3.597   1.581  13.715 -1.7324  1.2477  0.1846
 2395SOL    HW218645   3.673   1.604  13.828  1.3822  2.1366  0.5711
 2396SOL     OW18646   2.139   2.324  10.441 -0.6071 -0.0358 -0.2423
 2396SOL    HW118647   2.217   2.275  10.412 -0.6528 -0.0495 -0.3425
 2396SOL    HW218648   2.137   2.391  10.373  3.3356  1.4093  1.0418
 2397SOL     OW18649   2.612   0.942   2.710  0.1879 -0.2919  0.4600
 2397SOL    HW118650   2.537   0.908   2.662 -0.1254  0.0099  0.7313
 2397SOL    HW218651   2.666   0.863   2.710  1.3716  0.5090 -2.2719
 2398SOL     OW18652   0.605   2.640   8.082 -0.0569 -0.2038  0.2649
 2398SOL    HW118653   0.598   2.605   7.993  0.7946 -1.0695  0.5431
 2398SOL    HW218654   0.561   2.567   8.125 -1.9629  0.8843  0.1404
 2399SOL     OW18655   2.510   3.735   1.511 -0.0352 -0.7985  0.0985
 2399SOL    HW118656   2.584   3.681   1.540 -1.6314 -0.8790  3.9382
 2399SOL    HW218657   2.439   3.719   1.573 -0.5475 -1.1269 -0.5736
 2400SOL     OW18658   1.519   0.848   4.473 -0.2649  0.2271  0.0116
 2400SOL    HW118659   1.494   0.918   4.532  0.6782  0.4748  0.1131
 2400SOL    HW218660   1.448   0.785   4.488  1.7405 -1.5987  1.8197
 2401SOL     OW18661   4.463   3.897  15.185 -0.2684  0.6666  0.5075
 2401SOL    HW118662   4.415   3.816  15.199  2.8149 -0.9819  1.4784
 2401SOL    HW218663   4.409   3.959  15.136  0.7166 -0.2044 -1.6873
 2402SOL     OW18664   0.321   4.241  16.378  0.1687  0.0125 -0.2352
 2402SOL    HW118665   0.340   4.302  16.307 -2.1918  1.3742  0.2993
 2402SOL    HW218666   0.237   4.198  16.365  0.4016 -0.4589 -0.1539
 2403SOL     OW18667   3.771   1.418   2.581  0.3718 -0.2652  0.6471
 2403SOL    HW118668   3.799   1.335   2.541  0.5550  2.1542 -4.2920
 2403SOL    HW218669   3.686   1.393   2.617 -0.8762  1.7258 -0.8942
 2404SOL     OW18670   4.239   0.359   8.779 -0.6065 -0.3284 -0.4484
 2404SOL    HW118671   4.275   0.338   8.693  1.7749 -1.4509  0.8291
 2404SOL    HW218672   4.206   0.270   8.796  0.8556 -0.8690 -0.4617
 2405SOL     OW18673   1.677   1.934  12.462  0.2533 -0.0697  0.6364
 2405SOL    HW118674   1.686   1.879  12.540  0.3063 -0.6897  0.1938
 2405SOL    HW218675   1.627   2.004  12.505 -0.7060  0.9625 -2.1888
 2406SOL     OW18676   3.649   4.229  13.726  0.0913 -0.2735 -0.5410
 2406SOL    HW118677   3.674   4.316  13.695 -1.0539 -0.1116 -0.9940
 2406SOL    HW218678   3.737   4.191  13.732 -0.9773 -2.7117 -0.1750
 2407SOL     OW18679   4.684   3.131   6.881 -0.6716 -0.0827  0.1803
 2407SOL    HW118680   4.689   3.052   6.827  0.6153 -0.2578  0.5392
 2407SOL    HW218681   4.708   3.099   6.968  0.3122 -0.4970 -0.2451
 2408SOL     OW18682   4.223   1.536   5.787  0.8310 -0.8514  0.1129
 2408SOL    HW118683   4.309   1.572   5.763  0.2160 -0.4579 -1.5246
 2408SOL    HW218684   4.221   1.473   5.716  0.2956  0.2354 -0.8355
 2409SOL     OW18685   1.635   0.372   3.314  0.0999  0.2904 -0.0453
 2409SOL    HW118686   1.623   0.372   3.219  1.8388 -1.1411 -0.2619
 2409SOL    HW218687   1.560   0.315   3.328  0.2296 -0.2799 -1.6531
 2410SOL     OW18688   3.676   3.681   1.430  0.0852 -0.2983  0.3875
 2410SOL    HW118689   3.652   3.735   1.505  1.0706  0.6919 -0.0054
 2410SOL    HW218690   3.673   3.597   1.476  2.3359 -1.0204 -0.7594
 2411SOL     OW18691   2.780   2.345  16.047 -0.2177 -0.2693 -0.0682
 2411SOL    HW118692   2.782   2.249  16.038  0.5763  0.0129 -2.9466
 2411SOL    HW218693   2.723   2.375  15.976  1.7063  0.6925 -1.2118
 2412SOL     OW18694   1.253   0.701   1.235  0.4567  0.5286  0.2003
 2412SOL    HW118695   1.299   0.773   1.192  0.9775  0.2693  0.3194
 2412SOL    HW218696   1.198   0.735   1.305 -0.4603 -0.8860  0.1813
 2413SOL     OW18697   2.067   3.154  15.785  0.4173  0.0150  0.3507
 2413SOL    HW118698   2.073   3.072  15.735  2.4828 -0.4170  1.2838
 2413SOL    HW218699   2.029   3.117  15.865  1.0338  1.5405  1.3389
 2414SOL     OW18700   1.152   1.393   4.522 -0.1868 -0.6807  0.2438
 2414SOL    HW118701   1.135   1.445   4.443 -0.1196 -0.9194  0.0715
 2414SOL    HW218702   1.203   1.323   4.481  0.2347 -1.0034  1.3217
 2415SOL     OW18703   1.809   3.808  16.626  0.0358 -0.0348 -0.2363
 2415SOL    HW118704   1.899   3.810  16.595 -0.0984 -0.0221 -0.6266
 2415SOL    HW218705   1.798   3.716  16.648 -0.4492  0.3307  1.0736
 2416SOL     OW18706   0.152   0.789  16.565  0.7019  0.8071  0.1023
 2416SOL    HW118707   0.163   0.773  16.659  0.6203  2.0152  0.3160
 2416SOL    HW218708   0.119   0.703  16.540 -0.2070  1.5496 -1.2372
 2417SOL     OW18709   2.864   3.034   3.081 -0.3037  0.7174  0.3556
 2417SOL    HW118710   2.804   3.055   3.010 -0.7522 -0.8466  0.2711
 2417SOL    HW218711   2.896   2.946   3.059 -1.6354  0.6343 -1.2386
 2418SOL     OW18712   1.797   4.369   4.326 -0.0142  0.6895  0.7278
 2418SOL    HW118713   1.798   4.325   4.242 -1.5408 -0.0069  1.0751
 2418SOL    HW218714   1.702   4.374   4.339  0.0860  2.3617  0.8617
 2419SOL     OW18715   2.954   0.252   5.121 -0.8306 -0.0837 -0.1725
 2419SOL    HW118716   2.895   0.328   5.118  0.7495  1.2191  1.5476
 2419SOL    HW218717   2.972   0.236   5.029  3.3358  0.9286  0.4666
 2420SOL     OW18718   0.871   1.320   6.697 -0.7671  0.7461 -0.3424
 2420SOL    HW118719   0.889   1.354   6.785 -2.2154  0.7023 -0.0295
 2420SOL    HW218720   0.786   1.280   6.716  0.0517 -0.9758 -0.3370
 2421SOL     OW18721   2.723   3.455   6.007  0.4143 -0.1325 -0.1248
 2421SOL    HW118722   2.773   3.391   5.957  0.9652 -1.6645  2.4114
 2421SOL    HW218723   2.636   3.419   5.991 -0.7997  2.3415  0.8440
 2422SOL     OW18724   3.945   1.407   8.805 -0.0525  0.1365  0.2257
 2422SOL    HW118725   3.872   1.373   8.856  0.4359 -2.0594 -0.5262
 2422SOL    HW218726   3.895   1.479   8.766  1.1071  0.0661 -1.4191
 2423SOL     OW18727   2.298   3.171   9.477 -0.2992  0.0616  0.1936
 2423SOL    HW118728   2.384   3.131   9.489  0.0735  1.3636  1.8595
 2423SOL    HW218729   2.326   3.247   9.426  2.3821 -0.8951  0.2898
 2424SOL     OW18730   4.661   1.927  11.004 -0.0410  0.0023 -0.1341
 2424SOL    HW118731   0.017   1.954  11.055 -0.2702  1.0872 -0.3629
 2424SOL    HW218732   4.614   1.883  11.075  1.0758 -1.3805 -0.2285
 2425SOL     OW18733   0.315   4.656  10.084 -0.0690  0.5331 -0.0029
 2425SOL    HW118734   0.256   4.617  10.019 -0.0395 -1.1020  0.9634
 2425SOL    HW218735   0.262   4.645  10.162  0.5993 -1.4551  0.1680
 2426SOL     OW18736   0.403   2.309   2.521  0.1625 -0.1596 -0.6228
 2426SOL    HW118737   0.480   2.255   2.539 -0.6363 -1.3910 -0.9116
 2426SOL    HW218738   0.370   2.269   2.440 -0.5882 -1.0968  0.1501
 2427SOL     OW18739   4.257   1.569   2.949  0.0128  0.3062  0.3529
 2427SOL    HW118740   4.162   1.574   2.938 -0.1201  0.0891  1.4301
 2427SOL    HW218741   4.271   1.661   2.927 -0.2767  0.5570  1.2500
 2428SOL     OW18742   0.104   4.560   1.066  0.7258  0.0192  0.5128
 2428SOL    HW118743   0.092   4.587   0.975 -1.1537 -1.7695  0.2289
 2428SOL    HW218744   0.037   4.612   1.109  0.4855 -1.5293  2.0024
 2429SOL     OW18745   3.913   0.943   2.665 -0.3613 -0.7494  0.1236
 2429SOL    HW118746   3.941   0.915   2.752  0.3231  1.2735  0.5594
 2429SOL    HW218747   3.972   0.881   2.623 -1.9275 -0.6502 -2.1947
 2430SOL     OW18748   0.370   3.205   7.755  0.2970 -0.8207 -0.2864
 2430SOL    HW118749   0.415   3.197   7.671  0.4502  0.2554 -0.3138
 2430SOL    HW218750   0.281   3.217   7.724  0.5788  0.3969 -0.6158
 2431SOL     OW18751   2.091   1.305  13.099 -0.0329 -0.2329 -0.0937
 2431SOL    HW118752   2.014   1.293  13.043  0.3262  0.8164 -0.8214
 2431SOL    HW218753   2.157   1.249  13.058  0.8131  0.7956 -0.1414
 2432SOL     OW18754   2.292   1.708  10.724 -0.5621 -0.0925  0.0213
 2432SOL    HW118755   2.219   1.647  10.734 -0.8387  0.2942  0.3507
 2432SOL    HW218756   2.357   1.650  10.764 -0.7831 -0.6204 -0.3871
 2433SOL     OW18757   0.234   4.133  17.453  0.2468 -1.2330 -0.2090
 2433SOL    HW118758   0.263   4.183  17.529  0.2673 -0.4213 -0.7475
 2433SOL    HW218759   0.161   4.193  17.435 -0.8665 -1.6096  3.1318
 2434SOL     OW18760   0.500   4.429   8.064  0.0549 -1.0900 -0.5306
 2434SOL    HW118761   0.493   4.363   8.134 -1.9277  0.0044  0.3339
 2434SOL    HW218762   0.410   4.462   8.064  1.2140  2.1138  2.6744
 2435SOL     OW18763   4.574   3.081   3.136  0.1861  0.1601  0.0857
 2435SOL    HW118764   4.573   3.164   3.183  0.7896  0.1038  0.1962
 2435SOL    HW218765   4.483   3.051   3.137 -0.2346  1.3995 -0.3044
 2436SOL     OW18766   3.410   1.662   3.823 -0.2471 -0.0917 -0.6469
 2436SOL    HW118767   3.327   1.644   3.867 -1.1173 -0.0759 -2.2847
 2436SOL    HW218768   3.430   1.599   3.755  0.5328 -1.0677  0.4840
 2437SOL     OW18769   2.266   3.854   7.475 -0.3974 -0.2406 -0.4818
 2437SOL    HW118770   2.320   3.805   7.413 -0.6750  0.1569 -1.0422
 2437SOL    HW218771   2.175   3.829   7.460 -0.3288 -1.2530  0.8224
 2438SOL     OW18772   1.946   3.365   3.238  0.1124 -0.4631 -0.9433
 2438SOL    HW118773   1.949   3.454   3.202  0.6725  0.2036  0.7531
 2438SOL    HW218774   1.957   3.320   3.154 -0.4021 -0.1419 -1.1802
 2439SOL     OW18775   2.816   3.729  11.196  0.0063 -0.6063  0.0677
 2439SOL    HW118776   2.781   3.771  11.117 -0.6880 -1.0698  0.1347
 2439SOL    HW218777   2.748   3.729  11.263 -1.8230  0.9271 -1.7832
 2440SOL     OW18778   3.250   4.404   9.303 -0.0328 -0.3576 -0.1804
 2440SOL    HW118779   3.332   4.404   9.352  0.3720  1.7212 -0.8267
 2440SOL    HW218780   3.281   4.340   9.239 -0.1433 -2.0611  1.4943
 2441SOL     OW18781   2.014   4.101   6.113 -0.1902 -0.0416 -0.8565
 2441SOL    HW118782   2.016   4.006   6.127  0.1826  0.0933  0.0403
 2441SOL    HW218783   2.098   4.123   6.154 -0.1893 -1.0237 -0.3258
 2442SOL     OW18784   2.472   0.332  16.892  0.3163  0.1210 -0.0768
 2442SOL    HW118785   2.491   0.407  16.836  2.0847  0.4648  0.9577
 2442SOL    HW218786   2.387   0.340  16.935  0.3219  0.4483 -0.1287
 2443SOL     OW18787   2.688   0.101   1.918  0.3769 -0.4702 -0.0316
 2443SOL    HW118788   2.604   0.054   1.922 -0.7098  1.4017 -1.1723
 2443SOL    HW218789   2.687   0.122   1.825  2.2177 -2.1438 -0.4464
 2444SOL     OW18790   4.244   3.367   6.004 -0.4593 -0.1770  0.2834
 2444SOL    HW118791   4.167   3.324   5.966  0.6060 -2.1459  0.3520
 2444SOL    HW218792   4.288   3.290   6.040  0.1023  0.6606  1.3856
 2445SOL     OW18793   4.413   3.035   0.138  0.2489 -0.0245 -0.6634
 2445SOL    HW118794   4.458   2.951   0.124  0.4865  0.1592 -0.9986
 2445SOL    HW218795   4.481   3.102   0.137 -0.9050  1.1277 -0.2837
 2446SOL     OW18796   2.463   3.500   8.300 -0.2822  0.2639 -1.0865
 2446SOL    HW118797   2.450   3.533   8.389 -1.7607  0.2259 -1.2863
 2446SOL    HW218798   2.396   3.432   8.309 -0.3972  0.0649 -3.6539
 2447SOL     OW18799   2.431   3.647   6.344  0.3069  0.8767  0.3514
 2447SOL    HW118800   2.507   3.589   6.333 -0.6802 -0.0970 -1.3265
 2447SOL    HW218801   2.361   3.583   6.358 -0.6791  2.4735  2.6551
 2448SOL     OW18802   4.559   4.140   7.453  0.0446  0.1621 -0.2226
 2448SOL    HW118803   4.640   4.190   7.467 -0.0314  0.0457  0.6249
 2448SOL    HW218804   4.503   4.206   7.493 -0.5010 -1.4529  1.6858
 2449SOL     OW18805   3.332   4.413   0.892  0.3444 -0.3929  0.0688
 2449SOL    HW118806   3.331   4.504   0.863  0.3581 -0.9032 -1.5112
 2449SOL    HW218807   3.424   4.403   0.914  1.5194  1.3699 -4.1784
 2450SOL     OW18808   3.673   1.371   6.166 -0.4178  0.2109 -0.0805
 2450SOL    HW118809   3.668   1.277   6.152  2.8029 -0.2226  1.6659
 2450SOL    HW218810   3.585   1.402   6.189 -0.9099 -1.3494  0.1193
 2451SOL     OW18811   0.516   3.374  16.008 -0.1595 -0.6312 -0.3015
 2451SOL    HW118812   0.548   3.462  16.025 -0.6914 -0.2597 -1.1683
 2451SOL    HW218813   0.569   3.321  16.067 -1.8180  0.1649  1.9087
 2452SOL     OW18814   0.796   0.291  10.916  0.0520 -0.0959 -0.4107
 2452SOL    HW118815   0.701   0.290  10.928 -0.1408  1.7374 -1.7664
 2452SOL    HW218816   0.820   0.375  10.955 -1.2687  0.7554 -1.4307
 2453SOL     OW18817   3.290   0.291   2.439 -0.4693 -0.7199 -0.2235
 2453SOL    HW118818   3.275   0.238   2.361  2.0385  2.3780 -2.8177
 2453SOL    HW218819   3.372   0.256   2.474 -0.0652 -1.0775 -1.5546
 2454SOL     OW18820   3.860   4.632   6.261 -0.2310  0.1131 -0.0911
 2454SOL    HW118821   3.821   4.586   6.336 -0.3661  3.2392  1.7802
 2454SOL    HW218822   3.954   4.629   6.275 -0.2502  1.3595  0.3814
 2455SOL     OW18823   0.854   2.703  11.897  0.1547  0.4821 -0.2309
 2455SOL    HW118824   0.809   2.735  11.819  0.7351 -2.2102 -1.6796
 2455SOL    HW218825   0.886   2.623  11.856 -4.0920 -1.2740 -0.0483
 2456SOL     OW18826   2.352   3.965   6.071  0.7198 -0.5835 -0.3229
 2456SOL    HW118827   2.361   4.048   6.117  1.2280  0.0762 -1.6323
 2456SOL    HW218828   2.435   3.927   6.098  1.2151  0.6593 -0.0958
 2457SOL     OW18829   4.118   4.109   7.532 -0.8774  0.3993  0.3209
 2457SOL    HW118830   4.044   4.163   7.558  0.6276  2.3535  0.5445
 2457SOL    HW218831   4.173   4.169   7.483 -0.0207 -0.6776 -0.0362
 2458SOL     OW18832   3.257   0.254   5.843 -0.0550  0.3446  0.1027
 2458SOL    HW118833   3.271   0.175   5.895  0.5152  0.4461  0.0957
 2458SOL    HW218834   3.333   0.256   5.786 -1.1661  1.7780 -1.3542
 2459SOL     OW18835   2.517   2.998  15.090 -0.5269  0.2216  0.2146
 2459SOL    HW118836   2.604   3.019  15.054 -0.0559 -2.4291 -0.2221
 2459SOL    HW218837   2.486   3.089  15.087  0.0360  0.4400  1.1317
 2460SOL     OW18838   1.570   3.579   2.667  0.2095 -0.6146 -0.2109
 2460SOL    HW118839   1.656   3.550   2.697  0.0051  1.3148  2.1784
 2460SOL    HW218840   1.544   3.622   2.748 -0.0924  0.0950 -0.6878
 2461SOL     OW18841   1.657   0.402   1.901 -0.3577  0.4510  0.3765
 2461SOL    HW118842   1.670   0.488   1.940  1.9902  0.2671 -0.0250
 2461SOL    HW218843   1.724   0.355   1.950 -0.7467  0.9734  1.4090
 2462SOL     OW18844   3.793   3.083   5.906 -0.1552  0.3194 -0.7226
 2462SOL    HW118845   3.772   3.021   5.976 -1.0309 -0.2838 -1.5138
 2462SOL    HW218846   3.710   3.131   5.901  0.3382  1.0785 -1.7171
 2463SOL     OW18847   4.596   4.213   1.492 -0.1825 -0.0058  0.3388
 2463SOL    HW118848   4.670   4.156   1.510  0.6070  0.2226 -2.1731
 2463SOL    HW218849   4.533   4.184   1.558 -0.8988 -0.8817 -0.7199
 2464SOL     OW18850   3.847   3.964   1.326  0.0811 -0.2109  0.2929
 2464SOL    HW118851   3.792   3.979   1.403  1.5521 -2.8408  1.8452
 2464SOL    HW218852   3.917   4.028   1.338 -0.0006  0.3507 -2.2252
 2465SOL     OW18853   3.340   0.030  15.407  0.4962 -0.3619 -0.2789
 2465SOL    HW118854   3.376   0.118  15.408 -1.2262  0.3738 -3.1656
 2465SOL    HW218855   3.402   4.697  15.357  0.8259 -0.0214 -0.2357
 2466SOL     OW18856   1.617   2.211   0.822  0.3909  0.4630 -0.0151
 2466SOL    HW118857   1.652   2.283   0.875  0.7472  1.3197 -1.4375
 2466SOL    HW218858   1.569   2.255   0.752 -0.2787  1.5989  1.1411
 2467SOL     OW18859   0.307   3.468   1.745  0.3589 -0.1674 -0.3331
 2467SOL    HW118860   0.273   3.497   1.660 -0.3206 -3.1672 -1.1126
 2467SOL    HW218861   0.344   3.381   1.730  3.0032  0.5332  2.1597
 2468SOL     OW18862   0.128   3.801  15.323 -0.5542 -0.6680  0.6359
 2468SOL    HW118863   0.046   3.839  15.354 -1.3070 -1.3830 -0.4681
 2468SOL    HW218864   0.183   3.842  15.390  1.5847 -1.9051 -0.3737
 2469SOL     OW18865   3.323   1.026  13.160  0.1302 -0.2030 -0.1848
 2469SOL    HW118866   3.239   1.004  13.120 -1.0002 -1.8584  3.1181
 2469SOL    HW218867   3.298   1.050  13.249  2.2245 -0.8513  0.5630
 2470SOL     OW18868   3.064   1.593  16.049  0.3945 -0.6060  0.6915
 2470SOL    HW118869   3.159   1.603  16.049  0.5999 -2.5180  0.0469
 2470SOL    HW218870   3.058   1.575  15.956 -2.3688 -1.6856  1.0720
 2471SOL     OW18871   2.359   1.528   8.718 -0.0163  0.3157  0.2808
 2471SOL    HW118872   2.272   1.505   8.751 -0.4279  2.3387  0.5903
 2471SOL    HW218873   2.352   1.623   8.713 -1.6691  0.1743 -0.1487
 2472SOL     OW18874   1.562   2.638   3.179  0.4975  0.3581  0.4304
 2472SOL    HW118875   1.609   2.622   3.098  2.0419  0.5733  1.2903
 2472SOL    HW218876   1.611   2.576   3.233  2.0780  1.1604 -0.1063
 2473SOL     OW18877   1.164   0.083   2.320  0.0968  0.5192  0.6475
 2473SOL    HW118878   1.235   0.101   2.382 -0.6971  1.9207  1.1451
 2473SOL    HW218879   1.131   4.716   2.341  2.3181 -0.5054 -0.1438
 2474SOL     OW18880   3.450   2.168   4.860  0.0679 -0.0607 -0.0471
 2474SOL    HW118881   3.360   2.169   4.891 -0.4256  0.1095 -1.4586
 2474SOL    HW218882   3.459   2.262   4.844 -2.9768 -0.0826 -2.0683
 2475SOL     OW18883   0.343   2.315   1.830  0.3443 -0.3819  0.2958
 2475SOL    HW118884   0.363   2.366   1.909  0.4620  1.8683 -1.1695
 2475SOL    HW218885   0.429   2.273   1.830 -0.4988 -2.0782  0.8072
 2476SOL     OW18886   2.130   1.867   7.415 -0.1846 -0.5984  0.1475
 2476SOL    HW118887   2.191   1.800   7.445  0.3687  0.4449  1.3692
 2476SOL    HW218888   2.136   1.853   7.321  2.1512  1.3815 -0.0053
 2477SOL     OW18889   1.462   0.469   9.445 -0.6016  0.1252  0.2990
 2477SOL    HW118890   1.531   0.446   9.507 -0.7481 -1.3427 -0.0810
 2477SOL    HW218891   1.484   0.410   9.373  0.6810  0.2639  0.5789
 2478SOL     OW18892   0.759   0.624  13.180  0.3005 -0.1691 -0.2458
 2478SOL    HW118893   0.819   0.643  13.108  2.3218  0.6141  1.6449
 2478SOL    HW218894   0.810   0.559  13.228 -1.0015 -0.4396  0.7860
 2479SOL     OW18895   1.198   1.273  16.139  0.0384 -0.0997  0.0642
 2479SOL    HW118896   1.254   1.349  16.148 -1.4051  0.8575  0.8996
 2479SOL    HW218897   1.160   1.268  16.227  0.3291  2.8084  0.3503
 2480SOL     OW18898   2.356   3.431  10.022 -0.0944  0.4676 -0.4411
 2480SOL    HW118899   2.287   3.407  10.084  0.2859 -2.0513 -1.0279
 2480SOL    HW218900   2.304   3.485   9.963 -0.7816  0.6509  0.3172
 2481SOL     OW18901   0.813   2.215  12.178  0.4566  0.0662  0.1930
 2481SOL    HW118902   0.904   2.197  12.153  0.8390 -1.1597  2.4259
 2481SOL    HW218903   0.828   2.215  12.273 -0.4412 -1.3790  0.3348
 2482SOL     OW18904   1.712   0.664   2.008  0.5328  0.3882  0.3663
 2482SOL    HW118905   1.777   0.712   2.059  1.3805  0.5717 -0.8693
 2482SOL    HW218906   1.709   0.728   1.936 -1.4586 -0.7405 -0.5525
 2483SOL     OW18907   0.623   0.026   4.118  0.2116  0.4044 -0.4665
 2483SOL    HW118908   0.565   0.087   4.163  1.4372  1.1302  0.1214
 2483SOL    HW218909   0.663   4.691   4.186  1.3051  1.3947 -0.3013
 2484SOL     OW18910   3.717   1.136   7.444  0.1381 -0.1939 -0.4046
 2484SOL    HW118911   3.768   1.056   7.430  0.6387 -0.0854  0.7899
 2484SOL    HW218912   3.778   1.207   7.421 -0.7596  0.1211 -1.7985
 2485SOL     OW18913   1.827   1.066   4.772 -0.1106  0.2044 -0.7002
 2485SOL    HW118914   1.874   1.136   4.816  1.5564 -1.9032  0.8860
 2485SOL    HW218915   1.881   1.049   4.695 -0.6432 -1.2960 -0.7522
 2486SOL     OW18916   2.311   4.310   7.364 -0.6165 -0.0521 -0.0145
 2486SOL    HW118917   2.289   4.399   7.392  2.0840  1.0091 -1.3423
 2486SOL    HW218918   2.381   4.336   7.304  0.0491  0.8546  1.1521
 2487SOL     OW18919   2.828   3.491   8.494 -0.4003  0.0826  0.3367
 2487SOL    HW118920   2.875   3.575   8.497 -0.2660  0.0465 -0.7614
 2487SOL    HW218921   2.882   3.444   8.431  1.2396  0.4597  1.4398
 2488SOL     OW18922   2.992   1.378   6.378  0.3280 -0.0678 -0.4844
 2488SOL    HW118923   2.956   1.363   6.290  4.7352 -1.7137 -2.0057
 2488SOL    HW218924   3.021   1.289   6.399 -0.7975 -0.1918  0.5335
 2489SOL     OW18925   1.432   3.765   2.915  0.0252  0.3417 -0.0998
 2489SOL    HW118926   1.425   3.853   2.879 -1.5926  0.1893 -0.1546
 2489SOL    HW218927   1.348   3.732   2.946  0.2379  1.0295  1.2209
 2490SOL     OW18928   3.990   1.580  15.874  0.5297 -0.6530  0.2127
 2490SOL    HW118929   3.937   1.630  15.935  0.3109 -1.1781  0.4564
 2490SOL    HW218930   4.073   1.607  15.912  0.7259  0.2274 -0.8181
 2491SOL     OW18931   0.608   3.346   4.666 -0.1725  0.2987  0.4000
 2491SOL    HW118932   0.518   3.373   4.681 -0.5254  0.1698 -1.5086
 2491SOL    HW218933   0.637   3.417   4.608 -1.6065  1.6563  1.3404
 2492SOL     OW18934   0.507   1.675  16.998  0.6073  0.1334  0.2375
 2492SOL    HW118935   0.562   1.742  16.957  1.1589 -0.5623 -0.1700
 2492SOL    HW218936   0.550   1.656  17.081 -0.9009  2.3623  1.5315
 2493SOL     OW18937   0.618   2.129   2.576 -0.1090  0.4867  0.1309
 2493SOL    HW118938   0.710   2.140   2.598  0.0054 -1.5218  0.7059
 2493SOL    HW218939   0.631   2.059   2.512  1.3893 -0.0369  1.0103
 2494SOL     OW18940   2.089   1.950   5.369  0.1636 -0.0222 -0.2306
 2494SOL    HW118941   2.172   1.934   5.414  0.3079  1.0159 -0.1392
 2494SOL    HW218942   2.111   2.024   5.312  2.8428 -0.5900  0.0702
 2495SOL     OW18943   3.806   0.601   3.903  0.1571 -0.4723 -0.1419
 2495SOL    HW118944   3.859   0.674   3.873  0.3682 -0.4547  0.2661
 2495SOL    HW218945   3.723   0.648   3.914  0.3318  0.0276 -1.0579
 2496SOL     OW18946   0.241   3.458   3.379  0.3067 -0.5256 -0.2222
 2496SOL    HW118947   0.262   3.536   3.431  0.1279  0.4967 -1.6985
 2496SOL    HW218948   0.307   3.399   3.415 -0.3265 -1.4695 -0.6198
 2497SOL     OW18949   2.488   3.590  13.228  0.4301  0.8150  0.5964
 2497SOL    HW118950   2.429   3.516  13.216  0.8589  0.3789  1.1705
 2497SOL    HW218951   2.576   3.552  13.230 -0.3179 -0.9149  0.4336
 2498SOL     OW18952   2.706   0.380  15.495 -0.7317 -0.1993 -0.4752
 2498SOL    HW118953   2.625   0.374  15.443  0.5547  0.5340 -2.5218
 2498SOL    HW218954   2.759   0.308  15.460 -0.8215 -0.6967  0.3979
 2499SOL     OW18955   2.564   2.817   5.660  0.6318 -0.1371 -0.0761
 2499SOL    HW118956   2.523   2.887   5.609  2.0393  0.9593  0.2974
 2499SOL    HW218957   2.545   2.738   5.610 -0.7018  0.8167 -1.0719
 2500SOL     OW18958   2.860   4.053   3.421 -0.3717 -0.1146 -0.1808
 2500SOL    HW118959   2.887   4.056   3.513  0.3991  1.1432 -0.4553
 2500SOL    HW218960   2.766   4.058   3.438  0.3328  1.2687  3.3944
 2501SOL     OW18961   3.656   0.411   4.153 -0.5301  0.7721  0.3357
 2501SOL    HW118962   3.748   0.415   4.177 -0.7027  0.7777  1.0101
 2501SOL    HW218963   3.638   0.501   4.127  0.3827  0.9382  0.2838
 2502SOL     OW18964   1.805   3.528   8.095 -0.2343  0.4582  0.3008
 2502SOL    HW118965   1.803   3.616   8.134 -1.9771  0.7523 -0.4701
 2502SOL    HW218966   1.793   3.539   8.001 -0.7992  0.2010  0.3421
 2503SOL     OW18967   2.203   1.260   5.431 -0.0454 -0.5598  0.2556
 2503SOL    HW118968   2.279   1.310   5.461 -0.6840  0.2106  0.5794
 2503SOL    HW218969   2.127   1.307   5.466 -0.1224 -1.5836  1.4466
 2504SOL     OW18970   2.423   3.759   2.748  0.1029  0.2654 -0.2181
 2504SOL    HW118971   2.415   3.764   2.843 -1.2752  3.2476 -0.4765
 2504SOL    HW218972   2.511   3.723   2.741 -0.0805 -0.3530  0.6384
 2505SOL     OW18973   2.270   4.686   0.681  0.1177  0.4804 -0.7833
 2505SOL    HW118974   2.298   4.640   0.760 -0.4366  1.1610 -0.1875
 2505SOL    HW218975   2.263   4.610   0.624  0.2938  1.4002 -2.0352
 2506SOL     OW18976   3.011   4.188   2.291 -0.4227 -0.1574 -0.3415
 2506SOL    HW118977   3.007   4.189   2.195  1.0920 -0.4389 -0.4090
 2506SOL    HW218978   3.081   4.249   2.314 -1.0584  0.7830 -0.8562
 2507SOL     OW18979   2.704   4.183  13.074  0.3365  0.1677  0.5246
 2507SOL    HW118980   2.777   4.219  13.025  1.1404  0.3081  1.8291
 2507SOL    HW218981   2.626   4.179  13.019 -0.4525  1.4240  1.5429
 2508SOL     OW18982   2.561   1.405   7.093 -0.0093 -0.0758  0.2422
 2508SOL    HW118983   2.610   1.342   7.145  0.4904  0.8950  0.9504
 2508SOL    HW218984   2.639   1.431   7.044  0.6377 -2.3844  0.0679
 2509SOL     OW18985   2.098   4.367   9.984 -0.3166  0.2069  0.2066
 2509SOL    HW118986   2.019   4.386  10.035  0.4258 -0.6193  1.6485
 2509SOL    HW218987   2.133   4.300  10.042  2.1609  0.9891 -0.3620
 2510SOL     OW18988   2.511   0.365   4.211  0.3770  0.1577 -0.1706
 2510SOL    HW118989   2.534   0.312   4.288  0.1810  1.2058  0.6170
 2510SOL    HW218990   2.555   0.327   4.135  0.9729  1.5656 -0.5332
 2511SOL     OW18991   1.477   1.818   5.493 -0.1320  0.0200  0.1153
 2511SOL    HW118992   1.498   1.767   5.415  3.8225  1.6725  0.0974
 2511SOL    HW218993   1.398   1.869   5.475 -0.4719 -0.9687 -1.2700
 2512SOL     OW18994   2.837   0.113  15.419  0.2166 -0.0956  0.2413
 2512SOL    HW118995   2.804   0.027  15.395 -0.3165  0.1985 -0.0544
 2512SOL    HW218996   2.925   0.107  15.382  0.1604 -0.5104  0.1750
 2513SOL     OW18997   2.148   3.195   1.469  0.4227 -0.6563  0.4110
 2513SOL    HW118998   2.076   3.162   1.522 -2.0666  1.4803 -1.6843
 2513SOL    HW218999   2.216   3.128   1.473  1.5197  0.4085 -0.1974
 2514SOL     OW19000   4.388   2.416   5.207 -0.5895 -0.5425 -0.0722
 2514SOL    HW119001   4.411   2.339   5.155 -1.0483  0.4849 -1.8201
 2514SOL    HW219002   4.317   2.451   5.153 -0.3791 -1.5704 -1.0201
 2515SOL     OW19003   2.925   3.922   4.100 -0.4442 -0.3980  0.7050
 2515SOL    HW119004   2.980   3.962   4.033  0.5798 -2.4862  0.2983
 2515SOL    HW219005   2.833   3.940   4.077 -0.1917  2.4907  1.9429
 2516SOL     OW19006   3.465   4.121   6.701 -0.1876  1.0497 -0.1667
 2516SOL    HW119007   3.475   4.026   6.701 -1.9778  0.8500 -0.3075
 2516SOL    HW219008   3.370   4.129   6.696 -0.5348 -2.1321  1.2257
 2517SOL     OW19009   4.463   1.691   4.130 -0.1619 -0.0585  0.2221
 2517SOL    HW119010   4.381   1.739   4.128  1.7819  3.3159  0.4752
 2517SOL    HW219011   4.481   1.682   4.036  0.4152  0.6951  0.2567
 2518SOL     OW19012   1.712   3.490   3.419 -0.3272  0.3975  0.4073
 2518SOL    HW119013   1.625   3.476   3.382 -0.1114  1.3243 -0.4491
 2518SOL    HW219014   1.763   3.463   3.343 -1.9032  0.9221 -0.8546
 2519SOL     OW19015   2.801   4.255   2.475 -0.1287 -0.2192 -0.3555
 2519SOL    HW119016   2.821   4.337   2.521  1.4483 -1.2315  0.7738
 2519SOL    HW219017   2.864   4.259   2.404 -0.0054  0.5863 -0.2082
 2520SOL     OW19018   2.665   2.376   2.619 -0.2689 -0.1065  0.1960
 2520SOL    HW119019   2.644   2.302   2.676  0.0457  1.0410  1.8195
 2520SOL    HW219020   2.694   2.320   2.548  0.5537  0.5436  0.0167
 2521SOL     OW19021   3.746   1.818   4.840 -0.2689 -0.4211  0.3714
 2521SOL    HW119022   3.729   1.909   4.864 -0.1198  0.1097 -1.5652
 2521SOL    HW219023   3.817   1.832   4.779  0.0131 -0.6971  0.6346
 2522SOL     OW19024   4.432   2.996   5.090  0.2010  0.0532 -0.1432
 2522SOL    HW119025   4.458   3.035   5.006  0.1523  2.4198  0.9308
 2522SOL    HW219026   4.514   2.996   5.140  0.2104  0.0427 -0.1590
 2523SOL     OW19027   2.742   2.742   3.653  0.2520  0.2687  0.0696
 2523SOL    HW119028   2.834   2.734   3.680  0.4687 -0.6897 -0.9082
 2523SOL    HW219029   2.713   2.802   3.721  0.7513  0.7280 -0.1207
 2524SOL     OW19030   0.971   2.231   7.769 -0.0150  0.4166 -0.1893
 2524SOL    HW119031   0.973   2.289   7.693 -0.3367 -0.6507 -1.0142
 2524SOL    HW219032   0.904   2.273   7.823 -0.7666 -3.0693  1.6063
 2525SOL     OW19033   2.006   4.561   4.338  0.6204 -0.2306 -0.2363
 2525SOL    HW119034   1.976   4.649   4.360 -0.5833 -0.3356 -1.4448
 2525SOL    HW219035   1.924   4.513   4.324  1.6214 -2.0420  0.0241
 2526SOL     OW19036   3.042   0.756   4.951 -0.1401  0.1724  0.1560
 2526SOL    HW119037   2.984   0.736   5.024  0.7042  2.7056  1.5065
 2526SOL    HW219038   2.989   0.737   4.873 -2.2218  1.2418  1.3097
 2527SOL     OW19039   0.662   1.722   6.488 -0.5828  0.7499  0.2770
 2527SOL    HW119040   0.659   1.686   6.399  1.3506  0.6123  0.2519
 2527SOL    HW219041   0.743   1.678   6.514 -0.9498 -0.3170 -0.3717
 2528SOL     OW19042   3.316   0.894  14.725 -0.1560  0.1119  0.0890
 2528SOL    HW119043   3.356   0.852  14.649 -1.5578 -0.9527 -0.0608
 2528SOL    HW219044   3.272   0.972  14.691  0.0722 -0.1943 -0.9117
 2529SOL     OW19045   1.723   0.190   9.044 -0.3976 -0.2356  0.0573
 2529SOL    HW119046   1.643   0.164   9.091 -0.0072 -1.4655  0.0194
 2529SOL    HW219047   1.773   0.109   9.045 -2.3049 -1.4145  0.1377
 2530SOL     OW19048   1.419   4.316   7.455 -0.1594 -0.4235  0.3555
 2530SOL    HW119049   1.386   4.383   7.514 -0.2702  1.1950 -1.5333
 2530SOL    HW219050   1.355   4.247   7.471  0.3441 -1.1825 -0.8563
 2531SOL     OW19051   1.938   1.949   6.194 -0.7529  0.5423 -0.5764
 2531SOL    HW119052   1.913   2.036   6.225 -0.6259  1.5537 -3.3161
 2531SOL    HW219053   1.870   1.890   6.227 -1.2971  0.3481 -2.0499
 2532SOL     OW19054   1.957   0.607   5.519  0.1137  0.4708  0.4168
 2532SOL    HW119055   1.928   0.547   5.451  1.1368  0.4416  0.0096
 2532SOL    HW219056   2.051   0.589   5.517 -0.4664 -2.7474  2.4904
 2533SOL     OW19057   1.199   3.922   6.180 -0.3913  0.0838  0.8374
 2533SOL    HW119058   1.194   3.935   6.085  2.4291  0.6256  0.7611
 2533SOL    HW219059   1.294   3.930   6.190 -0.5316  0.1770  2.0548
 2534SOL     OW19060   1.446   4.662   7.766 -0.0402  0.3907  0.2199
 2534SOL    HW119061   1.392   4.601   7.717  0.0135  1.7046 -1.5121
 2534SOL    HW219062   1.377   0.006   7.781 -0.0076  0.2822  0.8331
 2535SOL     OW19063   3.755   2.616   2.283  1.0333 -0.6466 -0.0489
 2535SOL    HW119064   3.737   2.528   2.250 -0.7893 -0.2983  0.0249
 2535SOL    HW219065   3.787   2.651   2.200 -0.4631  1.1740  0.1363
 2536SOL     OW19066   4.112   3.744   2.502 -0.2947 -0.1732 -0.3420
 2536SOL    HW119067   4.024   3.715   2.480 -0.9161  0.7713  0.9000
 2536SOL    HW219068   4.107   3.839   2.493 -2.9485 -0.3659 -0.8058
 2537SOL     OW19069   3.005   0.995   9.153  0.0250 -0.2514  0.4795
 2537SOL    HW119070   2.932   1.055   9.171 -0.5835 -1.1636  1.0392
 2537SOL    HW219071   2.978   0.958   9.069 -1.2914 -0.1106  0.8345
 2538SOL     OW19072   0.734   3.707   7.197  0.3975  0.3756  0.6173
 2538SOL    HW119073   0.655   3.673   7.155  1.6578 -0.9002 -0.7269
 2538SOL    HW219074   0.741   3.655   7.277 -1.8577 -1.3282 -0.3108
 2539SOL     OW19075   0.858   0.773   6.580  0.7155 -0.8509  0.0785
 2539SOL    HW119076   0.819   0.858   6.603  3.6085  1.0544 -2.0283
 2539SOL    HW219077   0.794   0.709   6.612 -1.0361  0.2850 -1.1588
 2540SOL     OW19078   3.478   3.519   3.104 -0.2183  0.6298  0.3621
 2540SOL    HW119079   3.431   3.438   3.084  0.1388  0.2566  1.0306
 2540SOL    HW219080   3.462   3.571   3.026  0.7808  0.4714  0.0579
 2541SOL     OW19081   3.725   3.136   3.741  0.8709 -0.0673  0.5064
 2541SOL    HW119082   3.678   3.147   3.658  2.2090  1.9988  0.0314
 2541SOL    HW219083   3.761   3.048   3.744 -0.2605 -0.5224  0.6997
 2542SOL     OW19084   0.742   1.009  12.237 -0.2793 -0.3342  0.0023
 2542SOL    HW119085   0.691   0.936  12.201  1.6806 -2.0136  0.6529
 2542SOL    HW219086   0.800   1.038  12.167 -0.0055  0.8703  0.7190
 2543SOL     OW19087   0.041   2.587   7.668  0.1339  0.0495 -0.2458
 2543SOL    HW119088   0.077   2.608   7.754 -0.8811  3.0435 -0.5544
 2543SOL    HW219089   0.082   2.505   7.642  0.2062 -0.3239  1.0473
 2544SOL     OW19090   2.915   2.482   2.997  0.0731 -0.2951  0.0221
 2544SOL    HW119091   2.832   2.506   2.958  1.6345  1.3252 -2.2897
 2544SOL    HW219092   2.895   2.516   3.085  1.4717 -0.4531  0.4080
 2545SOL     OW19093   2.446   0.017  12.409 -0.6592  0.1369  0.1056
 2545SOL    HW119094   2.465   0.002  12.317 -0.4840  1.0029  0.0016
 2545SOL    HW219095   2.508   4.678  12.450  0.0351  0.7175 -0.1039
 2546SOL     OW19096   2.402   3.257   1.918 -0.1305  0.4858 -0.7156
 2546SOL    HW119097   2.430   3.211   1.998 -0.1153  0.2724 -0.8427
 2546SOL    HW219098   2.352   3.192   1.868  3.6822 -1.1997 -2.3207
 2547SOL     OW19099   2.378   1.912  14.265  0.0583  0.3609 -0.4200
 2547SOL    HW119100   2.432   1.906  14.186 -0.0698  0.5782 -0.5273
 2547SOL    HW219101   2.304   1.965  14.232  0.2785  0.7069 -0.3619
 2548SOL     OW19102   3.563   3.820   8.227 -0.2882  0.8660  0.2463
 2548SOL    HW119103   3.600   3.759   8.290  0.7443  1.3323  0.1015
 2548SOL    HW219104   3.511   3.755   8.181 -0.9215  2.2014 -0.9246
 2549SOL     OW19105   0.726   4.108   2.907  0.1538  0.0539 -0.7028
 2549SOL    HW119106   0.679   4.040   2.956 -0.1288  0.0302 -1.0093
 2549SOL    HW219107   0.775   4.149   2.979 -4.4054  0.9165  1.9210
 2550SOL     OW19108   2.316   1.736  12.700  0.4709  0.1237  0.1637
 2550SOL    HW119109   2.291   1.690  12.780  1.5686  0.8579  0.9325
 2550SOL    HW219110   2.267   1.818  12.710  0.7313  0.4227 -1.0434
 2551SOL     OW19111   2.994   3.178   4.452 -0.1629  0.4604 -0.0573
 2551SOL    HW119112   2.942   3.213   4.524  0.1668  1.1561 -0.1564
 2551SOL    HW219113   3.076   3.227   4.456 -0.2992  0.7294 -0.6107
 2552SOL     OW19114   0.084   3.119   4.800 -0.0901  0.0439  0.7261
 2552SOL    HW119115   0.040   3.075   4.728  0.1581  1.8534 -0.5149
 2552SOL    HW219116   0.015   3.149   4.858 -0.7708 -1.0438  0.4684
 2553SOL     OW19117   0.133   2.228  15.083 -0.3252 -0.1674  0.0273
 2553SOL    HW119118   0.091   2.283  15.149  1.1149  1.6266 -0.5596
 2553SOL    HW219119   0.140   2.293  15.013 -1.5581  0.5815  0.5967
 2554SOL     OW19120   4.605   4.330  16.873 -0.2512  0.3908  0.6036
 2554SOL    HW119121   4.644   4.259  16.923 -1.1719  0.9842  2.1524
 2554SOL    HW219122   4.550   4.279  16.812 -0.9847  0.9246  0.8218
 2555SOL     OW19123   3.563   3.799   6.077  0.3383 -0.0518  0.2759
 2555SOL    HW119124   3.641   3.823   6.028 -1.9618  2.1321 -2.3482
 2555SOL    HW219125   3.593   3.821   6.165  0.0338  0.1514  0.3306
 2556SOL     OW19126   0.471   3.308  17.307 -0.4002 -0.1224 -0.0819
 2556SOL    HW119127   0.545   3.280  17.253  0.1967  2.6597 -0.6792
 2556SOL    HW219128   0.406   3.249  17.268 -0.8592  1.0238 -1.0531
 2557SOL     OW19129   1.332   1.760   6.697  0.7254  0.3056 -0.1664
 2557SOL    HW119130   1.412   1.707   6.693 -2.3425 -4.2362 -0.6881
 2557SOL    HW219131   1.269   1.700   6.736 -0.9518  2.1540 -0.0499
 2558SOL     OW19132   4.220   2.368   5.784 -0.2848  0.1384  0.4581
 2558SOL    HW119133   4.189   2.445   5.738 -2.9056  0.5459  2.8764
 2558SOL    HW219134   4.273   2.411   5.851 -0.0681 -0.1591  0.4781
 2559SOL     OW19135   2.478   1.361   2.503 -0.4120 -0.0084 -0.5359
 2559SOL    HW119136   2.526   1.316   2.434  0.9199 -0.4641  0.6841
 2559SOL    HW219137   2.517   1.341   2.588  1.3173  3.7400 -0.4824
 2560SOL     OW19138   1.932   0.469   2.837 -0.5979 -0.3387  0.0410
 2560SOL    HW119139   1.926   0.374   2.824 -1.7341 -0.3932  0.9431
 2560SOL    HW219140   1.972   0.493   2.753  0.4176 -1.5090  0.2000
 2561SOL     OW19141   4.259   4.682   1.809  0.2277 -0.3213  0.3496
 2561SOL    HW119142   4.326   4.675   1.740 -1.2763  4.2066 -1.5905
 2561SOL    HW219143   4.215   0.044   1.791  3.2908  1.3996  0.6106
 2562SOL     OW19144   2.567   1.361   8.681  0.3661  0.2707  0.2863
 2562SOL    HW119145   2.508   1.289   8.660  0.2649  0.3727  0.2200
 2562SOL    HW219146   2.505   1.432   8.699 -1.3049 -1.3038  0.8066
 2563SOL     OW19147   2.543   3.984   0.312  0.5318 -0.1012 -0.8944
 2563SOL    HW119148   2.548   4.014   0.221  1.8644 -0.1268 -0.8303
 2563SOL    HW219149   2.637   3.969   0.323  0.1630 -1.4363  0.3313
 2564SOL     OW19150   2.412   0.536   6.924  0.4128 -0.1697  0.3422
 2564SOL    HW119151   2.391   0.491   7.006  2.0066  0.3666  1.0554
 2564SOL    HW219152   2.470   0.473   6.880  0.3301 -0.1522  0.2098
 2565SOL     OW19153   0.245   1.438   6.764 -0.4669  0.6124  0.6936
 2565SOL    HW119154   0.175   1.497   6.735  0.0478  0.9053  0.0517
 2565SOL    HW219155   0.216   1.404   6.848 -0.0188 -1.2508  0.0986
 2566SOL     OW19156   0.908   4.100   8.512 -0.2769  0.3723 -0.5697
 2566SOL    HW119157   0.838   4.044   8.477 -0.1697 -0.2145  0.1595
 2566SOL    HW219158   0.987   4.048   8.503 -0.4833  0.0584 -0.5638
 2567SOL     OW19159   2.174   4.049  17.226  0.8645 -0.2010 -0.5791
 2567SOL    HW119160   2.091   4.022  17.186  0.1226  0.7926  0.2855
 2567SOL    HW219161   2.223   4.069  17.146  1.1762  0.1234 -0.3038
 2568SOL     OW19162   4.260   2.646   8.539 -0.5999  0.6305  0.8592
 2568SOL    HW119163   4.236   2.639   8.632 -2.4787  0.0886  0.3401
 2568SOL    HW219164   4.197   2.710   8.506 -0.7379  0.6602  1.1782
 2569SOL     OW19165   2.654   2.098  16.268  0.3330  0.4457  0.0481
 2569SOL    HW119166   2.642   2.181  16.315 -0.4353  0.1742  0.3234
 2569SOL    HW219167   2.748   2.082  16.273  0.3674  0.6906  0.2045
 2570SOL     OW19168   2.775   1.238   5.296 -0.4573  0.4865 -0.2298
 2570SOL    HW119169   2.808   1.172   5.358 -1.2754 -0.9305 -1.3147
 2570SOL    HW219170   2.687   1.205   5.281  0.3927  0.0861 -4.2037
 2571SOL     OW19171   3.211   4.123  15.692  0.2855 -0.1085 -0.9887
 2571SOL    HW119172   3.285   4.140  15.750 -1.0702 -1.1617  1.0529
 2571SOL    HW219173   3.155   4.201  15.695 -1.2504 -1.1712 -1.4111
 2572SOL     OW19174   1.989   1.266   4.873  0.4489  0.1235 -0.3271
 2572SOL    HW119175   2.073   1.309   4.857 -0.2942  1.9053  0.4468
 2572SOL    HW219176   1.970   1.294   4.963  0.9579  0.9448 -0.4747
 2573SOL     OW19177   2.236   0.530   0.849 -0.2938 -0.1329 -0.7265
 2573SOL    HW119178   2.310   0.474   0.869  0.3216  0.8026 -0.3733
 2573SOL    HW219179   2.166   0.465   0.849  0.1218 -0.5783 -3.0935
 2574SOL     OW19180   2.183   4.618   5.191  0.2653  0.1571 -0.6552
 2574SOL    HW119181   2.225   4.700   5.217 -0.8766  1.7080 -3.7372
 2574SOL    HW219182   2.261   4.563   5.199 -0.0741 -0.0428  1.3018
 2575SOL     OW19183   0.430   4.653   3.796  0.0648  0.0727  0.4228
 2575SOL    HW119184   0.432   4.566   3.834 -1.7541 -0.3446 -0.4287
 2575SOL    HW219185   0.519   4.688   3.792 -0.7717  2.1936  0.0411
 2576SOL     OW19186   1.631   4.286   8.108  0.2489 -0.2038  0.4582
 2576SOL    HW119187   1.584   4.344   8.047  1.3981 -0.6892 -0.9042
 2576SOL    HW219188   1.557   4.241   8.149 -1.7879 -0.1033 -3.0250
 2577SOL     OW19189   3.359   4.713   8.597 -0.2080 -0.0115  0.2557
 2577SOL    HW119190   3.278   4.662   8.603 -0.5630  0.4841 -0.3548
 2577SOL    HW219191   3.340   0.038   8.679  1.2468  2.5502 -0.8264
 2578SOL     OW19192   0.670   1.792  15.477  0.0700 -0.1445 -0.5490
 2578SOL    HW119193   0.729   1.746  15.417  0.3193 -0.9631  0.3096
 2578SOL    HW219194   0.702   1.882  15.474  0.1369 -0.1149  0.7904
 2579SOL     OW19195   3.117   2.880   5.525 -0.0132  0.1169  0.4613
 2579SOL    HW119196   3.120   2.877   5.429 -2.1917  1.3658  0.3576
 2579SOL    HW219197   3.029   2.917   5.530  0.0447  0.3983 -0.6576
 2580SOL     OW19198   3.109   1.220   4.173 -0.2502 -0.3732  0.2261
 2580SOL    HW119199   3.071   1.298   4.213  2.4207  0.4030  1.2283
 2580SOL    HW219200   3.048   1.191   4.105  0.7285 -0.5478 -0.5683
 2581SOL     OW19201   4.386   0.775   1.066 -0.2247  0.1933  0.0896
 2581SOL    HW119202   4.471   0.803   1.101  0.3738 -0.1786 -1.0351
 2581SOL    HW219203   4.332   0.853   1.075 -2.5505 -1.3222 -0.7255
 2582SOL     OW19204   4.500   3.392   8.634  0.5748 -0.0617 -0.0218
 2582SOL    HW119205   4.588   3.404   8.600  0.2806  1.1251 -0.3360
 2582SOL    HW219206   4.457   3.350   8.560  0.2334  1.4838 -0.6877
 2583SOL     OW19207   2.657   1.852  11.448  0.1964 -0.1225 -0.8741
 2583SOL    HW119208   2.696   1.933  11.416 -1.0004  0.9780  0.4358
 2583SOL    HW219209   2.575   1.860  11.399 -0.1303 -2.0472 -0.6221
 2584SOL     OW19210   0.318   1.126   7.192 -0.4238 -0.2105 -0.0987
 2584SOL    HW119211   0.241   1.090   7.237 -1.0419  0.6914 -0.4315
 2584SOL    HW219212   0.311   1.076   7.111  2.5502 -1.2820  0.3198
 2585SOL     OW19213   1.308   3.183   5.437  0.3372 -0.0613 -0.3102
 2585SOL    HW119214   1.320   3.135   5.519  1.0840 -1.0659 -1.0118
 2585SOL    HW219215   1.386   3.183   5.382 -0.0828  0.4767 -0.9096
 2586SOL     OW19216   1.238   3.271  14.521  0.4810 -0.2465 -0.1825
 2586SOL    HW119217   1.191   3.213  14.461  1.9241 -0.6437 -0.9424
 2586SOL    HW219218   1.169   3.335  14.536  0.5121 -0.1540 -0.4272
 2587SOL     OW19219   4.331   0.598  15.927 -0.0944  0.7342  0.1759
 2587SOL    HW119220   4.393   0.530  15.953 -0.7129  0.2541  0.3921
 2587SOL    HW219221   4.268   0.581  15.998  0.6116 -1.2676  0.3401
 2588SOL     OW19222   0.197   4.662  17.632  0.1438  0.2336  0.6384
 2588SOL    HW119223   0.115   4.653  17.585 -0.0002 -2.8383  1.4792
 2588SOL    HW219224   0.227   0.028  17.605  2.8347 -0.3033  1.8664
 2589SOL     OW19225   3.880   2.804   7.982  0.5091  0.0979 -0.0145
 2589SOL    HW119226   3.824   2.832   7.910  2.0271  1.3750 -0.7051
 2589SOL    HW219227   3.837   2.851   8.054 -0.2428 -1.9915  0.8790
 2590SOL     OW19228   3.380   0.864  10.813 -0.7005 -0.3783 -0.1216
 2590SOL    HW119229   3.401   0.855  10.720 -1.5511  0.0234 -0.3471
 2590SOL    HW219230   3.407   0.955  10.827 -0.2768 -0.6967  1.1640
 2591SOL     OW19231   0.415   4.128  12.251  0.0439  0.3413 -0.0878
 2591SOL    HW119232   0.435   4.221  12.257 -1.5351  0.5730  1.3094
 2591SOL    HW219233   0.358   4.123  12.174 -0.0538 -0.4584  0.0298
 2592SOL     OW19234   3.163   2.031  13.061  0.3038 -0.5453 -0.2611
 2592SOL    HW119235   3.087   2.019  13.118 -1.3140  3.0248 -1.7105
 2592SOL    HW219236   3.123   2.038  12.974 -0.2790  0.1153  0.0650
 2593SOL     OW19237   2.216   1.780   7.171  0.0281  0.3321  0.2576
 2593SOL    HW119238   2.275   1.851   7.197  1.2935 -0.9647  0.9523
 2593SOL    HW219239   2.285   1.714   7.158  0.1783  0.6012 -0.3077
 2594SOL     OW19240   2.823   2.927   5.728  0.3655 -0.5146  0.3463
 2594SOL    HW119241   2.732   2.899   5.739  0.8436 -1.7675  1.0908
 2594SOL    HW219242   2.865   2.879   5.799 -1.4818 -0.1709  1.6838
 2595SOL     OW19243   3.852   1.700   1.445 -0.0551  0.6675 -0.2058
 2595SOL    HW119244   3.879   1.736   1.360 -0.9863 -0.0928 -0.8227
 2595SOL    HW219245   3.900   1.618   1.451  1.7756  1.7671 -0.0416
 2596SOL     OW19246   2.751   3.562   2.770  0.0909  0.3613 -0.5261
 2596SOL    HW119247   2.833   3.519   2.745 -1.8977 -2.7526 -1.5823
 2596SOL    HW219248   2.710   3.576   2.685 -0.0669  1.7190 -0.2377
 2597SOL     OW19249   4.395   2.900   2.301 -0.2522  0.3693  0.3923
 2597SOL    HW119250   4.354   2.833   2.355  1.2475  0.1672  1.3104
 2597SOL    HW219251   4.461   2.849   2.254  0.0138  0.4375  0.6861
 2598SOL     OW19252   4.401   0.051   4.974  0.0338  0.3708 -0.2862
 2598SOL    HW119253   4.313   0.042   4.937 -0.2374  3.5138 -0.4399
 2598SOL    HW219254   4.426   4.685   5.005  2.6237  1.3385  0.3364
 2599SOL     OW19255   1.361   1.620   2.627  0.4710  1.3245 -0.1060
 2599SOL    HW119256   1.312   1.599   2.707 -0.4680  1.8200 -0.5579
 2599SOL    HW219257   1.443   1.571   2.637 -0.6256 -0.9548 -2.3234
 2600SOL     OW19258   4.539   4.139   3.127 -0.3045  0.2671 -0.0316
 2600SOL    HW119259   4.464   4.198   3.134  2.0346  3.2706 -0.1739
 2600SOL    HW219260   4.489   4.058   3.117  0.2393 -0.1335  0.4764
 2601SOL     OW19261   4.585   2.541   0.775 -0.5073  0.5635 -0.1460
 2601SOL    HW119262   4.612   2.628   0.803 -0.2879  0.2686  0.5372
 2601SOL    HW219263   4.494   2.564   0.757 -1.0995 -1.6313  0.0580
 2602SOL     OW19264   0.481   1.842   4.956 -0.1428  0.3674  0.3411
 2602SOL    HW119265   0.559   1.786   4.954  0.3980  1.2630 -2.5120
 2602SOL    HW219266   0.504   1.898   5.030  0.8915 -0.3957  0.6040
 2603SOL     OW19267   1.311   4.445   5.504  0.2013  0.0330  0.6641
 2603SOL    HW119268   1.224   4.412   5.481  0.0262  0.0919  1.2380
 2603SOL    HW219269   1.288   4.534   5.532  1.4015  0.1097  1.4140
 2604SOL     OW19270   0.588   0.445   9.834 -0.0468  0.0521 -0.0295
 2604SOL    HW119271   0.635   0.528   9.842  3.5968 -1.9600 -0.2560
 2604SOL    HW219272   0.623   0.405   9.755  0.7283  1.5887 -0.4613
 2605SOL     OW19273   0.258   3.673   3.576 -0.9265  0.1015 -0.1029
 2605SOL    HW119274   0.290   3.621   3.650 -0.5754 -0.9414 -0.9918
 2605SOL    HW219275   0.204   3.737   3.623  0.6117  0.4076  1.2679
 2606SOL     OW19276   2.562   3.505  15.023 -0.3247 -0.1839 -0.3095
 2606SOL    HW119277   2.648   3.521  15.062  0.6666 -3.9835 -0.8940
 2606SOL    HW219278   2.593   3.523  14.934 -1.1984  1.0125 -0.3629
 2607SOL     OW19279   3.253   0.730   5.182  0.1084 -0.0763 -0.0533
 2607SOL    HW119280   3.339   0.767   5.201  0.9985 -1.5495 -1.1970
 2607SOL    HW219281   3.282   0.654   5.131  2.4903  0.5954  0.3225
 2608SOL     OW19282   4.133   0.933   5.141  0.3860 -0.1884  0.3741
 2608SOL    HW119283   4.104   1.023   5.125  2.0649  0.3226  0.2079
 2608SOL    HW219284   4.224   0.943   5.168 -0.0015  1.9696  0.8977
 2609SOL     OW19285   3.965   2.081   5.146 -0.1255  0.2610  0.6914
 2609SOL    HW119286   3.884   2.032   5.133  0.2937 -0.1286 -0.4425
 2609SOL    HW219287   3.947   2.144   5.216 -0.3291  0.5249  0.4044
 2610SOL     OW19288   0.970   1.846   8.559  0.0178 -0.3129 -0.2642
 2610SOL    HW119289   0.974   1.942   8.559 -1.3662 -0.2422  0.0357
 2610SOL    HW219290   0.916   1.836   8.638  0.1644 -1.1832 -0.2722
 2611SOL     OW19291   2.776   4.039   5.347  0.2303  0.0683  0.5133
 2611SOL    HW119292   2.760   4.107   5.412  0.7179 -0.0306  0.7362
 2611SOL    HW219293   2.852   3.995   5.386 -0.1543 -2.3578 -1.4811
 2612SOL     OW19294   3.465   1.463   2.922 -0.5039  0.0908 -0.7754
 2612SOL    HW119295   3.462   1.510   3.005 -1.2647  1.1694 -1.4047
 2612SOL    HW219296   3.550   1.419   2.916 -0.7825 -0.6206  0.5364
 2613SOL     OW19297   4.662   1.587   8.348  0.4093 -0.2335 -0.3745
 2613SOL    HW119298   4.626   1.530   8.280 -0.2626  0.4178 -0.5716
 2613SOL    HW219299   4.667   1.670   8.302 -0.3778  2.0148  3.5204
 2614SOL     OW19300   0.856   0.002   5.596  0.2540  0.4458  0.5705
 2614SOL    HW119301   0.883   0.066   5.661 -0.6041 -0.2483  1.6269
 2614SOL    HW219302   0.916   4.655   5.628  1.4482  1.3068  0.1356
 2615SOL     OW19303   1.014   1.237  15.904  0.5693 -0.1183 -0.0784
 2615SOL    HW119304   1.082   1.230  15.970 -2.2303 -2.1008  2.5760
 2615SOL    HW219305   1.014   1.146  15.875 -0.3952 -0.0321 -0.3650
 2616SOL     OW19306   2.577   2.518  11.050 -0.3452  0.0424  0.1539
 2616SOL    HW119307   2.514   2.588  11.033  3.2775  3.2763  0.1760
 2616SOL    HW219308   2.657   2.552  11.011 -0.3789  1.9105  1.7278
 2617SOL     OW19309   2.855   0.240   8.706  0.3732 -0.1639 -0.3980
 2617SOL    HW119310   2.944   0.261   8.735 -0.2297  0.0485  1.3243
 2617SOL    HW219311   2.867   0.175   8.637 -0.8852  0.0702 -0.8506
 2618SOL     OW19312   1.804   4.625   3.946  0.2064  0.3679  0.2040
 2618SOL    HW119313   1.844   4.692   3.891 -0.9792 -1.0441 -2.4067
 2618SOL    HW219314   1.810   4.543   3.896 -1.4166  0.6553 -0.4596
 2619SOL     OW19315   4.478   1.538   9.390 -0.3646 -0.0765 -1.0850
 2619SOL    HW119316   4.474   1.448   9.424 -3.0120  0.5405  0.2828
 2619SOL    HW219317   4.433   1.580   9.464  0.6734 -2.2287  0.7687
 2620SOL     OW19318   2.963   0.501   3.551  0.8040 -0.2902  0.3433
 2620SOL    HW119319   2.946   0.420   3.598 -0.5963 -1.4015 -2.0477
 2620SOL    HW219320   3.055   0.484   3.531  0.3507 -0.5113 -1.5599
 2621SOL     OW19321   2.623   0.318   6.530 -0.6858  0.1599 -0.1086
 2621SOL    HW119322   2.624   0.222   6.523 -2.0694  0.2511 -1.7251
 2621SOL    HW219323   2.528   0.328   6.522 -1.2473 -3.7366  1.4685
 2622SOL     OW19324   3.920   3.458   5.122  0.3594  0.6518  0.0409
 2622SOL    HW119325   3.877   3.451   5.036  0.9531 -1.3661 -0.0935
 2622SOL    HW219326   3.984   3.388   5.111 -1.4656 -0.9204 -0.6612
 2623SOL     OW19327   1.078   2.256  15.154 -0.4806  0.0852  0.4190
 2623SOL    HW119328   1.162   2.300  15.140 -0.4614 -0.0355  0.1510
 2623SOL    HW219329   1.042   2.295  15.234 -1.3214 -1.9411  1.0148
 2624SOL     OW19330   1.076   3.269   7.232  0.1831 -0.6886  0.0631
 2624SOL    HW119331   0.993   3.286   7.189  0.7499 -2.0982 -1.5951
 2624SOL    HW219332   1.060   3.181   7.264 -3.5334 -0.3501 -0.8604
 2625SOL     OW19333   1.768   4.254   5.804 -0.5402  0.2611  0.6047
 2625SOL    HW119334   1.726   4.331   5.764  0.7200  0.8074  0.3515
 2625SOL    HW219335   1.795   4.224   5.718 -1.0737  0.3498  0.4052
 2626SOL     OW19336   2.474   2.613   4.873  1.2650 -0.5627 -0.5105
 2626SOL    HW119337   2.447   2.676   4.807 -1.0932  2.5458  3.3997
 2626SOL    HW219338   2.442   2.536   4.826 -1.3092  1.4467 -2.0212
 2627SOL     OW19339   0.198   0.827  15.046  0.1199 -0.2740 -0.0454
 2627SOL    HW119340   0.114   0.871  15.049 -0.0523 -0.6132  0.0993
 2627SOL    HW219341   0.180   0.737  15.018  1.3425 -0.4509 -0.2756
 2628SOL     OW19342   1.008   0.785   3.815  0.1245 -0.3429  0.2975
 2628SOL    HW119343   1.042   0.874   3.805 -0.4978  0.1175  2.3454
 2628SOL    HW219344   1.047   0.772   3.901  0.4925 -1.1207  0.0144
 2629SOL     OW19345   1.277   3.291   3.806  0.1562  0.4574  0.5020
 2629SOL    HW119346   1.283   3.383   3.828  0.8295 -0.0090  2.2809
 2629SOL    HW219347   1.308   3.288   3.716 -0.2989 -0.7858  0.3773
 2630SOL     OW19348   2.789   2.632   4.052 -0.6605  0.5252  0.1417
 2630SOL    HW119349   2.714   2.653   3.997 -0.0639 -0.3534 -0.9835
 2630SOL    HW219350   2.820   2.718   4.079  0.1344  1.0622 -2.4794
 2631SOL     OW19351   0.906   2.373  16.447 -0.3148 -0.4275 -0.4716
 2631SOL    HW119352   0.914   2.287  16.488  3.6908  1.3535  2.3647
 2631SOL    HW219353   0.896   2.431  16.522 -3.7137 -1.2744 -0.2539
 2632SOL     OW19354   4.606   2.581  15.359 -0.3197  0.0903  0.0269
 2632SOL    HW119355   4.635   2.630  15.436 -2.5853 -0.3068  1.1187
 2632SOL    HW219356   4.592   2.657  15.302  1.7983 -1.1503 -2.1446
 2633SOL     OW19357   3.973   4.513  15.121  0.4891 -0.0848  0.4212
 2633SOL    HW119358   4.014   4.481  15.040  1.5663  1.5738  0.3114
 2633SOL    HW219359   4.013   4.600  15.130 -0.2563  0.3495 -0.5390
 2634SOL     OW19360   2.588   2.290   5.905 -0.3321 -0.2540  0.7675
 2634SOL    HW119361   2.631   2.334   5.831  0.5707 -0.2548  1.2863
 2634SOL    HW219362   2.628   2.203   5.897 -0.5035 -0.2380 -0.2356
 2635SOL     OW19363   1.998   0.122   6.538  0.2900 -0.3819  0.3631
 2635SOL    HW119364   2.035   0.044   6.496  0.8581  0.5794 -0.9142
 2635SOL    HW219365   1.914   0.121   6.493 -1.3980 -0.7748  3.5145
 2636SOL     OW19366   2.462   3.994  15.499 -0.1100 -0.8017 -0.4056
 2636SOL    HW119367   2.555   3.997  15.477 -0.1237  0.5137 -0.2962
 2636SOL    HW219368   2.421   4.044  15.428 -1.6818 -0.7194  0.5553
 2637SOL     OW19369   1.719   0.692   7.725 -0.6358 -0.1952 -0.6282
 2637SOL    HW119370   1.710   0.768   7.667  0.3613 -1.2186 -2.1297
 2637SOL    HW219371   1.697   0.721   7.813 -0.5437 -0.7645 -0.4158
 2638SOL     OW19372   3.310   3.069  10.382  0.5093 -0.1892  0.0880
 2638SOL    HW119373   3.288   3.151  10.427  1.0313  0.0147 -0.0277
 2638SOL    HW219374   3.331   3.103  10.295 -0.0469  0.4525  0.2048
 2639SOL     OW19375   0.598   3.962   7.616  0.0834  0.0848  0.4382
 2639SOL    HW119376   0.555   3.877   7.628  0.1233  0.1730  1.2299
 2639SOL    HW219377   0.571   3.997   7.531  0.4142 -0.7641 -0.0094
 2640SOL     OW19378   1.783   2.786  13.114  0.0130  0.8735 -0.6844
 2640SOL    HW119379   1.758   2.847  13.044 -1.2947  0.6341 -0.4337
 2640SOL    HW219380   1.696   2.751  13.133  1.1239  0.2042  3.2410
 2641SOL     OW19381   1.611   1.724  13.137  0.0312 -0.0659 -0.0316
 2641SOL    HW119382   1.691   1.763  13.175 -0.6369  0.3463  0.9600
 2641SOL    HW219383   1.560   1.716  13.217 -0.3917  2.4355 -0.0517
 2642SOL     OW19384   4.140   3.357   4.443 -0.3074 -0.0626 -0.4924
 2642SOL    HW119385   4.086   3.394   4.373 -1.2190 -0.3270  0.0649
 2642SOL    HW219386   4.079   3.299   4.489  0.1470  0.2579  0.5094
 2643SOL     OW19387   1.339   2.105   0.476  0.5696  0.0316 -0.2277
 2643SOL    HW119388   1.412   2.165   0.488 -0.1996  0.5734  1.7577
 2643SOL    HW219389   1.328   2.074   0.565  0.0456  0.1371 -0.2550
 2644SOL     OW19390   1.779   2.743   2.694 -0.0972  0.0124  0.2211
 2644SOL    HW119391   1.846   2.796   2.651  0.4800  0.0490  1.1608
 2644SOL    HW219392   1.753   2.696   2.615  1.2943 -1.7219  0.7866
 2645SOL     OW19393   4.115   1.120  16.084 -0.4916  0.2215  0.1198
 2645SOL    HW119394   4.075   1.144  16.001 -0.6399  1.0049  0.4177
 2645SOL    HW219395   4.157   1.198  16.119  0.2552  0.1703 -0.6524
 2646SOL     OW19396   0.461   3.238   1.887  0.5690 -0.1447 -0.1803
 2646SOL    HW119397   0.407   3.185   1.946  4.7828 -0.9301  2.9455
 2646SOL    HW219398   0.423   3.217   1.802  1.3760 -0.5145 -0.4418
 2647SOL     OW19399   3.851   2.205  11.581 -0.0077  0.2466 -0.4658
 2647SOL    HW119400   3.901   2.285  11.598 -1.2360  0.9221 -0.0181
 2647SOL    HW219401   3.804   2.200  11.664  1.6978  0.7091  0.5280
 2648SOL     OW19402   1.828   3.479   6.118  0.0202 -0.6022  0.0296
 2648SOL    HW119403   1.749   3.426   6.122  0.0236 -0.6822 -1.0295
 2648SOL    HW219404   1.801   3.567   6.092  1.9166 -0.2534 -0.8035
 2649SOL     OW19405   1.736   1.048   1.194 -0.5143 -0.3095  0.2709
 2649SOL    HW119406   1.752   1.042   1.100 -0.9991  1.6965  0.0531
 2649SOL    HW219407   1.820   1.020   1.229  0.1208  0.0012 -1.0278
 2650SOL     OW19408   1.606   2.414   6.600  0.3764  0.5137  0.0874
 2650SOL    HW119409   1.517   2.440   6.578  0.4882  0.0889 -0.8585
 2650SOL    HW219410   1.658   2.492   6.578  1.3946 -0.1537  0.1020
 2651SOL     OW19411   0.032   0.273   5.892 -0.1538  0.0876 -0.4828
 2651SOL    HW119412   0.114   0.233   5.863 -1.1191  0.0856 -3.2416
 2651SOL    HW219413   0.031   0.236   5.980  1.0140  0.0970 -0.4739
 2652SOL     OW19414   2.113   0.486   4.467  0.2772 -0.3458 -0.4955
 2652SOL    HW119415   2.095   0.562   4.521 -2.3582 -0.9696 -0.5298
 2652SOL    HW219416   2.031   0.468   4.421  0.2460  1.4713 -1.1553
 2653SOL     OW19417   2.657   1.156   4.467  0.1415  0.3952  0.4438
 2653SOL    HW119418   2.607   1.151   4.385 -0.3069  2.4423  0.5789
 2653SOL    HW219419   2.714   1.080   4.459 -0.5082 -0.0757  0.2974
 2654SOL     OW19420   3.557   4.411   4.852  0.1753 -0.2976  0.1344
 2654SOL    HW119421   3.555   4.370   4.765  1.1096  1.9836 -0.9556
 2654SOL    HW219422   3.643   4.452   4.853  0.6448 -1.2424 -2.3788
 2655SOL     OW19423   1.183   0.880   2.311 -0.3416  0.4290  0.2355
 2655SOL    HW119424   1.126   0.868   2.387 -1.8667 -0.2921 -1.0357
 2655SOL    HW219425   1.244   0.807   2.324  0.4838  0.6369 -2.4375
 2656SOL     OW19426   1.257   4.583  17.205 -0.0996  0.3144 -0.2661
 2656SOL    HW119427   1.348   4.573  17.231  0.5473 -0.1085 -2.7118
 2656SOL    HW219428   1.262   4.668  17.162  2.3353 -0.8007 -2.1539
 2657SOL     OW19429   3.968   3.172  17.072  0.2310  0.3156 -0.6861
 2657SOL    HW119430   3.971   3.237  17.002  1.2077  0.7230 -0.2551
 2657SOL    HW219431   4.060   3.147  17.075  0.2000  0.3625  0.7903
 2658SOL     OW19432   4.322   2.018   5.308  0.8373  0.0925 -0.1503
 2658SOL    HW119433   4.255   1.949   5.309  0.3750  0.5482  0.6934
 2658SOL    HW219434   4.298   2.060   5.391 -1.5811 -0.8654 -0.3682
 2659SOL     OW19435   0.293   0.392   3.392 -0.0737  0.3647 -0.2322
 2659SOL    HW119436   0.383   0.382   3.361 -0.8681  1.1155 -2.8172
 2659SOL    HW219437   0.254   0.328   3.332  3.2362 -3.9054  2.1812
 2660SOL     OW19438   2.138   2.852  14.961  0.0072 -0.3682 -0.2867
 2660SOL    HW119439   2.103   2.939  14.941  1.1893 -0.0462 -0.9067
 2660SOL    HW219440   2.069   2.789  14.939  0.4823 -1.5128  1.4404
 2661SOL     OW19441   4.429   3.262   6.882 -0.2541  0.1530 -0.1448
 2661SOL    HW119442   4.522   3.243   6.895 -0.4753 -0.0795  1.0288
 2661SOL    HW219443   4.407   3.169   6.872  1.3037 -0.3436  1.1109
 2662SOL     OW19444   0.317   0.715   0.851  0.5888 -0.2676 -0.0379
 2662SOL    HW119445   0.223   0.701   0.839  1.0899 -2.3726 -1.3747
 2662SOL    HW219446   0.324   0.780   0.921 -1.0915 -3.2597  2.8980
 2663SOL     OW19447   2.190   1.173   2.396  0.1356  1.3429 -0.0271
 2663SOL    HW119448   2.214   1.153   2.306  1.6129 -1.6846  1.0200
 2663SOL    HW219449   2.100   1.139   2.393  0.1753  1.2968 -0.6895
 2664SOL     OW19450   2.410   2.549   2.570 -0.1853 -0.5157  0.6106
 2664SOL    HW119451   2.415   2.501   2.487 -0.3098 -2.2277  1.5830
 2664SOL    HW219452   2.474   2.494   2.615  1.5926  1.3754  0.4151
 2665SOL     OW19453   3.646   1.666  12.379  0.2183 -0.3269 -0.1063
 2665SOL    HW119454   3.722   1.620  12.341  0.5180 -0.3559  0.5173
 2665SOL    HW219455   3.676   1.696  12.465 -2.4896  0.5409  0.5229
 2666SOL     OW19456   1.109   1.396   9.901  0.3901  0.2896  0.8422
 2666SOL    HW119457   1.171   1.430   9.837  0.5257 -0.2770  0.6754
 2666SOL    HW219458   1.033   1.453   9.886  2.2646  2.5756  0.0669
 2667SOL     OW19459   3.554   1.818   6.173  0.3121  0.1317 -0.7271
 2667SOL    HW119460   3.574   1.814   6.079  3.2164 -1.1879 -0.0428
 2667SOL    HW219461   3.608   1.891   6.204 -1.5853  1.1750  0.1036
 2668SOL     OW19462   0.384   2.052   6.232 -0.0480  0.3556 -0.2921
 2668SOL    HW119463   0.395   2.099   6.149 -2.3677  1.3909 -0.0283
 2668SOL    HW219464   0.303   2.002   6.227  0.5805 -0.9307  2.0599
 2669SOL     OW19465   0.472   1.343   7.865 -0.1141  0.5537 -0.6287
 2669SOL    HW119466   0.475   1.430   7.825  0.3826  0.3375 -1.0521
 2669SOL    HW219467   0.550   1.304   7.826  1.3814  1.1175  1.7881
 2670SOL     OW19468   3.038   3.272   0.827 -0.6535 -0.0275 -0.2081
 2670SOL    HW119469   3.034   3.235   0.915 -0.2836 -1.4561 -0.7883
 2670SOL    HW219470   3.132   3.263   0.812 -0.9116 -1.3936 -1.0107
 2671SOL     OW19471   2.361   2.759   4.632 -0.0414 -0.1000 -0.5824
 2671SOL    HW119472   2.351   2.678   4.582  1.0740 -0.5594 -0.0564
 2671SOL    HW219473   2.432   2.809   4.591  0.6144  0.7303  1.5701
 2672SOL     OW19474   3.504   4.076   8.202 -0.2238  0.0015  0.0891
 2672SOL    HW119475   3.537   3.987   8.206  0.9667  0.4243 -0.3636
 2672SOL    HW219476   3.450   4.083   8.123  0.8867 -0.9689 -0.7483
 2673SOL     OW19477   3.904   4.463   4.111 -0.0405  0.7864 -0.3201
 2673SOL    HW119478   3.935   4.443   4.022 -3.5275  0.2325 -1.4131
 2673SOL    HW219479   3.865   4.548   4.089 -0.5950 -0.0732 -2.6880
 2674SOL     OW19480   3.712   1.942   5.192  0.0289 -0.1361 -0.3047
 2674SOL    HW119481   3.693   1.987   5.110  1.8319  0.7033 -0.2373
 2674SOL    HW219482   3.646   1.976   5.253  1.0381 -1.8598  1.7557
 2675SOL     OW19483   3.051   0.404   9.488 -0.1063  0.3600 -0.5836
 2675SOL    HW119484   3.007   0.478   9.532 -1.8846 -0.6895 -0.6075
 2675SOL    HW219485   2.977   0.344   9.482  1.6557 -1.6393 -2.1204
 2676SOL     OW19486   1.159   2.592   6.401 -0.5726  0.0321  0.6389
 2676SOL    HW119487   1.201   2.646   6.335 -2.0571  1.0172  0.4886
 2676SOL    HW219488   1.079   2.643   6.416 -2.1189 -2.0062 -0.5724
 2677SOL     OW19489   3.119   4.254   0.025  0.1781 -0.4413 -0.4969
 2677SOL    HW119490   3.163   4.233   0.107 -0.4926 -0.6900 -0.1992
 2677SOL    HW219491   3.066   4.174   0.023  0.6383 -0.7249 -1.3536
 2678SOL     OW19492   2.055   2.349  15.830  1.0354 -0.2484 -0.3047
 2678SOL    HW119493   2.036   2.430  15.877  2.5668 -0.5057  0.7796
 2678SOL    HW219494   1.979   2.296  15.853  0.9161 -0.1898 -0.5644
 2679SOL     OW19495   1.249   2.358   3.383  0.4339  0.1250  0.2616
 2679SOL    HW119496   1.344   2.341   3.379  0.3631  0.3866 -2.9274
 2679SOL    HW219497   1.241   2.399   3.297 -1.3024 -1.3240 -0.2697
 2680SOL     OW19498   0.541   2.332   6.360 -0.1105  0.4360 -0.7047
 2680SOL    HW119499   0.565   2.268   6.293  0.5430  0.6061 -0.6357
 2680SOL    HW219500   0.454   2.295   6.375 -0.0006  0.9160  1.0848
 2681SOL     OW19501   2.851   1.220   9.264 -0.0300  0.2456  0.6187
 2681SOL    HW119502   2.760   1.197   9.283  0.7487 -1.4884  2.1876
 2681SOL    HW219503   2.871   1.306   9.303 -0.5470  1.8447 -2.6012
 2682SOL     OW19504   0.878   4.129  12.390  0.1968 -0.4343  0.1367
 2682SOL    HW119505   0.914   4.062  12.448 -1.8958 -1.4796  0.2110
 2682SOL    HW219506   0.784   4.110  12.396  0.2752 -0.2791  1.8334
 2683SOL     OW19507   1.272   1.331   6.820  0.0431  0.3156 -0.1583
 2683SOL    HW119508   1.251   1.240   6.799  0.6800  0.5939 -2.0164
 2683SOL    HW219509   1.264   1.328   6.915  2.6516 -1.6363  0.0048
 2684SOL     OW19510   0.563   4.476   3.098  0.3760  0.0373 -0.3044
 2684SOL    HW119511   0.515   4.430   3.029  0.3378  0.2649 -0.4295
 2684SOL    HW219512   0.543   4.438   3.183 -1.9004  2.3213  0.1592
 2685SOL     OW19513   3.731   1.519   1.823  0.0194  0.0235  0.4801
 2685SOL    HW119514   3.737   1.429   1.790  1.3501  0.3310 -0.0987
 2685SOL    HW219515   3.645   1.520   1.866 -0.0119 -0.1165  0.4220
 2686SOL     OW19516   2.989   4.351  12.630  0.1958  0.2803  0.6831
 2686SOL    HW119517   3.053   4.422  12.632 -0.3848  0.7842  1.1128
 2686SOL    HW219518   3.053   4.282  12.612  0.9303  1.0659  0.2721
 2687SOL     OW19519   2.164   3.148   2.444  0.0950  0.1858 -0.2203
 2687SOL    HW119520   2.250   3.184   2.466 -0.2164  1.6285 -1.3098
 2687SOL    HW219521   2.159   3.186   2.356  0.8062 -0.4108 -0.5176
 2688SOL     OW19522   3.247   4.385   0.644 -0.5260 -0.0313  0.1228
 2688SOL    HW119523   3.313   4.427   0.590 -0.0889 -0.7521  0.0965
 2688SOL    HW219524   3.287   4.368   0.729  1.7129 -0.3229 -0.9785
 2689SOL     OW19525   1.708   4.215  10.141  0.0952  0.0952 -0.3705
 2689SOL    HW119526   1.763   4.291  10.159  2.0696 -1.5841  0.6812
 2689SOL    HW219527   1.760   4.162  10.081 -0.3641  1.0938 -1.6695
 2690SOL     OW19528   1.723   0.309   6.324  0.5556 -0.0945 -0.1122
 2690SOL    HW119529   1.713   0.380   6.387 -1.2206  0.9044 -1.5146
 2690SOL    HW219530   1.696   0.347   6.240  1.8924  0.5806 -0.2308
 2691SOL     OW19531   1.851   0.725  12.855  0.0386 -0.6741 -0.1377
 2691SOL    HW119532   1.886   0.684  12.775 -1.0938 -0.4412 -0.7470
 2691SOL    HW219533   1.928   0.769  12.891 -0.3166 -0.2761  0.1328
 2692SOL     OW19534   0.743   3.730   4.217  0.2890  0.1188 -0.4875
 2692SOL    HW119535   0.663   3.728   4.269  1.7454 -0.9331  1.7305
 2692SOL    HW219536   0.806   3.761   4.283 -0.1432 -1.1869  0.5393
 2693SOL     OW19537   4.011   2.849   2.656 -0.2342  0.7086  0.1681
 2693SOL    HW119538   4.038   2.809   2.573  1.5522 -1.2652  1.6800
 2693SOL    HW219539   3.946   2.792   2.696 -1.8644  1.7091 -1.0712
 2694SOL     OW19540   1.045   2.014   2.441  0.8338  0.1070 -0.5921
 2694SOL    HW119541   1.084   1.927   2.446 -0.8366 -0.7814 -3.0984
 2694SOL    HW219542   0.990   2.005   2.364  0.1476 -0.1960 -0.0706
 2695SOL     OW19543   1.498   4.515  15.708 -0.0535 -0.3214  0.4288
 2695SOL    HW119544   1.403   4.518  15.714 -0.1874 -0.4798 -1.7032
 2695SOL    HW219545   1.521   4.552  15.623 -0.1359  1.0274  0.9963
 2696SOL     OW19546   0.747   1.039   7.273 -1.1447 -0.4043  0.5554
 2696SOL    HW119547   0.684   0.967   7.270 -0.9732 -0.5597  0.7480
 2696SOL    HW219548   0.792   1.032   7.357 -0.8883  1.1704  0.5522
 2697SOL     OW19549   1.453   3.767   2.061  0.6042  0.5712 -0.4697
 2697SOL    HW119550   1.483   3.819   2.136  0.5916 -2.1240  1.3733
 2697SOL    HW219551   1.435   3.688   2.112  0.9385  0.9972  0.3042
 2698SOL     OW19552   1.185   2.309  16.513 -0.3723 -0.2273  0.0656
 2698SOL    HW119553   1.128   2.231  16.515 -1.5202  0.6283  1.1564
 2698SOL    HW219554   1.146   2.351  16.437 -0.9738 -0.9117 -0.0107
 2699SOL     OW19555   4.283   2.920  16.136 -0.7363 -0.2776 -0.2894
 2699SOL    HW119556   4.262   2.913  16.043  1.2563  0.0541 -0.7783
 2699SOL    HW219557   4.196   2.906  16.172 -1.0997  0.4785 -0.8541
 2700SOL     OW19558   2.496   2.304   1.286  0.2580 -0.5302  0.0724
 2700SOL    HW119559   2.433   2.309   1.358  1.1905  0.4482  0.8160
 2700SOL    HW219560   2.480   2.222   1.239  0.8014 -0.0845 -0.8774
 2701SOL     OW19561   2.747   4.021   2.632  0.9198  0.4409 -0.0927
 2701SOL    HW119562   2.821   4.003   2.574 -0.7887 -0.7827 -1.8955
 2701SOL    HW219563   2.738   4.115   2.615  0.2026  0.2815 -0.5896
 2702SOL     OW19564   1.944   4.091   7.910 -0.2031  0.4709 -0.6846
 2702SOL    HW119565   1.999   4.164   7.880 -1.2702  1.6843  0.3051
 2702SOL    HW219566   1.862   4.113   7.865 -0.8396 -0.7652 -0.1449
 2703SOL     OW19567   0.045   0.752   8.722  0.1107  0.5896  0.2687
 2703SOL    HW119568   4.717   0.717   8.797 -0.8741 -1.1287 -1.1897
 2703SOL    HW219569   4.702   0.762   8.651  0.4940 -1.0663 -0.2833
 2704SOL     OW19570   2.907   0.156  17.041  0.0968  0.2964 -0.2425
 2704SOL    HW119571   2.939   0.094  16.975  1.1432 -0.0197  0.5533
 2704SOL    HW219572   2.833   0.110  17.081 -0.4549  0.6754 -0.8251
 2705SOL     OW19573   2.699   3.597   7.537  0.1623 -0.5738  0.1740
 2705SOL    HW119574   2.726   3.646   7.615  0.1046 -2.7554  1.5640
 2705SOL    HW219575   2.785   3.577   7.501  0.0834 -1.2279  0.3393
 2706SOL     OW19576   2.599   4.115   7.163 -0.6430 -0.5192  0.2253
 2706SOL    HW119577   2.542   4.056   7.114 -1.6670  0.0672  0.7132
 2706SOL    HW219578   2.593   4.080   7.253 -2.1722 -3.8131 -1.1449
 2707SOL     OW19579   2.544   3.284  11.482  0.2692 -0.1501 -0.4224
 2707SOL    HW119580   2.453   3.256  11.474 -0.1738  1.4599 -0.9041
 2707SOL    HW219581   2.551   3.299  11.387  0.1221 -1.9330 -0.7258
 2708SOL     OW19582   3.447   0.883  10.554 -0.1005  0.3510  0.1421
 2708SOL    HW119583   3.516   0.822  10.530 -0.1595 -0.5861  2.3670
 2708SOL    HW219584   3.394   0.887  10.474  0.0452 -1.7672 -0.0587
 2709SOL     OW19585   3.397   0.876   1.064  0.0484 -0.2260 -0.0482
 2709SOL    HW119586   3.307   0.852   1.086  1.0414 -1.8642  2.2304
 2709SOL    HW219587   3.452   0.803   1.095  0.8798  0.7434  0.7527
 2710SOL     OW19588   2.947   2.744   5.891  0.6873 -0.3301 -0.3403
 2710SOL    HW119589   2.993   2.712   5.968  0.1998 -0.8494 -0.2679
 2710SOL    HW219590   2.932   2.660   5.848  1.6210 -0.2214 -0.9058
 2711SOL     OW19591   2.255   1.354  11.101  0.4036  0.5726  0.2052
 2711SOL    HW119592   2.242   1.305  11.019  0.5120 -0.6571  0.9172
 2711SOL    HW219593   2.326   1.307  11.145  1.2183 -0.0046 -1.7186
 2712SOL     OW19594   3.429   2.434  15.266  0.1635 -0.1153 -0.3154
 2712SOL    HW119595   3.380   2.352  15.270 -0.8850  0.4561 -1.2077
 2712SOL    HW219596   3.387   2.479  15.340 -0.7831  0.1794 -1.0297
 2713SOL     OW19597   3.275   0.573  11.254  0.8954 -0.7506 -0.0654
 2713SOL    HW119598   3.205   0.585  11.319  0.1855 -2.5213 -0.4929
 2713SOL    HW219599   3.296   0.665  11.239 -2.5377 -0.6382 -4.1305
 2714SOL     OW19600   0.866   3.636   6.692 -0.3330 -0.2636  0.0983
 2714SOL    HW119601   0.868   3.595   6.606  1.6200 -1.0616  0.5185
 2714SOL    HW219602   0.957   3.621   6.718 -0.5278  0.1689  1.0658
 2715SOL     OW19603   2.661   1.870  15.592 -0.0047 -0.1663 -0.0797
 2715SOL    HW119604   2.604   1.895  15.520 -1.2524 -0.8438  0.6764
 2715SOL    HW219605   2.740   1.855  15.540  0.2314 -3.2772  1.1687
 2716SOL     OW19606   0.843   2.254  14.343 -0.2394  0.0999  0.1030
 2716SOL    HW119607   0.843   2.297  14.257 -2.8715 -1.0386 -0.4836
 2716SOL    HW219608   0.866   2.322  14.405  0.8292  1.1338 -1.4442
 2717SOL     OW19609   3.010   0.747  11.042 -0.1383 -0.1633 -0.2175
 2717SOL    HW119610   3.065   0.736  10.964  2.3406  2.3286  1.1658
 2717SOL    HW219611   2.928   0.725  10.998 -0.1514  0.3885 -0.4724
 2718SOL     OW19612   1.992   3.255   3.698 -0.0972  0.6136  0.4379
 2718SOL    HW119613   2.067   3.276   3.754  1.3646 -1.7084 -0.6427
 2718SOL    HW219614   2.015   3.307   3.622  1.1874 -3.0148 -1.6495
 2719SOL     OW19615   2.826   4.254   7.840 -0.2293  0.8428 -0.1606
 2719SOL    HW119616   2.798   4.239   7.931  0.1321 -0.6916 -0.2979
 2719SOL    HW219617   2.815   4.165   7.807  3.6870  0.4312 -0.2946
 2720SOL     OW19618   1.247   3.525   8.720  0.3148 -0.1258 -0.0545
 2720SOL    HW119619   1.253   3.570   8.804 -1.7379 -1.5505  0.8533
 2720SOL    HW219620   1.336   3.494   8.703 -0.1688 -1.3519 -0.3893
 2721SOL     OW19621   2.175   4.158  10.142  0.5473 -0.0188  0.1892
 2721SOL    HW119622   2.095   4.110  10.166  0.4336  0.8491  1.5497
 2721SOL    HW219623   2.227   4.149  10.222 -1.2804 -0.7030  1.3062
 2722SOL     OW19624   1.319   0.523   0.129  0.2014  0.2725  0.5285
 2722SOL    HW119625   1.343   0.574   0.206 -2.1146  0.7034  0.9625
 2722SOL    HW219626   1.302   0.587   0.060 -0.1126  0.6037  0.9195
 2723SOL     OW19627   2.393   2.494   3.594 -0.0388  0.6499  0.3850
 2723SOL    HW119628   2.486   2.513   3.600 -0.1252  1.1452  0.2421
 2723SOL    HW219629   2.343   2.561   3.641  0.7572  0.6110  1.2790
 2724SOL     OW19630   1.082   2.342   4.538 -0.2193 -0.0407  0.0715
 2724SOL    HW119631   1.092   2.309   4.628 -0.6262 -0.9157 -0.2117
 2724SOL    HW219632   1.013   2.293   4.494  0.6678  0.4180 -1.8414
 2725SOL     OW19633   3.746   2.127   2.082  0.1817 -1.0231  0.2429
 2725SOL    HW119634   3.694   2.063   2.131  0.2523 -1.6148 -0.4475
 2725SOL    HW219635   3.759   2.073   2.004  0.9950 -0.3639 -0.0770
 2726SOL     OW19636   4.149   2.880  17.684 -0.2822  0.1357  0.6934
 2726SOL    HW119637   4.081   2.852  17.622 -0.3921  1.1310  0.3692
 2726SOL    HW219638   4.118   2.969   0.019  0.8998  1.1362 -2.0084
 2727SOL     OW19639   2.042   4.280   7.706 -0.1777 -0.0677 -0.2499
 2727SOL    HW119640   2.017   4.191   7.681 -1.5630 -0.2477  1.7986
 2727SOL    HW219641   2.131   4.286   7.673 -0.1938 -0.2677 -0.3287
 2728SOL     OW19642   4.020   0.150   8.242 -0.2650  0.3806  0.2349
 2728SOL    HW119643   3.963   0.204   8.296 -1.0157 -0.3357  0.1588
 2728SOL    HW219644   4.092   0.213   8.244  0.2557 -0.1739 -1.1116
 2729SOL     OW19645   3.902   2.458   3.699 -0.1043 -0.2847  0.1519
 2729SOL    HW119646   3.974   2.520   3.713 -0.2979 -0.3713  1.5756
 2729SOL    HW219647   3.915   2.390   3.766 -1.5834 -0.6086  0.0996
 2730SOL     OW19648   2.881   1.303   8.363  0.2471  0.3767  0.1427
 2730SOL    HW119649   2.794   1.341   8.375 -0.2630 -0.3871 -1.1704
 2730SOL    HW219650   2.937   1.374   8.332  2.2851 -1.4631 -0.3897
 2731SOL     OW19651   0.678   1.636   2.206  0.3981  0.3138  0.6676
 2731SOL    HW119652   0.763   1.593   2.202 -0.2970 -0.7122 -2.7965
 2731SOL    HW219653   0.652   1.619   2.297 -1.4882  1.5560  0.3636
 2732SOL     OW19654   4.281   4.487   9.321 -0.3567 -0.1357  0.0163
 2732SOL    HW119655   4.355   4.524   9.368 -0.0018 -1.8673  0.8311
 2732SOL    HW219656   4.232   4.567   9.303 -0.2351  0.1100  0.7883
 2733SOL     OW19657   1.957   2.751   6.113 -0.5193 -0.1688  0.0277
 2733SOL    HW119658   2.002   2.834   6.129 -1.2673  0.4500 -1.0851
 2733SOL    HW219659   1.973   2.749   6.018  0.2604 -1.2062  0.1854
 2734SOL     OW19660   1.783   0.961  17.128  0.0944  0.1929 -0.5147
 2734SOL    HW119661   1.854   1.010  17.087 -0.8025  0.3850 -1.8506
 2734SOL    HW219662   1.829   0.916  17.199  0.4626  2.4261  0.6838
 2735SOL     OW19663   4.636   4.117   4.728 -0.0210  0.1077 -0.5752
 2735SOL    HW119664   4.584   4.156   4.799  0.3132 -0.2430 -0.1425
 2735SOL    HW219665   4.602   4.028   4.722  2.8135 -0.9120 -1.4367
 2736SOL     OW19666   2.158   1.105  11.379 -0.0607  0.1134 -0.1562
 2736SOL    HW119667   2.131   1.197  11.386  4.0583  1.2458  0.9084
 2736SOL    HW219668   2.100   1.078  11.307 -0.5307 -0.1061  0.3087
 2737SOL     OW19669   2.566   2.044   2.266  0.4633  0.3320  0.2113
 2737SOL    HW119670   2.617   2.107   2.317  0.8183  1.0680 -1.0504
 2737SOL    HW219671   2.482   2.090   2.274  0.9338  1.0508  1.0638
 2738SOL     OW19672   0.014   1.477   5.834 -0.4090 -0.1044  0.3981
 2738SOL    HW119673   0.090   1.462   5.777 -0.8859  2.0997 -0.7835
 2738SOL    HW219674   0.036   1.415   5.905  0.2411  0.8357  1.0131
 2739SOL     OW19675   3.204   0.798   6.008  0.7472 -0.1998  0.6945
 2739SOL    HW119676   3.166   0.871   5.959  0.4563 -1.0239 -0.3121
 2739SOL    HW219677   3.247   0.761   5.930 -0.3416 -1.6216  0.7752
 2740SOL     OW19678   1.575   0.354   4.649 -0.4115 -0.5986 -0.3275
 2740SOL    HW119679   1.537   0.331   4.564 -1.5329 -0.8079  0.2286
 2740SOL    HW219680   1.572   0.271   4.697 -1.6182 -0.7006 -0.5656
 2741SOL     OW19681   3.733   4.228   1.756  0.5484 -0.7444  0.1156
 2741SOL    HW119682   3.712   4.160   1.693 -0.7847 -0.7029  0.4980
 2741SOL    HW219683   3.796   4.288   1.716 -0.2828 -0.0770 -0.1868
 2742SOL     OW19684   4.096   3.471   4.181  0.0063  0.1901  0.2875
 2742SOL    HW119685   4.053   3.555   4.200 -0.0463 -0.0729  1.3229
 2742SOL    HW219686   4.139   3.488   4.097 -0.5742  1.7789  0.3099
 2743SOL     OW19687   3.794   2.327   9.730  0.5517 -0.1665 -0.3541
 2743SOL    HW119688   3.799   2.243   9.684 -0.3190  0.1450 -1.0330
 2743SOL    HW219689   3.800   2.298   9.821  1.9298 -2.6459 -1.2612
 2744SOL     OW19690   0.383   0.744   2.756 -0.2367  0.0549  0.5504
 2744SOL    HW119691   0.296   0.741   2.795  0.0333  1.0710  1.2315
 2744SOL    HW219692   0.373   0.698   2.673 -0.7237 -1.1052  1.2474
 2745SOL     OW19693   3.629   3.521   3.480 -0.0446  0.0583 -0.4173
 2745SOL    HW119694   3.566   3.483   3.540  0.1154 -1.2367 -1.0505
 2745SOL    HW219695   3.672   3.577   3.544 -0.0079  1.1061 -1.3582
 2746SOL     OW19696   1.936   4.046   6.683 -0.3071 -0.5477 -0.2169
 2746SOL    HW119697   1.905   4.100   6.610 -0.3014 -0.6564 -0.2999
 2746SOL    HW219698   1.922   4.113   6.750 -1.1914  0.2966 -1.2352
 2747SOL     OW19699   3.783   4.457   6.816  0.5575  0.1464 -0.7039
 2747SOL    HW119700   3.806   4.364   6.827 -0.3061  0.1254  0.9874
 2747SOL    HW219701   3.695   4.459   6.779 -0.0853  0.7409  0.8533
 2748SOL     OW19702   2.729   2.990   1.634  0.4671 -0.3000  0.2017
 2748SOL    HW119703   2.691   2.902   1.637  0.2104 -0.1944  0.0815
 2748SOL    HW219704   2.745   3.001   1.728  0.1805 -1.2086  0.3600
 2749SOL     OW19705   3.742   2.448   7.543  0.7167 -0.8862 -0.3187
 2749SOL    HW119706   3.806   2.396   7.494  0.5322 -0.2771 -1.1950
 2749SOL    HW219707   3.727   2.511   7.472 -0.9623  0.4173  1.1881
 2750SOL     OW19708   2.824   4.384   6.439  0.1921  0.3640 -0.1390
 2750SOL    HW119709   2.860   4.458   6.487  0.2474  0.3134 -0.1019
 2750SOL    HW219710   2.733   4.385   6.466  0.7402 -1.7176  1.7943
 2751SOL     OW19711   1.897   2.401  14.016  0.6448  0.2695  0.3533
 2751SOL    HW119712   1.902   2.453  13.936  3.3065 -0.8718 -0.2148
 2751SOL    HW219713   1.965   2.438  14.072 -0.2020  1.6357  0.4734
 2752SOL     OW19714   1.798   0.057   4.175  0.5620  0.0162  0.1225
 2752SOL    HW119715   1.865   0.122   4.154  0.6637 -0.1401 -0.0296
 2752SOL    HW219716   1.799   4.711   4.106  0.5152 -1.1105  1.2090
 2753SOL     OW19717   3.698   4.630   3.258  0.2498 -0.2683  0.5892
 2753SOL    HW119718   3.767   4.568   3.235 -0.1817  0.5449 -2.7898
 2753SOL    HW219719   3.715   4.635   3.352  0.1050 -0.1005  0.6061
 2754SOL     OW19720   2.316   2.352   4.018  0.0376 -0.1292 -0.0874
 2754SOL    HW119721   2.408   2.334   3.998  0.2904  2.4432 -1.2142
 2754SOL    HW219722   2.281   2.371   3.931  1.3961  1.7973 -0.2229
 2755SOL     OW19723   1.423   0.418   4.243  0.8342  0.4095 -0.3839
 2755SOL    HW119724   1.428   0.350   4.311  1.8271 -1.6174 -2.4661
 2755SOL    HW219725   1.494   0.472   4.277  0.2484 -1.1298  3.2568
 2756SOL     OW19726   1.377   0.590  13.437 -0.3177 -0.1702  0.0540
 2756SOL    HW119727   1.321   0.545  13.373  0.6475 -0.0215 -0.8863
 2756SOL    HW219728   1.376   0.682  13.412 -1.9318 -0.4662 -0.9714
 2757SOL     OW19729   3.862   3.247   6.439 -0.0212  0.8186 -0.2330
 2757SOL    HW119730   3.922   3.174   6.424 -0.0921  0.7625 -0.2395
 2757SOL    HW219731   3.898   3.288   6.517 -0.1679  0.8800 -0.1984
 2758SOL     OW19732   0.023   4.631   0.820  0.1513  0.1730 -0.1345
 2758SOL    HW119733   0.052   4.631   0.729  2.3226 -1.9935  0.5585
 2758SOL    HW219734   4.654   4.598   0.810  0.7507 -1.0200 -1.4211
 2759SOL     OW19735   0.346   2.573   2.620  0.2929  0.6611  0.2559
 2759SOL    HW119736   0.254   2.569   2.647  0.1353 -2.2140 -0.7623
 2759SOL    HW219737   0.365   2.481   2.603 -0.7522  0.1998  1.6148
 2760SOL     OW19738   1.736   4.237   4.103 -0.2078  0.1109  0.1131
 2760SOL    HW119739   1.724   4.291   4.025 -0.9653  0.0312  0.1766
 2760SOL    HW219740   1.682   4.161   4.083  1.1174 -0.7112 -0.3811
 2761SOL     OW19741   3.090   1.559  16.357  0.1447  0.1388  0.3015
 2761SOL    HW119742   3.148   1.633  16.378  0.8679 -0.7386  1.3695
 2761SOL    HW219743   3.121   1.485  16.409 -0.6893 -0.1158  0.4255
 2762SOL     OW19744   4.454   1.924  11.349 -0.4704 -0.5403 -0.0649
 2762SOL    HW119745   4.385   1.930  11.415  0.7320 -1.4085  1.2649
 2762SOL    HW219746   4.528   1.966  11.393 -2.6342  3.2864 -0.1492
 2763SOL     OW19747   0.024   4.060  16.930 -0.4695 -0.6938  0.5092
 2763SOL    HW119748   4.706   3.975  16.950  0.0782 -1.3659 -1.2969
 2763SOL    HW219749   0.059   4.049  16.842 -0.7647  1.9906  0.0345
 2764SOL     OW19750   3.341   4.166   7.983 -0.3555 -0.2091  0.3730
 2764SOL    HW119751   3.341   4.144   7.890  2.2377  0.3818  0.2467
 2764SOL    HW219752   3.250   4.188   8.004 -1.3391 -2.2046 -1.7688
 2765SOL     OW19753   2.336   2.420   5.650 -0.3577 -0.0866  0.1877
 2765SOL    HW119754   2.338   2.407   5.744  1.7392  0.8390  0.2465
 2765SOL    HW219755   2.419   2.466   5.645 -1.4840  2.0543  1.3326
 2766SOL     OW19756   0.207   1.201   6.602  0.0659 -0.4780  0.2578
 2766SOL    HW119757   0.228   1.194   6.509 -0.9843 -0.4132  0.0088
 2766SOL    HW219758   0.202   1.296   6.617  2.5676 -0.8958  3.4779
 2767SOL     OW19759   2.269   2.292   8.486 -0.3086  0.2388  0.1365
 2767SOL    HW119760   2.215   2.333   8.418 -1.0946  1.1077  1.2793
 2767SOL    HW219761   2.205   2.286   8.557 -0.6586 -0.1628 -0.2121
 2768SOL     OW19762   0.245   0.820   3.891 -0.0242 -0.0061  0.5986
 2768SOL    HW119763   0.306   0.760   3.848  0.5377  0.6057  0.5432
 2768SOL    HW219764   0.289   0.904   3.905  3.1844 -1.7077  0.7384
 2769SOL     OW19765   1.390   1.981   3.664 -0.0862 -0.0663 -0.0868
 2769SOL    HW119766   1.328   1.992   3.735 -1.6567  0.4900 -1.5314
 2769SOL    HW219767   1.403   2.075   3.652  1.2812 -0.1563  0.6596
 2770SOL     OW19768   1.730   4.650   7.122 -0.2758  0.5394  0.0640
 2770SOL    HW119769   1.776   4.580   7.075  0.5944  0.2677  1.3426
 2770SOL    HW219770   1.810   4.697   7.146 -0.2741  1.9875 -2.6376
 2771SOL     OW19771   2.915   2.386   7.452 -1.0914  0.0135  0.0442
 2771SOL    HW119772   2.973   2.316   7.480  0.9319  1.6470 -0.0689
 2771SOL    HW219773   2.933   2.449   7.522  0.0114 -1.1744  0.8237
 2772SOL     OW19774   2.277   1.288   3.461 -0.2234  0.0056 -0.1137
 2772SOL    HW119775   2.274   1.195   3.438  1.6786  0.2581 -1.3948
 2772SOL    HW219776   2.239   1.345   3.395  1.1142  1.0773  0.0366
 2773SOL     OW19777   1.722   3.730  17.326 -0.0339  0.0224  0.1364
 2773SOL    HW119778   1.762   3.725  17.239 -1.4637  2.3181 -0.6635
 2773SOL    HW219779   1.674   3.647  17.325 -0.1838  0.0762  3.9557
 2774SOL     OW19780   0.436   3.224   2.809  0.6202  0.0838 -0.1079
 2774SOL    HW119781   0.430   3.310   2.769 -0.9209  0.4371  0.8620
 2774SOL    HW219782   0.491   3.238   2.886  0.0553 -2.6940  0.8341
 2775SOL     OW19783   0.830   1.880   1.730 -0.0813  0.1836  0.0856
 2775SOL    HW119784   0.762   1.814   1.748  0.0121 -0.8485 -3.2349
 2775SOL    HW219785   0.795   1.931   1.657 -3.1741 -0.2249  1.2773
 2776SOL     OW19786   2.085   0.558   7.889  0.4158 -0.5189 -0.0880
 2776SOL    HW119787   2.175   0.557   7.919  0.3940  0.0902  0.0045
 2776SOL    HW219788   2.058   0.644   7.923  1.4650 -0.4524  0.5691
 2777SOL     OW19789   3.579   2.636   0.768 -0.7787 -0.5334 -0.3154
 2777SOL    HW119790   3.663   2.603   0.734  0.6449  1.4543  1.2977
 2777SOL    HW219791   3.516   2.625   0.697 -0.1813  1.5268 -1.1831
 2778SOL     OW19792   4.686   0.769  13.307  0.4205  0.4837 -0.0016
 2778SOL    HW119793   4.605   0.819  13.293 -1.0536 -1.8752  0.0922
 2778SOL    HW219794   4.709   0.739  13.219  1.0083  1.2410 -0.1057
 2779SOL     OW19795   0.664   2.998   3.702  0.0267 -0.1777  0.8578
 2779SOL    HW119796   0.678   3.093   3.704 -0.1594 -0.1028 -1.0823
 2779SOL    HW219797   0.601   2.983   3.773  0.6714  0.3699  1.5416
 2780SOL     OW19798   4.066   2.129   0.734 -0.4072 -0.0405 -0.8732
 2780SOL    HW119799   4.154   2.112   0.700  0.7263  0.9981  1.5253
 2780SOL    HW219800   4.017   2.080   0.668 -1.9116  0.0552  0.1525
 2781SOL     OW19801   3.219   3.938   7.579  0.0046 -0.5333  0.3383
 2781SOL    HW119802   3.263   4.018   7.609  0.5045 -0.4375 -0.6337
 2781SOL    HW219803   3.149   3.917   7.639 -1.7942  0.6253 -1.3438
 2782SOL     OW19804   4.232   0.103  16.174  0.7366 -0.0963 -0.2803
 2782SOL    HW119805   4.273   0.059  16.248 -0.6780  1.0537  1.1632
 2782SOL    HW219806   4.140   0.080  16.187  1.3310 -2.2325  0.1303
 2783SOL     OW19807   4.469   1.460   6.613 -0.0942 -0.0999 -0.4972
 2783SOL    HW119808   4.473   1.464   6.518  1.3171  0.8601 -0.4105
 2783SOL    HW219809   4.388   1.508   6.628 -0.0603 -0.6121  1.4383
 2784SOL     OW19810   0.428   0.534   6.381  0.4989  0.2476 -0.5150
 2784SOL    HW119811   0.448   0.596   6.451 -3.3344 -0.1106  0.8835
 2784SOL    HW219812   0.447   0.454   6.430 -0.8299 -0.0412 -0.4852
 2785SOL     OW19813   2.775   0.027  13.568  0.0661  0.2890  0.5241
 2785SOL    HW119814   2.854   4.718  13.523  0.8679  0.9050  1.5578
 2785SOL    HW219815   2.707   4.705  13.515  1.1008  0.0260 -0.5786
 2786SOL     OW19816   0.005   3.338   8.308  0.3395  0.0037  0.6434
 2786SOL    HW119817   4.672   3.260   8.291 -1.5270  1.4792 -0.2769
 2786SOL    HW219818   0.074   3.297   8.359 -1.6259 -1.2560  2.2869
 2787SOL     OW19819   0.474   3.396   8.552  0.0363 -0.0159  0.3235
 2787SOL    HW119820   0.559   3.376   8.514  0.6177  0.9982  1.1058
 2787SOL    HW219821   0.504   3.419   8.639  1.2612 -0.1386 -0.0726
 2788SOL     OW19822   3.519   0.346   5.967  0.2576 -0.3190 -0.6898
 2788SOL    HW119823   3.493   0.269   5.916  2.1001 -1.3121 -0.1251
 2788SOL    HW219824   3.614   0.333   5.963  0.7287  3.6850 -2.2175
 2789SOL     OW19825   2.234   2.684   6.426  0.1433  0.3466  0.2702
 2789SOL    HW119826   2.272   2.645   6.505 -1.7848 -0.1831  0.9575
 2789SOL    HW219827   2.255   2.611   6.368 -2.5953 -1.8323  2.0138
 2790SOL     OW19828   0.723   2.376   2.000  0.1518  0.0641  0.3763
 2790SOL    HW119829   0.655   2.346   1.940 -0.9531  1.9757  0.6899
 2790SOL    HW219830   0.679   2.360   2.084 -0.2689  2.2281  0.5615
 2791SOL     OW19831   4.376   2.123   1.619 -0.4133  0.0110  0.0208
 2791SOL    HW119832   4.456   2.162   1.655 -0.2928 -2.7008  2.6854
 2791SOL    HW219833   4.309   2.148   1.682  0.4090  0.6269  0.6551
 2792SOL     OW19834   0.857   0.532   5.943 -0.1568  0.2156 -0.0939
 2792SOL    HW119835   0.867   0.565   5.854  1.2500  4.4516  1.6276
 2792SOL    HW219836   0.789   0.465   5.939  0.0318 -0.0215  0.5935
 2793SOL     OW19837   0.920   3.494  13.771  0.0532 -0.1905  0.6040
 2793SOL    HW119838   0.840   3.504  13.823  0.0650  0.6372  0.4657
 2793SOL    HW219839   0.952   3.408  13.798 -0.8659 -0.4962  0.7367
 2794SOL     OW19840   2.783   2.423   9.836  0.6138  0.6083  0.0066
 2794SOL    HW119841   2.771   2.336   9.798  0.5563  0.4268  0.4405
 2794SOL    HW219842   2.844   2.462   9.773  0.3390  0.1374 -0.5546
 2795SOL     OW19843   1.659   1.149   2.884 -0.0983 -0.1060 -0.3545
 2795SOL    HW119844   1.715   1.117   2.814  1.0561  0.0266  0.5051
 2795SOL    HW219845   1.706   1.226   2.918 -0.2613  0.3865 -1.2435
 2796SOL     OW19846   0.592   2.462   9.885  0.2174  0.1686 -0.0278
 2796SOL    HW119847   0.670   2.407   9.876 -1.8183 -3.0677  2.4348
 2796SOL    HW219848   0.552   2.443   9.800  0.4438 -2.0713  0.3694
 2797SOL     OW19849   3.943   4.317   7.108  0.5704 -0.3406  0.4771
 2797SOL    HW119850   3.853   4.294   7.130 -0.0622  1.5799 -0.0839
 2797SOL    HW219851   3.954   4.254   7.037 -0.9716  0.6908 -0.6953
 2798SOL     OW19852   3.782   0.256   5.950 -0.3539 -0.0051 -0.6355
 2798SOL    HW119853   3.813   0.343   5.976 -3.1873  0.0706  2.4429
 2798SOL    HW219854   3.779   0.209   6.034 -3.8635  1.0419 -0.1883
 2799SOL     OW19855   0.797   2.680   4.066 -0.7667  0.4429 -0.0724
 2799SOL    HW119856   0.870   2.637   4.021  0.0693 -0.0702  1.7642
 2799SOL    HW219857   0.834   2.762   4.099 -1.4176 -0.5544  3.2065
 2800SOL     OW19858   4.373   2.291   9.002 -0.0562 -0.3124 -0.3422
 2800SOL    HW119859   4.393   2.345   9.078  0.4468 -1.7846  0.5902
 2800SOL    HW219860   4.377   2.198   9.028 -1.7169  0.2378  1.8643
 2801SOL     OW19861   4.139   1.577   2.515  0.1021  0.1872 -0.2592
 2801SOL    HW119862   4.193   1.632   2.458  1.7379 -2.1185 -0.9213
 2801SOL    HW219863   4.150   1.632   2.593 -0.0331 -2.9360  1.9642
 2802SOL     OW19864   2.741   1.295  11.219  0.0526 -0.4849  0.5194
 2802SOL    HW119865   2.808   1.233  11.189  2.4426  1.6570  1.4231
 2802SOL    HW219866   2.749   1.279  11.314 -0.4846 -0.5232  0.5588
 2803SOL     OW19867   3.566   0.404   6.369  0.1028  0.2768 -0.1311
 2803SOL    HW119868   3.509   0.413   6.293 -1.2082  1.0545  0.9437
 2803SOL    HW219869   3.510   0.442   6.437 -1.0124  1.1523 -1.5582
 2804SOL     OW19870   3.779   3.718  10.459 -0.0756 -0.1571  0.1640
 2804SOL    HW119871   3.687   3.724  10.485 -0.7167  2.2570 -2.6292
 2804SOL    HW219872   3.831   3.683  10.531  0.5115 -0.8653 -0.5995
 2805SOL     OW19873   0.880   4.174  17.472  0.1410 -0.0528 -0.6592
 2805SOL    HW119874   0.825   4.247  17.444 -0.3702  0.3189  1.2995
 2805SOL    HW219875   0.929   4.197  17.551 -0.8904 -0.9544  0.2419
 2806SOL     OW19876   4.123   2.796   2.399 -0.3945 -0.3143 -0.2605
 2806SOL    HW119877   4.085   2.776   2.314  3.1297  1.3092 -2.2207
 2806SOL    HW219878   4.118   2.891   2.406  2.6240 -0.0255 -1.7713
 2807SOL     OW19879   2.652   1.437   8.440 -0.3641  0.5972  0.4683
 2807SOL    HW119880   2.601   1.430   8.520 -1.3907  1.2453 -0.1303
 2807SOL    HW219881   2.692   1.523   8.451  1.1068 -0.0690  0.4098
 2808SOL     OW19882   3.824   0.192  14.753  0.7234  0.7812 -0.1436
 2808SOL    HW119883   3.912   0.158  14.768  0.0752 -0.8077  0.1632
 2808SOL    HW219884   3.808   0.162  14.663 -1.0158 -0.1839  0.4917
 2809SOL     OW19885   1.447   0.119  12.980 -0.1081  0.3444  0.3264
 2809SOL    HW119886   1.517   0.058  12.958 -1.6946 -1.6675  0.9314
 2809SOL    HW219887   1.437   0.168  12.898  0.6704  0.0196  0.0305
 2810SOL     OW19888   1.412   2.610   1.079 -0.4163  0.2309  0.4775
 2810SOL    HW119889   1.449   2.653   1.156  0.7867  0.7838 -0.4079
 2810SOL    HW219890   1.420   2.675   1.010 -0.3169 -0.7818 -0.4698
 2811SOL     OW19891   0.813   0.525   8.010  0.2435 -0.2279 -0.6867
 2811SOL    HW119892   0.899   0.509   7.969  0.0554 -0.4224 -1.0094
 2811SOL    HW219893   0.778   0.604   7.969 -1.3708  1.2271  3.4726
 2812SOL     OW19894   2.856   2.537   7.204 -0.3089 -0.0996 -0.0025
 2812SOL    HW119895   2.911   2.581   7.269 -0.6080 -0.2490  0.3525
 2812SOL    HW219896   2.918   2.497   7.143 -1.2455 -0.5033 -0.6855
 2813SOL     OW19897   0.386   1.614  12.280 -0.3531  0.4963  0.3134
 2813SOL    HW119898   0.359   1.557  12.352  0.4829 -0.9493 -0.5054
 2813SOL    HW219899   0.314   1.676  12.267 -1.0789 -0.0262  1.9054
 2814SOL     OW19900   2.263   3.583   4.269 -0.3375  0.5952 -0.2288
 2814SOL    HW119901   2.352   3.621   4.272  0.0471 -0.3528  0.3140
 2814SOL    HW219902   2.274   3.521   4.341  0.3614  1.2833  0.2658
 2815SOL     OW19903   0.053   1.239  15.122  0.4922  0.6706 -0.1231
 2815SOL    HW119904   0.105   1.197  15.190 -0.0119  0.7162  0.2907
 2815SOL    HW219905   0.113   1.309  15.094  1.7814  0.2040  1.4899
 2816SOL     OW19906   0.943   1.720  16.821  0.5447 -0.4779  1.1200
 2816SOL    HW119907   0.892   1.741  16.899 -1.1413  0.5461 -0.2534
 2816SOL    HW219908   0.876   1.738  16.756  2.3313  1.6507 -0.1514
 2817SOL     OW19909   2.658   1.778   9.878 -0.0291 -0.0870  0.3114
 2817SOL    HW119910   2.725   1.810   9.817 -0.1292  1.0530  0.8021
 2817SOL    HW219911   2.700   1.695   9.903  1.6577  0.3637 -0.9870
 2818SOL     OW19912   2.049   1.305   4.292 -0.1726  0.0976 -0.1876
 2818SOL    HW119913   1.971   1.285   4.241  0.8703 -1.1134 -1.3110
 2818SOL    HW219914   2.112   1.270   4.229  2.1580  1.1904  1.5096
 2819SOL     OW19915   3.674   0.149   8.614  0.3864 -0.2515  0.4894
 2819SOL    HW119916   3.624   0.072   8.642  0.4282  0.4489  2.4897
 2819SOL    HW219917   3.640   0.219   8.671  1.1130 -0.2349  0.9040
 2820SOL     OW19918   0.469   1.794  10.782 -0.0741 -0.0793 -0.9261
 2820SOL    HW119919   0.527   1.858  10.740  1.1723  0.5742  1.8024
 2820SOL    HW219920   0.442   1.847  10.857  1.6437  0.0334 -0.3950
 2821SOL     OW19921   2.864   2.487  12.991 -0.1237 -0.3168 -0.1379
 2821SOL    HW119922   2.818   2.554  12.941 -0.6889 -1.2721 -0.8985
 2821SOL    HW219923   2.866   2.525  13.079  0.1920 -1.0975  0.1937
 2822SOL     OW19924   2.493   4.261  12.859  0.3957 -0.4129  0.5136
 2822SOL    HW119925   2.463   4.226  12.776  2.4784  1.8210 -1.1734
 2822SOL    HW219926   2.581   4.287  12.832  0.9534 -0.2830  2.4261
 2823SOL     OW19927   1.268   0.122  17.110  0.1717  0.4366  0.6707
 2823SOL    HW119928   1.351   0.159  17.080 -1.5982  1.0577 -3.4521
 2823SOL    HW219929   1.280   0.123  17.205  0.8637  1.2956  0.5750
 2824SOL     OW19930   4.321   2.010   9.817 -0.1231 -0.3986 -0.1277
 2824SOL    HW119931   4.380   1.946   9.778 -0.3667 -0.3706 -0.5335
 2824SOL    HW219932   4.373   2.049   9.888 -2.3206  3.3774 -0.6154
 2825SOL     OW19933   4.268   0.567   3.645 -0.3022  0.1243  0.3438
 2825SOL    HW119934   4.205   0.523   3.588  1.2075 -0.5028 -0.8415
 2825SOL    HW219935   4.333   0.499   3.661 -0.9927 -0.5739  0.2310
 2826SOL     OW19936   2.516   3.145   6.893  0.4808 -0.7191 -0.2938
 2826SOL    HW119937   2.505   3.050   6.896  0.8966 -0.6678  2.2302
 2826SOL    HW219938   2.506   3.161   6.986 -2.2220 -1.2921 -0.4866
 2827SOL     OW19939   2.193   1.439  12.830 -0.3571 -0.1490  0.7844
 2827SOL    HW119940   2.148   1.444  12.745  0.1122 -1.1046  0.4756
 2827SOL    HW219941   2.149   1.499  12.889 -0.3652  1.4794 -0.8932
 2828SOL     OW19942   2.222   1.872  11.065  0.2811 -0.4637  0.2128
 2828SOL    HW119943   2.270   1.791  11.079  2.3746  0.4984 -1.3058
 2828SOL    HW219944   2.282   1.941  11.094 -0.1034  0.6976 -1.8002
 2829SOL     OW19945   3.102   2.366  15.700 -0.3219 -0.2450  0.5630
 2829SOL    HW119946   3.151   2.300  15.750 -0.6681  0.4497  1.8303
 2829SOL    HW219947   3.071   2.310  15.629 -0.4220  0.4095  0.0942
 2830SOL     OW19948   0.604   1.612   6.232  0.6316  0.4399  0.0705
 2830SOL    HW119949   0.539   1.674   6.201 -0.4942 -0.0010  1.5015
 2830SOL    HW219950   0.558   1.530   6.251  0.7453  0.6904  1.4757
 2831SOL     OW19951   4.250   1.782   3.428  0.3133  0.4202 -0.1522
 2831SOL    HW119952   4.217   1.871   3.414 -0.7792 -0.1614 -1.2648
 2831SOL    HW219953   4.332   1.783   3.477 -0.8312 -0.4168  1.7838
 2832SOL     OW19954   1.713   1.825  11.950  0.4553  0.6908  0.1192
 2832SOL    HW119955   1.621   1.847  11.936  0.4885 -0.5018 -1.8266
 2832SOL    HW219956   1.729   1.843  12.043 -1.8867 -1.3165  0.9363
 2833SOL     OW19957   2.494   1.980  12.417 -0.1271 -0.0848 -0.5008
 2833SOL    HW119958   2.457   2.043  12.478  2.2804 -0.1532  0.9944
 2833SOL    HW219959   2.539   1.913  12.468 -0.0365  0.5650  0.2601
 2834SOL     OW19960   1.056   0.141   2.669  0.8181  0.0946 -0.3818
 2834SOL    HW119961   1.006   0.072   2.713 -1.5139  1.2104 -1.2793
 2834SOL    HW219962   0.993   0.172   2.604  0.1939 -1.4365 -0.5111
 2835SOL     OW19963   0.961   0.079  12.523  0.7021 -0.6311 -0.3238
 2835SOL    HW119964   0.881   0.130  12.516  1.4096  0.6729  1.1377
 2835SOL    HW219965   0.936   0.017  12.591  0.0292 -0.6883 -0.6227
 2836SOL     OW19966   3.781   2.901   0.265 -0.1685  0.0188 -0.4201
 2836SOL    HW119967   3.692   2.871   0.245 -0.2528  1.3769 -2.1033
 2836SOL    HW219968   3.812   2.924   0.177  1.2160  0.1033  0.0970
 2837SOL     OW19969   0.451   4.524   5.990 -0.2722 -0.2694 -0.1785
 2837SOL    HW119970   0.492   4.460   6.048 -1.7365  0.0607  1.2470
 2837SOL    HW219971   0.412   4.578   6.059  0.1558  0.2561 -0.3453
 2838SOL     OW19972   1.295   1.465   2.854 -0.1856 -0.3073  0.4533
 2838SOL    HW119973   1.312   1.403   2.925  0.3292  1.3482  1.7885
 2838SOL    HW219974   1.235   1.522   2.901 -1.3013 -1.2181  0.1320
 2839SOL     OW19975   3.584   2.269   1.391 -0.1984  0.1119  0.5130
 2839SOL    HW119976   3.599   2.276   1.485 -0.4819 -0.2720  0.5888
 2839SOL    HW219977   3.489   2.262   1.387  0.0279 -1.7043 -1.7379
 2840SOL     OW19978   3.560   3.364   0.056  0.0807  0.1312 -0.3521
 2840SOL    HW119979   3.640   3.318   0.080 -0.7928 -1.1707  0.0720
 2840SOL    HW219980   3.593   3.453   0.068  0.3585  0.1867 -1.4778
 2841SOL     OW19981   4.317   2.251  14.718  0.5328  0.4927  0.3295
 2841SOL    HW119982   4.327   2.156  14.719  0.6697  0.4816 -1.5854
 2841SOL    HW219983   4.229   2.264  14.684 -0.2904 -2.0716  1.4912
 2842SOL     OW19984   3.849   3.444  12.138  0.2136  0.2248 -0.5521
 2842SOL    HW119985   3.813   3.533  12.137  1.6264  0.8203  1.4522
 2842SOL    HW219986   3.828   3.406  12.223 -0.1581  0.6756 -0.4408
 2843SOL     OW19987   0.831   4.137   0.633  0.1237  0.2609  0.0531
 2843SOL    HW119988   0.911   4.084   0.628 -0.1480  0.1612 -3.1547
 2843SOL    HW219989   0.867   4.218   0.598 -2.4895  2.4150  2.4268
 2844SOL     OW19990   3.136   3.518   4.044 -0.2375  0.0191  0.2083
 2844SOL    HW119991   3.146   3.534   4.138 -0.2693 -1.7787  0.5096
 2844SOL    HW219992   3.040   3.523   4.042 -0.1378  1.7702 -0.3664
 2845SOL     OW19993   0.276   2.201  11.351  0.1316  0.3620 -0.4536
 2845SOL    HW119994   0.343   2.266  11.332  0.3364 -0.2793 -1.9181
 2845SOL    HW219995   0.269   2.223  11.444  1.4758  1.7264 -0.6783
 2846SOL     OW19996   1.392   0.630  17.561 -0.4561  0.2320  0.2294
 2846SOL    HW119997   1.353   0.570  17.498 -0.7575  0.9156 -0.2375
 2846SOL    HW219998   1.486   0.616  17.557 -0.7688 -1.6583 -0.2778
 2847SOL     OW19999   2.054   3.908   2.871  0.0186 -0.4458  0.3988
 2847SOL    HW120000   2.112   3.958   2.929  0.9048 -2.1161  0.9501
 2847SOL    HW220001   2.092   3.820   2.880  2.0726  0.5669  1.5270
 2848SOL     OW20002   2.238   2.153   5.538 -0.9321 -0.0687  0.0118
 2848SOL    HW120003   2.311   2.214   5.526 -2.2678  1.7358  1.0339
 2848SOL    HW220004   2.197   2.195   5.614 -2.2632  0.9050 -1.2275
 2849SOL     OW20005   2.481   0.918  12.572 -0.7122  0.9014  0.2381
 2849SOL    HW120006   2.499   0.826  12.591 -0.8785  0.5157 -1.4868
 2849SOL    HW220007   2.551   0.964  12.620 -2.7911  2.5843  1.6401
 2850SOL     OW20008   0.714   2.438   4.187 -0.2809  0.3691 -0.0390
 2850SOL    HW120009   0.729   2.532   4.181  0.4600  0.2417 -0.1205
 2850SOL    HW220010   0.646   2.442   4.255  0.5508 -0.7118  0.8465
 2851SOL     OW20011   0.177   2.097   5.806 -0.2836  0.0832 -0.0374
 2851SOL    HW120012   0.086   2.066   5.802 -0.1112 -0.5561  0.9451
 2851SOL    HW220013   0.223   2.017   5.831 -0.9943 -0.1118  0.6610
 2852SOL     OW20014   4.283   1.180   8.495  0.2107 -0.1137 -0.3405
 2852SOL    HW120015   4.253   1.219   8.414 -1.1624 -0.8437 -0.1794
 2852SOL    HW220016   4.232   1.229   8.559  0.2880 -0.7014  0.1770
 2853SOL     OW20017   4.052   1.120   3.354 -0.2937 -0.3660  0.2424
 2853SOL    HW120018   4.047   1.026   3.372  0.9713 -0.4938 -0.0810
 2853SOL    HW220019   4.110   1.153   3.422  0.2743 -3.6235  1.3342
 2854SOL     OW20020   2.123   4.007  14.795 -0.6034  0.6893 -0.4962
 2854SOL    HW120021   2.091   4.058  14.870 -1.4704  0.3637 -0.6396
 2854SOL    HW220022   2.216   3.996  14.814 -0.2675  1.6527 -1.5512
 2855SOL     OW20023   1.173   4.424   4.355 -0.0106  0.6184  0.1522
 2855SOL    HW120024   1.184   4.352   4.416 -2.7964 -0.5014 -0.6629
 2855SOL    HW220025   1.079   4.439   4.366 -0.9152 -2.0098 -3.6946
 2856SOL     OW20026   1.173   3.579   3.866 -0.2426 -0.1785  0.4039
 2856SOL    HW120027   1.105   3.569   3.933 -1.1701  2.1308 -0.1802
 2856SOL    HW220028   1.118   3.606   3.792  0.8639  1.4651  0.1880
 2857SOL     OW20029   1.471   1.888   8.958  0.4786  0.5137 -0.4191
 2857SOL    HW120030   1.411   1.814   8.949 -0.0261  0.8260  0.4388
 2857SOL    HW220031   1.446   1.915   9.046 -0.4251 -0.1866 -0.4620
 2858SOL     OW20032   0.321   1.565   3.040  0.1530  0.1417  0.3838
 2858SOL    HW120033   0.248   1.567   3.102 -0.2755  0.3228 -0.1192
 2858SOL    HW220034   0.334   1.657   3.017 -0.9064  0.1051 -0.3501
 2859SOL     OW20035   3.366   1.326   4.935 -0.1694 -0.2038  0.3405
 2859SOL    HW120036   3.346   1.361   5.022 -0.8299 -1.3749  0.6581
 2859SOL    HW220037   3.275   1.308   4.911  0.0070  0.5565 -0.9376
 2860SOL     OW20038   0.345   1.696  17.679 -0.2669 -0.0972  0.2919
 2860SOL    HW120039   0.308   1.783  17.669  0.8100  0.0999 -1.9565
 2860SOL    HW220040   0.330   1.689   0.089 -0.8073  1.4155  0.3157
 2861SOL     OW20041   0.147   0.037   4.551  0.2079 -1.4331  0.4187
 2861SOL    HW120042   0.155   0.050   4.456  0.0329  1.5733  0.8172
 2861SOL    HW220043   0.137   4.663   4.562 -2.8993 -1.2768 -1.2438
 2862SOL     OW20044   3.120   4.457   0.257 -0.1608 -0.9214 -0.2155
 2862SOL    HW120045   3.214   4.478   0.262 -1.0023  2.4712  1.1521
 2862SOL    HW220046   3.095   4.502   0.176  0.5779  0.4867  0.3372
 2863SOL     OW20047   2.094   2.406   5.531  0.3641  0.6870 -0.5000
 2863SOL    HW120048   2.185   2.392   5.554 -0.2763  0.0481  1.6707
 2863SOL    HW220049   2.061   2.393   5.620  3.6056  1.5358  0.8195
 2864SOL     OW20050   0.612   1.172   0.054 -0.5225 -0.3155  0.3971
 2864SOL    HW120051   0.543   1.153   0.118 -0.1053  0.9284  1.2346
 2864SOL    HW220052   0.559   1.203  17.665 -0.9714 -1.8304  0.0908
 2865SOL     OW20053   1.609   0.227   5.510 -0.1598 -0.1612  0.4180
 2865SOL    HW120054   1.627   0.311   5.551 -3.8459  1.3051 -1.0276
 2865SOL    HW220055   1.683   0.229   5.450 -1.5188 -0.6687 -1.2567
 2866SOL     OW20056   1.228   4.273  15.762 -0.1094  0.6244 -0.0127
 2866SOL    HW120057   1.246   4.364  15.742  0.2140  0.6158  0.2300
 2866SOL    HW220058   1.139   4.254  15.730  0.6557 -0.2565 -1.5883
 2867SOL     OW20059   0.947   3.885   1.073  0.5268  0.5235 -0.3086
 2867SOL    HW120060   1.024   3.853   1.025 -0.1311 -1.1809 -0.2124
 2867SOL    HW220061   0.970   3.856   1.161  0.7404  0.3572 -0.4177
 2868SOL     OW20062   3.228   0.257   4.023  0.7428 -0.2930  0.3243
 2868SOL    HW120063   3.292   0.277   4.092  0.6234  0.0067  0.3494
 2868SOL    HW220064   3.176   0.337   4.029 -0.4322 -1.1047  0.9380
 2869SOL     OW20065   3.248   2.583  10.031 -0.5736 -0.6828 -0.0684
 2869SOL    HW120066   3.175   2.528  10.003 -0.4450 -2.0331  2.2355
 2869SOL    HW220067   3.292   2.611   9.951  0.8486 -2.3077  0.1279
 2870SOL     OW20068   1.266   3.519   0.054 -0.0140 -0.1302 -0.5012
 2870SOL    HW120069   1.230   3.584  17.678  0.8561  0.4945 -0.3499
 2870SOL    HW220070   1.192   3.518   0.114  0.8856  0.4699  0.6139
 2871SOL     OW20071   0.620   0.808   5.639  0.4038 -0.8860  0.4764
 2871SOL    HW120072   0.716   0.814   5.637  0.1571  2.1255 -2.3445
 2871SOL    HW220073   0.601   0.796   5.732  0.2621  0.5113  0.6221
 2872SOL     OW20074   3.035   2.643   2.172  0.5056 -0.9073  0.4990
 2872SOL    HW120075   3.025   2.734   2.146  0.0472 -0.7575  1.2101
 2872SOL    HW220076   2.948   2.603   2.176 -0.3298  0.9424  0.5718
 2873SOL     OW20077   2.659   3.794  15.779 -0.4333 -0.3896  0.4546
 2873SOL    HW120078   2.684   3.796  15.686 -1.9161 -2.9667 -0.0016
 2873SOL    HW220079   2.578   3.844  15.772 -0.4070 -0.2605  1.0928
 2874SOL     OW20080   4.544   4.597  17.097 -0.1393 -0.6495  0.4030
 2874SOL    HW120081   4.592   4.564  17.173 -2.5420 -0.8189  1.8583
 2874SOL    HW220082   4.499   4.674  17.132  0.5694  0.4542 -1.1436
 2875SOL     OW20083   3.254   1.201   0.700 -0.1940 -0.6705 -0.4562
 2875SOL    HW120084   3.290   1.229   0.616  0.4197 -1.0813 -0.3309
 2875SOL    HW220085   3.169   1.244   0.692 -0.4692 -1.2913 -0.8789
 2876SOL     OW20086   4.595   0.525   6.050  0.1824 -0.2577  1.0085
 2876SOL    HW120087   4.640   0.442   6.067 -0.7250 -0.0570  4.3318
 2876SOL    HW220088   4.567   0.516   5.959  1.0755  0.9895  0.6090
 2877SOL     OW20089   4.633   1.161   3.587  0.0402 -0.3282  0.3797
 2877SOL    HW120090   4.550   1.193   3.551  0.0985  0.0492  0.5824
 2877SOL    HW220091   4.617   1.189   3.677 -0.4816 -1.4157  0.6269
 2878SOL     OW20092   4.090   3.936   0.446  0.0454  0.2210 -0.3067
 2878SOL    HW120093   4.083   3.854   0.396  0.0625  1.4307 -2.2901
 2878SOL    HW220094   4.032   3.920   0.520 -0.5159 -2.1945 -1.2610
 2879SOL     OW20095   2.274   0.729   2.817  0.2064  0.1857 -0.1849
 2879SOL    HW120096   2.299   0.674   2.743  2.8050  0.1198  0.7646
 2879SOL    HW220097   2.363   0.747   2.845  0.4770 -1.8609  0.2279
 2880SOL     OW20098   4.287   4.562  11.085 -0.0236 -0.1227 -0.5115
 2880SOL    HW120099   4.379   4.535  11.081  0.2807  0.8042  0.2306
 2880SOL    HW220100   4.273   4.571  11.179 -0.8919  1.3736 -0.7842
 2881SOL     OW20101   2.507   4.535   3.703 -0.1013 -0.0858  0.2693
 2881SOL    HW120102   2.450   4.587   3.645  1.0821 -0.4301 -1.2044
 2881SOL    HW220103   2.583   4.573   3.660 -0.4610 -0.7762 -1.0063
 2882SOL     OW20104   1.718   1.593   7.018 -0.0148  0.1363 -0.1729
 2882SOL    HW120105   1.688   1.649   7.090  0.2664 -0.3285  0.3096
 2882SOL    HW220106   1.809   1.620   7.009 -0.4476  1.1262 -1.5179
 2883SOL     OW20107   0.343   2.071  15.139  0.0832 -0.4752  0.6504
 2883SOL    HW120108   0.266   2.121  15.114  0.1914  0.0432  1.3369
 2883SOL    HW220109   0.311   2.054  15.228 -2.1428  2.2377  0.3345
 2884SOL     OW20110   0.676   2.993   0.089  0.2641 -0.1226  0.5458
 2884SOL    HW120111   0.615   2.920   0.083 -0.2027  0.3707 -0.7901
 2884SOL    HW220112   0.662   3.035   0.004  1.4612 -2.3774 -0.7496
 2885SOL     OW20113   1.188   1.507  11.904 -0.4934  0.0107  0.1879
 2885SOL    HW120114   1.235   1.540  11.980  1.1869  0.1473 -0.9246
 2885SOL    HW220115   1.097   1.526  11.928 -0.0777  2.7436 -0.4316
 2886SOL     OW20116   1.502   0.455  15.874 -0.0606 -0.0836 -0.0231
 2886SOL    HW120117   1.593   0.465  15.901 -0.1011  0.1357  0.0295
 2886SOL    HW220118   1.500   0.487  15.784 -1.3944 -0.5445 -0.1709
 2887SOL     OW20119   3.043   1.959   3.032  0.2359 -0.6058  0.2529
 2887SOL    HW120120   2.970   1.932   3.088  0.7387 -3.4319 -0.4161
 2887SOL    HW220121   3.038   2.052   3.014  2.8921 -0.3553  0.7140
 2888SOL     OW20122   1.346   1.137   8.905 -0.2211 -1.1945  0.2020
 2888SOL    HW120123   1.387   1.098   8.828 -2.5761 -0.7922 -1.2727
 2888SOL    HW220124   1.256   1.106   8.890 -0.6739  0.6387 -0.8320
 2889SOL     OW20125   4.006   3.348   1.291 -0.3028  0.2981 -0.2809
 2889SOL    HW120126   3.953   3.294   1.232  0.8680 -0.6709 -0.4351
 2889SOL    HW220127   3.939   3.379   1.351  1.7352  1.4288  1.3810
 2890SOL     OW20128   0.245   1.539   7.130 -0.1212 -0.2209 -0.1137
 2890SOL    HW120129   0.169   1.528   7.072 -0.0317 -2.4650  0.2164
 2890SOL    HW220130   0.206   1.536   7.217  2.0050 -0.1655  0.8264
 2891SOL     OW20131   0.792   3.266   4.972 -0.3541  0.6735  0.2529
 2891SOL    HW120132   0.863   3.255   5.035 -0.9957 -0.4663  0.7745
 2891SOL    HW220133   0.707   3.264   5.016 -1.1177  0.6100 -1.2427
 2892SOL     OW20134   3.793   4.182   9.318 -0.5233  0.3829 -0.0895
 2892SOL    HW120135   3.851   4.112   9.348  0.8253  0.7827 -1.7715
 2892SOL    HW220136   3.726   4.189   9.386 -1.5349 -1.4187 -0.8717
 2893SOL     OW20137   4.459   4.562  10.619 -0.2137  0.0426  0.4891
 2893SOL    HW120138   4.460   4.468  10.633 -0.7347 -0.1270 -0.6761
 2893SOL    HW220139   4.533   4.587  10.674  0.9119 -2.5786  0.1362
 2894SOL     OW20140   0.615   4.680   7.527  0.4388 -0.9068  0.0194
 2894SOL    HW120141   0.604   0.016   7.451  0.0465 -1.3503 -0.2559
 2894SOL    HW220142   0.678   0.009   7.579 -2.0699  1.4071  0.8347
 2895SOL     OW20143   3.906   1.756  12.033 -0.4111  0.0048 -0.3120
 2895SOL    HW120144   3.984   1.728  12.082 -0.7407  0.4315  0.4623
 2895SOL    HW220145   3.854   1.681  12.061  0.4666  0.3108  2.1423
 2896SOL     OW20146   1.294   2.207   9.460 -0.3606  0.5616  0.4035
 2896SOL    HW120147   1.269   2.271   9.526  1.7078  1.4455  0.3317
 2896SOL    HW220148   1.310   2.266   9.386  1.2569  0.0512  0.3531
 2897SOL     OW20149   2.376   1.849   5.366 -0.2885 -0.0777  0.3434
 2897SOL    HW120150   2.408   1.904   5.438 -0.9591  1.6146 -0.6383
 2897SOL    HW220151   2.380   1.758   5.396  0.3180  0.5517  2.1267
 2898SOL     OW20152   2.155   0.710  17.634 -0.0837  0.1824 -0.4192
 2898SOL    HW120153   2.198   0.688   0.032 -0.0289  1.8235 -0.0094
 2898SOL    HW220154   2.074   0.659  17.637 -0.3800  0.6266 -0.7592
 2899SOL     OW20155   0.449   1.570  15.837  0.0753 -0.1631 -0.2361
 2899SOL    HW120156   0.520   1.599  15.779  0.3809 -0.9755 -0.2733
 2899SOL    HW220157   0.391   1.535  15.770 -0.3679 -0.8085  0.4732
 2900SOL     OW20158   2.209   0.543   5.494  0.3994  0.4923  0.1906
 2900SOL    HW120159   2.222   0.456   5.530 -4.4888 -0.6372 -0.8059
 2900SOL    HW220160   2.213   0.517   5.402  2.2819  0.7013  0.1940
 2901SOL     OW20161   0.838   3.720   2.160 -0.2776 -0.8138  0.5653
 2901SOL    HW120162   0.803   3.737   2.072 -1.1798 -1.2520  0.8412
 2901SOL    HW220163   0.789   3.643   2.188 -3.4212  0.7081 -0.6607
 2902SOL     OW20164   1.982   1.922   3.827  0.3587  0.0142 -0.8884
 2902SOL    HW120165   1.951   2.007   3.796 -1.3350 -0.0420  0.6893
 2902SOL    HW220166   2.077   1.933   3.818  0.3423  0.8776 -0.0643
 2903SOL     OW20167   0.253   3.832   1.959  0.5082  0.1181  0.3991
 2903SOL    HW120168   0.278   3.864   2.046 -0.1597  0.1416  0.5842
 2903SOL    HW220169   0.192   3.763   1.986 -0.9416  1.3935  0.4133
 2904SOL     OW20170   0.761   3.446   2.171  0.0879  0.0387 -0.3447
 2904SOL    HW120171   0.714   3.431   2.254  1.7808 -0.0660  0.5826
 2904SOL    HW220172   0.729   3.359   2.148 -1.4931  0.7952 -0.9922
 2905SOL     OW20173   3.549   2.926  10.722  0.1886  0.3994 -0.0979
 2905SOL    HW120174   3.588   2.904  10.637 -1.3370 -0.1868 -0.6399
 2905SOL    HW220175   3.454   2.917  10.711  0.0842  1.4002 -0.0444
 2906SOL     OW20176   3.262   0.539   7.381  0.6707 -0.3899  0.1433
 2906SOL    HW120177   3.231   0.453   7.352 -0.5452  0.2329 -0.3915
 2906SOL    HW220178   3.341   0.514   7.430  1.4670 -0.6406 -1.2417
 2907SOL     OW20179   1.262   0.724   5.330  0.0531  0.1135 -0.7074
 2907SOL    HW120180   1.345   0.680   5.315 -0.4403 -1.0994  0.1389
 2907SOL    HW220181   1.302   0.787   5.390  0.9189  0.2551 -1.4386
 2908SOL     OW20182   1.827   1.100   0.891 -0.1192 -0.3483  0.2190
 2908SOL    HW120183   1.790   1.179   0.852 -1.6547 -0.7362  0.8891
 2908SOL    HW220184   1.752   1.043   0.902 -0.8788  0.3512 -1.3175
 2909SOL     OW20185   2.590   3.196  16.703 -0.4438  0.4749 -0.2338
 2909SOL    HW120186   2.614   3.245  16.782 -0.6778 -0.2898  0.3231
 2909SOL    HW220187   2.621   3.109  16.729 -5.2592 -0.7220  1.6277
 2910SOL     OW20188   2.172   4.099   3.693  0.3131  0.2728  0.2167
 2910SOL    HW120189   2.116   4.171   3.665 -0.8587 -0.6378  0.2332
 2910SOL    HW220190   2.133   4.023   3.651  0.0759  0.4125  0.1868
 2911SOL     OW20191   1.583   1.222   4.598 -0.1028 -0.1105 -0.6510
 2911SOL    HW120192   1.568   1.292   4.535  0.4729 -0.1635 -0.8448
 2911SOL    HW220193   1.628   1.160   4.541  0.7183  0.2386 -0.3853
 2912SOL     OW20194   1.037   1.278   8.150  0.2966  0.7655 -0.3791
 2912SOL    HW120195   0.982   1.348   8.185 -0.0371  0.1502  0.3263
 2912SOL    HW220196   1.096   1.277   8.225  0.4034 -0.1459 -0.4780
 2913SOL     OW20197   2.983   0.963   8.875 -0.0526 -0.1536  0.7233
 2913SOL    HW120198   2.996   0.921   8.790 -0.9118  4.1113 -1.4909
 2913SOL    HW220199   2.904   1.015   8.856  0.3229 -0.3828 -1.4403
 2914SOL     OW20200   0.757   1.718  15.738  0.2508  0.5007  0.2800
 2914SOL    HW120201   0.718   1.797  15.775 -1.3594  0.0176 -0.3765
 2914SOL    HW220202   0.727   1.727  15.647 -3.1543 -3.1322  1.0428
 2915SOL     OW20203   3.185   3.637   2.595 -0.5129  0.5197  0.0952
 2915SOL    HW120204   3.240   3.583   2.539 -1.3163 -1.9126  1.6291
 2915SOL    HW220205   3.161   3.704   2.531 -1.5634  1.0626  1.0564
 2916SOL     OW20206   4.165   4.406   7.633 -0.3985  0.2159 -0.0457
 2916SOL    HW120207   4.180   4.460   7.556  0.8427 -0.0699 -0.0033
 2916SOL    HW220208   4.076   4.373   7.619  1.2645 -4.5732  0.7673
 2917SOL     OW20209   0.289   3.483   7.618  0.6540  0.0896 -0.4307
 2917SOL    HW120210   0.334   3.478   7.534  1.3100  2.2439 -0.2002
 2917SOL    HW220211   0.209   3.435   7.597  1.0743 -0.5748 -0.5029
 2918SOL     OW20212   0.328   3.239   6.102  0.0086 -0.4914  0.2212
 2918SOL    HW120213   0.418   3.208   6.090  0.7117  1.8209 -0.3982
 2918SOL    HW220214   0.296   3.245   6.011  0.6336 -1.9360 -0.1011
 2919SOL     OW20215   1.185   3.807   1.273 -0.1452 -0.3369  0.0512
 2919SOL    HW120216   1.116   3.742   1.260  0.6863 -0.9832 -1.2139
 2919SOL    HW220217   1.250   3.791   1.204  0.3397 -2.8499  1.0710
 2920SOL     OW20218   3.632   2.007   9.120 -0.6295  0.2938  0.4023
 2920SOL    HW120219   3.581   1.926   9.115 -1.0500  0.6235 -0.5018
 2920SOL    HW220220   3.664   2.003   9.210  2.8984 -2.1985 -0.9751
 2921SOL     OW20221   4.650   1.977  13.957 -0.0188 -0.7911  0.5054
 2921SOL    HW120222   4.705   2.050  13.984  0.8461 -1.1568 -0.2694
 2921SOL    HW220223   4.562   2.006  13.983  0.2648  0.0852  0.4822
 2922SOL     OW20224   0.198   0.280   3.763  0.2102  0.2209  0.4872
 2922SOL    HW120225   0.285   0.245   3.782  0.2127 -0.7343 -1.2070
 2922SOL    HW220226   0.191   0.356   3.820 -1.4976 -1.1192  2.0556
 2923SOL     OW20227   2.103   2.747   3.942 -0.4679 -0.5769  0.4923
 2923SOL    HW120228   2.067   2.691   4.011 -3.1596 -1.4406 -1.6041
 2923SOL    HW220229   2.041   2.820   3.933  1.1013  0.6565 -0.1790
 2924SOL     OW20230   1.100   0.787   6.275 -0.1632 -0.1391 -0.3820
 2924SOL    HW120231   1.107   0.844   6.352  0.2299  0.1994 -0.6616
 2924SOL    HW220232   1.007   0.774   6.259  0.0088  0.1569 -1.6411
 2925SOL     OW20233   2.550   1.341   9.215  0.3493 -0.4173  0.8335
 2925SOL    HW120234   2.531   1.391   9.294 -1.9950 -2.8590  1.8221
 2925SOL    HW220235   2.536   1.252   9.246 -1.0163 -0.7116 -0.6538
 2926SOL     OW20236   2.011   0.371   5.996 -0.1814 -0.1172 -0.1701
 2926SOL    HW120237   1.992   0.405   5.908  0.0122 -1.3896 -0.6945
 2926SOL    HW220238   1.977   0.440   6.054  0.9862 -0.6491  1.1314
 2927SOL     OW20239   0.039   0.387  15.946 -0.0118  0.9030  0.2302
 2927SOL    HW120240   0.112   0.393  16.007 -0.5174  0.4252  0.8831
 2927SOL    HW220241   0.034   0.482  15.933 -1.5520  0.8280  0.3302
 2928SOL     OW20242   0.770   1.691   8.401  0.2821  0.4894  0.4298
 2928SOL    HW120243   0.741   1.754   8.335 -2.1136 -0.6705  0.3539
 2928SOL    HW220244   0.825   1.740   8.461  3.0503  0.2537 -1.8906
 2929SOL     OW20245   2.683   2.646  12.821 -0.4506 -0.2498  0.2536
 2929SOL    HW120246   2.624   2.617  12.751 -0.3212  0.4752 -0.1519
 2929SOL    HW220247   2.688   2.741  12.810 -0.9123 -0.3942 -1.2091
 2930SOL     OW20248   3.929   3.795   2.866 -0.0110 -0.3781  0.4374
 2930SOL    HW120249   3.946   3.748   2.947  0.1040  1.1202  1.2816
 2930SOL    HW220250   3.876   3.729   2.823 -0.4948  1.1118 -1.2532
 2931SOL     OW20251   2.353   1.134  10.915  0.6954 -0.1569  0.1596
 2931SOL    HW120252   2.405   1.054  10.924  1.6369  0.0378 -3.7838
 2931SOL    HW220253   2.427   1.190  10.894 -0.7904  1.1665 -1.5020
 2932SOL     OW20254   1.012   2.226   5.021 -0.5613 -0.5701  0.0962
 2932SOL    HW120255   1.027   2.314   4.987  4.0620 -0.9376  1.1242
 2932SOL    HW220256   0.937   2.255   5.073 -0.3489 -0.0351  0.1122
 2933SOL     OW20257   1.276   0.854   9.930  0.1657 -0.0637  0.3635
 2933SOL    HW120258   1.289   0.799  10.007 -1.3388 -0.9920 -0.0710
 2933SOL    HW220259   1.274   0.939   9.975  0.8830  0.9877 -1.6022
 2934SOL     OW20260   2.114   3.022   8.110  0.0494  0.0521 -0.8066
 2934SOL    HW120261   2.059   3.080   8.058 -2.2496 -0.4640  1.0448
 2934SOL    HW220262   2.058   3.006   8.186 -0.6701  2.0007 -0.9253
 2935SOL     OW20263   2.559   3.403   9.845 -0.0989  0.2222 -0.2988
 2935SOL    HW120264   2.488   3.420   9.906  0.5854 -0.3462  0.6615
 2935SOL    HW220265   2.539   3.469   9.779  1.9890 -0.1460 -1.3059
 2936SOL     OW20266   1.626   1.508   2.610 -0.5673  0.5802  0.2993
 2936SOL    HW120267   1.662   1.426   2.577  0.8243  2.4126 -2.7173
 2936SOL    HW220268   1.689   1.566   2.568  2.1647 -0.8506  2.4082
 2937SOL     OW20269   0.138   1.374   3.818 -0.0911  0.2246 -0.0735
 2937SOL    HW120270   0.167   1.286   3.793  2.7405  0.4893  2.2443
 2937SOL    HW220271   0.220   1.403   3.857 -0.0452 -1.0274  0.7750
 2938SOL     OW20272   4.552   0.958   6.442  0.0261 -0.1845 -0.3897
 2938SOL    HW120273   4.577   0.896   6.372 -1.0166 -0.8840 -0.1404
 2938SOL    HW220274   4.604   0.939   6.519  0.7246 -0.7171 -0.9930
 2939SOL     OW20275   3.102   4.229   6.462  0.0731  0.5836 -0.0190
 2939SOL    HW120276   3.055   4.170   6.404 -0.7989  0.1834  1.0952
 2939SOL    HW220277   3.043   4.304   6.453  0.8740  1.1283 -0.8256
 2940SOL     OW20278   3.658   3.180   8.023 -0.0168 -0.2591  0.0233
 2940SOL    HW120279   3.709   3.125   8.082 -0.4777 -0.3755  0.3134
 2940SOL    HW220280   3.719   3.245   7.989 -0.5839  0.6410  0.7291
 2941SOL     OW20281   1.766   0.947   9.161 -0.1740 -1.1898 -0.3529
 2941SOL    HW120282   1.816   1.022   9.126 -0.1834 -1.5922 -1.2356
 2941SOL    HW220283   1.679   0.965   9.125  0.1565  1.8806  0.3878
 2942SOL     OW20284   1.907   2.793   5.853 -0.0433  0.3405 -0.1090
 2942SOL    HW120285   1.813   2.805   5.868 -0.0350 -0.8796  0.8768
 2942SOL    HW220286   1.927   2.857   5.785  2.3371 -1.2460 -0.8855
 2943SOL     OW20287   1.895   0.722   5.231  0.0716 -0.3208  0.6148
 2943SOL    HW120288   1.902   0.791   5.296  1.2755  2.0651 -2.0421
 2943SOL    HW220289   1.936   0.769   5.158  3.3394 -0.8199  2.1648
 2944SOL     OW20290   4.680   3.474  17.301  0.0809  0.3315 -0.0725
 2944SOL    HW120291   0.006   3.530  17.363  0.5483  1.0888 -1.0885
 2944SOL    HW220292   4.601   3.448  17.349 -0.8310  0.1354 -1.6664
 2945SOL     OW20293   4.020   2.348   6.771  0.3003  0.2783 -0.4181
 2945SOL    HW120294   4.076   2.421   6.744  0.2865  1.0518  1.6684
 2945SOL    HW220295   4.092   2.299   6.810 -1.2179 -1.7919 -0.2147
 2946SOL     OW20296   3.426   0.174  15.810 -0.2382 -0.7266 -0.7189
 2946SOL    HW120297   3.374   0.143  15.736  0.0993  0.0681 -1.2914
 2946SOL    HW220298   3.381   0.127  15.880 -0.6376 -0.0659 -0.5354
 2947SOL     OW20299   4.421   1.420   5.168 -0.7230 -0.3999 -0.0050
 2947SOL    HW120300   4.448   1.331   5.145  1.4157 -0.0133  1.0636
 2947SOL    HW220301   4.445   1.422   5.261 -2.8460  1.4362  0.5005
 2948SOL     OW20302   3.937   2.475   8.791  0.4979 -0.3472 -0.3816
 2948SOL    HW120303   4.025   2.505   8.814 -0.2303  0.2774  1.6040
 2948SOL    HW220304   3.873   2.531   8.836  0.6118 -0.0024 -0.6569
 2949SOL     OW20305   3.549   2.853  10.171 -0.4383  0.1968  0.0110
 2949SOL    HW120306   3.501   2.931  10.143 -1.1863  0.1603  1.2328
 2949SOL    HW220307   3.627   2.842  10.117  0.1850  1.4277  0.6644
 2950SOL     OW20308   2.710   1.227  15.395 -0.1888 -0.1428 -0.3715
 2950SOL    HW120309   2.763   1.267  15.464 -0.9700  1.0520 -0.4498
 2950SOL    HW220310   2.759   1.148  15.372 -0.7489 -0.8166  0.7612
 2951SOL     OW20311   1.389   0.981   0.482 -0.4816  0.0098  0.0913
 2951SOL    HW120312   1.350   1.042   0.544 -0.6379 -0.3064  0.3082
 2951SOL    HW220313   1.387   0.902   0.536 -0.2395 -1.2561 -1.7396
 2952SOL     OW20314   2.487   2.229   1.014  0.0733  0.4511 -0.1958
 2952SOL    HW120315   2.399   2.269   1.013 -0.7426 -1.3753 -2.8862
 2952SOL    HW220316   2.534   2.309   1.040  1.0875 -0.2625  0.1404
 2953SOL     OW20317   2.926   4.452   1.422  0.2825 -0.0842  0.0275
 2953SOL    HW120318   2.986   4.525   1.436 -1.9201  1.5003  1.2073
 2953SOL    HW220319   2.991   4.382   1.411  0.6613  0.1641  0.6534
 2954SOL     OW20320   0.890   4.455   4.061  0.3093  0.2772 -0.3721
 2954SOL    HW120321   0.821   4.403   4.020  0.6190 -1.3403  1.1776
 2954SOL    HW220322   0.845   4.481   4.141 -0.0759  1.7298 -1.0666
 2955SOL     OW20323   3.183   1.158   8.893 -0.1648 -0.4835 -0.1740
 2955SOL    HW120324   3.154   1.202   8.973 -0.3199  2.1711 -1.7087
 2955SOL    HW220325   3.115   1.090   8.884 -0.6877  0.6265 -4.5372
 2956SOL     OW20326   0.733   1.326   7.211  0.4269  0.0480  0.7032
 2956SOL    HW120327   0.650   1.366   7.237 -0.3109 -2.3617  2.0510
 2956SOL    HW220328   0.751   1.246   7.260  1.0236 -1.3082 -1.7155
 2957SOL     OW20329   2.185   4.536   4.143  0.0958 -0.5364 -0.1858
 2957SOL    HW120330   2.135   4.528   4.224 -0.4332 -1.0829 -0.5628
 2957SOL    HW220331   2.262   4.486   4.170  1.2363  1.1690 -0.2613
 2958SOL     OW20332   1.087   0.958   6.533  0.2099  0.3410 -0.0401
 2958SOL    HW120333   1.055   1.028   6.475 -1.1269 -2.4136 -2.6738
 2958SOL    HW220334   1.016   0.930   6.591  0.7070  0.2716  0.5237
 2959SOL     OW20335   1.766   0.722   2.445  0.2708  0.2984  0.0077
 2959SOL    HW120336   1.725   0.644   2.408  1.4320  0.3550 -1.3746
 2959SOL    HW220337   1.723   0.792   2.396 -1.1586 -1.6144 -1.4496
 2960SOL     OW20338   4.357   0.077  15.932  0.0808 -0.0692  0.3469
 2960SOL    HW120339   4.270   0.075  15.892  0.0111  0.0054  0.4956
 2960SOL    HW220340   4.322   0.084  16.021  0.6877  1.4957  0.4742
 2961SOL     OW20341   0.887   3.170  12.341  0.1516 -0.0446 -0.1720
 2961SOL    HW120342   0.874   3.114  12.264  1.4889  0.3121 -0.6486
 2961SOL    HW220343   0.824   3.137  12.406 -0.2147  0.2208 -0.3916
 2962SOL     OW20344   1.250   4.672   5.612  0.4035 -0.3151  0.2277
 2962SOL    HW120345   1.322   4.712   5.660 -1.2972  1.9893  0.8751
 2962SOL    HW220346   1.232   0.027   5.555 -2.0860 -0.1477  1.2510
 2963SOL     OW20347   3.325   3.086   4.161 -0.3095  0.3966 -0.3555
 2963SOL    HW120348   3.405   3.034   4.160 -0.4872  0.1244 -0.1652
 2963SOL    HW220349   3.348   3.171   4.200  1.8923 -0.2284 -0.3074
 2964SOL     OW20350   3.475   4.507   7.334  0.2045  0.2416 -0.5091
 2964SOL    HW120351   3.541   4.563   7.295  0.3500 -0.8924 -1.8885
 2964SOL    HW220352   3.418   4.568   7.380  2.1758  0.7359  1.2835
 2965SOL     OW20353   3.825   0.079   5.755 -0.8874  0.5346  0.5565
 2965SOL    HW120354   3.916   0.102   5.738 -1.3978  1.2002 -1.3078
 2965SOL    HW220355   3.790   0.155   5.802  3.1456  1.4872  1.9419
 2966SOL     OW20356   3.705   0.798  14.670 -0.0665 -0.1806 -0.5832
 2966SOL    HW120357   3.800   0.788  14.679 -0.2142  1.0492  2.4449
 2966SOL    HW220358   3.677   0.707  14.674 -1.7792  0.3228 -1.2333
 2967SOL     OW20359   2.981   1.790   4.260  0.2489  0.1846 -0.0200
 2967SOL    HW120360   2.950   1.763   4.347 -1.3643  0.8907 -0.3852
 2967SOL    HW220361   3.014   1.704   4.233 -0.2547  0.1830 -0.6370
 2968SOL     OW20362   2.865   3.631   1.360  0.7094 -0.2556  0.3881
 2968SOL    HW120363   2.798   3.606   1.424  0.7954  1.5430  1.1767
 2968SOL    HW220364   2.934   3.641   1.424  0.8062 -1.4713  0.4699
 2969SOL     OW20365   0.740   4.068   7.817  0.0306 -0.3123 -0.1118
 2969SOL    HW120366   0.667   4.129   7.822 -0.5489 -0.7083 -3.2203
 2969SOL    HW220367   0.702   4.016   7.746  0.0380  1.8483 -1.7106
 2970SOL     OW20368   4.220   0.109   2.975  0.2261 -0.4483  0.1124
 2970SOL    HW120369   4.304   0.145   2.948  0.4761 -0.6127  0.6889
 2970SOL    HW220370   4.175   0.118   2.891  0.1327 -1.6362  0.0361
 2971SOL     OW20371   2.006   1.937  11.838 -0.4853 -0.0415  0.5810
 2971SOL    HW120372   2.084   1.903  11.881 -0.1027  2.4337  1.8727
 2971SOL    HW220373   2.040   1.990  11.766 -2.3647  1.1370  0.5505
 2972SOL     OW20374   2.451   1.645   3.335 -0.3068  0.0222  0.7584
 2972SOL    HW120375   2.472   1.738   3.337 -1.0478  0.1779  1.3797
 2972SOL    HW220376   2.397   1.640   3.413 -0.3914  0.8948  0.7503
 2973SOL     OW20377   1.363   4.311   3.690 -0.6582  0.1323  0.3229
 2973SOL    HW120378   1.373   4.241   3.626  1.0707 -0.6267  1.4070
 2973SOL    HW220379   1.453   4.343   3.686 -1.1439  1.0036 -2.9468
 2974SOL     OW20380   4.468   0.416   8.987 -0.4323 -0.6000 -0.0617
 2974SOL    HW120381   4.426   0.337   9.020  3.2203 -2.6852 -0.3645
 2974SOL    HW220382   4.398   0.442   8.927 -0.1424  1.9240  0.7121
 2975SOL     OW20383   3.503   2.352   4.644  0.0808  0.6107 -0.4347
 2975SOL    HW120384   3.478   2.343   4.552  0.9375 -0.0079 -0.6066
 2975SOL    HW220385   3.429   2.403   4.677 -1.4311 -2.5438  1.1191
 2976SOL     OW20386   2.995   3.394   7.623  0.0269 -0.2133 -0.3334
 2976SOL    HW120387   3.058   3.447   7.672 -1.0126  0.4405  0.3237
 2976SOL    HW220388   2.965   3.464   7.565 -1.4323  0.5792  1.3397
 2977SOL     OW20389   1.126   2.652  15.480 -0.6925 -0.2046 -0.1147
 2977SOL    HW120390   1.079   2.712  15.421  0.8509  0.7363 -0.3872
 2977SOL    HW220391   1.167   2.714  15.540 -2.2223  1.1090 -0.4042
 2978SOL     OW20392   4.612   2.256   3.479  0.1041 -0.3091  0.7791
 2978SOL    HW120393   4.669   2.332   3.474 -0.2979 -0.0733 -0.2562
 2978SOL    HW220394   4.531   2.280   3.434 -0.6334 -1.4342  1.4929
 2979SOL     OW20395   1.612   1.614  11.589  0.6585  0.2315 -0.0005
 2979SOL    HW120396   1.686   1.627  11.530  0.1356  1.2116 -0.4418
 2979SOL    HW220397   1.659   1.587  11.668 -0.4157  0.7052  0.8089
 2980SOL     OW20398   0.423   4.026   5.486  0.0299 -0.2954  0.1953
 2980SOL    HW120399   0.384   3.953   5.534  0.2672  0.3110  1.3176
 2980SOL    HW220400   0.390   4.096   5.543 -2.4983 -0.4628 -1.0464
 2981SOL     OW20401   3.694   1.702   2.887  0.0909  0.2163  0.0588
 2981SOL    HW120402   3.662   1.670   2.971  0.4874  0.9775  0.5036
 2981SOL    HW220403   3.628   1.770   2.873  0.0915  0.9680  3.9562
 2982SOL     OW20404   1.552   2.572  15.089  0.7081  0.3800  0.1425
 2982SOL    HW120405   1.535   2.635  15.019  2.0461  0.3156 -0.2330
 2982SOL    HW220406   1.644   2.586  15.109  0.6782  1.9824 -0.8140
 2983SOL     OW20407   2.840   0.662  10.838 -0.0809  0.2717  0.3455
 2983SOL    HW120408   2.869   0.595  10.776 -0.2973  1.4163 -0.9818
 2983SOL    HW220409   2.829   0.737  10.780  2.3627  0.9789  0.7855
 2984SOL     OW20410   2.966   2.383   1.103 -0.4174  0.1281 -0.1386
 2984SOL    HW120411   2.912   2.341   1.171  0.0546  0.2640  0.3244
 2984SOL    HW220412   2.937   2.338   1.024  0.7483 -1.3892  0.2766
 2985SOL     OW20413   1.915   0.933   6.859 -0.3552 -0.3544  0.2142
 2985SOL    HW120414   1.869   0.857   6.893 -1.8873 -0.2590 -1.6033
 2985SOL    HW220415   1.998   0.926   6.905 -0.1546 -0.4423 -0.1554
 2986SOL     OW20416   3.184   0.274   8.267 -0.8592  0.3678 -0.2006
 2986SOL    HW120417   3.158   0.184   8.288 -1.2456  1.2076  2.9471
 2986SOL    HW220418   3.201   0.315   8.352  2.1853  0.8318 -1.0438
 2987SOL     OW20419   2.778   4.467   4.315 -0.7524  0.1187 -0.0847
 2987SOL    HW120420   2.839   4.535   4.287  0.1734 -1.3795 -1.7696
 2987SOL    HW220421   2.696   4.516   4.308 -1.0006 -0.6240 -2.6178
 2988SOL     OW20422   0.243   4.683   7.294  1.0355  0.0025  0.3901
 2988SOL    HW120423   0.188   4.605   7.292  1.7833 -0.5441  0.8618
 2988SOL    HW220424   0.266   4.677   7.387  1.2019 -0.7929  0.2988
 2989SOL     OW20425   0.578   0.162   7.352  0.4117  0.3269 -0.4923
 2989SOL    HW120426   0.595   0.202   7.267 -1.0144 -0.7462 -1.2936
 2989SOL    HW220427   0.488   0.190   7.372  0.5413  0.1287  0.3458
 2990SOL     OW20428   1.695   2.160   5.770  0.4905  0.3958  0.0090
 2990SOL    HW120429   1.639   2.140   5.695  0.6959 -1.5167  0.3787
 2990SOL    HW220430   1.774   2.113   5.744 -0.2111 -1.4411  1.2042
 2991SOL     OW20431   2.423   2.481   0.293  0.1771 -0.4256 -0.3354
 2991SOL    HW120432   2.392   2.558   0.246 -0.9373 -0.6067  0.0817
 2991SOL    HW220433   2.340   2.442   0.321  0.7173 -1.0128  0.4685
 2992SOL     OW20434   1.100   1.928   2.020  0.4318  0.1753 -0.5430
 2992SOL    HW120435   1.026   1.955   2.074 -0.4318 -2.0099 -0.6431
 2992SOL    HW220436   1.098   1.833   2.023  0.8337  0.2489  2.0830
 2993SOL     OW20437   1.081   1.887  16.636 -0.1617 -0.0801 -0.9781
 2993SOL    HW120438   1.140   1.841  16.576  0.4624  0.6949 -0.9707
 2993SOL    HW220439   1.037   1.821  16.689 -0.1604  0.9575  0.3470
 2994SOL     OW20440   0.618   0.678  10.958 -0.0670 -0.0350 -1.1307
 2994SOL    HW120441   0.602   0.772  10.953 -0.7456 -0.2640 -3.2152
 2994SOL    HW220442   0.567   0.654  11.036  1.7833  1.1361  0.4421
 2995SOL     OW20443   0.760   2.464   7.239  0.8638  0.0981  0.2029
 2995SOL    HW120444   0.673   2.475   7.202  1.4337  1.0835 -0.8543
 2995SOL    HW220445   0.755   2.373   7.267  0.4658  1.4659  4.4964
 2996SOL     OW20446   0.003   0.153   6.826  0.1395  0.0522  0.3102
 2996SOL    HW120447   4.671   0.075   6.810  1.7499 -1.2322  1.2711
 2996SOL    HW220448   4.652   0.214   6.840  0.3082 -0.1602  2.1531
 2997SOL     OW20449   2.568   1.400   1.183 -0.4498 -0.3516 -0.5680
 2997SOL    HW120450   2.575   1.495   1.194  2.0459 -0.3707 -1.8035
 2997SOL    HW220451   2.550   1.401   1.089 -1.7198  0.0043 -0.3134
 2998SOL     OW20452   4.138   2.610  10.692  0.0156  0.2383  0.4426
 2998SOL    HW120453   4.193   2.665  10.635  0.4662 -0.0596  0.5918
 2998SOL    HW220454   4.125   2.687  10.747  1.7058  0.7660  0.1154
 2999SOL     OW20455   1.009   4.570   5.040 -0.0226 -0.5668 -0.5812
 2999SOL    HW120456   1.020   4.662   5.062  0.9378 -0.6817 -0.5746
 2999SOL    HW220457   1.077   4.562   4.972  1.1179  1.4293  0.3471
 3000SOL     OW20458   2.345   4.218  10.692  0.5982  0.1334 -0.6173
 3000SOL    HW120459   2.362   4.290  10.754 -0.4909 -0.8131  0.7906
 3000SOL    HW220460   2.423   4.165  10.710  0.8511  0.3683 -1.0142
 3001SOL     OW20461   4.208   0.766  15.497  0.3739 -0.4574  0.4382
 3001SOL    HW120462   4.148   0.755  15.571  0.5864  1.5594  0.9223
 3001SOL    HW220463   4.249   0.680  15.494  1.1644  0.0026 -1.9560
 3002SOL     OW20464   4.507   0.575   4.583 -0.1375  0.4566  0.2437
 3002SOL    HW120465   4.584   0.558   4.638  0.3361 -2.4210 -1.2904
 3002SOL    HW220466   4.465   0.648   4.628 -0.8372  0.4393 -0.3799
 3003SOL     OW20467   4.204   2.442   8.839 -0.0766  0.8310 -0.4133
 3003SOL    HW120468   4.273   2.395   8.885  0.4362  1.3373 -0.6692
 3003SOL    HW220469   4.243   2.529   8.838  0.0347  0.7940  0.3784
 3004SOL     OW20470   1.982   3.336   4.985  0.1238 -0.3775 -0.4561
 3004SOL    HW120471   2.041   3.278   4.937  0.0025 -2.0068  1.3478
 3004SOL    HW220472   1.898   3.295   4.969 -0.4654 -0.2026  2.1482
 3005SOL     OW20473   1.948   2.260   7.158  0.0759 -0.4124 -0.2172
 3005SOL    HW120474   1.969   2.247   7.065  0.7642  0.2585 -0.1530
 3005SOL    HW220475   1.955   2.171   7.193  0.3516 -1.3548 -2.6277
 3006SOL     OW20476   3.730   2.863   7.733  0.5764  0.0924 -0.2491
 3006SOL    HW120477   3.792   2.820   7.675 -0.9059 -1.1077 -0.9663
 3006SOL    HW220478   3.737   2.955   7.711 -1.9593  0.1685 -0.8178
 3007SOL     OW20479   4.670   3.687  10.933 -0.2797 -0.0943 -0.1117
 3007SOL    HW120480   4.675   3.605  10.982  2.5261 -0.4898 -1.0461
 3007SOL    HW220481   4.698   3.747  11.002  1.9384  2.0489 -2.8478
 3008SOL     OW20482   4.648   4.481  17.336 -0.2278  0.2558 -0.1495
 3008SOL    HW120483   4.642   4.521  17.423  0.2198 -0.6698  0.3073
 3008SOL    HW220484   0.021   4.462  17.323 -0.0166  1.3063 -0.1807
 3009SOL     OW20485   3.860   0.612   8.922 -0.1833  0.7658  0.2937
 3009SOL    HW120486   3.863   0.703   8.891 -1.6003  0.2956 -1.2883
 3009SOL    HW220487   3.952   0.588   8.923 -0.3893  0.0210  1.5724
 3010SOL     OW20488   1.469   1.959   9.889 -0.3684  0.0224  0.3145
 3010SOL    HW120489   1.405   1.895   9.921  0.8805 -1.7164 -0.6783
 3010SOL    HW220490   1.415   2.038   9.893  0.5423  0.7451 -1.7745
 3011SOL     OW20491   0.772   1.131  14.406 -0.1670 -0.3432 -0.7939
 3011SOL    HW120492   0.741   1.055  14.456  0.9714  0.3955  0.9984
 3011SOL    HW220493   0.853   1.108  14.359  0.3097  0.3917 -0.3211
 3012SOL     OW20494   2.551   0.911   6.389  0.0359  0.2281  0.9004
 3012SOL    HW120495   2.626   0.966   6.411  0.2891 -0.9655  3.0734
 3012SOL    HW220496   2.501   0.917   6.471 -0.5228  0.3458  0.5485
 3013SOL     OW20497   0.555   1.556   7.025 -0.5276  0.1352 -0.1427
 3013SOL    HW120498   0.542   1.538   6.932  1.9003 -0.3445 -0.4125
 3013SOL    HW220499   0.472   1.530   7.065 -0.3623 -1.3859 -0.7761
 3014SOL     OW20500   0.812   3.909   3.780  0.1270 -0.2147  0.1499
 3014SOL    HW120501   0.838   3.990   3.824 -0.1472  0.8674 -1.7095
 3014SOL    HW220502   0.760   3.868   3.849 -0.2826  2.4218  1.4151
 3015SOL     OW20503   2.063   2.300   2.560 -0.0868  0.0523  0.0270
 3015SOL    HW120504   2.021   2.304   2.474  1.4248  1.0330 -0.6616
 3015SOL    HW220505   2.068   2.391   2.590 -0.2149  0.2936 -0.6847
 3016SOL     OW20506   1.425   3.444  17.449 -0.0157  0.0877  0.6170
 3016SOL    HW120507   1.385   3.361  17.422  2.0107 -0.5558 -0.4366
 3016SOL    HW220508   1.510   3.436  17.404 -0.6667  1.7115 -0.9104
 3017SOL     OW20509   3.571   3.878   7.766  0.4954 -0.1918  0.3366
 3017SOL    HW120510   3.660   3.911   7.774  0.5915 -0.2910 -0.3235
 3017SOL    HW220511   3.558   3.876   7.671  0.2172  0.9066  0.3594
 3018SOL     OW20512   0.524   0.320   1.737  0.7287 -0.1163 -0.4009
 3018SOL    HW120513   0.576   0.388   1.694  0.8294 -1.1194 -1.8605
 3018SOL    HW220514   0.514   0.256   1.667 -0.1207  0.5303 -0.8730
 3019SOL     OW20515   3.499   3.030   2.788  0.0912  0.6786 -0.2805
 3019SOL    HW120516   3.569   3.006   2.727 -1.0550 -2.4870 -0.3348
 3019SOL    HW220517   3.543   3.040   2.872 -0.2945 -1.6734  0.2050
 3020SOL     OW20518   2.493   1.764   2.345 -0.4969  0.1844 -0.1656
 3020SOL    HW120519   2.550   1.839   2.329 -1.5374  0.8679 -0.6611
 3020SOL    HW220520   2.510   1.725   2.259 -1.1890  0.2851 -0.3447
 3021SOL     OW20521   1.651   1.808   8.502 -0.1135 -0.2442  1.0968
 3021SOL    HW120522   1.667   1.895   8.538  2.9994 -0.1914 -0.4164
 3021SOL    HW220523   1.652   1.753   8.581  0.8703  2.5612  3.0159
 3022SOL     OW20524   0.088   1.817  16.374  0.2628  0.1823  0.0435
 3022SOL    HW120525   0.161   1.761  16.348 -0.1313 -0.2705 -0.0858
 3022SOL    HW220526   0.089   1.885  16.308  0.9275 -0.1039 -0.2415
 3023SOL     OW20527   2.765   4.587   3.570 -0.0298 -0.2753  0.4793
 3023SOL    HW120528   2.857   4.563   3.564  0.4137  1.4040  0.6190
 3023SOL    HW220529   2.739   4.586   3.478  1.9762 -0.0221 -0.0899
 3024SOL     OW20530   1.624   0.442   5.058  0.4267  0.7555 -0.6787
 3024SOL    HW120531   1.666   0.358   5.037  0.5744  0.1756  2.0323
 3024SOL    HW220532   1.614   0.429   5.152  0.5653  2.6734 -0.4075
 3025SOL     OW20533   0.056   0.450   1.395 -0.2217  0.1236 -0.3252
 3025SOL    HW120534   0.080   0.396   1.319  0.6289 -0.2602  0.2246
 3025SOL    HW220535   4.705   0.492   1.347  0.8476 -0.6568 -2.6474
 3026SOL     OW20536   2.874   3.108   4.208 -0.1979  0.0743 -1.0506
 3026SOL    HW120537   2.891   3.170   4.138  1.2110  0.3085 -0.4957
 3026SOL    HW220538   2.926   3.134   4.284 -1.1348 -0.9661 -0.0294
 3027SOL     OW20539   2.596   2.305   4.296 -0.7595  0.4489  0.0456
 3027SOL    HW120540   2.660   2.361   4.340 -1.2550  0.8121  0.2996
 3027SOL    HW220541   2.607   2.333   4.205  1.6420  1.1995  0.5565
 3028SOL     OW20542   3.209   3.414   7.067 -0.5853 -0.7841 -0.0186
 3028SOL    HW120543   3.250   3.338   7.025 -2.9427 -3.0858  1.8098
 3028SOL    HW220544   3.234   3.486   7.010 -0.6860  0.0078  0.9355
 3029SOL     OW20545   1.301   4.299   9.959 -0.4029 -0.2333 -0.3128
 3029SOL    HW120546   1.312   4.394   9.969  1.6403 -0.1003 -4.1996
 3029SOL    HW220547   1.212   4.295   9.994 -0.0426  1.1859  0.7727
 3030SOL     OW20548   2.515   0.313   9.921 -0.3125 -0.4062 -0.2336
 3030SOL    HW120549   2.482   0.289  10.008  1.3802  2.5377  1.2122
 3030SOL    HW220550   2.599   0.354   9.941 -0.2299 -0.4360 -0.5261
 3031SOL     OW20551   0.400   3.674   1.182 -0.4504 -0.2331  0.3384
 3031SOL    HW120552   0.325   3.670   1.241 -1.4577 -0.7793 -0.9862
 3031SOL    HW220553   0.361   3.693   1.097  2.0001  0.1125 -0.7258
 3032SOL     OW20554   4.653   0.260   5.483 -0.0390  0.3968 -0.1120
 3032SOL    HW120555   4.716   0.325   5.513  1.6149 -1.0097 -0.5497
 3032SOL    HW220556   4.601   0.233   5.559  0.2439  2.1335  0.6916
 3033SOL     OW20557   2.557   1.929   6.306  0.0030 -0.4817 -0.8611
 3033SOL    HW120558   2.575   1.891   6.392 -1.7360  0.6825  0.0189
 3033SOL    HW220559   2.534   1.850   6.258 -1.4831 -0.5028 -0.0870
 3034SOL     OW20560   3.788   2.117   3.269 -0.1242 -0.2471  0.1955
 3034SOL    HW120561   3.803   2.051   3.202 -0.1756  1.2109 -1.2425
 3034SOL    HW220562   3.797   2.071   3.352  0.6476 -2.1461 -0.9498
 3035SOL     OW20563   0.375   3.895   8.174 -0.0834  0.4180 -0.1379
 3035SOL    HW120564   0.348   3.938   8.255  1.9610  0.3990  0.5517
 3035SOL    HW220565   0.313   3.822   8.180 -0.5919  0.9955  1.6846
 3036SOL     OW20566   3.570   0.192   1.947 -0.1403  0.2569 -0.3097
 3036SOL    HW120567   3.510   0.247   1.897  0.9935 -0.3715 -2.3591
 3036SOL    HW220568   3.507   0.123   1.964  0.2467  0.3754  1.6110
 3037SOL     OW20569   0.888   2.693  17.349 -0.3595 -0.0326 -0.0697
 3037SOL    HW120570   0.869   2.656  17.435 -0.3117 -1.2354 -0.5782
 3037SOL    HW220571   0.801   2.693  17.309 -0.1606 -0.4154 -0.5088
 3038SOL     OW20572   1.445   0.835  12.001 -0.1478 -0.4420 -0.1412
 3038SOL    HW120573   1.389   0.767  11.963 -1.8571  0.7450  0.2620
 3038SOL    HW220574   1.518   0.782  12.034 -1.4870 -1.8551  0.5347
 3039SOL     OW20575   1.593   0.048   0.119 -0.4400 -0.4581 -0.3334
 3039SOL    HW120576   1.585   0.142   0.102 -2.3414 -0.2367  1.7592
 3039SOL    HW220577   1.603   0.013   0.031  1.8172 -2.7829  0.8485
 3040SOL     OW20578   1.210   4.344   7.994  0.2545  0.1813 -0.0871
 3040SOL    HW120579   1.256   4.264   7.969 -1.8383 -0.4698 -1.7980
 3040SOL    HW220580   1.284   4.394   8.030  1.0390 -0.2165 -1.1440
 3041SOL     OW20581   4.569   3.318   4.684  0.1700 -0.5534 -0.3194
 3041SOL    HW120582   4.574   3.232   4.644 -0.4990 -0.4320 -0.6610
 3041SOL    HW220583   4.500   3.364   4.636  0.5657  0.6158  0.2228
 3042SOL     OW20584   1.526   2.103   1.453 -0.0932 -0.7397  0.1710
 3042SOL    HW120585   1.510   2.009   1.441 -2.0235 -0.2956 -0.8158
 3042SOL    HW220586   1.467   2.120   1.526 -0.4706  0.1508 -0.3424
 3043SOL     OW20587   0.428   4.661  17.001  0.1616 -0.1322  0.5311
 3043SOL    HW120588   0.426   0.014  16.939  0.3606 -0.6176 -0.0483
 3043SOL    HW220589   0.422   4.594  16.933 -0.6626  0.8009 -0.3219
 3044SOL     OW20590   4.578   4.574   6.295  0.8142  0.2350  0.2241
 3044SOL    HW120591   4.529   4.624   6.230  2.2667  0.1194 -0.9364
 3044SOL    HW220592   4.537   4.488   6.291  0.1898  0.5520 -0.3355
 3045SOL     OW20593   3.719   4.178   6.857 -0.2004 -0.4139 -0.2316
 3045SOL    HW120594   3.636   4.195   6.812 -0.2353 -0.5049 -0.2019
 3045SOL    HW220595   3.690   4.128   6.933  0.5716  2.2960  1.8622
 3046SOL     OW20596   3.671   2.673   6.338  0.0587  0.5323 -0.2020
 3046SOL    HW120597   3.590   2.716   6.308 -1.5252 -1.4323  1.2617
 3046SOL    HW220598   3.710   2.642   6.256  0.2275 -3.6837  1.4773
 3047SOL     OW20599   0.341   1.327  14.887  0.3406  0.7193 -0.3618
 3047SOL    HW120600   0.315   1.241  14.921  0.4670  0.3802 -1.1146
 3047SOL    HW220601   0.324   1.311  14.794  1.1507  2.3242 -0.7783
 3048SOL     OW20602   0.520   0.054   1.008 -0.2020 -0.6353 -0.6575
 3048SOL    HW120603   0.486   4.704   1.063 -1.0381  0.6261  0.4483
 3048SOL    HW220604   0.612   0.029   1.006  0.1238  0.5007  0.2691
 3049SOL     OW20605   2.455   4.495  13.039 -0.0448  0.0935 -0.4145
 3049SOL    HW120606   2.550   4.494  13.028 -0.0889 -1.7201 -0.5532
 3049SOL    HW220607   2.434   4.412  12.996  1.8561 -1.3627  1.5395
 3050SOL     OW20608   3.524   2.066   6.423 -0.2322 -0.0149 -0.4443
 3050SOL    HW120609   3.614   2.045   6.399  0.2566  0.6617  0.7496
 3050SOL    HW220610   3.542   2.116   6.504  0.8207  2.1877 -2.0385
 3051SOL     OW20611   3.120   2.131   2.614  0.5715 -0.2416 -0.3006
 3051SOL    HW120612   3.099   2.190   2.542  0.3748  1.3616  1.0844
 3051SOL    HW220613   3.157   2.183   2.685 -0.1924  0.4738 -0.4261
 3052SOL     OW20614   0.430   2.680  12.420  0.8346  0.1902 -0.2792
 3052SOL    HW120615   0.381   2.619  12.476 -0.2555  0.6259 -0.7660
 3052SOL    HW220616   0.504   2.622  12.400  1.0607  0.1374  0.6844
 3053SOL     OW20617   3.834   0.276   5.097 -0.0768 -0.2894  0.0394
 3053SOL    HW120618   3.880   0.273   5.013 -0.3354  1.7681 -0.1762
 3053SOL    HW220619   3.759   0.218   5.084 -0.2877 -0.0708  0.2853
 3054SOL     OW20620   3.984   3.267   6.695 -0.3825  0.6803  0.0797
 3054SOL    HW120621   3.989   3.217   6.777 -0.6157 -0.3010 -0.5098
 3054SOL    HW220622   4.071   3.253   6.657 -0.5664 -2.0308  0.6238
 3055SOL     OW20623   4.108   0.579   8.853 -0.0261 -0.5969 -0.0960
 3055SOL    HW120624   4.175   0.514   8.834  0.9845  1.4315 -3.3790
 3055SOL    HW220625   4.035   0.551   8.798 -0.3464 -0.3124  0.1749
 3056SOL     OW20626   1.769   2.391   5.613  0.2541  0.2049 -0.3901
 3056SOL    HW120627   1.817   2.441   5.679 -0.6219  0.9818 -0.3330
 3056SOL    HW220628   1.760   2.305   5.653  2.2106 -0.4288 -1.3393
 3057SOL     OW20629   4.387   3.211   1.149  0.7573  0.5914 -0.0875
 3057SOL    HW120630   4.466   3.189   1.100 -1.6868 -0.6744 -3.5054
 3057SOL    HW220631   4.327   3.156   1.097 -0.9132  1.2033  1.1756
 3058SOL     OW20632   1.977   0.567  13.576 -0.5575  0.2693  0.5258
 3058SOL    HW120633   2.041   0.634  13.598  1.1426 -1.1724 -0.0902
 3058SOL    HW220634   1.965   0.584  13.483  1.1264 -2.4429 -0.1925
 3059SOL     OW20635   3.185   3.819   2.815 -0.1518  0.3491  0.6759
 3059SOL    HW120636   3.097   3.801   2.848 -0.5020 -2.4607 -1.7854
 3059SOL    HW220637   3.206   3.745   2.758 -0.5001  1.4700 -0.9186
 3060SOL     OW20638   1.308   0.416   8.657 -0.9524 -0.5857  0.3397
 3060SOL    HW120639   1.369   0.379   8.594  0.5376  1.7811  0.3741
 3060SOL    HW220640   1.332   0.385   8.744  1.7893  0.8682  0.1151
 3061SOL     OW20641   3.233   0.958   2.552 -0.4593  0.0659  0.3732
 3061SOL    HW120642   3.304   0.978   2.491 -0.6409  0.1629  0.1947
 3061SOL    HW220643   3.234   1.037   2.606  1.1184 -2.1222  3.6213
 3062SOL     OW20644   3.242   1.138   1.859  0.1064  0.6214  0.1863
 3062SOL    HW120645   3.320   1.189   1.835  1.3441 -1.1534  0.4321
 3062SOL    HW220646   3.171   1.193   1.828  0.0489 -0.0374 -0.8240
 3063SOL     OW20647   3.253   1.996   8.525  0.3221 -0.3600  0.1459
 3063SOL    HW120648   3.300   1.913   8.521  1.2391  0.2565 -1.8387
 3063SOL    HW220649   3.320   2.047   8.570  0.8939 -0.6579 -0.3581
 3064SOL     OW20650   0.884   2.414   9.545 -0.5701  0.3190  0.2440
 3064SOL    HW120651   0.874   2.318   9.543  2.3902  0.0435 -0.2786
 3064SOL    HW220652   0.841   2.441   9.464  0.8927  0.1100 -0.6018
 3065SOL     OW20653   2.981   2.441   6.234 -0.0546 -0.1997 -0.0073
 3065SOL    HW120654   2.904   2.390   6.208 -0.9218 -0.1059  2.4071
 3065SOL    HW220655   2.987   2.503   6.161  0.2100  0.3626  0.4910
 3066SOL     OW20656   3.860   0.043   9.045  0.3038 -0.1860  0.0066
 3066SOL    HW120657   3.849   0.109   8.977 -2.2324 -2.7051 -2.0678
 3066SOL    HW220658   3.946   0.009   9.022 -1.2868 -1.3031 -4.4270
 3067SOL     OW20659   1.358   1.567   0.497 -0.1245  0.2796 -0.1961
 3067SOL    HW120660   1.440   1.568   0.446 -0.4819  2.3087 -0.7118
 3067SOL    HW220661   1.392   1.595   0.582  0.9870 -1.3294 -0.0983
 3068SOL     OW20662   4.677   2.262  14.647  0.5764  0.5458 -0.1845
 3068SOL    HW120663   4.649   2.177  14.682  0.7965  0.3118 -0.5650
 3068SOL    HW220664   4.617   2.276  14.574 -1.7651  1.6073  1.9620
 3069SOL     OW20665   2.896   2.348   8.815  0.0555 -0.1660 -0.0415
 3069SOL    HW120666   2.979   2.322   8.777 -0.6435  0.6152 -2.0926
 3069SOL    HW220667   2.839   2.272   8.820  0.9815 -0.6660  2.7161
 3070SOL     OW20668   4.276   1.624   9.560  0.3350 -0.2940  0.3803
 3070SOL    HW120669   4.253   1.544   9.608 -0.9583 -0.2505 -0.1512
 3070SOL    HW220670   4.232   1.687   9.618  1.2436  0.2765  0.4386
 3071SOL     OW20671   1.483   3.472  15.452  0.2932  0.1987  0.2870
 3071SOL    HW120672   1.465   3.483  15.545  0.5800  0.6259  0.2902
 3071SOL    HW220673   1.570   3.433  15.444  0.6829  1.5050 -2.0262
 3072SOL     OW20674   3.342   3.386   4.650  0.0981 -0.0603 -0.6519
 3072SOL    HW120675   3.308   3.352   4.567  1.8557  0.7720 -1.7156
 3072SOL    HW220676   3.264   3.434   4.678  0.5978 -0.6895  1.8326
 3073SOL     OW20677   1.756   0.632   0.899  0.3733  0.5496 -0.3340
 3073SOL    HW120678   1.763   0.540   0.875  0.7133  0.7638 -1.0675
 3073SOL    HW220679   1.663   0.649   0.914 -0.2084 -1.9768 -1.1358
 3074SOL     OW20680   2.962   3.986   8.026 -0.1581 -0.8015 -0.0072
 3074SOL    HW120681   2.977   4.054   8.092  0.1103  0.0391 -0.9420
 3074SOL    HW220682   3.041   3.933   8.031  2.2676  2.6797 -2.0967
 3075SOL     OW20683   3.428   2.599  15.699 -0.6212  0.0087  0.6062
 3075SOL    HW120684   3.351   2.655  15.707  0.2542  1.4790 -1.5134
 3075SOL    HW220685   3.426   2.550  15.782 -0.5186  0.3859  0.8329
 3076SOL     OW20686   1.695   3.512  10.992 -0.5217  0.1312  0.7133
 3076SOL    HW120687   1.651   3.427  10.991  0.8984 -0.6058  1.2638
 3076SOL    HW220688   1.729   3.516  11.081 -1.0381  0.4708  0.8944
 3077SOL     OW20689   2.389   2.730   4.325 -0.2379  0.2728  0.2495
 3077SOL    HW120690   2.468   2.779   4.301  1.1304 -0.9232  2.3166
 3077SOL    HW220691   2.328   2.761   4.257 -0.6240  1.7016  1.2336
 3078SOL     OW20692   0.405   4.332   5.369 -0.1070 -0.1212  0.5549
 3078SOL    HW120693   0.330   4.293   5.324 -0.2599  0.2722  0.4705
 3078SOL    HW220694   0.439   4.398   5.309  0.3263  0.9505  2.0131
 3079SOL     OW20695   1.197   1.214  11.916  0.4679  0.7057 -0.0293
 3079SOL    HW120696   1.211   1.285  11.853 -1.1730 -1.7520 -3.1303
 3079SOL    HW220697   1.283   1.177  11.939  0.1174 -0.6220 -0.8859
 3080SOL     OW20698   2.893   2.404   4.144  0.1492  0.9557 -0.0737
 3080SOL    HW120699   2.845   2.485   4.127 -0.4786  0.5529 -0.1816
 3080SOL    HW220700   2.967   2.446   4.189 -0.2410 -0.3839  1.8258
 3081SOL     OW20701   1.318   1.962   5.322  0.2028 -0.3731  0.4300
 3081SOL    HW120702   1.230   1.929   5.304  0.2181  0.7166 -1.5960
 3081SOL    HW220703   1.322   2.038   5.265 -1.8160 -0.8666 -0.3605
 3082SOL     OW20704   1.738   1.915   7.711 -0.9540  0.4398  0.1263
 3082SOL    HW120705   1.832   1.931   7.710 -0.6562 -1.3104  0.5170
 3082SOL    HW220706   1.715   1.948   7.624 -1.9177 -1.4125 -0.3309
 3083SOL     OW20707   1.555   4.540   6.777  0.4119 -0.0986  0.6048
 3083SOL    HW120708   1.579   4.475   6.842 -0.2714 -0.3417  0.6084
 3083SOL    HW220709   1.513   4.474   6.722  0.3582  0.0685  0.4421
 3084SOL     OW20710   0.921   3.832   9.208 -0.0544  0.2955 -0.2370
 3084SOL    HW120711   0.970   3.793   9.135  1.8743  2.5968 -0.1746
 3084SOL    HW220712   0.867   3.759   9.238 -0.8029  0.1957 -1.8591
 3085SOL     OW20713   1.484   1.458   3.534 -0.9884 -0.5490  0.2224
 3085SOL    HW120714   1.454   1.451   3.444  1.8039  4.3329 -1.0723
 3085SOL    HW220715   1.467   1.551   3.553  0.6253 -0.2950  0.4355
 3086SOL     OW20716   1.480   0.470   6.691  0.3384  0.4772  0.0637
 3086SOL    HW120717   1.384   0.461   6.688  0.2706  0.4722  1.9930
 3086SOL    HW220718   1.498   0.433   6.778  0.5711  2.2548  0.7626
 3087SOL     OW20719   1.429   2.850   7.519 -0.8145  0.1521 -0.6215
 3087SOL    HW120720   1.352   2.811   7.560 -1.2821 -0.5546 -2.1916
 3087SOL    HW220721   1.406   2.941   7.537 -2.6263 -0.8737  2.2270
 3088SOL     OW20722   1.681   2.219   0.015 -0.4553 -0.3112 -0.3855
 3088SOL    HW120723   1.675   2.225  17.604  0.1063 -1.8491 -0.5087
 3088SOL    HW220724   1.712   2.308   0.032 -0.4168 -0.6327  1.1410
 3089SOL     OW20725   4.598   4.069   4.375  0.4771 -0.0985  0.0820
 3089SOL    HW120726   4.579   4.049   4.283 -2.0742  1.5340  0.2636
 3089SOL    HW220727   4.633   4.157   4.360  1.6991 -0.1886  2.4289
 3090SOL     OW20728   0.105   0.300   1.149  1.1489 -0.0622 -0.7061
 3090SOL    HW120729   0.185   0.271   1.106  0.5354 -1.5438 -0.8565
 3090SOL    HW220730   0.081   0.371   1.090  1.8099  1.0926  0.4182
 3091SOL     OW20731   0.472   4.567   5.233 -0.8246 -0.0228 -0.3621
 3091SOL    HW120732   0.554   4.604   5.200 -2.5226  3.1831 -1.0248
 3091SOL    HW220733   0.480   4.604   5.322 -0.2766  0.0275 -0.4274
 3092SOL     OW20734   3.195   2.675   4.113 -0.8037 -0.3207 -0.1878
 3092SOL    HW120735   3.290   2.685   4.104 -0.9002  0.7336  0.0153
 3092SOL    HW220736   3.182   2.761   4.074 -2.6080 -0.8890 -0.8522
 3093SOL     OW20737   1.702   4.496  11.065  0.0962  0.1431  0.4701
 3093SOL    HW120738   1.764   4.462  11.129  0.4597  0.1261  0.1056
 3093SOL    HW220739   1.665   4.571  11.113  1.0356  0.8217  0.1182
 3094SOL     OW20740   0.938   3.615   3.691 -0.3507  0.1801 -0.0839
 3094SOL    HW120741   0.877   3.551   3.654  1.3636 -1.5436  0.1024
 3094SOL    HW220742   0.873   3.676   3.726  0.1240 -0.6373  2.2602
 3095SOL     OW20743   1.007   1.157   6.985  0.3098 -0.2455 -0.0463
 3095SOL    HW120744   1.076   1.147   6.920  1.3223 -0.5632  1.0676
 3095SOL    HW220745   1.057   1.113   7.054 -0.1730 -1.7759 -0.6644
 3096SOL     OW20746   0.155   2.102   2.692 -0.6203  0.3960 -0.3884
 3096SOL    HW120747   0.184   2.127   2.780 -2.5685  1.6606 -0.1054
 3096SOL    HW220748   0.175   2.184   2.649 -1.5125 -0.5126 -2.5569
 3097SOL     OW20749   4.598   2.096   2.594 -0.5771  0.5967 -0.2895
 3097SOL    HW120750   4.661   2.054   2.653 -2.0563 -1.5940 -0.2835
 3097SOL    HW220751   4.571   2.170   2.649 -0.8953 -0.2106  0.6549
 3098SOL     OW20752   3.204   2.338   6.341  0.2413 -0.2430 -0.6384
 3098SOL    HW120753   3.268   2.407   6.357  0.7549 -0.8544 -0.0591
 3098SOL    HW220754   3.123   2.378   6.309 -0.0807 -0.1082  0.3633
 3099SOL     OW20755   1.526   0.415  10.331 -0.1848 -0.2956  0.4704
 3099SOL    HW120756   1.513   0.386  10.241 -0.0594 -0.3326  0.4643
 3099SOL    HW220757   1.588   0.350  10.365 -0.2678 -0.3294  0.5563
 3100SOL     OW20758   1.646   1.719   6.039  0.2006  0.5580  0.1527
 3100SOL    HW120759   1.664   1.813   6.040  1.6885  0.2877 -0.4643
 3100SOL    HW220760   1.613   1.704   5.951  0.1160  1.1951  0.0792
 3101SOL     OW20761   2.704   4.326  16.449 -0.0128 -0.1585 -0.3875
 3101SOL    HW120762   2.628   4.288  16.406  0.7710 -2.8655  0.6641
 3101SOL    HW220763   2.717   4.411  16.406  0.5939 -0.9648 -1.7577
 3102SOL     OW20764   3.472   0.099  12.320 -0.1708  0.1444  0.1144
 3102SOL    HW120765   3.441   0.018  12.280  2.0141 -0.5302 -0.1885
 3102SOL    HW220766   3.413   0.129  12.389 -2.1485 -1.0769 -1.0531
 3103SOL     OW20767   4.131   0.002  17.099 -0.1669 -0.5534  0.2355
 3103SOL    HW120768   4.214   0.035  17.065 -1.1782  2.8665  1.0758
 3103SOL    HW220769   4.132   4.640  17.051 -0.3940  0.5447 -1.6301
 3104SOL     OW20770   2.257   4.458  12.563 -0.4874  0.6311  0.3156
 3104SOL    HW120771   2.239   4.504  12.481 -1.1323 -1.9262 -0.9681
 3104SOL    HW220772   2.332   4.507  12.596  0.2109 -0.7594  0.8025
 3105SOL     OW20773   3.172   3.249   5.955  0.4231  0.3721 -0.0514
 3105SOL    HW120774   3.144   3.157   5.949  2.8074 -0.3819  0.2501
 3105SOL    HW220775   3.208   3.253   6.044  0.8008  1.8239 -0.2692
 3106SOL     OW20776   3.220   3.710  13.721  0.4123  1.1536  0.4268
 3106SOL    HW120777   3.207   3.804  13.736 -0.8045  1.0300  0.1630
 3106SOL    HW220778   3.244   3.666  13.802  0.3216  0.6097  0.1595
 3107SOL     OW20779   1.390   2.990   0.576 -0.5180  0.5262  0.2063
 3107SOL    HW120780   1.366   3.060   0.637  1.8077  1.3524  0.1624
 3107SOL    HW220781   1.305   2.966   0.539 -1.1020 -0.8130  2.3519
 3108SOL     OW20782   2.305   0.960  10.175  0.3150  0.8440  0.1980
 3108SOL    HW120783   2.319   1.022  10.246 -3.0329  1.0877  0.6453
 3108SOL    HW220784   2.209   0.959  10.164  0.4134 -0.2213 -0.5938
 3109SOL     OW20785   3.102   2.065   7.268  0.2039 -0.2357 -0.1206
 3109SOL    HW120786   3.118   2.015   7.187  3.2322 -2.2628  1.7342
 3109SOL    HW220787   3.086   1.995   7.331  0.0868  1.3078  1.5609
 3110SOL     OW20788   1.500   4.477   1.316 -0.9392 -0.4883  0.3259
 3110SOL    HW120789   1.473   4.550   1.261 -1.8854 -0.9065  0.2229
 3110SOL    HW220790   1.454   4.496   1.398  1.3655  0.5965  1.3465
 3111SOL     OW20791   3.906   1.471  10.818  0.2454  0.2300  0.1811
 3111SOL    HW120792   3.811   1.466  10.809  0.4477 -2.3234 -0.4512
 3111SOL    HW220793   3.924   1.559  10.850  0.3128  0.5102 -0.6236
 3112SOL     OW20794   3.096   1.737   1.788  0.4112 -0.4056  0.1294
 3112SOL    HW120795   3.099   1.813   1.846  0.4453 -1.6129  1.7097
 3112SOL    HW220796   3.010   1.701   1.810  0.6025 -1.1346 -0.3227
 3113SOL     OW20797   0.203   3.475   8.853 -0.0418 -0.2108  0.1828
 3113SOL    HW120798   0.210   3.444   8.943  1.9595  0.9693  0.4361
 3113SOL    HW220799   0.286   3.438   8.823  0.1911 -0.0011  0.5608
 3114SOL     OW20800   0.272   3.097   9.048 -0.0487  0.4060 -0.5902
 3114SOL    HW120801   0.207   3.148   9.096 -0.0801 -0.0408 -0.1613
 3114SOL    HW220802   0.351   3.128   9.092 -1.1286  0.8894  1.0021
 3115SOL     OW20803   2.667   0.026  12.844  0.2480  0.5418 -0.0079
 3115SOL    HW120804   2.650   0.085  12.917  1.0695  0.5026  0.2143
 3115SOL    HW220805   2.739   0.071  12.799  2.5416 -1.3119  1.7447
 3116SOL     OW20806   1.535   2.735   0.498 -0.0855 -0.1159 -0.7500
 3116SOL    HW120807   1.503   2.817   0.535  0.4866  0.2139 -0.9918
 3116SOL    HW220808   1.479   2.672   0.544 -0.5010 -0.8666 -2.2935
 3117SOL     OW20809   2.579   1.216   3.130  0.2902  0.1606 -0.3281
 3117SOL    HW120810   2.649   1.165   3.170 -1.6901 -2.4358 -0.1556
 3117SOL    HW220811   2.509   1.150   3.126 -1.1701  1.6235  0.9971
 3118SOL     OW20812   4.465   1.528   1.725  0.0510  0.6182 -0.1769
 3118SOL    HW120813   4.412   1.500   1.651  1.3417 -0.7846 -0.5645
 3118SOL    HW220814   4.552   1.540   1.686 -0.7563  2.8434 -1.2831
 3119SOL     OW20815   2.844   2.599   8.206  0.0134  0.0064  0.1144
 3119SOL    HW120816   2.786   2.675   8.207  0.8430  0.5967  3.1157
 3119SOL    HW220817   2.859   2.589   8.112  2.3249 -0.1814  0.5181
 3120SOL     OW20818   2.298   2.327   7.057 -0.5958  0.1222 -0.1579
 3120SOL    HW120819   2.389   2.306   7.078 -0.7323 -0.9385 -0.6388
 3120SOL    HW220820   2.291   2.309   6.963  1.7071  0.4076 -0.3990
 3121SOL     OW20821   1.519   4.475  15.404 -0.1680  0.1565  0.6926
 3121SOL    HW120822   1.432   4.508  15.381  0.8634  0.9281 -1.9889
 3121SOL    HW220823   1.513   4.380  15.392 -3.1290  0.4562 -0.0544
 3122SOL     OW20824   4.377   2.377   8.390 -0.3861  0.1719  0.0786
 3122SOL    HW120825   4.357   2.460   8.433 -1.2838  0.7383 -1.4436
 3122SOL    HW220826   4.358   2.398   8.299 -0.0701 -2.4173 -0.5745
 3123SOL     OW20827   2.463   0.489   8.426 -0.1412 -0.1327  0.4960
 3123SOL    HW120828   2.541   0.433   8.425 -0.0768 -0.0411  0.4482
 3123SOL    HW220829   2.493   0.570   8.386 -0.2104  1.2319  3.2023
 3124SOL     OW20830   0.051   0.644   9.730  0.2312  1.0942 -0.4637
 3124SOL    HW120831   0.108   0.576   9.767  1.3356  2.4956  0.4337
 3124SOL    HW220832   4.713   0.664   9.804  1.2074 -0.7651  0.8270
 3125SOL     OW20833   0.809   2.515   3.433  0.1204 -0.0432 -0.0696
 3125SOL    HW120834   0.806   2.521   3.528  0.1636  1.8009 -0.1884
 3125SOL    HW220835   0.770   2.596   3.399  0.7813 -1.2492 -3.7053
 3126SOL     OW20836   2.876   3.372  12.876  0.0357  0.2671  0.4364
 3126SOL    HW120837   2.964   3.356  12.910  0.5677  0.2134 -0.9447
 3126SOL    HW220838   2.895   3.454  12.831  1.3666 -2.2649 -3.6783
 3127SOL     OW20839   2.765   2.825  11.124 -0.7997  0.6077  0.4362
 3127SOL    HW120840   2.764   2.781  11.039  0.1634  0.3259  0.5758
 3127SOL    HW220841   2.820   2.774  11.183 -0.8547  1.1487  0.9607
 3128SOL     OW20842   3.256   3.379   2.483  0.6228 -0.3323 -0.2383
 3128SOL    HW120843   3.315   3.362   2.409 -1.4090 -1.6668 -1.5616
 3128SOL    HW220844   3.267   3.306   2.544  0.3097 -2.6099 -2.8646
 3129SOL     OW20845   1.756   1.862  12.214  0.2601  0.0671  0.7416
 3129SOL    HW120846   1.698   1.893  12.282 -1.0602  1.9304 -1.2385
 3129SOL    HW220847   1.829   1.823  12.263  0.7371 -0.0135 -0.0216
 3130SOL     OW20848   2.419   2.757  10.689  0.4559  0.1132  0.4395
 3130SOL    HW120849   2.419   2.846  10.652 -1.8935 -0.2529 -0.4533
 3130SOL    HW220850   2.355   2.710  10.637 -0.9792  1.5732  0.8797
 3131SOL     OW20851   0.487   4.309   2.854 -0.0039  0.2250  0.7546
 3131SOL    HW120852   0.572   4.266   2.863 -0.1495 -0.5355 -1.4660
 3131SOL    HW220853   0.435   4.255   2.795  1.7799  1.2858 -1.7439
 3132SOL     OW20854   2.167   0.695  15.141 -0.1860 -0.6599 -0.9324
 3132SOL    HW120855   2.214   0.612  15.151  0.9879  0.1015 -0.1351
 3132SOL    HW220856   2.159   0.710  15.047  3.3643 -0.5788 -1.2315
 3133SOL     OW20857   3.863   0.374   5.586  0.3167  0.7069 -0.4713
 3133SOL    HW120858   3.794   0.377   5.520 -0.9915  0.4104  0.8913
 3133SOL    HW220859   3.814   0.432   5.643  0.6655 -1.6861  2.2713
 3134SOL     OW20860   0.727   0.852   8.769  0.3603 -0.2178 -0.5295
 3134SOL    HW120861   0.700   0.943   8.759  0.3550 -0.3352 -1.5713
 3134SOL    HW220862   0.760   0.835   8.681 -2.9941 -4.2863 -0.9975
 3135SOL     OW20863   0.175   4.403  17.308  0.4880 -0.4087 -0.3109
 3135SOL    HW120864   0.257   4.446  17.332 -0.1546 -0.6884  2.3753
 3135SOL    HW220865   0.191   4.359  17.225 -1.9777  1.6764 -1.8774
 3136SOL     OW20866   2.144   0.098   1.050  0.1474 -0.5849  0.1399
 3136SOL    HW120867   2.185   0.145   1.123 -0.4373  0.2054 -0.0465
 3136SOL    HW220868   2.218   0.045   1.020  1.0806  1.3459 -0.9046
 3137SOL     OW20869   1.993   2.666  10.382 -0.1265  0.2426  0.1792
 3137SOL    HW120870   2.049   2.622  10.318  0.9540 -0.2819  1.4942
 3137SOL    HW220871   1.912   2.665  10.331 -0.5272 -2.3568  0.9098
 3138SOL     OW20872   1.850   3.693  10.884 -0.5701 -1.3106 -0.1366
 3138SOL    HW120873   1.937   3.665  10.912  0.2170  1.4632  0.1590
 3138SOL    HW220874   1.787   3.624  10.904 -0.6770 -1.6652 -1.6581
 3139SOL     OW20875   2.807   3.372  16.316  0.4671 -0.0271 -0.1830
 3139SOL    HW120876   2.719   3.338  16.332 -0.4668  1.6878 -1.6272
 3139SOL    HW220877   2.831   3.304  16.252  0.5126 -0.1362 -0.0492
 3140SOL     OW20878   3.490   1.091   1.351  0.1679 -0.8181  0.3079
 3140SOL    HW120879   3.446   1.086   1.266  1.7853 -0.9178 -0.5268
 3140SOL    HW220880   3.459   1.012   1.395  1.2095 -1.5317 -0.2221
 3141SOL     OW20881   2.715   1.642  17.647  0.5324 -0.0493 -0.2639
 3141SOL    HW120882   2.705   1.548  17.663 -2.9189  0.5885  1.3764
 3141SOL    HW220883   2.631   1.685  17.660  0.4628  0.0854 -1.2182
 3142SOL     OW20884   0.247   3.864  14.674 -0.3216 -0.0549  0.1944
 3142SOL    HW120885   0.157   3.897  14.675 -0.0465  0.7333 -0.9158
 3142SOL    HW220886   0.294   3.931  14.724  0.3310 -1.1617  1.0402
 3143SOL     OW20887   3.229   1.843   4.808 -0.1813  0.1448 -0.4900
 3143SOL    HW120888   3.144   1.871   4.775 -2.1257 -0.6060  3.8767
 3143SOL    HW220889   3.209   1.863   4.899 -3.2709  1.1978 -1.4140
 3144SOL     OW20890   3.569   0.273  14.537 -0.7894  0.7307  0.0508
 3144SOL    HW120891   3.528   0.342  14.485 -0.4688  1.4595  0.7626
 3144SOL    HW220892   3.486   0.235  14.567 -1.0870  2.4860  1.5067
 3145SOL     OW20893   2.938   1.365   4.348  0.2104 -0.0463 -0.3119
 3145SOL    HW120894   2.915   1.332   4.435  1.8431  0.6296  0.3692
 3145SOL    HW220895   2.853   1.406   4.331  1.0564  0.5472 -3.0923
 3146SOL     OW20896   1.695   1.895  11.533  0.0015  0.5878  0.0953
 3146SOL    HW120897   1.705   1.849  11.450 -2.8570 -0.0618  0.1196
 3146SOL    HW220898   1.612   1.860  11.565  0.3882 -0.5400 -0.1337
 3147SOL     OW20899   3.587   0.922  14.450 -0.2662 -0.7275 -0.2894
 3147SOL    HW120900   3.608   1.015  14.465  2.0076 -1.2692 -0.1076
 3147SOL    HW220901   3.652   0.875  14.502 -1.7449 -1.0474  1.2464
 3148SOL     OW20902   1.739   3.454  17.664 -0.4816  0.4601  0.4760
 3148SOL    HW120903   1.717   3.459  17.571  0.0397  2.2324  0.4425
 3148SOL    HW220904   1.665   3.494   0.025 -1.3276 -0.6212  0.0511
 3149SOL     OW20905   1.025   3.096   1.978 -0.5226 -0.7422  0.5584
 3149SOL    HW120906   1.029   3.181   1.935 -0.6763 -0.4115  1.2083
 3149SOL    HW220907   0.974   3.048   1.912 -0.0568 -4.2174  2.7261
 3150SOL     OW20908   2.250   0.745   5.889  0.1298 -1.0243 -0.4857
 3150SOL    HW120909   2.241   0.794   5.808  2.3569 -1.4886 -1.0129
 3150SOL    HW220910   2.158   0.734   5.915 -0.4157  0.9068 -1.6174
 3151SOL     OW20911   2.698   3.080   8.444 -0.3948 -0.1540 -0.3556
 3151SOL    HW120912   2.711   2.987   8.462 -0.0588 -0.1065 -0.3630
 3151SOL    HW220913   2.787   3.109   8.426  0.4823 -2.8245 -0.2906
 3152SOL     OW20914   3.362   2.016  11.134  0.4754  0.2125  0.7631
 3152SOL    HW120915   3.328   2.079  11.198  0.7623  1.0927  0.0520
 3152SOL    HW220916   3.282   1.973  11.102  1.1879  0.0407 -0.7763
 3153SOL     OW20917   1.168   2.166  11.011  0.5562 -0.0054 -0.2926
 3153SOL    HW120918   1.190   2.082  11.052  0.5596  0.7859  1.3105
 3153SOL    HW220919   1.102   2.188  11.078  1.6452  0.4304  0.6286
 3154SOL     OW20920   1.359   2.363  11.155  1.0310  0.1453 -0.2455
 3154SOL    HW120921   1.436   2.348  11.100 -0.0946  0.1787 -1.8670
 3154SOL    HW220922   1.307   2.287  11.127 -0.5668  1.0414  0.2395
 3155SOL     OW20923   4.139   2.553   2.984  0.2373  0.3508  0.5052
 3155SOL    HW120924   4.094   2.532   2.902  0.3579 -1.5041  0.8989
 3155SOL    HW220925   4.085   2.507   3.048  0.2122 -1.2558 -0.6525
 3156SOL     OW20926   2.666   0.349   8.882  0.3722 -0.5789  0.1310
 3156SOL    HW120927   2.669   0.444   8.871  0.3797 -0.6550 -0.5233
 3156SOL    HW220928   2.737   0.320   8.825  0.1779  1.4562 -1.1789
 3157SOL     OW20929   3.370   1.877   8.811 -0.5548  0.4097  0.2013
 3157SOL    HW120930   3.452   1.901   8.854 -0.9861  1.6660  0.3074
 3157SOL    HW220931   3.404   1.866   8.722 -2.0700 -0.6740 -0.2569
 3158SOL     OW20932   1.936   4.531   0.728  0.1004  0.3268 -0.3488
 3158SOL    HW120933   2.024   4.527   0.691  1.0679  1.3143  1.8256
 3158SOL    HW220934   1.953   4.579   0.809 -1.9549 -1.4643  1.1362
 3159SOL     OW20935   1.271   4.190   6.872 -0.0136  0.2497 -0.0059
 3159SOL    HW120936   1.280   4.117   6.934  1.3481  1.5780  1.3534
 3159SOL    HW220937   1.175   4.194   6.873 -0.0385 -0.1465 -0.6685
 3160SOL     OW20938   3.807   3.806  10.916 -0.0187  0.2468  0.1697
 3160SOL    HW120939   3.723   3.842  10.946 -1.1820 -1.6993 -0.7723
 3160SOL    HW220940   3.830   3.875  10.854 -0.1801  0.9236  0.8647
 3161SOL     OW20941   2.483   3.795   3.020 -0.4951 -0.0588  0.7316
 3161SOL    HW120942   2.553   3.848   2.983 -0.8905 -0.2154 -0.2364
 3161SOL    HW220943   2.536   3.728   3.064 -0.3070  0.2031  0.9039
 3162SOL     OW20944   3.241   1.174   7.557  0.8001  0.6389  0.0240
 3162SOL    HW120945   3.247   1.112   7.630  0.0943 -0.0684 -0.5236
 3162SOL    HW220946   3.332   1.159   7.530  0.5802  0.7039 -0.7426
 3163SOL     OW20947   1.340   2.240   2.962 -0.6341  0.0943  0.5419
 3163SOL    HW120948   1.329   2.214   2.871 -2.3000  0.0801  0.7344
 3163SOL    HW220949   1.354   2.334   2.947 -0.3590  0.1098  0.9046
 3164SOL     OW20950   4.550   0.187   5.737  0.2935  0.4411 -0.2605
 3164SOL    HW120951   4.484   0.214   5.801 -1.7295 -1.1735 -1.6437
 3164SOL    HW220952   4.625   0.222   5.786 -0.6888  1.5223  0.4839
 3165SOL     OW20953   4.678   4.155   2.297 -0.1622 -0.1732  0.4876
 3165SOL    HW120954   4.629   4.218   2.350  0.0337  0.9011 -0.6034
 3165SOL    HW220955   0.048   4.167   2.323  0.1305 -1.7029  0.1543
 3166SOL     OW20956   4.253   0.573  16.978 -0.2856 -0.4152  0.1649
 3166SOL    HW120957   4.221   0.614  16.898  0.9524  1.4048  0.6083
 3166SOL    HW220958   4.258   0.649  17.036 -1.7132  0.1335 -0.4252
 3167SOL     OW20959   3.712   3.755   5.647 -1.0122 -0.2856  0.0729
 3167SOL    HW120960   3.676   3.704   5.574 -0.6633  1.2847 -1.1865
 3167SOL    HW220961   3.764   3.821   5.602 -1.3186 -1.0199 -1.3814
 3168SOL     OW20962   1.110   1.068   3.173  0.5582  0.2396 -0.2037
 3168SOL    HW120963   1.016   1.049   3.172  0.7839 -0.8617 -0.3501
 3168SOL    HW220964   1.156   0.988   3.197 -0.8877 -0.8680 -1.0798
 3169SOL     OW20965   1.754   4.417   0.415 -0.0417 -0.4095  0.6986
 3169SOL    HW120966   1.788   4.506   0.407  1.3713 -0.9632  0.4249
 3169SOL    HW220967   1.727   4.420   0.506 -0.9735  2.2899  0.3479
 3170SOL     OW20968   1.402   0.903   2.605 -0.2345 -0.0795  0.2257
 3170SOL    HW120969   1.386   0.987   2.647  0.8669  0.6065 -0.7295
 3170SOL    HW220970   1.437   0.922   2.518 -1.4766 -2.1283 -0.7250
 3171SOL     OW20971   3.592   0.846   9.890  0.1833  0.5631  0.0150
 3171SOL    HW120972   3.542   0.923   9.866 -0.3038 -0.1064 -1.0951
 3171SOL    HW220973   3.569   0.802   9.809 -1.2317 -0.4841  0.9802
 3172SOL     OW20974   1.277   2.716   2.067  0.1422  0.0954  0.1276
 3172SOL    HW120975   1.286   2.740   1.974  3.8055  0.8208  0.6641
 3172SOL    HW220976   1.361   2.675   2.088  0.9905  1.2464 -1.0231
 3173SOL     OW20977   0.579   1.140   4.277  0.2564  0.7269 -0.0111
 3173SOL    HW120978   0.489   1.158   4.303  0.0745 -0.7074  0.3162
 3173SOL    HW220979   0.585   1.206   4.208  3.3897 -0.0931 -0.5325
 3174SOL     OW20980   2.911   1.758  11.491 -0.2911  0.7994 -0.2544
 3174SOL    HW120981   2.822   1.780  11.461 -0.6596  1.2351  1.1853
 3174SOL    HW220982   2.957   1.840  11.478 -1.0092  1.1658 -0.4891
 3175SOL     OW20983   4.310   1.589   3.236 -0.4909 -0.1464  0.1288
 3175SOL    HW120984   4.368   1.607   3.161 -1.3550  0.2921 -0.4377
 3175SOL    HW220985   4.310   1.680   3.265 -0.7819  0.1383 -0.7485
 3176SOL     OW20986   1.318   0.811   6.046  0.4656 -0.0333  0.4369
 3176SOL    HW120987   1.260   0.817   5.970 -0.5133 -0.4022  1.1560
 3176SOL    HW220988   1.259   0.787   6.117  0.9083 -0.1922  0.7496
 3177SOL     OW20989   1.219   3.423   4.982  0.0883  0.2471  0.4960
 3177SOL    HW120990   1.197   3.432   5.075  1.1679  0.1795  0.7621
 3177SOL    HW220991   1.301   3.470   4.966 -0.5081  1.0161 -0.3143
 3178SOL     OW20992   4.600   1.825  17.208 -0.1054  0.3531  0.1080
 3178SOL    HW120993   4.509   1.850  17.193 -1.0342 -2.8332  0.6101
 3178SOL    HW220994   4.584   1.765  17.280  0.3122  0.0088 -0.0881
 3179SOL     OW20995   2.247   0.761   5.231  0.5534  0.6554 -0.3466
 3179SOL    HW120996   2.190   0.814   5.287  0.5769 -1.7689  2.0336
 3179SOL    HW220997   2.333   0.799   5.250  0.0791  1.5283  0.0295
 3180SOL     OW20998   3.941   4.177   4.881 -0.3025  0.5334  0.8518
 3180SOL    HW120999   3.876   4.134   4.824 -0.5754  1.7800  0.2270
 3180SOL    HW221000   3.956   4.101   4.937  0.4282 -0.5713 -0.8406
 3181SOL     OW21001   0.468   0.978   6.429  0.2952  0.3101  0.7762
 3181SOL    HW121002   0.391   0.949   6.477 -0.6874  0.3106 -0.8074
 3181SOL    HW221003   0.433   1.059   6.393  1.1428  0.3330  0.0002
 3182SOL     OW21004   1.729   2.904   7.347  0.6016  0.2695 -0.2389
 3182SOL    HW121005   1.644   2.876   7.314  1.3593 -0.7099 -1.3603
 3182SOL    HW221006   1.769   2.824   7.381  0.2722 -0.3647 -1.3517
 3183SOL     OW21007   4.008   1.765   7.639  0.0931 -0.6216  0.0636
 3183SOL    HW121008   4.054   1.747   7.557  1.3149 -2.0952  1.1091
 3183SOL    HW221009   4.019   1.860   7.647  3.6546 -0.9749 -0.9632
 3184SOL     OW21010   3.093   3.737  12.544  0.0225  0.4581 -0.2978
 3184SOL    HW121011   3.150   3.669  12.580 -1.1500 -1.3874 -1.9405
 3184SOL    HW221012   3.026   3.692  12.492 -0.5703 -1.0746  1.7682
 3185SOL     OW21013   2.198   1.283   1.058  0.3531 -0.2364 -0.1097
 3185SOL    HW121014   2.121   1.276   1.002  0.3468  1.1817 -0.2702
 3185SOL    HW221015   2.159   1.260   1.143 -3.6746  2.7627 -1.1673
 3186SOL     OW21016   4.142   4.714   9.237  0.0744 -0.0799 -0.1970
 3186SOL    HW121017   4.174   0.075   9.199 -0.2944  2.1960  4.3457
 3186SOL    HW221018   4.060   0.025   9.275  1.2431  1.5753  0.9362
 3187SOL     OW21019   3.903   3.065  10.338 -0.2797  0.3087 -0.0240
 3187SOL    HW121020   3.821   3.071  10.387  0.0305  3.1393  0.1499
 3187SOL    HW221021   3.966   3.063  10.410 -0.9321 -2.1040  0.4999
 3188SOL     OW21022   0.967   0.383   2.066 -0.3496 -0.0935  0.6318
 3188SOL    HW121023   1.021   0.458   2.039  0.5890  0.1972  3.2193
 3188SOL    HW221024   0.893   0.386   2.006 -1.3582  1.4927  1.9425
 3189SOL     OW21025   3.138   4.478   9.530 -0.3735 -0.0959 -0.2640
 3189SOL    HW121026   3.162   4.396   9.572 -4.3868 -0.9960  0.3278
 3189SOL    HW221027   3.181   4.473   9.444  1.6572  0.5097  0.7312
 3190SOL     OW21028   2.667   0.374   9.645  0.5138  0.4389 -0.0198
 3190SOL    HW121029   2.702   0.294   9.684 -2.0412 -0.5272  0.3226
 3190SOL    HW221030   2.574   0.349   9.643  0.5940  0.2077 -0.8453
 3191SOL     OW21031   3.283   1.188   8.217  0.1793 -0.6253 -0.0218
 3191SOL    HW121032   3.241   1.203   8.302  1.3353  1.6693  0.1583
 3191SOL    HW221033   3.370   1.228   8.220 -1.0401  1.9926  0.7078
 3192SOL     OW21034   4.327   2.656   7.639 -0.1420  0.6977  0.7986
 3192SOL    HW121035   4.306   2.569   7.606 -2.1269  1.4530  0.0738
 3192SOL    HW221036   4.370   2.644   7.724  0.1016 -1.4170  0.3587
 3193SOL     OW21037   0.635   1.036  11.446  0.0337  0.5835  0.1311
 3193SOL    HW121038   0.604   1.117  11.487 -1.0359 -0.3900  1.2491
 3193SOL    HW221039   0.718   1.027  11.493 -0.5240  0.1711  1.0486
 3194SOL     OW21040   1.386   2.615   4.754  0.6324  0.2053 -0.3581
 3194SOL    HW121041   1.454   2.682   4.763  1.5130 -0.6045 -1.0105
 3194SOL    HW221042   1.424   2.566   4.681  2.1217 -1.0950  1.3234
 3195SOL     OW21043   2.000   0.532   3.528  0.3158  0.4256 -0.5007
 3195SOL    HW121044   2.007   0.529   3.432  0.8587 -1.0245 -0.4176
 3195SOL    HW221045   2.088   0.503   3.553 -0.6792 -0.7820  1.5330
 3196SOL     OW21046   0.839   3.140  15.622  0.1230  0.3893 -0.2006
 3196SOL    HW121047   0.788   3.134  15.702  0.3684 -1.1957 -0.1559
 3196SOL    HW221048   0.803   3.078  15.558 -1.9870  0.5445  0.8598
 3197SOL     OW21049   0.108   2.307   9.980 -0.0399  0.4302 -0.0901
 3197SOL    HW121050   0.148   2.376  10.033 -0.8161  2.1679 -1.7619
 3197SOL    HW221051   0.178   2.243   9.993  0.1143  0.7900  0.7981
 3198SOL     OW21052   4.299   1.689  10.905 -0.2713  0.0664 -0.5112
 3198SOL    HW121053   4.262   1.621  10.961  0.4469 -0.0749 -0.2074
 3198SOL    HW221054   4.383   1.703  10.948  0.0747 -0.7989 -0.9190
 3199SOL     OW21055   4.089   1.284  15.867  0.2894 -0.9592 -0.0239
 3199SOL    HW121056   4.053   1.373  15.859 -0.6138 -1.3010  0.2065
 3199SOL    HW221057   4.051   1.236  15.794 -0.6684 -2.0205  1.1770
 3200SOL     OW21058   2.303   3.115   7.449 -0.1615 -0.3074 -0.2887
 3200SOL    HW121059   2.367   3.149   7.512  0.3487  0.5075 -1.2365
 3200SOL    HW221060   2.328   3.025   7.429  2.2463  0.4442 -0.6675
 3201SOL     OW21061   0.342   1.901   0.760  0.1106  0.0060 -0.2578
 3201SOL    HW121062   0.288   1.978   0.778 -0.9036 -0.7057 -0.2859
 3201SOL    HW221063   0.276   1.832   0.759  0.1631 -0.0312 -1.7945
 3202SOL     OW21064   3.326   0.082   7.935  0.1210  0.0054  0.1139
 3202SOL    HW121065   3.275   0.024   7.879  0.1954  0.9949 -0.9881
 3202SOL    HW221066   3.257   0.138   7.972  0.5155 -0.1504  1.0841
 3203SOL     OW21067   0.460   2.275  13.670 -0.0183  0.5016 -0.5193
 3203SOL    HW121068   0.447   2.181  13.660  1.6544  0.2300 -0.0916
 3203SOL    HW221069   0.377   2.307  13.634 -0.9033 -1.4878 -0.2393
 3204SOL     OW21070   2.028   1.584  13.391 -0.0938  0.2382  0.1521
 3204SOL    HW121071   1.990   1.498  13.409 -1.2236  0.4524 -1.2247
 3204SOL    HW221072   1.949   1.638  13.395 -0.3918 -0.2299  0.6505
 3205SOL     OW21073   0.450   4.158   6.305 -0.1786 -0.4179  0.1920
 3205SOL    HW121074   0.361   4.191   6.296 -0.0033  0.3495  1.2225
 3205SOL    HW221075   0.437   4.074   6.262 -0.1922 -0.0402 -0.5317
 3206SOL     OW21076   1.702   0.704  16.454 -0.1919  0.0128 -0.3228
 3206SOL    HW121077   1.767   0.653  16.406 -0.6167  0.7573 -1.6762
 3206SOL    HW221078   1.681   0.632  16.514 -0.3786  0.8221  0.5891
 3207SOL     OW21079   2.299   2.563   3.214 -0.4923  1.1966 -0.3770
 3207SOL    HW121080   2.304   2.610   3.131  1.2823  2.9689  0.7666
 3207SOL    HW221081   2.343   2.623   3.273  0.4625  0.9247 -0.8175
 3208SOL     OW21082   0.102   1.226   7.540 -0.2960  0.1271 -0.1339
 3208SOL    HW121083   0.178   1.233   7.598  1.7081 -3.3814 -2.3656
 3208SOL    HW221084   0.029   1.260   7.593 -1.1555 -1.0743 -0.5197
 3209SOL     OW21085   4.408   3.488   5.512 -0.1588 -0.4998  0.2171
 3209SOL    HW121086   4.392   3.531   5.597 -2.4040 -0.6244 -0.1262
 3209SOL    HW221087   4.502   3.502   5.502 -0.1338 -0.9470 -0.1699
 3210SOL     OW21088   4.472   1.603   2.656  0.2706 -0.1978  0.5537
 3210SOL    HW121089   4.539   1.586   2.590 -2.6204  1.3059 -2.7459
 3210SOL    HW221090   4.525   1.586   2.734  1.0398  2.2027  0.5615
 3211SOL     OW21091   0.749   4.441   5.935 -0.2240 -0.4773 -0.2501
 3211SOL    HW121092   0.727   4.435   6.028 -1.4026 -3.0530 -0.7010
 3211SOL    HW221093   0.751   4.536   5.920 -1.9001  0.1141  3.4436
 3212SOL     OW21094   1.301   4.494   7.633 -0.8230  0.2119 -0.1511
 3212SOL    HW121095   1.241   4.543   7.577 -0.3794 -0.7018 -1.4507
 3212SOL    HW221096   1.238   4.426   7.657  0.5948 -0.7025  1.0243
 3213SOL     OW21097   4.022   2.712  17.499  0.4649 -0.2215 -0.1038
 3213SOL    HW121098   4.112   2.743  17.490  0.3985 -0.5941 -1.9632
 3213SOL    HW221099   3.976   2.734  17.419 -0.9232 -0.6102  0.5877
 3214SOL     OW21100   3.069   1.995  15.276 -0.0039 -0.3816  0.4755
 3214SOL    HW121101   3.136   1.941  15.317  2.2903  0.9817 -1.4935
 3214SOL    HW221102   3.099   1.993  15.185  1.8117  0.9796  1.0413
 3215SOL     OW21103   0.819   1.212   9.202 -1.0083 -0.0635 -0.0876
 3215SOL    HW121104   0.759   1.200   9.275 -1.6094 -0.0179 -0.5719
 3215SOL    HW221105   0.867   1.130   9.193  0.2671  1.0612 -3.5340
 3216SOL     OW21106   2.804   2.160   0.642 -0.0474  0.0955 -0.0802
 3216SOL    HW121107   2.834   2.084   0.692 -2.5723 -0.0079  1.2849
 3216SOL    HW221108   2.753   2.117   0.573 -0.7068  0.9220 -0.1110
 3217SOL     OW21109   3.541   4.198   7.396 -0.2941 -0.5438  0.7300
 3217SOL    HW121110   3.469   4.147   7.361  0.0836  0.0663 -0.9602
 3217SOL    HW221111   3.584   4.133   7.452 -0.5301 -1.9267 -0.7011
 3218SOL     OW21112   4.369   1.350   3.724 -0.3401 -0.1119  0.9167
 3218SOL    HW121113   4.290   1.338   3.777  0.2985  0.0880  1.9183
 3218SOL    HW221114   4.347   1.438   3.692  2.3081  0.6579  1.1694
 3219SOL     OW21115   2.110   3.293   6.913  0.7902  0.4459 -0.4186
 3219SOL    HW121116   2.139   3.212   6.955  1.7772  0.4749 -1.0485
 3219SOL    HW221117   2.153   3.285   6.828 -1.2123  0.1731 -1.4121
 3220SOL     OW21118   0.212   1.709   0.515 -0.0987  0.1109 -0.1452
 3220SOL    HW121119   0.185   1.706   0.606 -2.3611 -2.1147 -0.9094
 3220SOL    HW221120   0.243   1.619   0.503  0.6932  0.0183  2.7696
 3221SOL     OW21121   4.396   2.163   5.071 -0.0777  0.5097  0.1825
 3221SOL    HW121122   4.481   2.123   5.090 -0.4402 -0.3851 -0.0986
 3221SOL    HW221123   4.334   2.110   5.120  1.0248  1.0542  2.1755
 3222SOL     OW21124   4.278   4.495   4.812  0.3504 -0.6189 -0.1820
 3222SOL    HW121125   4.278   4.590   4.799 -0.4584 -0.5435  0.4142
 3222SOL    HW221126   4.324   4.462   4.735  0.4734  1.4232 -1.0009
 3223SOL     OW21127   0.620   1.001   6.143 -0.1493 -0.3801 -0.8060
 3223SOL    HW121128   0.698   1.044   6.107  1.8847 -4.1280 -0.9365
 3223SOL    HW221129   0.662   0.931   6.193  0.0366  0.5154  0.2695
 3224SOL     OW21130   2.139   4.065   5.254  0.2219 -0.1599 -0.0085
 3224SOL    HW121131   2.111   4.149   5.218  0.6616 -0.6327 -1.4147
 3224SOL    HW221132   2.159   4.017   5.174 -3.5836 -0.1792 -0.9527
 3225SOL     OW21133   1.883   4.197   3.636 -0.1794 -0.1622 -0.3976
 3225SOL    HW121134   1.937   4.263   3.591  1.8916  0.0760  2.4286
 3225SOL    HW221135   1.861   4.132   3.570  0.3115 -0.9046  0.1730
 3226SOL     OW21136   0.305   3.966   2.197  0.2845 -0.9113 -0.8278
 3226SOL    HW121137   0.390   3.936   2.229 -0.0693 -2.0472 -0.9573
 3226SOL    HW221138   0.262   3.894   2.244  0.7514 -0.6115  0.0496
 3227SOL     OW21139   0.541   1.408   4.745  0.1666  0.2835  0.2634
 3227SOL    HW121140   0.520   1.491   4.701 -0.7192  0.6002  1.2893
 3227SOL    HW221141   0.624   1.389   4.702  0.1122  1.2464 -0.2818
 3228SOL     OW21142   3.999   4.035   2.909  0.2078 -0.0979  0.3170
 3228SOL    HW121143   3.969   3.949   2.878  0.4479  0.3924 -1.3130
 3228SOL    HW221144   4.020   4.085   2.830 -0.2833 -1.5474 -0.7232
 3229SOL     OW21145   0.024   0.028   0.559  0.1025  0.5234 -0.1266
 3229SOL    HW121146   4.656   0.059   0.578  0.9042  0.8009  3.1729
 3229SOL    HW221147   0.075   0.099   0.599  0.6893  0.9736 -1.6810
 3230SOL     OW21148   1.358   1.895  17.277 -0.0005  0.5117 -0.2329
 3230SOL    HW121149   1.372   1.981  17.237  0.5642 -0.3642 -1.9471
 3230SOL    HW221150   1.439   1.881  17.327 -1.4604 -1.8464  1.4243
 3231SOL     OW21151   4.228   2.223   6.892 -0.3281 -0.0535  0.1539
 3231SOL    HW121152   4.230   2.261   6.979 -2.4079 -1.0408  0.6232
 3231SOL    HW221153   4.319   2.246   6.871 -0.5198  0.8735  0.3373
 3232SOL     OW21154   0.060   4.103   6.680 -0.1435  0.7024 -0.2362
 3232SOL    HW121155   0.031   4.127   6.767  0.8512  2.5726 -0.4175
 3232SOL    HW221156   0.055   4.184   6.630  0.2204  0.8564 -0.0239
 3233SOL     OW21157   2.466   2.460  10.735  0.0809 -0.1782 -0.3407
 3233SOL    HW121158   2.520   2.421  10.804  1.2979 -0.5134 -1.4879
 3233SOL    HW221159   2.487   2.553  10.742 -0.5042 -0.1457  0.9876
 3234SOL     OW21160   4.063   4.579   8.959 -0.2166  0.6521  0.3779
 3234SOL    HW121161   4.086   4.490   8.988 -2.5765  0.4183  1.5474
 3234SOL    HW221162   4.004   4.551   8.888 -1.8471 -0.9972  2.3808
 3235SOL     OW21163   3.965   0.127   5.474  0.0472  0.6341 -0.5137
 3235SOL    HW121164   3.962   0.214   5.514 -2.0476  0.6100 -0.6041
 3235SOL    HW221165   3.872   0.108   5.460  0.0528 -0.0326  0.4106
 3236SOL     OW21166   2.338   3.697   5.476  0.2693  0.2578 -0.2455
 3236SOL    HW121167   2.260   3.656   5.512 -0.1701  0.9173 -0.4445
 3236SOL    HW221168   2.325   3.676   5.383 -2.6503  0.3200  0.1637
 3237SOL     OW21169   3.047   2.510   9.308  0.2672 -0.1929  0.3542
 3237SOL    HW121170   3.080   2.527   9.396  0.4025  0.7910  0.1145
 3237SOL    HW221171   2.953   2.509   9.330  0.6744  1.2125  2.1196
 3238SOL     OW21172   1.062   1.904   4.210  0.7840  0.0915 -0.4353
 3238SOL    HW121173   0.975   1.921   4.247 -0.0716 -0.9002 -1.9575
 3238SOL    HW221174   1.061   1.951   4.127  0.6107  2.3667  0.8653
 3239SOL     OW21175   3.016   1.831   7.431 -0.1314  0.5281  0.6537
 3239SOL    HW121176   2.924   1.843   7.452 -0.3081  0.5584 -0.1738
 3239SOL    HW221177   3.049   1.803   7.517 -2.8538 -0.7757  1.2660
 3240SOL     OW21178   3.389   0.059   5.964 -0.0236  0.7006  0.1245
 3240SOL    HW121179   3.475   0.023   5.985 -0.6297 -1.3978 -0.9600
 3240SOL    HW221180   3.339   4.698   5.953  0.4016  0.3046  1.1203
 3241SOL     OW21181   2.297   1.982   2.922 -0.2802 -0.0176 -0.2503
 3241SOL    HW121182   2.255   2.042   2.861 -0.1194 -1.2733 -1.5951
 3241SOL    HW221183   2.224   1.925   2.946  0.4303 -0.7424  0.1865
 3242SOL     OW21184   4.482   3.641   6.469  0.2933  0.4178  0.4563
 3242SOL    HW121185   4.543   3.668   6.401 -0.4706 -0.4783 -0.5863
 3242SOL    HW221186   4.410   3.593   6.427 -0.4191  1.9641 -0.0725
 3243SOL     OW21187   3.265   2.945  13.912 -0.4101  0.0103  0.5858
 3243SOL    HW121188   3.350   2.970  13.876 -0.0768  0.2547  1.5381
 3243SOL    HW221189   3.255   2.872  13.851 -0.0132  1.4513 -1.2066
 3244SOL     OW21190   3.020   4.712   9.621  0.5922  0.2694  0.0258
 3244SOL    HW121191   3.021   4.630   9.572  1.6675  0.0202  0.4682
 3244SOL    HW221192   3.081   4.680   9.687 -0.1623 -0.0957  0.5473
 3245SOL     OW21193   1.471   2.336   0.220 -0.4928  0.0737 -0.4821
 3245SOL    HW121194   1.488   2.298   0.307  4.5781  0.8218 -1.2043
 3245SOL    HW221195   1.414   2.274   0.174  0.1165 -0.5774 -0.3646
 3246SOL     OW21196   1.873   0.818   9.442  0.2705 -0.5868 -0.3197
 3246SOL    HW121197   1.883   0.885   9.375 -1.2390 -0.8558 -0.8068
 3246SOL    HW221198   1.958   0.823   9.485 -0.0467 -1.6999  0.4277
 3247SOL     OW21199   1.558   1.090   5.473  0.3198  0.5721  0.8165
 3247SOL    HW121200   1.620   1.161   5.483 -0.0820  0.6686  2.6378
 3247SOL    HW221201   1.547   1.086   5.378  1.4915  1.1039  0.6563
 3248SOL     OW21202   3.504   0.016   4.222 -0.1965 -0.0860  0.7486
 3248SOL    HW121203   3.543   0.081   4.164 -0.8918 -0.2240  0.1145
 3248SOL    HW221204   3.424   4.708   4.176 -0.0322 -2.5814  2.0220
 3249SOL     OW21205   3.094   2.571   2.815  0.3100  0.1443  0.7326
 3249SOL    HW121206   3.051   2.517   2.881 -0.2532 -0.9858 -0.5777
 3249SOL    HW221207   3.026   2.563   2.748  0.5722  2.1307  0.2214
 3250SOL     OW21208   2.552   1.116   7.914 -0.7699 -0.2574  0.0608
 3250SOL    HW121209   2.489   1.154   7.853 -0.8045  0.0549  0.2921
 3250SOL    HW221210   2.626   1.171   7.887  0.0909 -1.8789 -0.8974
 3251SOL     OW21211   4.034   0.658   3.109  0.2563  0.5280  0.3053
 3251SOL    HW121212   3.968   0.624   3.169  0.9452 -0.8268  0.2999
 3251SOL    HW221213   4.095   0.710   3.162  2.0852  0.1940 -1.4842
 3252SOL     OW21214   1.458   0.233   6.006  0.1711  0.1305 -0.1260
 3252SOL    HW121215   1.534   0.285   5.979  0.5189  0.1724  0.9609
 3252SOL    HW221216   1.468   0.215   6.099 -0.8852 -0.3690 -0.1007
 3253SOL     OW21217   2.401   1.313   1.666 -0.5397 -0.0418  0.1753
 3253SOL    HW121218   2.406   1.222   1.695 -0.9008  0.1178  0.7272
 3253SOL    HW221219   2.371   1.293   1.577 -0.7367  0.1020  0.2097
 3254SOL     OW21220   4.199   1.251   4.842 -0.0024 -0.3816 -0.4629
 3254SOL    HW121221   4.272   1.268   4.783 -0.7977 -2.6121 -2.0854
 3254SOL    HW221222   4.130   1.235   4.777 -1.3887  3.0468  0.1591
 3255SOL     OW21223   0.272   2.930   3.241  0.3437  0.3753 -0.0709
 3255SOL    HW121224   0.226   2.993   3.185 -1.2066 -0.8788 -0.2257
 3255SOL    HW221225   0.226   2.948   3.323 -0.2331 -0.3816 -0.2284
 3256SOL     OW21226   2.634   4.451   4.001 -0.0749 -0.0112  0.2611
 3256SOL    HW121227   2.705   4.495   3.954 -0.7393  1.6641  0.8243
 3256SOL    HW221228   2.574   4.526   4.007 -0.6980 -0.6295  1.6682
 3257SOL     OW21229   0.808   4.147   1.167 -0.1683  0.1612  0.1945
 3257SOL    HW121230   0.892   4.101   1.162  0.1491  0.9358 -1.4852
 3257SOL    HW221231   0.828   4.173   1.257  1.6461 -0.6170  0.0283
 3258SOL     OW21232   4.228   3.736   4.867 -0.0394  0.2735 -0.3283
 3258SOL    HW121233   4.235   3.641   4.870 -2.1834  0.1288  0.4458
 3258SOL    HW221234   4.269   3.762   4.950  1.2803 -0.6803 -0.6960
 3259SOL     OW21235   3.528   1.174   4.511 -0.4594 -0.0323  0.5570
 3259SOL    HW121236   3.469   1.143   4.580 -0.9249 -1.2791 -0.4091
 3259SOL    HW221237   3.546   1.260   4.548  0.2996 -0.2745  0.7368
 3260SOL     OW21238   4.672   3.980   3.383  0.8452 -0.6351  0.4150
 3260SOL    HW121239   4.652   4.002   3.474 -1.4636  0.8993 -0.4669
 3260SOL    HW221240   0.039   3.941   3.387  1.1614  0.2534  2.1288
 3261SOL     OW21241   0.885   2.117   7.156  0.3256 -0.2414  0.2599
 3261SOL    HW121242   0.973   2.152   7.149 -0.0778  0.7744  0.2478
 3261SOL    HW221243   0.896   2.044   7.094 -0.2485 -0.3825  0.3214
 3262SOL     OW21244   3.500   0.500   9.483 -0.3530 -0.1147  0.1703
 3262SOL    HW121245   3.550   0.418   9.487  0.4753  0.4183  0.7360
 3262SOL    HW221246   3.435   0.474   9.418 -0.0993  0.7746 -0.4279
 3263SOL     OW21247   3.050   2.770   9.209 -0.0806  0.0137  0.2062
 3263SOL    HW121248   2.974   2.802   9.258  0.1709  0.5159  0.2662
 3263SOL    HW221249   3.031   2.676   9.215 -1.3104  0.3837  2.0131
 3264SOL     OW21250   3.577   1.313   9.898 -0.0203 -0.3218 -0.1764
 3264SOL    HW121251   3.529   1.281   9.975  2.5590  0.5411  1.7952
 3264SOL    HW221252   3.664   1.286   9.928  1.1330  0.8968 -2.3967
 3265SOL     OW21253   2.398   4.338   1.239 -0.5491  0.1231 -0.2679
 3265SOL    HW121254   2.389   4.393   1.317  2.4036  1.8000 -1.1047
 3265SOL    HW221255   2.351   4.262   1.273 -0.5362  0.2562  0.0415
 3266SOL     OW21256   2.112   1.618   1.384 -0.0351 -0.8921 -0.1092
 3266SOL    HW121257   2.028   1.591   1.348  0.9665 -1.0285 -2.3216
 3266SOL    HW221258   2.174   1.584   1.319 -0.1120 -1.8926  0.3340
 3267SOL     OW21259   2.982   0.198   3.607 -0.0391 -0.2432 -0.3014
 3267SOL    HW121260   2.996   0.107   3.632  1.0032  0.8284  3.0269
 3267SOL    HW221261   3.075   0.215   3.589 -0.6984  4.4185  0.8205
 3268SOL     OW21262   4.504   1.476  12.715  0.5111  0.9234  0.2899
 3268SOL    HW121263   4.434   1.423  12.751  1.6382  0.2663  1.5119
 3268SOL    HW221264   4.450   1.524  12.652 -2.6468  0.1029  2.4247
 3269SOL     OW21265   2.875   0.562   9.067 -0.1607 -0.3568  0.8714
 3269SOL    HW121266   2.940   0.591   9.130 -1.2763  0.3871  1.6871
 3269SOL    HW221267   2.897   0.469   9.062 -2.3633 -0.8328 -0.0742
 3270SOL     OW21268   4.674   1.514   1.132 -0.0320 -0.3823  0.2460
 3270SOL    HW121269   0.020   1.573   1.167 -1.1840  2.4256 -2.3791
 3270SOL    HW221270   4.695   1.538   1.042  1.0885  0.2888  0.6924
 3271SOL     OW21271   4.533   0.842   8.559  0.1668  0.5846  0.0137
 3271SOL    HW121272   4.520   0.931   8.592  1.1858  0.8223 -0.2361
 3271SOL    HW221273   4.454   0.795   8.585  0.8752  0.5418  2.1151
 3272SOL     OW21274   3.110   2.837   8.884  0.5448  0.0611 -0.3947
 3272SOL    HW121275   3.019   2.846   8.911  0.3238  2.2637 -1.8083
 3272SOL    HW221276   3.140   2.909   8.939 -0.5758  2.3710 -2.7573
 3273SOL     OW21277   0.670   3.930  15.919 -0.4959 -0.0017  0.0382
 3273SOL    HW121278   0.669   4.021  15.948  0.1567 -0.3294  1.0798
 3273SOL    HW221279   0.765   3.917  15.911 -0.0490  2.8809  0.5007
 3274SOL     OW21280   1.255   2.059   6.847 -0.2948  0.1453 -0.0440
 3274SOL    HW121281   1.166   2.026   6.854 -0.4400  0.7259  0.8587
 3274SOL    HW221282   1.264   2.126   6.914  1.7595  1.1278 -1.3006
 3275SOL     OW21283   2.579   2.556   9.090 -0.0023 -0.0528  0.3531
 3275SOL    HW121284   2.620   2.625   9.038  0.6652 -1.3980 -0.8781
 3275SOL    HW221285   2.656   2.502   9.106 -0.5945 -0.2013  2.6509
 3276SOL     OW21286   2.240   4.712  13.417  0.8681 -0.0784 -0.2584
 3276SOL    HW121287   2.173   0.042  13.463  1.2388 -0.4582  0.6966
 3276SOL    HW221288   2.298   4.712  13.493 -0.5322 -0.1232  0.8139
 3277SOL     OW21289   2.452   2.378   2.905  0.1174 -0.2517 -0.0766
 3277SOL    HW121290   2.477   2.298   2.859  0.5058  0.4761 -1.1320
 3277SOL    HW221291   2.402   2.331   2.972  0.1414  1.5588  1.2058
 3278SOL     OW21292   2.867   1.877   3.761 -0.2685  0.6709  0.1393
 3278SOL    HW121293   2.838   1.800   3.809  0.4879 -0.3508 -1.0634
 3278SOL    HW221294   2.787   1.903   3.715 -1.5577  0.2885  2.2021
 3279SOL     OW21295   2.975   0.296   9.956 -0.5124  0.0284 -0.5324
 3279SOL    HW121296   3.048   0.236   9.965  0.1416  1.0205  0.8210
 3279SOL    HW221297   2.930   0.259   9.880 -0.4654 -0.7023 -0.1967
 3280SOL     OW21298   4.449   0.559   7.593 -0.0097 -0.7526  0.2498
 3280SOL    HW121299   4.473   0.466   7.599 -0.5862 -0.9306 -0.2090
 3280SOL    HW221300   4.353   0.563   7.590  0.0927  0.4554 -1.4059
 3281SOL     OW21301   3.040   3.563   4.301 -0.3859 -0.2477 -0.6663
 3281SOL    HW121302   2.982   3.542   4.375  1.3896 -2.4216  0.1092
 3281SOL    HW221303   3.031   3.658   4.312 -0.4255 -0.3291  0.0655
 3282SOL     OW21304   1.459   2.466   5.679  0.1203  0.1633 -0.1653
 3282SOL    HW121305   1.428   2.542   5.729  0.0771 -0.4268  0.6942
 3282SOL    HW221306   1.537   2.505   5.638  0.5492  0.0663  0.5558
 3283SOL     OW21307   2.522   0.826  13.380  0.0596  0.6790  0.5411
 3283SOL    HW121308   2.574   0.891  13.427  0.8419 -0.3785  1.1307
 3283SOL    HW221309   2.529   0.762  13.451  2.8026  1.0116  0.5654
 3284SOL     OW21310   4.203   3.473   2.696 -0.6030 -0.7376  0.6737
 3284SOL    HW121311   4.230   3.564   2.713 -0.2711 -0.8110  0.5375
 3284SOL    HW221312   4.140   3.499   2.629 -0.4912  3.2797  2.1305
 3285SOL     OW21313   0.500   4.625  17.274  0.1000 -0.2711  0.2068
 3285SOL    HW121314   0.531   4.541  17.240 -0.5617 -0.7718  0.8621
 3285SOL    HW221315   0.478   4.661  17.188 -2.4939  1.1299  1.4667
 3286SOL     OW21316   4.648   0.718   7.694  0.0799  0.5160 -0.6983
 3286SOL    HW121317   4.682   0.676   7.773 -0.2743  1.1240 -0.2157
 3286SOL    HW221318   4.568   0.670   7.674  0.4322  0.3855 -1.7768
 3287SOL     OW21319   2.713   2.408  14.840 -0.1555  0.7847  0.2557
 3287SOL    HW121320   2.701   2.501  14.861  0.3003  0.4920  1.8078
 3287SOL    HW221321   2.639   2.368  14.885  0.7881 -0.8160  0.4040
 3288SOL     OW21322   2.035   3.602   7.501 -0.0547 -0.4642 -0.0210
 3288SOL    HW121323   1.968   3.605   7.433 -1.2040 -0.2292  1.1200
 3288SOL    HW221324   1.984   3.568   7.574  0.9564 -2.2861 -0.1625
 3289SOL     OW21325   0.766   4.062   6.152  0.2260  0.5626  0.1576
 3289SOL    HW121326   0.839   4.124   6.145  1.0802 -0.3599  0.8451
 3289SOL    HW221327   0.726   4.090   6.070 -1.4922 -2.5511 -0.0356
 3290SOL     OW21328   3.895   2.668   3.953  0.1974 -0.2327  0.0463
 3290SOL    HW121329   3.969   2.728   3.958 -0.4847  0.7119 -1.2482
 3290SOL    HW221330   3.891   2.630   4.040  1.8245 -0.1194  0.1640
 3291SOL     OW21331   1.286   2.368   0.590 -0.5294 -0.2724  0.4557
 3291SOL    HW121332   1.275   2.463   0.603  0.8114 -0.3569  2.2433
 3291SOL    HW221333   1.381   2.368   0.580 -0.7536  2.2190 -1.7028
 3292SOL     OW21334   1.214   0.773   2.893 -0.5725  0.5922  0.0751
 3292SOL    HW121335   1.208   0.866   2.872 -1.3930  0.5548  0.1448
 3292SOL    HW221336   1.228   0.769   2.987  0.7572 -2.5160 -0.2466
 3293SOL     OW21337   1.592   3.715   0.837 -0.2204  0.4048  0.2510
 3293SOL    HW121338   1.620   3.734   0.927  0.2633  2.1593 -0.2761
 3293SOL    HW221339   1.677   3.724   0.794 -0.6359  0.8191 -0.4832
 3294SOL     OW21340   1.108   0.610   5.744  0.1764 -0.4342 -0.0485
 3294SOL    HW121341   1.028   0.567   5.714  0.5146 -0.9063 -0.2757
 3294SOL    HW221342   1.132   0.552   5.817  1.9323  0.1604 -0.1495
 3295SOL     OW21343   1.220   3.702  12.637 -0.6263 -0.1761 -0.3304
 3295SOL    HW121344   1.219   3.637  12.707 -0.6185  0.6624  0.4470
 3295SOL    HW221345   1.311   3.696  12.608 -1.8768 -0.8993 -4.1461
 3296SOL     OW21346   0.253   3.772   6.336  0.3846  0.3527  0.0298
 3296SOL    HW121347   0.254   3.684   6.298 -0.7378  0.4113 -0.1352
 3296SOL    HW221348   0.296   3.824   6.268 -0.2515  1.1024  0.2090
 3297SOL     OW21349   1.382   3.137  13.168 -0.1292  0.0014  0.5804
 3297SOL    HW121350   1.393   3.135  13.263  0.9083 -0.0435  0.4675
 3297SOL    HW221351   1.405   3.052  13.128 -2.3394  0.0068 -0.7068
 3298SOL     OW21352   0.682   1.511   8.039 -0.3832  0.3904  0.1756
 3298SOL    HW121353   0.624   1.453   8.089  0.4533 -0.5912  0.0175
 3298SOL    HW221354   0.756   1.508   8.100 -0.4073 -0.1605  0.1800
 3299SOL     OW21355   1.208   4.559   4.873 -0.3723 -0.4533 -0.0289
 3299SOL    HW121356   1.257   4.566   4.791 -1.6279 -0.0151 -0.7338
 3299SOL    HW221357   1.270   4.511   4.927 -1.4845 -2.4767 -0.5428
 3300SOL     OW21358   0.684   0.765   2.525 -0.2260 -0.1543 -0.2454
 3300SOL    HW121359   0.762   0.710   2.531  1.0529  1.9910  3.1051
 3300SOL    HW221360   0.629   0.711   2.468 -0.1583 -1.3306  0.8206
 3301SOL     OW21361   2.211   4.027   8.193  0.1042 -0.4255  0.2056
 3301SOL    HW121362   2.224   4.120   8.175 -0.3493 -0.4378 -0.1832
 3301SOL    HW221363   2.294   3.990   8.162  0.3954 -2.6160  3.5569
 3302SOL     OW21364   2.218   3.241   0.720  1.0551 -0.1938 -0.4803
 3302SOL    HW121365   2.182   3.158   0.689  0.5078  0.0900 -0.5987
 3302SOL    HW221366   2.285   3.215   0.783  1.2604 -1.2689 -1.1454
 3303SOL     OW21367   3.993   0.341   0.695 -0.4974  0.2562  0.3215
 3303SOL    HW121368   3.916   0.324   0.640 -1.1009  0.1471  1.2092
 3303SOL    HW221369   4.073   0.333   0.642  0.4846  0.0223  1.8442
 3304SOL     OW21370   1.807   4.476   7.909 -0.3460  0.0043 -0.2394
 3304SOL    HW121371   1.801   4.464   8.004 -2.7394 -0.0283 -0.4099
 3304SOL    HW221372   1.731   4.424   7.882 -0.5051  1.3716 -2.3359
 3305SOL     OW21373   2.924   1.320   3.401  0.6316 -0.3447 -0.3729
 3305SOL    HW121374   2.908   1.240   3.452 -1.3292  0.1313 -0.2528
 3305SOL    HW221375   2.848   1.372   3.427 -0.4571 -2.1216  0.0740
 3306SOL     OW21376   1.420   0.429   8.290  0.8966 -0.5913  0.0820
 3306SOL    HW121377   1.405   0.488   8.216 -0.9977 -0.7882  0.2943
 3306SOL    HW221378   1.501   0.463   8.328  0.3069  0.7235  0.1645
 3307SOL     OW21379   4.054   1.434   3.685  0.4148 -0.0980 -0.2079
 3307SOL    HW121380   4.054   1.530   3.683  2.4857 -0.1135 -1.3061
 3307SOL    HW221381   4.090   1.430   3.596  1.5619  4.4796  0.0285
 3308SOL     OW21382   2.406   0.820   8.138 -0.4713 -0.1220 -0.1180
 3308SOL    HW121383   2.356   0.830   8.219  1.2048 -2.9243  1.2433
 3308SOL    HW221384   2.344   0.862   8.078  2.9535  0.7535 -3.0743
 3309SOL     OW21385   1.687   2.437   4.751 -0.5396  0.3833  0.4884
 3309SOL    HW121386   1.632   2.361   4.772 -0.8938  0.1859 -1.2243
 3309SOL    HW221387   1.755   2.428   4.818 -1.2353  0.2232  1.1693
 3310SOL     OW21388   1.944   0.899   0.438  0.0214  0.1549 -0.0338
 3310SOL    HW121389   2.006   0.880   0.508  0.2188 -2.8204 -1.0248
 3310SOL    HW221390   1.862   0.918   0.483 -0.9442  0.1058 -1.7648
 3311SOL     OW21391   0.803   0.343   7.788  0.4767  0.0633 -0.0732
 3311SOL    HW121392   0.762   0.351   7.874  0.5779  0.0065 -0.0206
 3311SOL    HW221393   0.741   0.397   7.739 -0.8766 -1.3866  0.0404
 3312SOL     OW21394   0.949   0.821   3.350 -0.6717 -0.0125  0.0288
 3312SOL    HW121395   0.888   0.875   3.399  0.0453  0.8372 -0.0200
 3312SOL    HW221396   0.897   0.746   3.323  0.6953 -0.9701  0.0291
 3313SOL     OW21397   2.018   1.140   3.094 -0.1511  0.3408 -0.7396
 3313SOL    HW121398   2.085   1.176   3.036  0.1925  0.4219 -0.2938
 3313SOL    HW221399   2.015   1.207   3.161 -5.1024 -0.6472  0.0504
 3314SOL     OW21400   0.269   1.632   5.676 -0.0303 -0.0566  0.0618
 3314SOL    HW121401   0.347   1.597   5.633 -0.2793 -2.0489  1.1919
 3314SOL    HW221402   0.219   1.663   5.601  0.3214 -0.6156 -0.3952
 3315SOL     OW21403   4.250   4.213   9.257  0.2312  0.1809  0.0413
 3315SOL    HW121404   4.287   4.297   9.282  1.6255  0.4694 -3.0458
 3315SOL    HW221405   4.235   4.185   9.348 -1.8902 -0.5705 -0.5361
 3316SOL     OW21406   3.357   2.662  10.659 -0.0250 -0.0961  0.2429
 3316SOL    HW121407   3.322   2.750  10.672 -1.2270 -0.8098  1.7628
 3316SOL    HW221408   3.371   2.637  10.750 -1.2466 -1.8082 -0.0394
 3317SOL     OW21409   2.903   1.315  14.617 -0.0169  0.1887 -0.3829
 3317SOL    HW121410   2.830   1.279  14.667  0.1450 -0.6285 -0.7332
 3317SOL    HW221411   2.910   1.408  14.636 -1.4583  0.2705 -0.3051
 3318SOL     OW21412   1.861   4.428  10.172 -0.9383 -0.3706  0.4110
 3318SOL    HW121413   1.848   4.520  10.148  0.8679 -0.2271  0.0367
 3318SOL    HW221414   1.898   4.431  10.260  2.4271  0.2915 -1.0560
 3319SOL     OW21415   4.572   2.155  17.279 -0.0850 -0.2162  0.0664
 3319SOL    HW121416   4.489   2.109  17.271 -1.7049  2.5385  0.9208
 3319SOL    HW221417   4.620   2.125  17.202 -1.9975  1.7529 -1.8871
 3320SOL     OW21418   0.445   1.997  13.322  0.1058  0.3768 -0.1234
 3320SOL    HW121419   0.352   2.004  13.301  0.5026  3.3623 -0.8692
 3320SOL    HW221420   0.455   1.909  13.284  0.6688  0.6591 -0.6317
 3321SOL     OW21421   2.232   2.583  17.039  0.2113 -0.3243 -0.5293
 3321SOL    HW121422   2.224   2.644  16.966 -0.8303 -0.4616 -0.5431
 3321SOL    HW221423   2.326   2.566  17.047 -0.3149 -2.3397  1.6717
 3322SOL     OW21424   3.136   2.367   5.969 -0.1603  0.2272 -0.6217
 3322SOL    HW121425   3.130   2.380   6.064 -1.2428  1.3820 -0.8456
 3322SOL    HW221426   3.230   2.387   5.964 -0.4137  1.4752 -0.5174
 3323SOL     OW21427   3.983   4.061   5.864 -0.3700 -0.0700  0.0863
 3323SOL    HW121428   4.020   4.149   5.865 -0.7626  0.0943  0.4378
 3323SOL    HW221429   4.062   4.007   5.869  0.0944  0.4711 -1.2403
 3324SOL     OW21430   1.336   3.585   5.865  0.4477 -0.2935 -0.7113
 3324SOL    HW121431   1.339   3.664   5.812  3.1574  0.3753  0.4208
 3324SOL    HW221432   1.424   3.549   5.848  0.3428 -0.2032 -1.4421
 3325SOL     OW21433   3.508   3.853   3.876  0.0734  0.1911 -0.6592
 3325SOL    HW121434   3.474   3.764   3.882 -0.2095  0.3259 -0.2196
 3325SOL    HW221435   3.519   3.863   3.781  1.6407 -0.8234 -0.5688
 3326SOL     OW21436   4.484   0.775   4.010  0.1019 -0.0747 -1.0005
 3326SOL    HW121437   4.578   0.760   4.009  0.0969 -0.2849  0.8893
 3326SOL    HW221438   4.479   0.871   4.007 -0.0169 -0.0559 -0.2503
 3327SOL     OW21439   3.721   2.692   4.485 -0.4043  0.3273  0.1152
 3327SOL    HW121440   3.772   2.613   4.467 -0.1815 -0.0197  2.2559
 3327SOL    HW221441   3.632   2.672   4.458 -0.7134  1.1973  0.5190
 3328SOL     OW21442   3.574   3.733  12.892  0.3241  0.5598 -0.1982
 3328SOL    HW121443   3.560   3.686  12.974 -1.0375 -1.8599 -1.8191
 3328SOL    HW221444   3.488   3.772  12.876 -0.9656 -0.4826  4.3040
 3329SOL     OW21445   1.626   1.913   6.820 -0.7989  0.1290 -0.5359
 3329SOL    HW121446   1.614   1.825   6.785 -3.2674  0.4368 -0.4948
 3329SOL    HW221447   1.614   1.966   6.740 -1.5002  0.3608 -0.2709
 3330SOL     OW21448   0.173   4.621   2.146 -0.3520  0.0494 -0.2350
 3330SOL    HW121449   0.079   4.607   2.154 -0.2463 -0.1844  0.6511
 3330SOL    HW221450   0.172   4.717   2.145  3.4304  0.0853 -0.0115
 3331SOL     OW21451   4.627   1.613  16.450  0.6487 -0.0708  0.7037
 3331SOL    HW121452   4.642   1.580  16.539  1.5379  0.7727  0.8647
 3331SOL    HW221453   4.709   1.661  16.439 -0.7679  2.0207 -0.6223
 3332SOL     OW21454   0.372   4.253  13.098 -0.1797 -0.3764  0.1421
 3332SOL    HW121455   0.327   4.190  13.042  0.7886  0.1283 -1.1883
 3332SOL    HW221456   0.426   4.305  13.039  0.2462  0.5056  1.2872
 3333SOL     OW21457   0.550   2.324   3.992 -0.1814  0.1203  0.0174
 3333SOL    HW121458   0.583   2.403   4.035 -0.3761  0.3572 -0.2677
 3333SOL    HW221459   0.532   2.348   3.901  3.0300  2.2760 -0.0698
 3334SOL     OW21460   2.313   3.857   8.447  0.4064 -0.6168  0.2665
 3334SOL    HW121461   2.370   3.907   8.389 -0.8611  1.9937  1.2753
 3334SOL    HW221462   2.382   3.824   8.505  2.1688 -1.2854 -2.2027
 3335SOL     OW21463   2.575   2.610   6.938 -0.2323 -0.0419 -0.2696
 3335SOL    HW121464   2.628   2.532   6.920 -1.0331 -0.6718  0.1141
 3335SOL    HW221465   2.585   2.620   7.033  2.0670 -0.8899 -0.4040
 3336SOL     OW21466   2.441   4.123   3.258 -0.2061 -0.3161 -0.4790
 3336SOL    HW121467   2.507   4.095   3.322 -0.9520 -1.3667 -0.1644
 3336SOL    HW221468   2.365   4.147   3.312 -0.1108 -1.2042  0.0449
 3337SOL     OW21469   3.066   2.241   2.983  0.2355 -0.3603  0.5299
 3337SOL    HW121470   3.010   2.318   2.978  1.1346  0.2578 -0.0060
 3337SOL    HW221471   3.151   2.272   2.953 -0.0010  1.8282  2.1731
 3338SOL     OW21472   0.885   1.066  12.471  0.4324 -0.2084  0.4572
 3338SOL    HW121473   0.939   0.996  12.508  0.5981 -1.3026 -1.8994
 3338SOL    HW221474   0.869   1.027  12.386  2.8690 -0.9022  0.3133
 3339SOL     OW21475   0.009   4.056   5.327 -0.4438  0.1493  0.4624
 3339SOL    HW121476   0.064   4.130   5.301  1.3044 -1.3622 -0.1951
 3339SOL    HW221477   4.688   4.090   5.406  0.0431  0.4520  0.5866
 3340SOL     OW21478   1.931   1.795  10.959 -1.1780 -0.4177  0.8583
 3340SOL    HW121479   1.853   1.749  10.926 -0.7922  0.2275 -0.9441
 3340SOL    HW221480   1.979   1.729  11.009 -1.3362 -0.4127  1.0154
 3341SOL     OW21481   3.003   1.081  14.480 -0.3625  0.3303  0.4998
 3341SOL    HW121482   2.929   1.131  14.514 -0.8742  0.2781 -0.5660
 3341SOL    HW221483   3.066   1.105  14.549  0.6621  0.8892 -0.6376
 3342SOL     OW21484   3.315   2.505  12.663  0.5984 -0.0952 -0.0081
 3342SOL    HW121485   3.391   2.483  12.717 -0.0912  1.5024  1.6107
 3342SOL    HW221486   3.271   2.551  12.734 -0.4658  0.0394 -0.7469
 3343SOL     OW21487   0.752   4.341  15.072 -0.0816  0.3586  0.7976
 3343SOL    HW121488   0.783   4.288  14.998  0.6248 -0.5966  1.7742
 3343SOL    HW221489   0.826   4.344  15.133  0.1078  0.3384  0.5687
 3344SOL     OW21490   0.619   0.132   3.676 -0.2306  0.0489 -0.0329
 3344SOL    HW121491   0.628   0.099   3.586 -0.2035 -2.9140  1.0547
 3344SOL    HW221492   0.559   0.207   3.670 -0.0678  0.2679  1.2043
 3345SOL     OW21493   3.057   2.552   4.297  0.0720  0.0078  0.0688
 3345SOL    HW121494   3.092   2.594   4.375  1.9857  0.5173 -1.0712
 3345SOL    HW221495   3.101   2.602   4.228  0.5121 -0.1375  0.2462
 3346SOL     OW21496   1.533   3.399   6.175  0.5024 -0.6269 -0.1902
 3346SOL    HW121497   1.545   3.307   6.151  1.9810 -0.9285  1.6703
 3346SOL    HW221498   1.465   3.397   6.242 -1.9667  0.2832 -2.6639
 3347SOL     OW21499   3.736   3.386   5.313  0.0592 -0.3708  0.1889
 3347SOL    HW121500   3.775   3.417   5.232  0.8599  2.5451  1.7026
 3347SOL    HW221501   3.800   3.316   5.330 -0.5626 -1.0566 -0.3536
 3348SOL     OW21502   3.533   4.335  17.224  0.2657 -0.1392 -0.6724
 3348SOL    HW121503   3.515   4.257  17.276  3.9116 -0.4288  0.1551
 3348SOL    HW221504   3.559   4.295  17.142  1.1410 -2.0195  0.5338
 3349SOL     OW21505   0.401   0.468   0.854  0.0794 -0.4046  0.2336
 3349SOL    HW121506   0.365   0.554   0.876 -0.9052 -1.7614  3.8463
 3349SOL    HW221507   0.371   0.460   0.764  0.3001  1.5632 -0.0116
 3350SOL     OW21508   4.660   1.354   3.119 -0.8543  0.3469  0.3940
 3350SOL    HW121509   4.573   1.341   3.082 -0.3306 -0.4953 -0.5285
 3350SOL    HW221510   4.675   1.267   3.155 -1.3637  0.8261  1.7577
 3351SOL     OW21511   1.762   1.813   2.800  0.4704 -0.2456  0.3566
 3351SOL    HW121512   1.722   1.875   2.739  1.1456 -0.2527 -0.1006
 3351SOL    HW221513   1.704   1.811   2.876  0.1971 -1.1192  0.1262
 3352SOL     OW21514   3.816   0.383  15.845  0.1973 -0.0113 -0.0223
 3352SOL    HW121515   3.843   0.470  15.873  0.6236  0.6696 -2.5356
 3352SOL    HW221516   3.875   0.357  15.774  1.8237  1.0205  0.9654
 3353SOL     OW21517   4.206   1.318   1.908 -0.3736 -0.3939  0.5573
 3353SOL    HW121518   4.167   1.399   1.875  1.4626  0.6435  0.9506
 3353SOL    HW221519   4.121   1.278   1.926 -1.2073  0.9396 -0.3680
 3354SOL     OW21520   2.478   4.671   3.960  0.3349 -0.1542  0.2190
 3354SOL    HW121521   2.386   4.694   3.972  0.0132 -0.4614 -1.7342
 3354SOL    HW221522   2.478   4.616   3.882 -3.5553  0.3979 -0.1703
 3355SOL     OW21523   4.115   3.365   0.539  0.0519 -0.4798 -0.0158
 3355SOL    HW121524   4.154   3.278   0.539  3.0715  0.9048 -0.8023
 3355SOL    HW221525   4.069   3.366   0.623 -0.4796 -0.2314 -0.3085
 3356SOL     OW21526   4.663   1.914  11.590 -0.2058 -0.3177  0.2732
 3356SOL    HW121527   4.670   1.960  11.673 -0.5970 -0.4586  0.3878
 3356SOL    HW221528   4.649   1.824  11.620  1.9929 -0.7971 -0.1136
 3357SOL     OW21529   3.636   3.128  10.472  0.0234  0.2459  0.5140
 3357SOL    HW121530   3.563   3.171  10.516 -0.8374 -0.0551 -0.6093
 3357SOL    HW221531   3.595   3.046  10.445  0.3760 -0.0444  0.8686
 3358SOL     OW21532   0.200   1.768  15.711 -0.2629 -0.1029 -0.6582
 3358SOL    HW121533   0.271   1.743  15.653 -0.4610 -2.4958  0.1278
 3358SOL    HW221534   0.157   1.686  15.734  2.7291 -1.8186 -1.2666
 3359SOL     OW21535   0.847   2.369  15.083  0.3000  0.2293 -0.0833
 3359SOL    HW121536   0.937   2.371  15.051 -0.2333  1.9582 -1.4634
 3359SOL    HW221537   0.822   2.278  15.063  0.1852 -0.4369  3.1894
 3360SOL     OW21538   2.965   2.974   7.393  0.2318  0.0082  0.3740
 3360SOL    HW121539   2.933   3.055   7.433  0.7258 -0.0912  0.9747
 3360SOL    HW221540   3.050   3.003   7.362  1.1574 -1.1030  1.8915
 3361SOL     OW21541   2.311   3.660   5.193 -0.6395 -0.2787  0.1874
 3361SOL    HW121542   2.397   3.619   5.181 -0.4699 -0.1704  1.0386
 3361SOL    HW221543   2.282   3.656   5.102  1.0949 -2.0269 -0.2997
 3362SOL     OW21544   0.918   2.159   1.905 -0.0241  0.3775 -0.2706
 3362SOL    HW121545   0.978   2.207   1.961  0.2131 -0.3140  0.0703
 3362SOL    HW221546   0.836   2.184   1.948 -1.4157 -1.6491 -1.7074
 3363SOL     OW21547   4.284   2.063   6.434 -0.2260  0.1825  0.1216
 3363SOL    HW121548   4.205   2.053   6.486 -0.8141 -2.0491 -1.1901
 3363SOL    HW221549   4.352   2.045   6.498  0.4190 -0.6141 -0.7923
 3364SOL     OW21550   2.336   3.901   6.446  0.2196  0.4223  0.1111
 3364SOL    HW121551   2.414   3.850   6.424 -0.6341 -0.1362 -1.5873
 3364SOL    HW221552   2.354   3.933   6.535 -2.0574 -0.9467  1.0646
 3365SOL     OW21553   3.253   2.566   5.341  0.2471 -0.4016 -0.7960
 3365SOL    HW121554   3.269   2.484   5.295  1.6570  0.3260 -1.6212
 3365SOL    HW221555   3.190   2.547   5.410  0.2064  2.4390 -0.0513
 3366SOL     OW21556   3.085   2.702   6.116  0.2422 -0.2220  0.3226
 3366SOL    HW121557   3.179   2.721   6.104 -0.0730  0.5457 -0.9391
 3366SOL    HW221558   3.081   2.747   6.201 -2.4939  2.0455 -1.0064
 3367SOL     OW21559   2.900   2.578   8.637 -0.1407  0.0489  0.2104
 3367SOL    HW121560   2.865   2.555   8.551 -1.8747  2.0162  0.4124
 3367SOL    HW221561   2.847   2.529   8.700 -1.9312  1.9561  0.1498
 3368SOL     OW21562   0.133   3.233  16.841 -0.3173 -0.0631  0.2419
 3368SOL    HW121563   0.226   3.255  16.840 -0.4099  0.3590  0.5293
 3368SOL    HW221564   0.118   3.145  16.807  0.4882  0.2703 -0.9864
 3369SOL     OW21565   3.121   2.110   5.877  0.3824 -0.0577 -0.1287
 3369SOL    HW121566   3.111   2.202   5.904  0.4668  0.3331 -1.4105
 3369SOL    HW221567   3.123   2.069   5.963  1.9628 -1.1656 -0.7052
 3370SOL     OW21568   2.488   2.621   5.474 -0.1372  0.1092 -0.4018
 3370SOL    HW121569   2.537   2.687   5.425  0.5956 -0.6278 -0.6735
 3370SOL    HW221570   2.397   2.636   5.448  0.2937  1.4804 -1.1043
 3371SOL     OW21571   3.096   1.126   6.404 -0.4180  0.2129 -0.2488
 3371SOL    HW121572   3.178   1.163   6.371 -0.0384 -0.0496  0.4110
 3371SOL    HW221573   3.130   1.050   6.451  1.5524  2.5675  2.1074
 3372SOL     OW21574   2.808   2.339  15.516 -0.5700  0.3917  0.2023
 3372SOL    HW121575   2.716   2.318  15.531 -0.2056 -0.2643  1.5153
 3372SOL    HW221576   2.847   2.252  15.507  2.1700  1.5598  0.7873
 3373SOL     OW21577   3.309   2.325   8.862 -0.3033  0.1608  0.1598
 3373SOL    HW121578   3.317   2.324   8.958  1.0988 -0.7943  0.0256
 3373SOL    HW221579   3.310   2.419   8.842  0.2085  0.0245 -0.4282
 3374SOL     OW21580   4.509   3.219   8.883  0.1805 -0.2370  0.1528
 3374SOL    HW121581   4.495   3.265   8.800  1.4991 -0.1311 -0.0091
 3374SOL    HW221582   4.508   3.293   8.943  1.0687  0.0870 -0.2313
 3375SOL     OW21583   4.714   0.474  17.249 -0.8886 -0.2881 -0.3286
 3375SOL    HW121584   0.018   0.448  17.337 -0.3391  0.2204 -0.3336
 3375SOL    HW221585   4.618   0.474  17.255 -0.6333  1.0383  3.4610
 3376SOL     OW21586   0.245   0.184  17.562 -0.1110  0.2018  0.2414
 3376SOL    HW121587   0.246   0.280  17.565  0.7482  0.1826  0.5062
 3376SOL    HW221588   0.340   0.169  17.557 -0.1165  0.5252 -0.7635
 3377SOL     OW21589   1.825   4.604   3.510 -0.5195  0.2184 -0.7872
 3377SOL    HW121590   1.731   4.609   3.491 -0.4540  2.3274 -0.6586
 3377SOL    HW221591   1.860   4.686   3.474 -1.0164  1.3557  1.3291
 3378SOL     OW21592   1.809   4.687   4.973  0.8263  0.1771  0.4389
 3378SOL    HW121593   1.828   4.602   5.011 -1.9574  0.2006  1.8975
 3378SOL    HW221594   1.824   4.676   4.879 -3.5909 -0.5920 -0.1908
 3379SOL     OW21595   0.140   3.051  15.577 -0.0447  0.1964  1.1928
 3379SOL    HW121596   0.072   3.025  15.516 -0.8707  2.1918  1.2481
 3379SOL    HW221597   0.197   2.975  15.568  0.3015  0.4306  1.3748
 3380SOL     OW21598   4.408   2.033   3.724 -0.0922 -0.6743 -0.2810
 3380SOL    HW121599   4.384   2.015   3.815  0.1025 -1.0780 -0.3077
 3380SOL    HW221600   4.354   2.111   3.713  0.7899 -0.1471 -0.8989
 3381SOL     OW21601   4.709   0.075   6.383  0.0674 -0.0257 -0.0312
 3381SOL    HW121602   4.674   4.712   6.352  2.1235  0.1862 -2.9719
 3381SOL    HW221603   0.037   0.056   6.463 -0.2249 -2.0630 -0.3369
 3382SOL     OW21604   3.214   3.091   7.298 -0.2526 -0.8638 -0.0591
 3382SOL    HW121605   3.246   3.109   7.210  1.1063 -1.5214  0.2908
 3382SOL    HW221606   3.240   3.174   7.339  0.0082 -0.4464 -1.0731
 3383SOL     OW21607   2.279   2.892   3.018  0.3609  0.2842 -0.0584
 3383SOL    HW121608   2.306   2.916   3.107 -0.5587  1.2561 -0.0505
 3383SOL    HW221609   2.339   2.821   2.994  0.2146 -0.6684  2.3610
 3384SOL     OW21610   0.551   0.896  12.070 -0.4276  0.9747 -0.2082
 3384SOL    HW121611   0.570   0.947  11.991  0.5275  1.2324  0.1837
 3384SOL    HW221612   0.500   0.822  12.039 -0.2648  1.1060 -0.7962
 3385SOL     OW21613   3.649   0.315  11.812 -0.2868 -0.1094 -1.1744
 3385SOL    HW121614   3.729   0.290  11.767  0.6746 -3.4378  2.3434
 3385SOL    HW221615   3.666   0.405  11.840  2.8171 -0.7625 -0.9695
 3386SOL     OW21616   3.391   0.751  14.498 -0.0468  0.1906 -0.0415
 3386SOL    HW121617   3.468   0.808  14.504 -1.6907  2.5222 -1.3170
 3386SOL    HW221618   3.338   0.784  14.426 -0.8854  1.1930  1.0312
 3387SOL     OW21619   2.492   4.438  15.441  0.1258  0.1958  0.0186
 3387SOL    HW121620   2.465   4.382  15.514 -1.6279  1.4262  0.2880
 3387SOL    HW221621   2.416   4.494  15.428 -0.3198 -0.8219 -1.7543
 3388SOL     OW21622   0.401   0.728   2.421 -0.1296  0.1260 -0.3208
 3388SOL    HW121623   0.424   0.637   2.401 -1.5054  0.1676 -2.0540
 3388SOL    HW221624   0.433   0.772   2.342  1.1852  0.0696  0.1769
 3389SOL     OW21625   2.453   1.983  16.958  0.1629 -0.3973  0.0061
 3389SOL    HW121626   2.368   1.940  16.972  1.3108 -2.1765  1.4778
 3389SOL    HW221627   2.437   2.020  16.871  0.7574  0.9017  0.4458
 3390SOL     OW21628   0.261   0.934   8.788 -0.2774  0.1092  0.2191
 3390SOL    HW121629   0.209   0.856   8.769 -0.0676  0.3154 -1.2210
 3390SOL    HW221630   0.277   0.966   8.699  1.3461  1.2045  0.9081
 3391SOL     OW21631   4.367   1.613  11.521  0.4617 -0.8722 -0.4553
 3391SOL    HW121632   4.434   1.615  11.453  1.1836  0.2440  0.2926
 3391SOL    HW221633   4.318   1.693  11.504  0.6570 -0.8434 -0.8756
 3392SOL     OW21634   1.571   1.305   6.351  0.2690 -0.0757 -0.0952
 3392SOL    HW121635   1.589   1.216   6.380  0.5727 -0.4735 -1.4811
 3392SOL    HW221636   1.484   1.331   6.383  0.8513 -1.2454  2.4213
 3393SOL     OW21637   2.092   1.264   3.764 -0.3134 -0.2289  1.0880
 3393SOL    HW121638   2.043   1.193   3.805  1.1541 -1.5290  0.5803
 3393SOL    HW221639   2.101   1.225   3.677 -2.8038 -0.6168  1.0047
 3394SOL     OW21640   1.356   0.350   2.744  0.2868  0.3989 -0.0689
 3394SOL    HW121641   1.307   0.320   2.667  2.0201 -1.4090 -0.4693
 3394SOL    HW221642   1.440   0.367   2.701  0.3335 -2.2860 -1.0226
 3395SOL     OW21643   2.343   1.903   6.817  0.3252  0.4293  0.0152
 3395SOL    HW121644   2.364   1.991   6.787 -0.0020  0.2904 -0.6207
 3395SOL    HW221645   2.303   1.869   6.737  1.6753 -1.7319  0.2510
 3396SOL     OW21646   1.992   1.644   4.967 -0.2558  0.5104 -0.3550
 3396SOL    HW121647   2.019   1.734   4.984  1.9675 -0.3533  0.6574
 3396SOL    HW221648   1.975   1.644   4.873 -3.1309  4.3418  0.1550
 3397SOL     OW21649   4.009   0.791   9.785  0.3916 -0.4631  0.2845
 3397SOL    HW121650   3.967   0.814   9.867  0.3683 -1.2103  0.4841
 3397SOL    HW221651   3.961   0.714   9.754  1.0449  0.0650 -2.0848
 3398SOL     OW21652   4.614   3.026   5.820  0.4693  0.6606 -0.4804
 3398SOL    HW121653   4.695   2.976   5.812 -0.4315 -1.2909  2.3924
 3398SOL    HW221654   4.595   3.003   5.911 -1.6145 -0.1635 -1.1333
 3399SOL     OW21655   3.976   3.532   9.716  0.1391  0.9346  0.6430
 3399SOL    HW121656   3.980   3.585   9.636 -0.9281 -0.1579 -0.1396
 3399SOL    HW221657   3.896   3.480   9.702  0.1270  1.5604 -1.6628
 3400SOL     OW21658   0.690   1.265  12.096  0.3680 -0.0320  0.0239
 3400SOL    HW121659   0.653   1.352  12.080 -0.0263 -0.0088  1.0787
 3400SOL    HW221660   0.621   1.228  12.152 -0.5260  0.3265 -0.8261
 3401SOL     OW21661   0.712   3.646   9.242  0.1634  0.3141  0.2660
 3401SOL    HW121662   0.648   3.651   9.172  0.7281 -2.1223 -0.4168
 3401SOL    HW221663   0.660   3.593   9.303  1.4630  0.4737  1.5271
 3402SOL     OW21664   3.734   1.849   3.721  0.5273  0.7542 -0.6728
 3402SOL    HW121665   3.727   1.911   3.794  3.3703 -0.2691  0.4570
 3402SOL    HW221666   3.754   1.773   3.776  2.5528  0.4951 -1.7850
 3403SOL     OW21667   0.464   0.362   3.641 -0.1205  0.3319  0.7686
 3403SOL    HW121668   0.522   0.403   3.706  1.6528  0.5683 -0.9873
 3403SOL    HW221669   0.461   0.425   3.569  1.1667  0.1598  0.5808
 3404SOL     OW21670   1.108   1.819   9.483  0.6889 -0.5653  0.0380
 3404SOL    HW121671   1.066   1.802   9.567  0.0802  0.2760 -0.1013
 3404SOL    HW221672   1.069   1.906   9.473  0.9633 -0.1371  2.9409
 3405SOL     OW21673   3.374   2.922   0.244  0.2867  0.1124  0.1855
 3405SOL    HW121674   3.383   3.010   0.207 -1.5796  1.2428  2.3714
 3405SOL    HW221675   3.285   2.901   0.214  0.3685  0.7373 -0.4902
 3406SOL     OW21676   0.885   3.274  16.646 -0.2894 -0.2036  0.0854
 3406SOL    HW121677   0.839   3.261  16.563  0.3771  0.5138 -0.3994
 3406SOL    HW221678   0.935   3.355  16.633 -0.3465 -0.2266 -0.2921
 3407SOL     OW21679   3.298   3.213   2.770 -0.1832 -0.2897 -0.1143
 3407SOL    HW121680   3.382   3.168   2.781  0.4801  1.3569  1.5494
 3407SOL    HW221681   3.248   3.155   2.712  1.7327  0.6118 -2.6650
 3408SOL     OW21682   3.504   0.154  10.014  1.2367 -0.4574 -0.1054
 3408SOL    HW121683   3.549   0.135  10.096 -1.2024 -0.8226  1.1507
 3408SOL    HW221684   3.535   0.242   9.990 -0.2819 -0.1449 -0.9034
 3409SOL     OW21685   1.879   2.774   8.034  0.2223 -0.8127 -0.0320
 3409SOL    HW121686   1.915   2.701   7.984  1.5281 -2.2729  3.0939
 3409SOL    HW221687   1.905   2.847   7.978 -0.3124 -1.0233 -0.5713
 3410SOL     OW21688   0.615   0.365  13.118  0.0445  0.5818 -0.1914
 3410SOL    HW121689   0.625   0.398  13.208  3.4132 -2.3653  0.4952
 3410SOL    HW221690   0.695   0.381  13.069  0.2262 -1.0055 -0.3891
 3411SOL     OW21691   4.042   2.104   3.589 -0.0077  0.6045 -1.0314
 3411SOL    HW121692   4.019   2.096   3.681  0.1331  0.7651 -0.9819
 3411SOL    HW221693   4.118   2.163   3.586  0.5684 -0.1517 -1.6276
 3412SOL     OW21694   2.914   3.300   5.900  0.2494 -0.6270 -0.0428
 3412SOL    HW121695   3.008   3.315   5.908  0.1515  0.1848 -0.4351
 3412SOL    HW221696   2.914   3.275   5.807 -0.3453 -1.2481  0.1284
 3413SOL     OW21697   1.178   3.882   2.422 -0.3843  0.3198  0.1643
 3413SOL    HW121698   1.127   3.962   2.423 -2.6291 -1.0610 -2.6257
 3413SOL    HW221699   1.151   3.844   2.506 -0.5066  0.5806  0.2435
 3414SOL     OW21700   0.929   2.797   7.746 -0.0155  0.4144  0.1672
 3414SOL    HW121701   0.900   2.888   7.732 -1.4654  0.0730  0.9810
 3414SOL    HW221702   0.861   2.739   7.711 -1.2488  1.0582  1.5058
 3415SOL     OW21703   3.919   1.817   2.284 -0.3707 -0.6376 -0.0784
 3415SOL    HW121704   3.834   1.843   2.318  0.7335  1.2111  1.2848
 3415SOL    HW221705   3.932   1.736   2.334 -3.2092 -2.6734 -2.6623
 3416SOL     OW21706   1.317   2.230   9.775  0.1505 -0.5481  0.4615
 3416SOL    HW121707   1.397   2.282   9.773 -0.1403 -0.0668  1.3268
 3416SOL    HW221708   1.248   2.296   9.768 -0.0463 -0.7378  0.5818
 3417SOL     OW21709   4.295   4.474   1.571  0.0949 -0.0112 -0.1517
 3417SOL    HW121710   4.368   4.519   1.528  0.0418 -0.3016 -0.5427
 3417SOL    HW221711   4.317   4.507   1.658 -0.0164  0.1924 -0.1999
 3418SOL     OW21712   0.130   3.605  14.819 -0.5565  0.1528  0.9722
 3418SOL    HW121713   0.126   3.612  14.915  1.3095  0.6590  0.9992
 3418SOL    HW221714   0.223   3.583  14.818 -0.4729  0.4836  1.7016
 3419SOL     OW21715   1.408   2.208  11.730  0.5794 -0.7200 -0.3567
 3419SOL    HW121716   1.459   2.253  11.662 -2.0181  2.7288 -0.0423
 3419SOL    HW221717   1.462   2.137  11.764  0.9246 -0.3187 -0.0793
 3420SOL     OW21718   0.036   3.465   9.111  0.3613 -0.9719  0.2398
 3420SOL    HW121719   0.057   3.379   9.148  0.6074 -0.0558  2.2761
 3420SOL    HW221720   4.681   3.449   9.055  0.5951 -0.4164 -0.2371
 3421SOL     OW21721   2.928   0.239   5.747  0.2266  0.2253  0.4885
 3421SOL    HW121722   2.966   0.269   5.830 -0.7579  3.3563 -0.1887
 3421SOL    HW221723   2.985   0.283   5.684  1.0406 -1.9547 -0.2988
 3422SOL     OW21724   2.957   4.504   2.367  0.1668  0.0874  0.0656
 3422SOL    HW121725   2.982   4.576   2.424  3.2098 -0.3556 -0.7249
 3422SOL    HW221726   3.045   4.473   2.344 -0.0149  0.7206 -1.5201
 3423SOL     OW21727   0.449   2.442   4.308 -0.0881 -0.1370  0.0146
 3423SOL    HW121728   0.451   2.399   4.393  2.8953  2.4953  1.2701
 3423SOL    HW221729   0.490   2.525   4.332  1.9717 -0.5022 -2.2652
 3424SOL     OW21730   1.529   0.591   6.223 -0.1094 -0.8326  0.0373
 3424SOL    HW121731   1.436   0.565   6.227  0.2341 -2.0814 -0.0907
 3424SOL    HW221732   1.553   0.571   6.313  1.3599 -2.5501 -0.7590
 3425SOL     OW21733   1.359   1.788   5.974 -0.1870 -0.3343  0.0255
 3425SOL    HW121734   1.410   1.707   5.981 -0.9279 -0.8740 -0.9137
 3425SOL    HW221735   1.343   1.794   6.068  0.2433 -1.4592  0.1614
 3426SOL     OW21736   4.537   1.873   2.802 -0.3378  0.2251 -0.6782
 3426SOL    HW121737   4.481   1.939   2.841 -1.5410 -0.1501 -1.7628
 3426SOL    HW221738   4.498   1.851   2.717  0.9122  0.4028 -1.3062
 3427SOL     OW21739   3.615   2.461   4.334  0.3900 -0.0261  0.2410
 3427SOL    HW121740   3.550   2.528   4.354  0.1064 -1.3088  3.6563
 3427SOL    HW221741   3.581   2.376   4.306  0.1817  0.7738 -1.9486
 3428SOL     OW21742   4.359   2.560   6.914  0.1835  0.0415  0.1879
 3428SOL    HW121743   4.306   2.585   6.839 -0.6699 -1.5197  0.2775
 3428SOL    HW221744   4.394   2.478   6.879  1.9709  2.1870 -3.0921
 3429SOL     OW21745   1.201   2.865  15.625  0.2923 -0.0863  0.1325
 3429SOL    HW121746   1.286   2.871  15.582 -0.7993  0.2260 -1.9810
 3429SOL    HW221747   1.148   2.918  15.566 -0.5118  0.5158  1.4035
 3430SOL     OW21748   0.278   2.400   6.190  0.0701  0.1664  0.2782
 3430SOL    HW121749   0.329   2.403   6.109 -0.1082 -1.1766  0.1253
 3430SOL    HW221750   0.262   2.306   6.185 -0.3894  0.2185  0.7534
 3431SOL     OW21751   1.732   3.764   7.731  0.2263  0.5011 -0.2983
 3431SOL    HW121752   1.810   3.804   7.693  1.5880  1.9009  3.9299
 3431SOL    HW221753   1.734   3.674   7.698 -1.4297 -0.4264  2.0805
 3432SOL     OW21754   4.515   4.595   1.686 -0.2555  0.3223  0.2450
 3432SOL    HW121755   4.550   4.561   1.769  0.5085 -0.8044 -0.5389
 3432SOL    HW221756   4.584   4.588   1.620 -0.6174  0.5781 -0.1570
 3433SOL     OW21757   4.436   1.894  11.821  0.6919  0.2318  0.1179
 3433SOL    HW121758   4.488   1.836  11.765  0.9191  1.6049 -1.0810
 3433SOL    HW221759   4.457   1.871  11.911 -2.5340 -1.3682  0.4771
 3434SOL     OW21760   1.236   2.613   7.407 -0.2616 -0.3075  0.2444
 3434SOL    HW121761   1.168   2.604   7.340  0.5709 -1.2633 -0.4710
 3434SOL    HW221762   1.242   2.530   7.454  0.8241  0.1729  0.9622
 3435SOL     OW21763   2.202   1.469   9.303  0.2847 -0.1851 -0.3566
 3435SOL    HW121764   2.196   1.446   9.396  1.2982 -3.0581 -0.9937
 3435SOL    HW221765   2.281   1.523   9.306 -0.6027  1.1000 -0.4457
 3436SOL     OW21766   4.714   4.060   9.750 -0.1077  0.2773  0.0150
 3436SOL    HW121767   4.711   4.150   9.784  0.5369 -0.2194  1.3996
 3436SOL    HW221768   0.008   4.014   9.833  0.6317  0.3956 -0.0552
 3437SOL     OW21769   3.886   1.265   9.955  0.7184 -0.2063 -0.3306
 3437SOL    HW121770   3.906   1.337   9.895  1.7790  0.7449  1.1482
 3437SOL    HW221771   3.964   1.212   9.944  0.9914  0.5575 -1.9959
 3438SOL     OW21772   2.156   0.561   1.933 -0.7562 -0.3456  0.0423
 3438SOL    HW121773   2.187   0.499   1.866  0.7742 -0.7784  1.1623
 3438SOL    HW221774   2.063   0.536   1.931 -0.6307 -0.7445 -1.2530
 3439SOL     OW21775   0.787   1.941   5.413  0.0947 -0.0158 -0.9170
 3439SOL    HW121776   0.770   1.856   5.372 -0.7645  0.4955 -1.6353
 3439SOL    HW221777   0.772   1.910   5.502  2.3262  1.0912 -0.1656
 3440SOL     OW21778   0.036   0.392   2.870 -0.3881  0.0727  0.2568
 3440SOL    HW121779   0.047   0.487   2.860 -1.4531  0.1109 -0.4384
 3440SOL    HW221780   4.685   0.388   2.933  0.5997 -0.4811  1.3517
 3441SOL     OW21781   3.933   4.144   4.069 -0.1873  0.3493 -0.2507
 3441SOL    HW121782   3.947   4.136   4.163  1.0743  2.4279 -0.2632
 3441SOL    HW221783   3.871   4.216   4.061 -0.3195  0.3706  0.9243
 3442SOL     OW21784   1.644   3.265  13.024  0.1104  0.4856 -0.2452
 3442SOL    HW121785   1.682   3.232  13.105 -1.0014  0.9366  0.4581
 3442SOL    HW221786   1.553   3.238  13.039 -0.3880  3.2377  1.5818
 3443SOL     OW21787   2.917   2.213  13.055 -0.6613 -0.1044  0.7770
 3443SOL    HW121788   2.910   2.308  13.069 -0.9733  0.1882 -1.3729
 3443SOL    HW221789   2.991   2.199  12.995  0.6044  0.5541  2.1885
 3444SOL     OW21790   4.301   1.947   7.402 -0.3036 -0.2241 -0.4247
 3444SOL    HW121791   4.305   1.937   7.497  1.1395 -0.1520 -0.4775
 3444SOL    HW221792   4.386   1.910   7.381  0.8115  1.1052  1.7667
 3445SOL     OW21793   3.591   2.310   2.672  0.2224  0.6236 -0.1368
 3445SOL    HW121794   3.577   2.225   2.712  0.5153  0.7855  0.3071
 3445SOL    HW221795   3.637   2.275   2.595  1.3596  0.6135  0.5417
 3446SOL     OW21796   2.985   1.258  10.500  0.9439 -0.1221  0.1689
 3446SOL    HW121797   2.985   1.163  10.495 -5.1381 -0.2470  1.6710
 3446SOL    HW221798   2.893   1.283  10.485  0.7911 -1.1877 -0.6229
 3447SOL     OW21799   1.604   3.088   3.569  0.8100 -0.2822 -0.6579
 3447SOL    HW121800   1.657   3.133   3.503  2.5710 -1.2465  0.0912
 3447SOL    HW221801   1.645   3.108   3.653  0.0779 -0.8084 -0.1817
 3448SOL     OW21802   3.795   2.037   7.829 -0.5617  0.1164  0.0917
 3448SOL    HW121803   3.838   1.984   7.896  1.2251 -0.3610 -1.4378
 3448SOL    HW221804   3.789   2.121   7.874 -1.7559 -0.8013  1.6202
 3449SOL     OW21805   2.179   3.656   8.321  0.2504  0.0207 -0.4908
 3449SOL    HW121806   2.089   3.676   8.348  0.1485 -1.2464  0.1297
 3449SOL    HW221807   2.229   3.727   8.361 -0.7727  0.2375  0.3856
 3450SOL     OW21808   3.759   1.791   4.288 -0.1417  0.2284  0.5855
 3450SOL    HW121809   3.835   1.833   4.329  1.1590 -0.4400 -1.1156
 3450SOL    HW221810   3.771   1.807   4.194  1.2469 -2.0811  0.3635
 3451SOL     OW21811   3.364   2.629   3.491  0.0283 -0.4186  0.1236
 3451SOL    HW121812   3.289   2.570   3.501  0.6437 -1.0078  1.2369
 3451SOL    HW221813   3.411   2.567   3.546  0.8214  0.2973  0.2530
 3452SOL     OW21814   2.425   4.664   3.460 -0.1966  0.5115  0.6217
 3452SOL    HW121815   2.496   4.702   3.408 -0.8848 -0.5673 -1.1062
 3452SOL    HW221816   2.431   4.579   3.417  1.0007  1.3980 -0.9637
 3453SOL     OW21817   2.914   2.318   2.228 -0.4975  0.0805  0.3115
 3453SOL    HW121818   2.956   2.307   2.143 -0.7819  0.0845  0.1721
 3453SOL    HW221819   2.865   2.395   2.199 -1.5797 -1.8842 -3.0602
 3454SOL     OW21820   4.022   4.377   2.900 -0.4083 -0.2153 -0.2186
 3454SOL    HW121821   4.029   4.308   2.835 -2.2557 -0.1115 -0.5265
 3454SOL    HW221822   4.114   4.404   2.900 -0.8815  1.4368 -0.3643
 3455SOL     OW21823   2.475   0.337   3.617  0.6696 -0.1117  0.2530
 3455SOL    HW121824   2.424   0.300   3.689 -0.9295 -3.0327 -2.3559
 3455SOL    HW221825   2.556   0.289   3.635  0.8185 -0.0105 -0.1525
 3456SOL     OW21826   2.446   4.241   6.136 -0.0573 -0.0503 -0.9404
 3456SOL    HW121827   2.382   4.279   6.077  0.0264  2.4729  0.5959
 3456SOL    HW221828   2.528   4.285   6.115 -0.1467  0.4290 -0.3112
 3457SOL     OW21829   1.172   0.259  10.047 -1.4071  0.9601  0.1568
 3457SOL    HW121830   1.200   0.212  10.125 -1.9639 -1.4897 -1.1200
 3457SOL    HW221831   1.188   0.193   9.980 -0.4995  0.7556  0.5735
 3458SOL     OW21832   3.170   1.963   4.392 -0.0249  0.1240  0.1719
 3458SOL    HW121833   3.112   1.900   4.349  0.4846 -0.1505 -0.1129
 3458SOL    HW221834   3.204   2.017   4.321 -0.5462 -2.6504 -2.1993
 3459SOL     OW21835   2.789   3.536   0.451 -0.3989  0.1245  0.4367
 3459SOL    HW121836   2.766   3.476   0.379 -4.1452  1.7541  0.3044
 3459SOL    HW221837   2.862   3.483   0.485  1.9870  2.3523 -1.2362
 3460SOL     OW21838   3.176   2.172  12.082  0.1001 -0.3075 -0.3087
 3460SOL    HW121839   3.097   2.150  12.132 -0.9244 -1.0659 -2.2819
 3460SOL    HW221840   3.218   2.246  12.126 -0.8781  0.9787 -1.5299
 3461SOL     OW21841   2.787   2.766  14.419  0.1561  0.3047 -0.3303
 3461SOL    HW121842   2.724   2.753  14.490 -0.6625  1.1337 -0.8969
 3461SOL    HW221843   2.781   2.680  14.379 -0.3977  0.0882  0.2291
 3462SOL     OW21844   2.481   1.929  15.392  0.2010  0.6872  0.5272
 3462SOL    HW121845   2.519   1.886  15.316 -1.0038  1.0603 -0.2821
 3462SOL    HW221846   2.401   1.879  15.408  0.2626  0.4079 -0.0513
 3463SOL     OW21847   0.788   2.569   4.723  0.6521 -0.6746  0.2575
 3463SOL    HW121848   0.877   2.560   4.687 -0.2249 -0.2043 -2.0451
 3463SOL    HW221849   0.783   2.664   4.731  0.8829 -0.8554  2.6159
 3464SOL     OW21850   0.750   3.703   3.964  0.1076  0.4993  0.2940
 3464SOL    HW121851   0.754   3.713   4.059 -1.9247 -2.7415  0.7017
 3464SOL    HW221852   0.660   3.734   3.952 -0.3089 -1.2430 -0.9941
 3465SOL     OW21853   3.341   3.171   9.797  0.2285  0.1926 -0.5824
 3465SOL    HW121854   3.406   3.241   9.791  0.9656 -0.5571 -1.2710
 3465SOL    HW221855   3.369   3.112   9.727  0.5642 -0.2609 -0.0611
 3466SOL     OW21856   4.694   0.803   6.638 -0.2503  0.1731  0.6187
 3466SOL    HW121857   4.713   0.765   6.552 -0.1895 -0.5591  0.9525
 3466SOL    HW221858   4.718   0.723   6.686  1.4312 -0.5516 -1.4413
 3467SOL     OW21859   1.166   0.806   4.044 -0.0379  0.1821  0.1074
 3467SOL    HW121860   1.120   0.797   4.127 -1.5961 -3.1462 -1.1513
 3467SOL    HW221861   1.243   0.849   4.081  0.5853  0.1527 -1.1554
 3468SOL     OW21862   0.595   3.606  15.014  0.4691  0.3956 -0.3405
 3468SOL    HW121863   0.532   3.632  15.081 -0.0705 -1.5390 -0.1108
 3468SOL    HW221864   0.654   3.547  15.061 -1.5803 -1.6007 -0.3239
 3469SOL     OW21865   3.726   1.716   5.584 -0.4639  0.2149  0.2251
 3469SOL    HW121866   3.809   1.715   5.537 -0.0774 -0.4922  0.9162
 3469SOL    HW221867   3.685   1.784   5.530  0.8505  0.0858 -0.9298
 3470SOL     OW21868   3.565   4.471   1.033  0.4577  0.5059 -0.8528
 3470SOL    HW121869   3.646   4.421   1.044  0.2924 -0.0677 -2.2336
 3470SOL    HW221870   3.510   4.441   1.105  0.9779  0.0596 -0.6460
 3471SOL     OW21871   3.426   2.780   5.034 -0.0249  0.3295 -0.3158
 3471SOL    HW121872   3.459   2.869   5.029  0.6851  0.1283  0.8003
 3471SOL    HW221873   3.402   2.776   5.126  0.7695 -1.9916 -0.1862
 3472SOL     OW21874   2.375   0.583   3.149 -0.3126  0.3540  0.9331
 3472SOL    HW121875   2.323   0.506   3.126 -1.4430  2.1760 -2.7356
 3472SOL    HW221876   2.456   0.557   3.104  0.2866  1.0775  1.5823
 3473SOL     OW21877   4.515   2.305   5.444 -0.3323 -0.0170 -0.4807
 3473SOL    HW121878   4.610   2.298   5.440 -0.2766  0.4695 -0.0006
 3473SOL    HW221879   4.502   2.361   5.368  1.2402  1.5434  0.3995
 3474SOL     OW21880   0.213   2.318   9.239 -0.3692  0.0316 -0.0227
 3474SOL    HW121881   0.231   2.322   9.145 -0.9860  0.8939 -0.1031
 3474SOL    HW221882   0.190   2.225   9.241  1.7004 -0.4645  0.8690
 3475SOL     OW21883   0.964   3.344   6.930  0.0681 -0.5694  0.5694
 3475SOL    HW121884   0.906   3.309   6.998 -0.6303 -0.6431 -0.0560
 3475SOL    HW221885   0.948   3.439   6.933 -2.4842 -0.8920 -1.8249
 3476SOL     OW21886   3.960   1.324   4.694  0.1281 -0.3678 -0.0845
 3476SOL    HW121887   3.890   1.389   4.691  1.5452  1.0999 -1.3387
 3476SOL    HW221888   3.906   1.245   4.691 -0.4000 -0.0428  1.1663
 3477SOL     OW21889   0.698   2.195   6.946  0.2998  0.2089  0.1217
 3477SOL    HW121890   0.719   2.228   7.033 -0.0590  1.3967 -0.2487
 3477SOL    HW221891   0.785   2.181   6.907  0.7667 -0.1798  1.2811
 3478SOL     OW21892   2.701   2.868   1.057  0.3430  0.6477  0.4926
 3478SOL    HW121893   2.641   2.884   0.983  0.6809 -0.4558 -0.0269
 3478SOL    HW221894   2.658   2.798   1.107  1.6913 -2.6325 -2.9334
 3479SOL     OW21895   1.671   3.944   5.222  0.2735  0.2008 -0.2563
 3479SOL    HW121896   1.730   3.939   5.146 -0.0850 -0.7974 -0.4677
 3479SOL    HW221897   1.596   3.981   5.176 -1.4737 -1.5889  1.1822
 3480SOL     OW21898   4.414   3.680   5.730  0.4799 -0.1459  0.0036
 3480SOL    HW121899   4.319   3.674   5.737  0.3802 -0.2913 -1.4866
 3480SOL    HW221900   4.433   3.720   5.815 -1.5914  1.7451 -0.4122
 3481SOL     OW21901   1.610   4.574   0.933 -0.4312 -0.2048 -0.3053
 3481SOL    HW121902   1.599   4.483   0.962 -0.6813 -0.6744 -1.8420
 3481SOL    HW221903   1.614   4.558   0.839  2.6038 -0.1503 -0.1787
 3482SOL     OW21904   4.718   4.347   5.024 -0.2586  0.0300 -0.3184
 3482SOL    HW121905   4.700   4.433   5.062 -0.7520 -0.0765 -0.3114
 3482SOL    HW221906   4.633   4.332   4.983 -0.7293  2.3841 -0.1893
 3483SOL     OW21907   1.467   4.509   5.924  0.0708  0.0688 -0.4466
 3483SOL    HW121908   1.492   4.417   5.922 -0.3394 -0.0504 -0.0780
 3483SOL    HW221909   1.507   4.529   6.009 -1.1456 -1.0185  0.3962
 3484SOL     OW21910   0.428   2.408  11.301  0.6702  0.3214 -0.0929
 3484SOL    HW121911   0.464   2.473  11.241 -0.7883  0.1420 -1.1565
 3484SOL    HW221912   0.508   2.386  11.350  1.8687  3.7958 -0.4464
 3485SOL     OW21913   0.103   1.755   7.515 -0.2424 -0.6763 -0.5961
 3485SOL    HW121914   0.117   1.670   7.474  2.7282 -0.9716  1.0502
 3485SOL    HW221915   0.064   1.810   7.447 -0.7475 -1.3805 -0.8672
 3486SOL     OW21916   3.138   2.926  17.268  0.2375  1.0496 -0.0528
 3486SOL    HW121917   3.156   2.835  17.246  0.3886  0.9480  0.5082
 3486SOL    HW221918   3.204   2.967  17.210 -1.1890 -0.6404 -2.8636
 3487SOL     OW21919   4.567   3.179   4.919 -0.1458 -0.4681 -0.9690
 3487SOL    HW121920   4.581   3.251   4.980  0.5360 -0.8054 -0.7311
 3487SOL    HW221921   4.556   3.225   4.836 -2.0917 -0.6335 -0.8087
 3488SOL     OW21922   2.288   3.617   4.921  0.6280  0.5484  0.4071
 3488SOL    HW121923   2.382   3.628   4.931  0.9058 -1.0473 -0.3499
 3488SOL    HW221924   2.273   3.567   4.840 -4.7006  0.8298  1.1691
 3489SOL     OW21925   4.288   4.204   1.436  0.4734  0.2956 -0.2746
 3489SOL    HW121926   4.355   4.198   1.505  2.0305 -0.4206 -1.8441
 3489SOL    HW221927   4.268   4.296   1.453  0.2645  0.1478  0.2950
 3490SOL     OW21928   2.174   1.754   6.180  0.2007  0.4856  0.3715
 3490SOL    HW121929   2.221   1.788   6.256  2.6632  0.1208 -1.0271
 3490SOL    HW221930   2.086   1.782   6.206  1.2864  3.1398  1.1048
 3491SOL     OW21931   1.831   3.759  13.789 -0.0277 -0.0059  0.0138
 3491SOL    HW121932   1.793   3.684  13.834 -1.0371 -0.5156 -1.7129
 3491SOL    HW221933   1.760   3.813  13.754  1.3783  0.4588 -2.1141
 3492SOL     OW21934   1.278   2.802   6.236  0.2200  0.3681  0.3483
 3492SOL    HW121935   1.248   2.879   6.282 -0.0052  1.1864 -1.1773
 3492SOL    HW221936   1.367   2.790   6.271  0.7914 -0.1111 -1.2502
 3493SOL     OW21937   0.410   1.986  12.236  0.2592 -0.3055  0.4364
 3493SOL    HW121938   0.382   1.914  12.179 -1.0884  0.7285 -0.2283
 3493SOL    HW221939   0.361   2.061  12.201  0.5357 -1.9066 -3.4530
 3494SOL     OW21940   2.062   0.852  11.586 -0.0208  0.2795 -0.0080
 3494SOL    HW121941   2.130   0.785  11.593 -0.7182 -0.2458  1.7704
 3494SOL    HW221942   2.108   0.911  11.526 -1.4163  1.1480 -0.2257
 3495SOL     OW21943   0.538   3.033   8.872 -0.9037 -0.3527  0.0096
 3495SOL    HW121944   0.502   2.982   8.944 -2.0121  0.6313  0.1491
 3495SOL    HW221945   0.538   3.123   8.906 -0.8644 -0.2456 -0.2742
 3496SOL     OW21946   3.241   2.527  15.498  0.4693 -0.2553  0.2692
 3496SOL    HW121947   3.181   2.470  15.547  2.8792 -0.3340  3.1320
 3496SOL    HW221948   3.325   2.507  15.540  1.9971  0.9452 -2.2819
 3497SOL     OW21949   4.700   4.597   5.126  0.4925  0.3093 -0.5268
 3497SOL    HW121950   4.695   4.613   5.220  0.3575  1.1598 -0.6751
 3497SOL    HW221951   4.708   4.686   5.090  0.2602  1.9798  3.5138
 3498SOL     OW21952   3.367   3.394   2.213  0.1370  0.0232  0.1559
 3498SOL    HW121953   3.429   3.398   2.140  2.0374 -3.7491  1.5354
 3498SOL    HW221954   3.351   3.485   2.237  1.0074  0.0681  0.5532
 3499SOL     OW21955   4.366   1.911   5.594  0.7323  0.5164  0.2911
 3499SOL    HW121956   4.273   1.888   5.582  0.0390  2.7474  1.2394
 3499SOL    HW221957   4.345   2.003   5.611  0.4060  0.5683 -0.3736
 3500SOL     OW21958   3.887   0.680   7.503  0.4811  0.3057  0.3229
 3500SOL    HW121959   3.826   0.629   7.450  0.4343 -0.0105  0.6837
 3500SOL    HW221960   3.889   0.636   7.588 -0.0633  1.7195  1.0746
 3501SOL     OW21961   2.894   1.964   9.036  0.1487 -0.0251  0.0969
 3501SOL    HW121962   2.985   1.994   9.037 -0.1468  0.8499  0.4383
 3501SOL    HW221963   2.879   1.965   8.941  0.9345  4.0708  0.0121
 3502SOL     OW21964   3.190   3.694   9.503  0.6436 -0.2604 -0.0017
 3502SOL    HW121965   3.253   3.650   9.559 -0.3616 -0.3216  1.0920
 3502SOL    HW221966   3.115   3.702   9.562  1.3471 -2.7699  1.2228
 3503SOL     OW21967   1.034   2.352   8.093 -0.3731 -0.3427 -0.7131
 3503SOL    HW121968   1.094   2.399   8.034  2.2950 -1.1974  1.3248
 3503SOL    HW221969   0.953   2.381   8.050 -0.6130 -0.8931 -0.6254
 3504SOL     OW21970   2.816   4.221   8.137 -0.1542 -0.0330  0.2187
 3504SOL    HW121971   2.835   4.277   8.212 -0.4672  0.7149 -0.2580
 3504SOL    HW221972   2.728   4.197   8.166 -0.0954 -1.0183 -0.4282
 3505SOL     OW21973   3.382   1.181  10.714  0.2067 -0.0890  0.0074
 3505SOL    HW121974   3.448   1.225  10.660 -0.4668  0.9921  0.0811
 3505SOL    HW221975   3.341   1.128  10.646  1.2436 -1.6561  0.6062
 3506SOL     OW21976   3.390   1.834  14.038  0.5309 -0.5768 -0.9168
 3506SOL    HW121977   3.297   1.811  14.045  0.1688  1.6870  1.6566
 3506SOL    HW221978   3.374   1.919  14.079  1.2504  0.2101 -2.3137
 3507SOL     OW21979   0.838   2.779   2.716 -0.1958 -0.0075  0.9744
 3507SOL    HW121980   0.902   2.805   2.650 -0.0424  0.3214  1.2530
 3507SOL    HW221981   0.774   2.730   2.664 -1.3944  0.9739  1.5458
 3508SOL     OW21982   4.626   1.061   2.683 -0.0997 -0.2190  0.0386
 3508SOL    HW121983   4.569   1.137   2.693  1.0380  0.8015 -1.0966
 3508SOL    HW221984   4.718   1.089   2.676 -0.4912  0.8171 -0.9958
 3509SOL     OW21985   0.754   2.717   8.500  0.4358 -0.2733 -0.1517
 3509SOL    HW121986   0.658   2.721   8.504  0.3999 -2.0316  0.9976
 3509SOL    HW221987   0.781   2.780   8.566  1.0430  0.3511 -1.0088
 3510SOL     OW21988   2.163   3.359  15.000 -0.2893 -0.3121  0.3521
 3510SOL    HW121989   2.155   3.287  14.937 -2.3893 -0.4708  0.7965
 3510SOL    HW221990   2.173   3.311  15.082 -0.3761 -0.4123  0.3049
 3511SOL     OW21991   2.936   0.523   8.604 -0.4125 -0.3542  0.1135
 3511SOL    HW121992   2.905   0.511   8.694  0.3470 -0.4755  0.3536
 3511SOL    HW221993   2.900   0.611   8.588 -0.0249 -0.4104 -1.0696
 3512SOL     OW21994   1.442   1.759   1.067  0.4957  0.2709 -0.2971
 3512SOL    HW121995   1.438   1.837   1.012  0.7470  0.6414  0.2012
 3512SOL    HW221996   1.529   1.728   1.043 -0.3788 -2.4104 -0.0351
 3513SOL     OW21997   1.553   0.733   2.927 -0.4118 -0.0261 -0.0912
 3513SOL    HW121998   1.479   0.705   2.872 -0.2430  1.8703 -1.2778
 3513SOL    HW221999   1.620   0.724   2.860  0.6997 -2.1119  1.2807
 3514SOL     OW22000   1.726   2.431   0.150 -0.7162  0.3219 -0.3440
 3514SOL    HW122001   1.636   2.413   0.176 -0.7392 -0.5658 -1.0326
 3514SOL    HW222002   1.736   2.521   0.181 -4.0580  1.3905 -2.4534
 3515SOL     OW22003   3.394   2.846   3.768 -0.0564 -0.5752 -0.7632
 3515SOL    HW122004   3.306   2.825   3.801 -0.3710  2.5048  0.3257
 3515SOL    HW222005   3.454   2.783   3.807  0.7920  1.3291  0.9897
 3516SOL     OW22006   3.884   3.606   3.573 -0.2670 -0.0766  0.1532
 3516SOL    HW122007   3.919   3.679   3.521 -0.3950 -0.3898 -0.3757
 3516SOL    HW222008   3.911   3.535   3.515 -0.1917 -0.4930  0.7024
 3517SOL     OW22009   0.677   1.182   6.355  0.0478  0.0756 -0.7256
 3517SOL    HW122010   0.593   1.146   6.326 -0.1277 -1.9069  2.2598
 3517SOL    HW222011   0.690   1.253   6.293  2.6179 -2.3270 -2.9560
 3518SOL     OW22012   2.795   2.542   4.394 -0.2963  0.4581 -0.0946
 3518SOL    HW122013   2.806   2.574   4.484  2.4491 -0.6843 -0.0085
 3518SOL    HW222014   2.868   2.592   4.358  0.2197 -0.5328 -0.4141
 3519SOL     OW22015   1.690   1.990   3.406  0.3561  0.3572  0.1063
 3519SOL    HW122016   1.678   1.985   3.501  0.5664 -1.5829  0.0393
 3519SOL    HW222017   1.779   1.953   3.402 -0.3650 -1.0281 -3.8889
 3520SOL     OW22018   2.310   3.122   4.265  0.2514 -0.1028 -0.2827
 3520SOL    HW122019   2.262   3.135   4.184  1.0032 -0.6110 -0.8092
 3520SOL    HW222020   2.389   3.175   4.251  0.6228 -1.1433 -2.1036
 3521SOL     OW22021   2.051   0.733   1.737  0.2059  0.0899 -0.1669
 3521SOL    HW122022   2.068   0.686   1.818  1.5029  0.0565 -0.4615
 3521SOL    HW222023   1.995   0.808   1.759  1.7902  1.4862 -0.9029
 3522SOL     OW22024   4.418   4.639   5.531  0.2850 -0.0840 -0.2995
 3522SOL    HW122025   4.401   4.696   5.455  0.0773  0.5839  0.2473
 3522SOL    HW222026   4.328   4.607   5.530 -0.1969  1.2536  0.8715
 3523SOL     OW22027   1.242   0.543  10.074 -0.3234  0.5258 -0.1278
 3523SOL    HW122028   1.239   0.450  10.049 -1.2773  0.3559  0.6472
 3523SOL    HW222029   1.216   0.525  10.164  0.7426  0.9835  0.2665
 3524SOL     OW22030   4.428   1.701   9.920  0.2492  0.3756  0.1324
 3524SOL    HW122031   4.471   1.615   9.917 -0.6035 -0.0838  1.1956
 3524SOL    HW222032   4.450   1.737   9.834  0.3404 -1.4631 -0.6126
 3525SOL     OW22033   4.527   1.076   4.229  0.3531 -0.1989 -0.5696
 3525SOL    HW122034   4.578   1.154   4.210  1.6909 -1.0851 -0.5751
 3525SOL    HW222035   4.597   1.020   4.263  0.7356  0.8040  0.3120
 3526SOL     OW22036   0.787   3.238   7.126  0.5781  0.1692 -0.3133
 3526SOL    HW122037   0.752   3.150   7.114 -3.1198  1.3757  1.5616
 3526SOL    HW222038   0.709   3.291   7.108  0.4146  1.3926  4.1625
 3527SOL     OW22039   3.205   0.477  11.571 -0.3559 -0.5390  0.3420
 3527SOL    HW122040   3.236   0.399  11.617 -0.2975  0.4483  2.0079
 3527SOL    HW222041   3.295   0.501  11.546 -1.2768  0.5485 -1.9000
 3528SOL     OW22042   0.561   1.640  15.115  0.2100  0.2541 -0.3725
 3528SOL    HW122043   0.486   1.612  15.063 -0.2075  0.1137  0.2994
 3528SOL    HW222044   0.554   1.736  15.119  2.7926  0.4711 -1.0745
 3529SOL     OW22045   2.770   4.387  16.740 -0.0842 -0.0486  0.7033
 3529SOL    HW122046   2.742   4.380  16.649 -0.0110 -0.9680  0.7493
 3529SOL    HW222047   2.792   4.480  16.730 -1.2285  0.2465  0.9905
 3530SOL     OW22048   1.801   1.112   2.148 -0.0865  0.0893  0.2902
 3530SOL    HW122049   1.707   1.127   2.160 -0.4257 -0.0949 -2.0094
 3530SOL    HW222050   1.828   1.192   2.102 -0.2308 -0.5091 -0.8307
 3531SOL     OW22051   1.733   1.237   8.521  0.9110 -0.1666 -0.4218
 3531SOL    HW122052   1.645   1.244   8.559  0.0624 -0.3832 -2.3751
 3531SOL    HW222053   1.794   1.219   8.593  0.2794  0.5656  0.2999
 3532SOL     OW22054   2.019   4.650  11.066  0.0167  0.0971  0.0060
 3532SOL    HW122055   1.944   4.593  11.049 -0.7939  1.5555 -1.2604
 3532SOL    HW222056   2.066   4.597  11.131 -0.8958  1.3078  1.6633
 3533SOL     OW22057   4.151   1.970  11.805  0.0052 -0.0658 -0.2163
 3533SOL    HW122058   4.243   1.945  11.815  0.1294  0.9305  1.2167
 3533SOL    HW222059   4.167   2.034  11.736 -2.3744  0.7328 -0.0016
 3534SOL     OW22060   3.027   0.800   5.526 -0.1614  0.0556 -0.5602
 3534SOL    HW122061   3.005   0.739   5.597  1.6742 -0.4096 -0.3883
 3534SOL    HW222062   3.119   0.815   5.550  0.1641 -0.5689 -1.3998
 3535SOL     OW22063   0.887   3.888   6.988 -0.2034  0.3823 -0.0634
 3535SOL    HW122064   0.877   3.965   6.932 -0.0432 -1.6775 -2.9137
 3535SOL    HW222065   0.870   3.935   7.069  2.0021  1.4904 -0.2401
 3536SOL     OW22066   1.267   3.265   3.316  0.4134  0.2403  0.0265
 3536SOL    HW122067   1.177   3.293   3.302  0.0077 -0.4902  1.1639
 3536SOL    HW222068   1.264   3.169   3.317  1.1014  0.1935 -2.1079
 3537SOL     OW22069   2.387   4.671   6.652 -0.4319  0.1457  0.0769
 3537SOL    HW122070   2.458   0.007   6.621 -2.0450  1.2430 -1.5963
 3537SOL    HW222071   2.444   4.596   6.670  1.9849  1.5667 -1.6006
 3538SOL     OW22072   4.428   0.338   1.142 -0.3765  0.0090  0.1086
 3538SOL    HW122073   4.333   0.326   1.144 -0.5463  1.4289  0.3996
 3538SOL    HW222074   4.440   0.354   1.235 -0.6015 -1.3278  0.3683
 3539SOL     OW22075   4.357   1.011   7.162 -0.4393  0.1232 -0.1824
 3539SOL    HW122076   4.386   1.057   7.083 -0.4340 -0.7235 -0.6706
 3539SOL    HW222077   4.395   0.924   7.152  2.1661  1.3372 -1.0244
 3540SOL     OW22078   1.623   2.007   9.456 -0.1260  0.7405  0.4012
 3540SOL    HW122079   1.618   1.946   9.529 -0.3672 -0.0608 -0.2900
 3540SOL    HW222080   1.564   2.075   9.491 -1.7330  0.3150 -1.4763
 3541SOL     OW22081   1.279   0.104   5.377  0.8319 -0.3090  0.1899
 3541SOL    HW122082   1.236   0.064   5.300  0.2264 -0.4740  0.6101
 3541SOL    HW222083   1.239   0.186   5.405 -0.2025 -0.6051 -0.4001
 3542SOL     OW22084   2.180   1.081   6.562 -0.0853 -0.0896  0.0696
 3542SOL    HW122085   2.169   1.175   6.551 -0.6541 -0.2513 -0.7855
 3542SOL    HW222086   2.122   1.047   6.493  1.1188 -1.9482 -0.0330
 3543SOL     OW22087   2.609   0.665   4.193  0.1063  0.2349 -0.1535
 3543SOL    HW122088   2.550   0.715   4.250  0.8665  2.1887 -1.0602
 3543SOL    HW222089   2.553   0.590   4.173  1.7559 -0.1923 -3.1190
 3544SOL     OW22090   2.204   4.576   9.228  0.3094  0.1159  0.5862
 3544SOL    HW122091   2.245   4.489   9.237 -1.4648 -0.9662 -1.8565
 3544SOL    HW222092   2.122   4.562   9.276  1.4416  0.3272  2.5979
 3545SOL     OW22093   4.161   0.544   4.278  0.0069 -0.5145  0.3259
 3545SOL    HW122094   4.199   0.631   4.281 -1.4406  0.1105  0.5417
 3545SOL    HW222095   4.238   0.497   4.310 -0.0561 -0.3244  0.7494
 3546SOL     OW22096   1.686   3.990   8.026  0.1369 -0.1889  0.0527
 3546SOL    HW122097   1.732   4.069   8.055 -0.8115  0.8226 -1.1613
 3546SOL    HW222098   1.664   4.026   7.940 -0.5254  2.2909  1.2573
 3547SOL     OW22099   0.300   2.545   4.756 -0.2230 -0.0709 -0.0745
 3547SOL    HW122100   0.237   2.572   4.689  1.8321  1.0139 -1.5645
 3547SOL    HW222101   0.272   2.599   4.830 -2.2602  1.7471 -2.1802
 3548SOL     OW22102   2.665   0.261  13.600 -0.2847  0.6628  0.0974
 3548SOL    HW122103   2.722   0.189  13.573  0.1650  0.9879  0.1738
 3548SOL    HW222104   2.581   0.237  13.562  0.5853  0.4278 -1.6472
 3549SOL     OW22105   0.946   1.126   6.357  0.5592 -0.6740  0.5647
 3549SOL    HW122106   0.861   1.143   6.398  0.1481  1.7485 -1.2674
 3549SOL    HW222107   1.009   1.193   6.383  0.5152 -0.2084 -0.5132
 3550SOL     OW22108   0.372   4.384   0.945  0.1359  0.0460  0.0930
 3550SOL    HW122109   0.467   4.383   0.960  0.2932 -0.9650 -0.9707
 3550SOL    HW222110   0.357   4.441   0.870 -1.1911 -0.0316  0.3051
 3551SOL     OW22111   0.963   1.253  15.142 -0.1745 -0.4217 -0.1097
 3551SOL    HW122112   0.878   1.211  15.130 -0.1654 -0.9458  1.6350
 3551SOL    HW222113   0.940   1.343  15.118 -0.4120 -0.0962  1.3394
 3552SOL     OW22114   2.251   0.911   1.280 -0.4622  0.9709  0.3510
 3552SOL    HW122115   2.308   0.988   1.286  1.0941 -0.3476  2.2043
 3552SOL    HW222116   2.274   0.874   1.195  4.0140  1.1911  1.4922
 3553SOL     OW22117   1.994   3.747   5.762 -0.4910 -0.3064 -0.2189
 3553SOL    HW122118   2.070   3.729   5.817  1.5788  0.8134 -2.6819
 3553SOL    HW222119   2.004   3.842   5.750  0.6996 -0.1625  1.9637
 3554SOL     OW22120   3.094   4.679   2.017 -0.9027  0.0176 -0.8081
 3554SOL    HW122121   3.028   4.682   2.086  0.1627  2.3152  0.0945
 3554SOL    HW222122   3.083   0.049   1.988  1.8339  1.4266  2.4581
 3555SOL     OW22123   4.107   1.760   5.572 -0.3021  0.6997 -0.4820
 3555SOL    HW122124   4.154   1.698   5.516 -2.0301 -2.4032  1.4851
 3555SOL    HW222125   4.041   1.798   5.514  0.8977  0.9702 -1.6807
 3556SOL     OW22126   0.928   3.602   6.423  0.1178  0.5864 -0.0918
 3556SOL    HW122127   0.915   3.613   6.329 -1.7495 -0.7818 -0.0035
 3556SOL    HW222128   0.992   3.673   6.434  1.0598 -0.3076  0.1212
 3557SOL     OW22129   1.036   0.650   9.404 -0.1149  0.4213  0.1734
 3557SOL    HW122130   1.087   0.586   9.454  1.3783 -0.3909 -2.3727
 3557SOL    HW222131   0.991   0.684   9.481  0.1198 -0.2526  0.6055
 3558SOL     OW22132   0.275   2.803  11.518 -0.3034  0.0068 -0.2570
 3558SOL    HW122133   0.202   2.843  11.469 -0.6138 -0.9246 -0.5654
 3558SOL    HW222134   0.309   2.750  11.446 -0.5092 -2.8511  1.7866
 3559SOL     OW22135   0.247   0.712  16.208 -0.0826  0.0314  0.0868
 3559SOL    HW122136   0.325   0.741  16.161 -0.5517 -3.4357 -2.8632
 3559SOL    HW222137   0.209   0.800  16.215 -0.8791 -0.2461 -0.7198
 3560SOL     OW22138   4.111   1.812   8.557 -0.2559  0.8491 -0.2031
 3560SOL    HW122139   4.136   1.719   8.560  0.0973  0.9275 -0.7032
 3560SOL    HW222140   4.152   1.845   8.477 -0.7890  0.2056 -0.7481
 3561SOL     OW22141   3.221   4.477   4.713 -0.8369 -0.7211  0.4180
 3561SOL    HW122142   3.280   4.523   4.773 -2.3985  0.2156  1.2527
 3561SOL    HW222143   3.200   4.547   4.651  1.2573 -0.7860 -0.3655
 3562SOL     OW22144   4.501   0.293   7.634 -0.4323 -0.0880  0.5645
 3562SOL    HW122145   4.572   0.234   7.656 -0.3344 -0.0839  0.2677
 3562SOL    HW222146   4.426   0.236   7.649  0.0638 -1.0104 -0.4786
 3563SOL     OW22147   3.840   0.764  15.482 -0.4544  0.4543  0.7009
 3563SOL    HW122148   3.810   0.715  15.405  0.2077 -0.0058  0.7322
 3563SOL    HW222149   3.920   0.797  15.442  0.4187 -2.6593 -0.1116
 3564SOL     OW22150   4.425   0.247   2.790 -0.0357 -0.0676  0.1191
 3564SOL    HW122151   4.370   0.320   2.762  0.2333 -0.6543 -1.9209
 3564SOL    HW222152   4.423   0.190   2.714 -0.0627 -1.5322  1.2253
 3565SOL     OW22153   3.153   4.030  13.416 -0.3211  0.6463  0.8686
 3565SOL    HW122154   3.100   3.955  13.444 -0.6843  1.0486  1.2541
 3565SOL    HW222155   3.208   3.981  13.355 -0.5353  3.2004 -1.3593
 3566SOL     OW22156   0.224   3.159  13.058  0.2980 -0.1474  0.5406
 3566SOL    HW122157   0.205   3.103  12.983  1.3345  2.8994 -1.9941
 3566SOL    HW222158   0.319   3.150  13.062  0.2204 -0.9761  0.4389
 3567SOL     OW22159   1.540   2.202  15.950 -0.2635 -0.3693  0.4826
 3567SOL    HW122160   1.614   2.221  16.007  1.2463 -1.7057 -1.0583
 3567SOL    HW222161   1.580   2.202  15.863  0.6703  1.3809  0.9105
 3568SOL     OW22162   3.830   0.385   8.080 -0.4114  0.2210  0.2560
 3568SOL    HW122163   3.811   0.317   8.145  1.0564  0.1131  0.5660
 3568SOL    HW222164   3.808   0.462   8.133  2.0302  1.3409 -0.3597
 3569SOL     OW22165   3.461   0.291  13.604  0.8766 -0.3751 -0.6344
 3569SOL    HW122166   3.517   0.367  13.617  1.3954 -0.7892 -0.4403
 3569SOL    HW222167   3.527   0.222  13.602  0.8977 -0.3595 -0.4487
 3570SOL     OW22168   1.306   1.204   3.394 -0.0886 -0.0896  0.0816
 3570SOL    HW122169   1.217   1.178   3.369 -0.2309 -0.2302  0.7247
 3570SOL    HW222170   1.276   1.274   3.453 -0.4810  0.3593 -0.6422
 3571SOL     OW22171   4.636   2.782  15.168  0.2008 -0.2074  0.3302
 3571SOL    HW122172   4.706   2.798  15.105  0.7723  0.3283  1.0927
 3571SOL    HW222173   4.562   2.826  15.126  1.1147  1.0818  0.0648
 3572SOL     OW22174   0.309   3.143  11.922  0.1157  0.0823  0.1546
 3572SOL    HW122175   0.374   3.134  11.992  1.4401  0.7317 -0.9858
 3572SOL    HW222176   0.256   3.063  11.931  0.5984 -0.5088 -2.2314
 3573SOL     OW22177   2.876   3.990   3.702 -0.1227  0.3715 -0.4198
 3573SOL    HW122178   2.873   3.896   3.716  1.1863  0.4374  0.3031
 3573SOL    HW222179   2.837   4.024   3.782  0.5299  1.3466 -0.5089
 3574SOL     OW22180   3.354   1.084  16.421  0.2076  0.0260 -0.1006
 3574SOL    HW122181   3.259   1.076  16.409  0.4609 -1.1405 -1.4176
 3574SOL    HW222182   3.363   1.169  16.379 -0.0868  0.6392  1.1031
 3575SOL     OW22183   2.397   1.797   8.913  0.2058 -0.1623 -0.3190
 3575SOL    HW122184   2.439   1.840   8.839  1.0808 -1.1126 -0.3771
 3575SOL    HW222185   2.400   1.874   8.970 -0.6137 -0.2359 -0.1761
 3576SOL     OW22186   0.956   3.611  16.360  0.5883  0.2929 -0.1637
 3576SOL    HW122187   0.966   3.588  16.452 -1.1635 -0.0548 -0.0481
 3576SOL    HW222188   1.024   3.552  16.328  0.2723 -0.2921  0.2345
 3577SOL     OW22189   4.313   0.415   6.100 -0.0324  0.1857 -0.5622
 3577SOL    HW122190   4.371   0.428   6.175 -0.1990  1.0030 -0.5768
 3577SOL    HW222191   4.316   0.503   6.062  0.2854  0.4376  0.0390
 3578SOL     OW22192   4.703   3.900   5.615 -0.4794 -0.1161 -0.0747
 3578SOL    HW122193   4.708   3.988   5.652 -1.5579 -0.1461  0.1629
 3578SOL    HW222194   0.008   3.838   5.684  0.0697  0.1344 -0.0622
 3579SOL     OW22195   4.333   2.915  11.473 -0.4298 -0.3389  0.8842
 3579SOL    HW122196   4.305   2.875  11.555  1.2668 -1.5613  0.8527
 3579SOL    HW222197   4.347   2.835  11.423 -2.0250  1.2142 -2.0636
 3580SOL     OW22198   1.197   1.708   3.382 -0.1193  0.2045 -0.4185
 3580SOL    HW122199   1.192   1.769   3.308 -0.2188  0.1885 -0.4245
 3580SOL    HW222200   1.267   1.651   3.350 -0.6556  0.4956 -2.1385
 3581SOL     OW22201   1.647   2.030   2.647 -0.1175  0.2676 -0.0270
 3581SOL    HW122202   1.576   1.967   2.662  0.6906 -0.3587  1.1039
 3581SOL    HW222203   1.619   2.115   2.681 -1.2466 -0.8799  1.9099
 3582SOL     OW22204   0.302   0.911   7.032  0.5287  0.2421 -0.0849
 3582SOL    HW122205   0.236   0.939   6.968  0.3912  2.8425  1.1810
 3582SOL    HW222206   0.378   0.922   6.975  0.0451  4.3964  0.0310
 3583SOL     OW22207   0.882   2.158   6.171  0.1722  0.0504 -0.4658
 3583SOL    HW122208   0.805   2.160   6.114 -0.7844 -0.6086  0.7878
 3583SOL    HW222209   0.934   2.083   6.141 -1.0713 -0.9877 -0.0316
 3584SOL     OW22210   2.541   0.060   1.595  0.5151  0.2441  0.2322
 3584SOL    HW122211   2.632   0.088   1.603  1.0091 -1.3878  0.1952
 3584SOL    HW222212   2.541   4.693   1.556  0.5592  0.0886  0.5839
 3585SOL     OW22213   0.839   0.484  11.097 -0.1958 -0.2453  0.0645
 3585SOL    HW122214   0.808   0.562  11.051 -1.4296 -1.6271 -1.4698
 3585SOL    HW222215   0.759   0.442  11.128  0.3257 -1.4622 -0.2238
 3586SOL     OW22216   3.239   2.521  13.015  0.3733  0.5300 -0.3548
 3586SOL    HW122217   3.314   2.499  12.961  0.8675  1.6822 -0.1388
 3586SOL    HW222218   3.252   2.475  13.098  0.7155 -1.3573 -1.4703
 3587SOL     OW22219   0.619   1.211   6.779 -0.3274  0.4475  0.0436
 3587SOL    HW122220   0.676   1.172   6.845  2.1340 -1.8430 -3.4750
 3587SOL    HW222221   0.532   1.191   6.815 -0.0083  0.1669  0.6515
 3588SOL     OW22222   3.323   4.269   4.404 -0.1159  0.0779 -0.6053
 3588SOL    HW122223   3.235   4.305   4.391 -0.3046  0.3701  1.4660
 3588SOL    HW222224   3.347   4.258   4.312 -0.2440 -0.0087 -0.6287
 3589SOL     OW22225   1.142   3.878   6.668 -0.1953 -0.0172 -0.8195
 3589SOL    HW122226   1.065   3.859   6.614  0.1146  3.2256 -2.4095
 3589SOL    HW222227   1.169   3.788   6.688 -3.4941 -1.1924 -1.5217
 3590SOL     OW22228   0.978   3.950   1.692  0.0706 -0.2196  0.2051
 3590SOL    HW122229   1.025   4.034   1.693 -0.1131 -0.1042 -0.5482
 3590SOL    HW222230   1.053   3.894   1.670  1.9951  2.1349  0.6768
 3591SOL     OW22231   1.503   1.261   7.505  0.2202  0.5027  0.3088
 3591SOL    HW122232   1.529   1.228   7.419 -0.7150 -0.4221  0.3824
 3591SOL    HW222233   1.410   1.239   7.496  0.6522 -0.2565 -2.1606
 3592SOL     OW22234   3.648   0.334  15.134 -0.3285 -0.6885 -0.0671
 3592SOL    HW122235   3.559   0.321  15.167  0.0966 -1.2735  0.8615
 3592SOL    HW222236   3.679   0.377  15.214 -0.3540  0.1976 -0.5372
 3593SOL     OW22237   2.354   2.386   4.736 -0.4506 -0.5980 -0.1874
 3593SOL    HW122238   2.271   2.404   4.780  0.1388 -1.5326  1.2920
 3593SOL    HW222239   2.339   2.425   4.650 -0.0238  3.3276  1.5173
 3594SOL     OW22240   2.790   0.572   9.420 -0.3219 -0.0057  0.2555
 3594SOL    HW122241   2.719   0.549   9.359  1.6170  0.5160 -2.2053
 3594SOL    HW222242   2.827   0.489   9.449 -2.3744 -1.1085 -0.2503
 3595SOL     OW22243   1.359   0.567  14.422  0.2066 -0.6304 -0.0547
 3595SOL    HW122244   1.285   0.569  14.483 -0.5295  1.2549 -0.9911
 3595SOL    HW222245   1.323   0.636  14.367  2.8692  0.3640 -0.5458
 3596SOL     OW22246   0.763   3.212   2.681  0.3137  0.4022 -0.1951
 3596SOL    HW122247   0.725   3.275   2.742 -2.0520 -3.2711  2.1768
 3596SOL    HW222248   0.832   3.265   2.643  3.0247 -1.9698  1.3785
 3597SOL     OW22249   4.021   1.428   3.138  0.0021 -0.2643  0.0550
 3597SOL    HW122250   4.072   1.506   3.119 -0.0153 -0.3194 -0.2234
 3597SOL    HW222251   3.968   1.426   3.058  0.2025  1.1847 -0.1057
 3598SOL     OW22252   1.312   3.122   4.165 -0.1473  0.1007  0.1796
 3598SOL    HW122253   1.351   3.206   4.189  1.9035 -0.4071 -1.3515
 3598SOL    HW222254   1.272   3.089   4.246 -0.1658 -0.3740 -0.0220
 3599SOL     OW22255   4.415   0.708   3.455 -0.0294  0.3891  0.1002
 3599SOL    HW122256   4.504   0.730   3.483  0.6322 -3.1869  0.8227
 3599SOL    HW222257   4.378   0.667   3.533 -2.5476  2.5384  0.0488
 3600SOL     OW22258   2.315   0.922   2.501 -0.2245 -0.5160 -0.1216
 3600SOL    HW122259   2.229   0.892   2.472  0.0115 -0.6823 -0.6461
 3600SOL    HW222260   2.305   1.016   2.482  2.7919 -0.1051  0.2904
 3601SOL     OW22261   1.841   1.837   1.377  0.2734 -0.0482  0.1006
 3601SOL    HW122262   1.791   1.811   1.455 -0.3573 -0.6278 -0.4886
 3601SOL    HW222263   1.772   1.860   1.315  0.0132 -0.1371  0.3535
 3602SOL     OW22264   3.879   4.224   5.616 -0.3760  0.0727  0.4885
 3602SOL    HW122265   3.913   4.231   5.705 -2.9072  0.1700  1.4579
 3602SOL    HW222266   3.961   4.245   5.572 -0.5805  0.1580  0.1443
 3603SOL     OW22267   1.425   0.945   7.764 -0.4518  0.3799  0.0418
 3603SOL    HW122268   1.464   0.889   7.832  2.3871 -0.2154 -2.0589
 3603SOL    HW222269   1.486   1.018   7.764 -0.2729  0.2588 -2.6475
 3604SOL     OW22270   1.735   3.162   3.339 -0.0256 -0.3799 -0.3995
 3604SOL    HW122271   1.691   3.143   3.256 -0.1654 -1.1474 -0.1462
 3604SOL    HW222272   1.801   3.229   3.320 -1.0807  0.8504  0.2374
 3605SOL     OW22273   2.348   0.502   2.662  0.0968 -0.4145 -0.5355
 3605SOL    HW122274   2.366   0.432   2.724 -1.2544 -0.5900 -0.3552
 3605SOL    HW222275   2.429   0.503   2.611  0.0182  1.7941 -0.6199
 3606SOL     OW22276   3.121   1.804  14.050  0.3858  0.3144  0.5843
 3606SOL    HW122277   3.112   1.790  14.145 -1.5320 -0.6694  0.2608
 3606SOL    HW222278   3.091   1.718  14.019  0.9719  0.4125 -0.2391
 3607SOL     OW22279   3.380   1.806   9.399 -0.5166 -0.2202 -0.0314
 3607SOL    HW122280   3.308   1.821   9.338  0.7922  2.8549 -0.8198
 3607SOL    HW222281   3.342   1.801   9.487 -0.3655  0.1665  0.0552
 3608SOL     OW22282   3.569   2.221   7.041  0.3220  0.4732 -0.3069
 3608SOL    HW122283   3.529   2.136   7.060  1.6944 -0.4175 -1.4435
 3608SOL    HW222284   3.490   2.276   7.036 -0.7594 -1.0831 -0.5199
 3609SOL     OW22285   0.752   2.231   5.129 -0.6842 -0.2302  0.8161
 3609SOL    HW122286   0.750   2.263   5.039  2.3229  1.4628  1.3376
 3609SOL    HW222287   0.688   2.293   5.163  0.6790  0.9327  1.2564
 3610SOL     OW22288   1.523   0.885   6.285 -0.1581 -0.1227  0.1952
 3610SOL    HW122289   1.508   0.903   6.193 -0.9290  3.2274  0.9854
 3610SOL    HW222290   1.510   0.791   6.294  0.2674 -0.1256  0.8112
 3611SOL     OW22291   2.054   0.698  14.867 -0.1655 -0.0692 -0.6144
 3611SOL    HW122292   2.069   0.612  14.827  2.8572  0.8846 -1.5468
 3611SOL    HW222293   1.984   0.658  14.918 -2.2611  2.6787 -1.3212
 3612SOL     OW22294   1.320   2.171   7.990 -0.1230  0.7600 -0.2665
 3612SOL    HW122295   1.355   2.084   7.974 -2.8624 -0.0924 -1.7062
 3612SOL    HW222296   1.306   2.193   7.898  2.1541  0.9261 -0.5783
 3613SOL     OW22297   3.831   3.416   1.700 -0.0847 -0.1147  0.3759
 3613SOL    HW122298   3.742   3.444   1.680  0.2724 -0.3433 -1.5217
 3613SOL    HW222299   3.879   3.446   1.623  2.0156 -1.4498  1.1695
 3614SOL     OW22300   3.983   2.525   5.312  0.6606 -0.1461  0.3074
 3614SOL    HW122301   4.030   2.572   5.243 -0.6752  0.1408 -0.4021
 3614SOL    HW222302   4.051   2.477   5.358 -0.2578 -1.8143 -0.0750
 3615SOL     OW22303   4.380   3.954   9.611 -0.4909  0.2546  0.0822
 3615SOL    HW122304   4.452   3.953   9.674 -0.7696 -0.6187  0.3888
 3615SOL    HW222305   4.364   4.048   9.606 -0.9034  0.0101 -3.1925
 3616SOL     OW22306   3.186   3.804   6.308 -0.9341  0.2976 -0.2556
 3616SOL    HW122307   3.182   3.890   6.350  1.3055 -0.1278  0.8455
 3616SOL    HW222308   3.222   3.828   6.222  2.1107  0.7734  1.1274
 3617SOL     OW22309   3.415   0.689  15.687  0.3561  0.2363 -0.7591
 3617SOL    HW122310   3.386   0.663  15.600 -0.6785 -0.7248 -0.1259
 3617SOL    HW222311   3.465   0.612  15.712 -1.4406 -0.7303 -0.1710
 3618SOL     OW22312   2.891   1.930   2.386  0.4439  0.5670  0.1987
 3618SOL    HW122313   2.935   1.845   2.378  0.0619  0.5215 -1.5017
 3618SOL    HW222314   2.899   1.941   2.480  0.4023  0.7891  0.1745
 3619SOL     OW22315   3.403   3.265   0.456  0.1277  0.3706 -0.1946
 3619SOL    HW122316   3.483   3.292   0.500 -0.3329  0.0524  0.8595
 3619SOL    HW222317   3.380   3.335   0.396  2.3391  0.3966 -1.0061
 3620SOL     OW22318   2.111   4.592   8.418 -0.3727 -0.3846 -0.5134
 3620SOL    HW122319   2.096   4.499   8.403 -2.1565 -0.4438  1.5201
 3620SOL    HW222320   2.199   4.602   8.384 -0.8210 -1.2364 -1.9229
 3621SOL     OW22321   3.413   4.122   4.578  0.1761  0.5746 -0.1864
 3621SOL    HW122322   3.372   4.173   4.508 -0.9313  0.2315  0.2125
 3621SOL    HW222323   3.462   4.057   4.527  1.7531  1.8186 -0.2411
 3622SOL     OW22324   2.090   4.258  10.603  0.2268  0.0232 -0.3252
 3622SOL    HW122325   2.075   4.179  10.657 -0.1003  0.4176  0.1662
 3622SOL    HW222326   2.161   4.297  10.654  0.3603  0.9456 -1.2224
 3623SOL     OW22327   3.749   1.715  14.797 -0.3963  0.0892 -0.8945
 3623SOL    HW122328   3.683   1.691  14.731  1.4956 -2.3612 -1.8830
 3623SOL    HW222329   3.821   1.661  14.766  0.8571  1.7934 -0.9658
 3624SOL     OW22330   3.732   4.070   3.729  0.3555 -0.0775 -0.4651
 3624SOL    HW122331   3.819   4.109   3.731  0.7361 -0.9428 -0.0761
 3624SOL    HW222332   3.717   4.032   3.642 -2.0536  1.0491 -0.5592
 3625SOL     OW22333   0.274   3.433   2.465  0.3342  0.3965  0.2360
 3625SOL    HW122334   0.193   3.425   2.414 -0.1297 -0.4597  1.1060
 3625SOL    HW222335   0.338   3.382   2.415 -0.9598 -0.9096 -0.0688
 3626SOL     OW22336   4.511   0.208  14.270 -0.4280  0.1745  0.3162
 3626SOL    HW122337   4.577   0.145  14.300 -2.0697 -1.8430 -0.3800
 3626SOL    HW222338   4.482   0.180  14.183 -1.1774 -1.3183  1.0660
 3627SOL     OW22339   1.349   4.172   3.976 -0.5154 -0.3093 -0.2713
 3627SOL    HW122340   1.336   4.265   3.958 -1.3276 -0.2238  0.6810
 3627SOL    HW222341   1.262   4.131   3.982 -1.1021  1.0927  0.8572
 3628SOL     OW22342   3.197   3.499   6.590  0.1305  0.0376 -0.1013
 3628SOL    HW122343   3.106   3.470   6.583 -0.4214  1.8501 -0.3131
 3628SOL    HW222344   3.207   3.513   6.496 -0.2126  1.9423  0.1563
 3629SOL     OW22345   0.001   3.348  16.622  0.6125  0.5224  0.1906
 3629SOL    HW122346   0.059   3.332  16.697  0.3362  0.7470  0.4506
 3629SOL    HW222347   0.068   3.353  16.553 -0.0380  2.0021 -0.3279
 3630SOL     OW22348   3.142   0.344  14.799  0.7974 -0.6203  0.6497
 3630SOL    HW122349   3.066   0.290  14.820  0.6620 -0.5841  0.2404
 3630SOL    HW222350   3.106   0.432  14.790  1.5252 -0.4323 -0.4141
 3631SOL     OW22351   4.713   1.626   7.924  0.5848 -0.0681  0.3413
 3631SOL    HW122352   4.659   1.574   7.983  1.4843 -1.6798 -0.2521
 3631SOL    HW222353   0.034   1.562   7.867 -0.4283 -1.4661  1.1652
 3632SOL     OW22354   2.991   3.475   6.175  0.7961 -0.6277 -0.2921
 3632SOL    HW122355   2.919   3.432   6.129 -1.3196  0.4792  1.9674
 3632SOL    HW222356   3.040   3.531   6.115  1.2297 -1.9774 -1.2237
 3633SOL     OW22357   1.784   1.798   2.017 -0.0482 -0.3629 -0.1526
 3633SOL    HW122358   1.702   1.806   1.969  0.3819 -3.4569 -1.4405
 3633SOL    HW222359   1.841   1.748   1.959 -0.5248 -1.9557  0.7448
 3634SOL     OW22360   1.489   3.806   8.611  0.3709  0.5108 -0.2235
 3634SOL    HW122361   1.429   3.823   8.684 -0.9062  0.3398 -1.2347
 3634SOL    HW222362   1.571   3.820   8.658 -0.6655  2.7335  0.9597
 3635SOL     OW22363   2.804   4.263   3.098  0.3638  0.3966 -0.1894
 3635SOL    HW122364   2.862   4.248   3.173 -0.8389 -0.4873  0.5683
 3635SOL    HW222365   2.830   4.349   3.064  2.0437  0.0979  0.3230
 3636SOL     OW22366   0.366   1.742  13.225  0.2553 -0.5178 -0.2460
 3636SOL    HW122367   0.334   1.657  13.192 -0.2501 -0.1398 -0.7243
 3636SOL    HW222368   0.410   1.776  13.147 -2.8065 -0.5304 -1.9748
 3637SOL     OW22369   2.314   4.573   8.188 -0.1653  0.1099 -0.6696
 3637SOL    HW122370   2.315   4.667   8.167 -1.8491  0.3403  0.2405
 3637SOL    HW222371   2.234   4.543   8.145  0.7392 -2.7767 -0.2744
 3638SOL     OW22372   0.184   0.331   4.209 -0.0414 -0.4264  0.5045
 3638SOL    HW122373   0.147   0.347   4.296  1.7910 -0.8373  1.3481
 3638SOL    HW222374   0.111   0.278   4.176  0.2322  0.7334 -1.9548
 3639SOL     OW22375   4.583   3.533   2.999  0.3819  0.6055  0.1261
 3639SOL    HW122376   4.548   3.510   2.912 -0.9788 -0.8007  1.0478
 3639SOL    HW222377   4.512   3.510   3.058 -0.0490 -2.2905 -1.5307
 3640SOL     OW22378   1.975   1.926   2.448 -0.1210 -0.4064 -0.4540
 3640SOL    HW122379   1.945   1.936   2.357 -1.0301  0.1187 -0.0844
 3640SOL    HW222380   2.056   1.881   2.421 -0.4265 -0.7266 -0.8385
 3641SOL     OW22381   2.541   0.143   7.006 -0.1412  0.4352 -1.0952
 3641SOL    HW122382   2.485   0.167   6.932 -1.8801  0.9459  0.3815
 3641SOL    HW222383   2.483   0.153   7.082  2.8147  0.5451  1.1839
 3642SOL     OW22384   2.811   3.291   6.318 -0.1481 -0.0680  0.4181
 3642SOL    HW122385   2.781   3.229   6.385 -0.6973 -2.7300 -2.3328
 3642SOL    HW222386   2.907   3.291   6.325 -0.1373 -0.7536  0.1944
 3643SOL     OW22387   2.479   1.929   3.376 -0.3715  0.1878  0.1248
 3643SOL    HW122388   2.443   1.973   3.299 -0.0344  1.0737  0.4724
 3643SOL    HW222389   2.493   1.994   3.445 -0.5320  1.8926 -1.4442
 3644SOL     OW22390   2.341   4.351   9.246  0.2596  0.0655 -0.4395
 3644SOL    HW122391   2.344   4.332   9.152 -0.8680 -0.8212 -0.3041
 3644SOL    HW222392   2.401   4.288   9.287  0.1963 -1.1349 -2.1980
 3645SOL     OW22393   0.055   2.826   7.329 -0.0332  0.5063  0.3877
 3645SOL    HW122394   0.137   2.834   7.378  0.1204 -1.9114  0.5101
 3645SOL    HW222395   4.716   2.789   7.394  0.9426 -2.8177 -0.6364
 3646SOL     OW22396   1.947   1.107   4.487 -0.0609  0.7888 -0.1782
 3646SOL    HW122397   1.860   1.074   4.464  0.7646 -1.2842 -0.2914
 3646SOL    HW222398   1.944   1.186   4.433  2.7987  0.0563 -1.3702
 3647SOL     OW22399   4.538   2.283   7.898 -0.0894  0.1689 -0.0668
 3647SOL    HW122400   4.535   2.193   7.864 -1.5303  1.0881 -2.3698
 3647SOL    HW222401   4.517   2.336   7.821  0.6322  1.5301  0.6900
 3648SOL     OW22402   1.137   2.830   7.168  0.2851 -0.2537  0.0112
 3648SOL    HW122403   1.078   2.771   7.215 -0.8876  0.1040 -1.0203
 3648SOL    HW222404   1.199   2.768   7.129 -0.9805 -0.8360 -1.0614
 3649SOL     OW22405   1.806   2.539  11.321  0.2379  0.2820  0.9348
 3649SOL    HW122406   1.789   2.603  11.251  0.9548 -0.9992 -0.4239
 3649SOL    HW222407   1.722   2.493  11.328  0.4708 -0.4071 -0.8178
 3650SOL     OW22408   2.044   1.230  15.489  0.0272 -0.3019 -0.0909
 3650SOL    HW122409   2.064   1.152  15.540  0.2831 -0.0832  0.1462
 3650SOL    HW222410   2.096   1.217  15.409  0.0758  0.3688 -0.1675
 3651SOL     OW22411   4.558   1.227   6.695 -0.3240 -0.1292  0.0608
 3651SOL    HW122412   4.569   1.215   6.600  0.6490  0.6573  0.0737
 3651SOL    HW222413   4.528   1.318   6.691  1.4512  0.4809  0.5166
 3652SOL     OW22414   2.967   4.559   0.462  0.7934  0.8311 -0.3126
 3652SOL    HW122415   2.916   4.629   0.423 -1.0351  0.0630  0.6939
 3652SOL    HW222416   3.007   4.515   0.387 -0.8436  0.4561 -0.9521
 3653SOL     OW22417   3.323   4.698   1.628  0.1278 -0.1728 -0.1513
 3653SOL    HW122418   3.321   4.692   1.533 -3.4107 -3.8483  0.1654
 3653SOL    HW222419   3.348   0.070   1.625 -2.8412  0.6534  0.0519
 3654SOL     OW22420   3.861   2.034   3.015  0.3974  0.2091  0.0606
 3654SOL    HW122421   3.935   2.039   2.955  0.9974 -1.0543  0.6894
 3654SOL    HW222422   3.801   2.092   2.969 -0.4644  0.1738  1.1467
 3655SOL     OW22423   1.151   2.972   4.919  0.3646 -0.2615  0.2323
 3655SOL    HW122424   1.114   3.053   4.882  0.0279 -0.1074  0.9094
 3655SOL    HW222425   1.143   2.910   4.847  0.5002 -1.0301  0.8839
 3656SOL     OW22426   3.058   0.730  10.306  0.1060 -0.3567 -0.5783
 3656SOL    HW122427   3.002   0.664  10.345  1.9490 -2.0763 -0.8261
 3656SOL    HW222428   2.998   0.778  10.249 -1.6428 -0.1932  1.3759
 3657SOL     OW22429   3.101   0.209   8.024 -0.0751  0.1704  0.0868
 3657SOL    HW122430   3.117   0.257   8.105 -0.0429  1.9940 -0.9889
 3657SOL    HW222431   3.014   0.171   8.040  1.3479 -3.0007  0.3479
 3658SOL     OW22432   4.426   0.163   6.684 -0.3918 -0.1537 -0.7637
 3658SOL    HW122433   4.398   0.155   6.776  0.3139 -2.6205 -0.7585
 3658SOL    HW222434   4.373   0.232   6.646  2.0047  1.5748 -0.9810
 3659SOL     OW22435   1.622   2.930  14.355  0.1886 -0.0644  0.3932
 3659SOL    HW122436   1.607   2.862  14.421 -0.0612 -0.0334  0.3676
 3659SOL    HW222437   1.606   3.012  14.400  1.4499  0.3840  0.0128
 3660SOL     OW22438   2.281   4.372   2.867 -0.0843 -0.1245 -0.3387
 3660SOL    HW122439   2.292   4.277   2.859 -0.9921 -0.0421 -2.5122
 3660SOL    HW222440   2.374   4.392   2.870  0.0015 -0.6580  0.4750
 3661SOL     OW22441   2.730   3.259   7.307 -0.3412  0.7359  0.1440
 3661SOL    HW122442   2.746   3.224   7.395 -0.7392  1.6273  0.5682
 3661SOL    HW222443   2.815   3.290   7.279  1.4046 -2.9465  1.2922
 3662SOL     OW22444   4.152   0.732   5.563 -0.2506  0.2778 -0.2429
 3662SOL    HW122445   4.195   0.680   5.496  1.2423  0.4563  0.5824
 3662SOL    HW222446   4.225   0.743   5.624  1.1099  2.2812 -2.2545
 3663SOL     OW22447   3.827   3.633   7.917  0.9141 -0.2029 -0.0677
 3663SOL    HW122448   3.802   3.725   7.923  1.8801  0.0063  0.7316
 3663SOL    HW222449   3.839   3.609   8.009 -0.4481 -0.4566  0.0547
 3664SOL     OW22450   2.606   1.665  12.226  0.0900 -0.1137 -0.0437
 3664SOL    HW122451   2.546   1.592  12.214  0.0235 -0.2089  0.8486
 3664SOL    HW222452   2.571   1.699  12.309  2.6295 -1.2898  1.5220
 3665SOL     OW22453   1.164   1.748  13.193  0.0330 -0.7019 -1.0694
 3665SOL    HW122454   1.094   1.768  13.255 -0.2981 -1.0148 -1.3409
 3665SOL    HW222455   1.120   1.723  13.112 -0.3811  1.2454 -1.4609
 3666SOL     OW22456   2.576   0.121   5.175  0.4521  0.0171 -0.6676
 3666SOL    HW122457   2.603   0.103   5.265 -1.3080  0.0009 -0.1306
 3666SOL    HW222458   2.580   0.038   5.127 -2.7406 -0.6612  0.2234
 3667SOL     OW22459   4.074   0.781   7.709 -0.3992 -0.8498 -0.2331
 3667SOL    HW122460   4.120   0.840   7.649  1.4916 -0.2628  1.7692
 3667SOL    HW222461   3.983   0.810   7.705 -0.4244 -0.8787  0.1295
 3668SOL     OW22462   3.775   0.779   4.754 -0.6584  0.1814 -0.0151
 3668SOL    HW122463   3.765   0.829   4.673  1.8483  0.4696 -0.1397
 3668SOL    HW222464   3.823   0.836   4.814  3.6821 -2.0588 -1.3831
 3669SOL     OW22465   1.971   0.650   0.281 -0.6172  0.1729  0.0444
 3669SOL    HW122466   2.004   0.725   0.331  1.9385 -1.3630  0.6525
 3669SOL    HW222467   1.963   0.585   0.351 -1.6253 -0.1111 -0.3404
 3670SOL     OW22468   2.301   3.979  16.323 -0.2676  0.1505 -0.9467
 3670SOL    HW122469   2.370   4.041  16.346 -0.9470  2.0956 -4.0567
 3670SOL    HW222470   2.250   3.983  16.404  2.1785 -1.1443  0.6464
 3671SOL     OW22471   4.671   0.958  17.256  0.3440 -0.2294 -0.0210
 3671SOL    HW122472   4.639   0.869  17.241  2.8140 -1.2305  0.6597
 3671SOL    HW222473   0.028   0.963  17.200  1.2743  1.8348  1.4750
 3672SOL     OW22474   3.992   4.038   9.469  0.1650  0.0451  0.0746
 3672SOL    HW122475   4.027   4.071   9.552 -3.1941  0.5262  1.3156
 3672SOL    HW222476   4.069   3.992   9.436 -0.7200 -2.2080  1.1154
 3673SOL     OW22477   4.427   3.846   8.899 -0.4463 -0.1612 -0.5877
 3673SOL    HW122478   4.423   3.775   8.836 -0.1976  1.7705 -2.7796
 3673SOL    HW222479   4.382   3.804   8.973 -0.0536  0.4562 -0.0005
 3674SOL     OW22480   0.073   0.663   0.365  0.1573 -0.1885  0.2234
 3674SOL    HW122481   4.698   0.671   0.364  0.1679 -0.3260 -1.6071
 3674SOL    HW222482   0.085   0.572   0.393  2.2009  0.2154  0.7091
 3675SOL     OW22483   1.045   1.271  11.208  0.1340 -0.3483 -0.1016
 3675SOL    HW122484   1.012   1.255  11.297 -0.6337 -1.1976 -0.5368
 3675SOL    HW222485   0.968   1.313  11.169  0.3247  1.6053  1.6136
 3676SOL     OW22486   1.086   2.193  12.097  0.6685  0.3367  0.3572
 3676SOL    HW122487   1.097   2.189  12.002  1.5308  1.3205  0.4107
 3676SOL    HW222488   1.143   2.266  12.125  1.1718  2.0239 -5.0987
 3677SOL     OW22489   1.453   4.247   1.182  0.2168 -0.1435 -0.4552
 3677SOL    HW122490   1.482   4.321   1.235 -0.5975 -0.9012  1.0300
 3677SOL    HW222491   1.359   4.268   1.179  0.0414 -0.7483  1.0568
 3678SOL     OW22492   3.541   3.576   8.017 -0.0152 -0.3419 -0.2234
 3678SOL    HW122493   3.535   3.511   8.088  0.3400  0.6624  0.7331
 3678SOL    HW222494   3.632   3.559   7.993  0.7415  0.7780  1.8064
 3679SOL     OW22495   0.263   2.858   8.895 -0.9032  0.0012 -0.0807
 3679SOL    HW122496   0.244   2.796   8.966 -0.0589 -0.2850 -0.1082
 3679SOL    HW222497   0.274   2.933   8.954  0.4107 -1.0966  1.0739
 3680SOL     OW22498   0.424   3.285  14.400  0.4647 -0.3782  0.3847
 3680SOL    HW122499   0.506   3.245  14.373  0.9626  1.6214 -0.9771
 3680SOL    HW222500   0.364   3.238  14.342 -2.2779  4.5472 -0.7845
 3681SOL     OW22501   4.446   2.663   6.597 -0.1086 -0.1016  0.5908
 3681SOL    HW122502   4.366   2.625   6.560  0.0308 -0.9572  1.1525
 3681SOL    HW222503   4.455   2.744   6.548 -0.6370  0.4163  1.3545
 3682SOL     OW22504   1.301   1.285   3.054 -0.0202 -0.1676  0.2958
 3682SOL    HW122505   1.369   1.220   3.071  0.4800  0.2507 -0.0907
 3682SOL    HW222506   1.224   1.240   3.087  0.5669 -0.6760  0.9897
 3683SOL     OW22507   1.734   1.206   5.056 -0.1668 -0.1856  0.1698
 3683SOL    HW122508   1.756   1.141   4.990 -0.1428 -3.2356  3.1524
 3683SOL    HW222509   1.662   1.158   5.098  0.0379 -1.6726 -1.1757
 3684SOL     OW22510   2.097   4.669  16.448 -0.0683 -0.2203  0.0578
 3684SOL    HW122511   2.048   0.004  16.387 -0.1594  0.2604  0.5666
 3684SOL    HW222512   2.083   4.585  16.404 -0.2802  0.8532 -1.9069
 3685SOL     OW22513   3.228   2.779  15.719  0.0296  0.3848  0.2094
 3685SOL    HW122514   3.211   2.846  15.654  3.2140 -0.0448 -1.1076
 3685SOL    HW222515   3.186   2.810  15.799 -0.0125 -1.0451  0.7519
 3686SOL     OW22516   0.150   0.698  16.833 -0.1630  0.7295  0.1392
 3686SOL    HW122517   0.105   0.701  16.917  0.2273  0.3236  0.3618
 3686SOL    HW222518   0.235   0.657  16.850 -0.1432  0.7186  0.0156
 3687SOL     OW22519   4.481   0.950   7.563 -0.0732 -0.2347 -0.2354
 3687SOL    HW122520   4.535   0.899   7.623 -1.8217  0.9340  2.2783
 3687SOL    HW222521   4.489   0.899   7.482 -0.6154 -1.2018  0.3127
 3688SOL     OW22522   0.903   3.307   9.447  0.0573  0.2933  0.2894
 3688SOL    HW122523   0.818   3.275   9.416  0.0583 -1.4457  2.1117
 3688SOL    HW222524   0.952   3.329   9.368 -3.0626  0.5882 -1.5882
 3689SOL     OW22525   2.051   4.246  14.957  0.3572  0.9887  0.4285
 3689SOL    HW122526   2.017   4.237  14.868  0.3973 -0.3495  0.5437
 3689SOL    HW222527   2.118   4.312  14.941  0.3737  0.5497 -1.3209
 3690SOL     OW22528   1.178   1.302   7.635 -0.3331  0.4227 -0.2437
 3690SOL    HW122529   1.224   1.243   7.575 -2.3045 -1.4180  0.0256
 3690SOL    HW222530   1.230   1.274   7.710 -0.6075 -0.2983 -0.3201
 3691SOL     OW22531   3.040   0.740   4.068  0.1836  0.7369 -0.5918
 3691SOL    HW122532   3.045   0.807   4.136 -0.0560 -0.9262  1.0713
 3691SOL    HW222533   2.947   0.734   4.045  0.5879 -3.4609 -1.0210
 3692SOL     OW22534   3.174   3.111   0.475  0.5879  0.4633 -0.0810
 3692SOL    HW122535   3.123   3.165   0.415 -0.3304 -1.9011 -1.4246
 3692SOL    HW222536   3.259   3.156   0.476 -0.1192  1.7820  0.9342
 3693SOL     OW22537   1.145   3.174   9.502 -0.0177  0.1108  0.1487
 3693SOL    HW122538   1.124   3.129   9.420 -0.6644  0.2135  0.2614
 3693SOL    HW222539   1.083   3.244   9.480  1.8313  2.0568  1.0887
 3694SOL     OW22540   0.352   2.258  14.281  0.0874 -0.1587 -0.2467
 3694SOL    HW122541   0.433   2.264  14.331  0.3585 -1.2715 -0.5571
 3694SOL    HW222542   0.362   2.336  14.226 -1.0064  0.5606  0.5717
 3695SOL     OW22543   4.320   2.113   8.569 -0.3942  0.4344 -0.9000
 3695SOL    HW122544   4.263   2.114   8.492 -0.2971  0.1131 -0.9764
 3695SOL    HW222545   4.258   2.140   8.636  0.6178 -0.0851  0.2433
 3696SOL     OW22546   2.722   1.079   0.289 -0.4414 -0.2151 -0.1893
 3696SOL    HW122547   2.732   1.161   0.338 -1.2692 -0.8075  1.0018
 3696SOL    HW222548   2.815   1.060   0.278 -0.2459 -0.5266  2.0111
 3697SOL     OW22549   1.287   0.038   9.349  0.2438  0.3525 -0.3167
 3697SOL    HW122550   1.228   0.113   9.346  0.7905  0.7615 -1.0941
 3697SOL    HW222551   1.362   0.069   9.400 -0.3663  0.0820  0.7444
 3698SOL     OW22552   2.032   0.759   6.615 -0.3822 -0.1469 -0.0420
 3698SOL    HW122553   2.111   0.752   6.669  1.1765  2.8280 -1.9361
 3698SOL    HW222554   1.973   0.717   6.678 -0.5488  0.3192  0.1105
 3699SOL     OW22555   0.998   1.906   6.958 -0.2176 -0.0851  0.0215
 3699SOL    HW122556   0.903   1.914   6.947 -0.2081 -2.1526 -1.5412
 3699SOL    HW222557   1.011   1.823   6.913 -0.0169  0.4343 -0.8892
 3700SOL     OW22558   1.955   0.524   5.777  0.5992 -0.1680  0.4536
 3700SOL    HW122559   1.910   0.597   5.820 -0.3711 -1.5720  1.8242
 3700SOL    HW222560   1.943   0.554   5.687 -0.9566  1.9645  1.3784
 3701SOL     OW22561   2.384   4.412   6.946 -0.1621  0.7679 -0.4387
 3701SOL    HW122562   2.431   4.377   7.022  1.3547 -1.2550 -2.3232
 3701SOL    HW222563   2.453   4.453   6.894 -2.4658  1.7710 -2.6654
 3702SOL     OW22564   2.229   2.374   4.282 -0.2985  0.4535 -0.2355
 3702SOL    HW122565   2.301   2.378   4.219 -0.2323 -0.5066 -0.2233
 3702SOL    HW222566   2.161   2.424   4.237 -0.2736  0.1645 -0.5908
 3703SOL     OW22567   1.530   0.980   9.059 -0.1850 -0.2187  0.3448
 3703SOL    HW122568   1.500   0.893   9.034  0.1242  0.2696 -1.7832
 3703SOL    HW222569   1.457   1.031   9.022 -0.3097  0.8894  2.1404
 3704SOL     OW22570   1.813   0.113   1.766  0.4105  0.1070  0.0483
 3704SOL    HW122571   1.820   0.195   1.719  1.0617 -0.5384 -0.9828
 3704SOL    HW222572   1.810   0.143   1.857 -0.9364  1.0578 -0.3069
 3705SOL     OW22573   0.454   1.640   5.279 -0.2151  0.1204 -0.0402
 3705SOL    HW122574   0.371   1.682   5.301  0.9411  1.7170  1.3592
 3705SOL    HW222575   0.446   1.619   5.186 -1.6601  0.6032 -0.0216
 3706SOL     OW22576   4.134   3.810  11.908 -0.5101 -0.4192  0.0930
 3706SOL    HW122577   4.105   3.761  11.985  1.8827  0.3043  1.4516
 3706SOL    HW222578   4.213   3.761  11.885 -0.8950 -0.7990 -0.4233
 3707SOL     OW22579   3.052   2.797   7.742  0.1326 -0.5443 -0.1241
 3707SOL    HW122580   3.140   2.823   7.712  0.0860 -0.3842 -0.1218
 3707SOL    HW222581   3.056   2.812   7.836 -3.5540 -0.6615  0.0160
 3708SOL     OW22582   3.998   2.159   4.547 -0.1172  0.6076  0.4086
 3708SOL    HW122583   3.966   2.099   4.479  1.8803  0.9442 -0.8377
 3708SOL    HW222584   4.083   2.188   4.512  0.8723 -1.5750  0.9604
 3709SOL     OW22585   2.883   1.952   8.273  0.0248 -0.6029 -0.2263
 3709SOL    HW122586   2.812   1.896   8.305  1.2746 -1.2896  1.3477
 3709SOL    HW222587   2.953   1.944   8.338  0.4010  0.9595 -0.4355
 3710SOL     OW22588   0.466   3.757   4.385 -0.0997  0.3035 -0.7430
 3710SOL    HW122589   0.441   3.783   4.474 -0.8464  0.0951 -0.8924
 3710SOL    HW222590   0.461   3.838   4.334 -0.3416  1.5268  1.2057
 3711SOL     OW22591   0.137   0.456   5.632  0.2755 -0.4447  0.2458
 3711SOL    HW122592   0.223   0.484   5.663 -0.1975  1.1600  0.1006
 3711SOL    HW222593   0.085   0.484   5.708  0.2342 -0.9242  0.3956
 3712SOL     OW22594   3.339   4.683   3.380 -0.7723 -0.6279 -0.2380
 3712SOL    HW122595   3.410   0.022   3.354 -1.2681 -0.8734 -2.1997
 3712SOL    HW222596   3.274   0.009   3.433 -0.7775 -0.3795 -0.4602
 3713SOL     OW22597   2.390   4.443   4.333 -0.2504 -0.0049 -0.6673
 3713SOL    HW122598   2.460   4.507   4.318 -0.1354 -0.0169 -0.1828
 3713SOL    HW222599   2.352   4.478   4.414 -0.1833  0.6815 -0.9314
 3714SOL     OW22600   2.479   1.685  12.480  0.3300  0.4678 -0.1623
 3714SOL    HW122601   2.439   1.598  12.475  0.6296  0.3867 -1.1109
 3714SOL    HW222602   2.427   1.716  12.555 -0.7240 -0.9116 -0.3091
 3715SOL     OW22603   3.800   0.633   9.407 -1.1318 -0.0520 -0.4554
 3715SOL    HW122604   3.755   0.715   9.388  0.8216  1.0776 -0.2474
 3715SOL    HW222605   3.810   0.596   9.319 -1.7691  1.4407 -1.1464
 3716SOL     OW22606   1.835   3.112   2.823 -0.2093 -0.8876 -0.2055
 3716SOL    HW122607   1.880   3.030   2.841  0.6173  0.0115  1.7671
 3716SOL    HW222608   1.873   3.138   2.739 -0.4793  1.0617  0.2730
 3717SOL     OW22609   2.467   4.167   5.768 -0.1704  0.0990 -0.3571
 3717SOL    HW122610   2.512   4.092   5.808  0.6779 -0.3152 -2.0532
 3717SOL    HW222611   2.394   4.121   5.727  0.8607 -0.7655 -1.2534
 3718SOL     OW22612   0.714   3.915   1.709 -0.6095  0.1857  0.1171
 3718SOL    HW122613   0.809   3.904   1.712 -0.5453  0.6376 -0.2639
 3718SOL    HW222614   0.692   3.943   1.620 -1.8771  0.3186  0.4734
 3719SOL     OW22615   4.039   2.586  14.305 -0.5509 -0.1201  0.1416
 3719SOL    HW122616   4.101   2.565  14.374  1.1124 -1.8731 -1.9046
 3719SOL    HW222617   3.976   2.513  14.309 -0.2737 -0.4217 -0.8885
 3720SOL     OW22618   2.841   0.951   5.372  0.5297  0.1060  0.3027
 3720SOL    HW122619   2.908   0.912   5.429 -1.1007 -0.4703  1.8306
 3720SOL    HW222620   2.883   0.959   5.286  1.9741 -0.1859  0.9738
 3721SOL     OW22621   4.719   3.304  17.053 -0.2998 -0.8561  0.0784
 3721SOL    HW122622   0.052   3.270  16.981 -1.7237  1.5911 -2.1564
 3721SOL    HW222623   0.045   3.369  17.104  0.3550 -0.0684 -1.5102
 3722SOL     OW22624   2.123   3.438   7.190 -0.4062  0.2742  0.0215
 3722SOL    HW122625   2.187   3.445   7.120  0.7493 -0.1672  1.0352
 3722SOL    HW222626   2.043   3.479   7.155 -0.1976  0.0882 -0.6656
 3723SOL     OW22627   0.069   2.379  11.142  0.3409 -0.4001 -0.6344
 3723SOL    HW122628   0.125   2.306  11.168 -0.6472 -0.2708  1.8725
 3723SOL    HW222629   0.037   2.353  11.055  2.8293  1.1767 -2.0361
 3724SOL     OW22630   4.051   3.702   0.313 -0.1504  0.0605  0.5835
 3724SOL    HW122631   4.051   3.657   0.229 -1.5035  0.9394  0.1025
 3724SOL    HW222632   3.956   3.702   0.329  0.0712  0.7569  1.8486
 3725SOL     OW22633   2.128   2.149   5.166  0.3450 -0.0012  0.5505
 3725SOL    HW122634   2.108   2.136   5.073 -1.9782  3.0371  0.6351
 3725SOL    HW222635   2.071   2.219   5.198 -0.9355  0.2529 -2.2926
 3726SOL     OW22636   1.328   0.694   6.879 -0.5093 -0.4191 -0.3446
 3726SOL    HW122637   1.308   0.626   6.815  2.4396 -0.0057 -1.6843
 3726SOL    HW222638   1.418   0.718   6.858 -1.8663  1.8847 -3.5614
 3727SOL     OW22639   4.393   1.923   4.372 -0.5411  0.3865  0.0484
 3727SOL    HW122640   4.424   1.866   4.442 -0.7103  2.5639  1.8853
 3727SOL    HW222641   4.481   1.945   4.341 -0.3557  0.5859  0.7147
 3728SOL     OW22642   1.976   3.822   6.563 -0.2914 -0.9408 -0.1658
 3728SOL    HW122643   1.962   3.907   6.605  0.2125  0.0788 -2.0898
 3728SOL    HW222644   1.889   3.808   6.526  0.1323 -2.7150 -0.4716
 3729SOL     OW22645   0.567   1.580  13.307  0.2521  0.5233  0.6995
 3729SOL    HW122646   0.544   1.652  13.249 -0.7775 -0.8153 -0.5425
 3729SOL    HW222647   0.546   1.617  13.393  0.8033  1.5878  0.3690
 3730SOL     OW22648   4.632   0.644   6.307 -0.2951 -0.0729  0.1923
 3730SOL    HW122649   4.664   0.594   6.231  0.6202  0.0741  0.4929
 3730SOL    HW222650   4.551   0.600   6.334 -0.1309  0.7779  2.0382
 3731SOL     OW22651   2.509   3.290   4.154 -0.0596  0.5041 -0.0262
 3731SOL    HW122652   2.457   3.330   4.084  1.1701 -0.5056 -1.4987
 3731SOL    HW222653   2.573   3.361   4.154  0.9432 -0.4099 -0.4946
 3732SOL     OW22654   1.016   1.819  11.773  0.2200  0.2004 -0.4975
 3732SOL    HW122655   1.046   1.764  11.700 -0.0311  0.4800 -0.8088
 3732SOL    HW222656   0.997   1.753  11.840 -3.7819 -2.2151 -3.9672
 3733SOL     OW22657   1.487   2.002   0.961 -0.8320 -0.0804 -0.6409
 3733SOL    HW122658   1.562   2.056   0.937 -1.2223  1.3848  1.4458
 3733SOL    HW222659   1.417   2.021   0.898  0.7355 -0.0017 -2.3527
 3734SOL     OW22660   0.079   4.012   6.078  0.1971 -0.1129  0.3011
 3734SOL    HW122661   4.707   4.014   6.101 -0.0475  2.7872 -0.9295
 3734SOL    HW222662   0.105   4.091   6.126  0.1118 -0.2428  0.5589
 3735SOL     OW22663   3.380   1.643   5.835  0.4312  0.6451 -0.1677
 3735SOL    HW122664   3.439   1.575   5.870  1.4383  0.3655 -2.3362
 3735SOL    HW222665   3.437   1.718   5.852  1.8868 -0.6675  0.8323
 3736SOL     OW22666   1.162   2.546   2.876  0.1634 -0.0556  0.1397
 3736SOL    HW122667   1.157   2.516   2.785 -0.5633  1.0404 -0.1867
 3736SOL    HW222668   1.250   2.582   2.885  0.7013 -1.3512  0.0241
 3737SOL     OW22669   0.473   0.177   2.588 -0.2835 -0.0942 -0.4004
 3737SOL    HW122670   0.416   0.125   2.533  0.3532  0.2273 -1.3781
 3737SOL    HW222671   0.519   0.102   2.625  0.1255 -0.3739 -1.4929
 3738SOL     OW22672   0.591   2.229   0.921 -0.1373  0.1289  0.5612
 3738SOL    HW122673   0.537   2.165   0.967 -1.4492  0.4548 -0.5380
 3738SOL    HW222674   0.567   2.217   0.829  1.4205  2.4152 -0.1430
 3739SOL     OW22675   0.364   0.519   5.069 -0.4621  0.3413 -0.3140
 3739SOL    HW122676   0.318   0.458   5.012  0.5871 -1.6221  0.9670
 3739SOL    HW222677   0.453   0.523   5.034 -1.2212  0.5396 -2.1844
 3740SOL     OW22678   1.261   4.540   3.574 -0.1170  0.2161 -0.0250
 3740SOL    HW122679   1.329   4.476   3.594 -0.4512 -0.1246  0.0109
 3740SOL    HW222680   1.179   4.496   3.598 -0.0664  1.4389  2.3490
 3741SOL     OW22681   2.842   0.194  10.925  0.1947 -0.3341  0.0371
 3741SOL    HW122682   2.890   0.111  10.928 -0.6866 -0.8284  0.6143
 3741SOL    HW222683   2.904   0.258  10.959 -1.8247  0.3010  2.5707
 3742SOL     OW22684   3.501   3.217  13.498 -0.1176 -0.1384 -0.2233
 3742SOL    HW122685   3.465   3.219  13.587  1.6786 -1.7256  0.5487
 3742SOL    HW222686   3.594   3.225  13.522 -0.1793  3.5833 -1.1809
 3743SOL     OW22687   0.799   0.717   9.860 -0.1667 -0.0442 -0.1426
 3743SOL    HW122688   0.722   0.768   9.887  0.1329  1.2159 -1.6465
 3743SOL    HW222689   0.863   0.735   9.929  0.3448  0.4548 -0.7476
 3744SOL     OW22690   4.510   1.116   8.588  0.9523  0.6330  0.0645
 3744SOL    HW122691   4.555   1.189   8.630 -0.2542  1.5675 -0.2798
 3744SOL    HW222692   4.427   1.148   8.554  0.2095  0.9735  2.2018
 3745SOL     OW22693   3.387   0.628   4.644 -0.3266  0.2432 -0.1633
 3745SOL    HW122694   3.477   0.616   4.676 -1.1608 -0.8147  1.7876
 3745SOL    HW222695   3.339   0.596   4.720 -1.8298  0.4808 -1.0166
 3746SOL     OW22696   3.872   1.327   7.010 -0.1392 -0.1064  0.6600
 3746SOL    HW122697   3.932   1.397   7.036 -0.6175  0.2743  0.7353
 3746SOL    HW222698   3.795   1.378   6.986  1.5998  2.2460  0.0449
 3747SOL     OW22699   3.548   2.546   6.126  0.3717  0.8013 -0.3667
 3747SOL    HW122700   3.519   2.605   6.056 -1.3975 -1.9527 -1.9949
 3747SOL    HW222701   3.493   2.469   6.107 -2.0688  2.7111 -1.0426
 3748SOL     OW22702   2.418   0.612   2.304 -0.0296  0.0031 -0.0574
 3748SOL    HW122703   2.323   0.610   2.300 -0.0221 -1.2437  0.1641
 3748SOL    HW222704   2.440   0.556   2.229  0.0404  0.8292 -0.6486
 3749SOL     OW22705   2.120   3.687   3.458  0.2050 -0.2718 -0.1524
 3749SOL    HW122706   2.212   3.692   3.430  0.7432 -2.0549  1.3111
 3749SOL    HW222707   2.110   3.757   3.522  2.4328  0.9216 -1.0839
 3750SOL     OW22708   4.270   1.840   8.332  0.2754  0.2172 -0.6710
 3750SOL    HW122709   4.208   1.911   8.316  2.8620  2.5663 -0.2027
 3750SOL    HW222710   4.351   1.867   8.288  0.3316  1.5197  0.2377
 3751SOL     OW22711   0.148   2.233   4.464 -0.2060 -0.1261  0.6259
 3751SOL    HW122712   0.243   2.236   4.465 -0.2652  1.1316  1.8838
 3751SOL    HW222713   0.122   2.191   4.546 -0.9989 -1.5184 -0.3316
 3752SOL     OW22714   0.239   2.685   4.996 -0.0333 -0.7591  0.5493
 3752SOL    HW122715   0.187   2.616   5.037 -1.1993  0.0016  0.3371
 3752SOL    HW222716   0.180   2.760   5.002 -1.2488 -1.7559  0.8776
 3753SOL     OW22717   0.229   4.372  16.632 -0.0952 -0.1032 -0.7231
 3753SOL    HW122718   0.273   4.448  16.594  1.8801 -2.0831 -2.3974
 3753SOL    HW222719   0.268   4.304  16.576 -1.5431 -1.0726 -0.5468
 3754SOL     OW22720   3.570   2.359  15.588  0.7765  1.1853 -0.3497
 3754SOL    HW122721   3.552   2.448  15.618 -2.1128 -0.0251  1.5361
 3754SOL    HW222722   3.595   2.371  15.496  3.0552  1.0692  0.2533
 3755SOL     OW22723   1.193   1.586   8.065 -0.1521 -0.1609  0.2625
 3755SOL    HW122724   1.234   1.520   8.008  1.0092  1.5335 -0.8665
 3755SOL    HW222725   1.264   1.601   8.127 -0.1735 -1.2520  0.5478
 3756SOL     OW22726   2.806   0.500   3.849  0.2957  0.4960  0.0695
 3756SOL    HW122727   2.813   0.583   3.898 -3.2076  1.0119 -0.3222
 3756SOL    HW222728   2.891   0.463   3.875  0.5191  1.2411  0.4080
 3757SOL     OW22729   3.760   0.663   8.292  0.4577 -0.2561 -0.3651
 3757SOL    HW122730   3.714   0.743   8.267  2.1477  0.9187  0.2813
 3757SOL    HW222731   3.698   0.610   8.342 -3.0399  1.9952 -2.3157
 3758SOL     OW22732   4.428   4.571   2.359  0.3366 -0.2731  0.7580
 3758SOL    HW122733   4.401   4.626   2.285  1.5447  2.2311  2.1859
 3758SOL    HW222734   4.362   4.590   2.426  0.4497  0.9095  0.5316
 3759SOL     OW22735   1.319   3.223  11.953 -0.4548  0.4046  0.0723
 3759SOL    HW122736   1.263   3.301  11.960  0.4235  1.2503 -2.5285
 3759SOL    HW222737   1.394   3.256  12.003  1.8878 -3.2627 -1.1114
 3760SOL     OW22738   3.798   2.255   5.300  0.4498  0.1185  0.1190
 3760SOL    HW122739   3.730   2.314   5.269  0.2117 -1.0388 -1.5540
 3760SOL    HW222740   3.868   2.320   5.308 -0.8936  1.8654 -2.1500
 3761SOL     OW22741   4.077   2.292   9.219 -0.1171  0.6030  0.0504
 3761SOL    HW122742   4.136   2.361   9.189 -0.4345  1.3483  1.1628
 3761SOL    HW222743   4.089   2.230   9.147  0.2735  1.9775 -1.0786
 3762SOL     OW22744   2.316   2.026   1.300 -0.4655 -0.1849 -0.6499
 3762SOL    HW122745   2.393   1.975   1.275  1.1685  1.9876 -0.1141
 3762SOL    HW222746   2.246   1.962   1.294 -0.0548 -0.6295 -0.7277
 3763SOL     OW22747   1.666   0.040   5.873  1.0831  0.3929 -0.1059
 3763SOL    HW122748   1.576   0.019   5.849  1.8649 -0.3517 -2.4566
 3763SOL    HW222749   1.680   0.130   5.844  0.8019  0.1624 -0.9661
 3764SOL     OW22750   4.163   4.027   6.644  0.1789  0.1227 -0.0616
 3764SOL    HW122751   4.110   4.046   6.566  0.7382  1.2939 -0.1550
 3764SOL    HW222752   4.157   3.933   6.655  0.1323 -0.1578 -2.6112
 3765SOL     OW22753   4.535   3.791  14.915 -0.2970 -0.2646  0.2119
 3765SOL    HW122754   4.454   3.837  14.894  0.5819  0.5046 -1.4799
 3765SOL    HW222755   4.523   3.780  15.009 -1.5507  0.8726  0.1814
 3766SOL     OW22756   1.237   0.506   6.264 -0.1452 -0.0277  0.1974
 3766SOL    HW122757   1.191   0.582   6.300 -2.1210 -0.4793 -1.3680
 3766SOL    HW222758   1.184   0.435   6.302 -0.2572  0.1294  0.3379
 3767SOL     OW22759   2.845   0.143   7.746 -0.0253  0.0837 -0.3874
 3767SOL    HW122760   2.792   0.114   7.821 -0.6036  0.4572 -0.6493
 3767SOL    HW222761   2.786   0.122   7.673  0.0784  1.1182 -0.7673
 3768SOL     OW22762   1.085   1.764   5.463  0.5072  0.3990 -0.2676
 3768SOL    HW122763   1.144   1.776   5.537 -1.6407  2.3237  1.1391
 3768SOL    HW222764   1.061   1.854   5.439  2.3471  2.1414  4.5237
 3769SOL     OW22765   4.490   2.998   7.481  0.3168  0.4945 -0.0207
 3769SOL    HW122766   4.400   2.966   7.487  0.2878  0.6549  0.3539
 3769SOL    HW222767   4.541   2.918   7.466  1.5313  1.2291  0.1556
 3770SOL     OW22768   1.834   1.932   4.323 -0.4227  0.1731 -0.0609
 3770SOL    HW122769   1.889   1.885   4.386 -1.8162 -1.9266 -0.4281
 3770SOL    HW222770   1.751   1.887   4.338 -0.2983 -0.2367 -0.6414
 3771SOL     OW22771   3.439   2.142   8.680 -0.2671  0.4953 -0.4056
 3771SOL    HW122772   3.406   2.209   8.739 -2.4294 -0.9845  0.0750
 3771SOL    HW222773   3.530   2.136   8.709 -0.4456 -0.7634 -0.1141
 3772SOL     OW22774   3.669   4.235   7.153  0.1218 -0.2835 -0.3274
 3772SOL    HW122775   3.601   4.298   7.132 -0.4329 -0.3295  1.3821
 3772SOL    HW222776   3.648   4.230   7.246 -0.3738 -1.3637 -0.5026
 3773SOL     OW22777   4.240   0.847   3.874  0.7004  0.5073  0.1129
 3773SOL    HW122778   4.272   0.924   3.827 -0.9258 -0.0346 -1.8872
 3773SOL    HW222779   4.322   0.822   3.918  0.2207 -0.2239  0.5919
 3774SOL     OW22780   4.055   0.518   6.991  0.0642  0.6574 -0.2101
 3774SOL    HW122781   4.115   0.592   6.983 -1.4372  1.6511 -2.1665
 3774SOL    HW222782   4.001   0.532   6.913  1.9399 -1.3546 -1.8729
 3775SOL     OW22783   2.985   4.292  13.012  0.3404  0.0841 -0.2128
 3775SOL    HW122784   3.070   4.333  13.002  0.0759  0.1535 -2.0974
 3775SOL    HW222785   3.017   4.202  13.026 -0.2323 -0.2048 -0.7663
 3776SOL     OW22786   1.016   0.928  12.979 -0.6183 -0.8064 -0.4641
 3776SOL    HW122787   1.083   0.864  12.955  0.1376 -0.7334  1.3835
 3776SOL    HW222788   1.048   0.968  13.060  1.0624  0.0556 -1.5638
 3777SOL     OW22789   0.592   4.289   1.137  0.4681 -0.0117 -0.1458
 3777SOL    HW122790   0.646   4.335   1.201  1.0654  0.7569 -1.2038
 3777SOL    HW222791   0.641   4.207   1.133  0.1348 -0.2717  1.1691
 3778SOL     OW22792   3.663   2.227   0.864 -0.4133 -0.1736 -0.1389
 3778SOL    HW122793   3.603   2.156   0.885  1.7215 -2.5401 -1.9231
 3778SOL    HW222794   3.665   2.218   0.768 -1.9694  1.0736 -0.2876
 3779SOL     OW22795   0.197   2.047  15.716 -0.8250 -0.1374 -0.3011
 3779SOL    HW122796   0.194   2.061  15.621  0.0886 -1.2746 -0.4869
 3779SOL    HW222797   0.194   1.951  15.717 -3.3913 -0.0435  2.1995
 3780SOL     OW22798   0.782   0.405   2.803 -0.2411 -0.1294 -0.5559
 3780SOL    HW122799   0.793   0.340   2.734  0.4613  0.5346 -1.0663
 3780SOL    HW222800   0.868   0.446   2.816 -0.0882 -0.2033 -1.3686
 3781SOL     OW22801   1.020   4.356  13.371 -0.3792 -0.3985 -0.3669
 3781SOL    HW122802   1.086   4.313  13.425 -0.5046  1.1662  1.0459
 3781SOL    HW222803   1.044   4.325  13.283  1.1305 -0.1851 -0.0255
 3782SOL     OW22804   1.605   4.534   9.205  0.9122  0.1255 -0.3029
 3782SOL    HW122805   1.565   4.465   9.151  0.2210  0.4541 -0.2104
 3782SOL    HW222806   1.552   4.608   9.178  0.8052  1.4181  3.5059
 3783SOL     OW22807   0.006   4.354   7.516  0.1311 -0.3309 -0.0341
 3783SOL    HW122808   0.077   4.318   7.569  0.2109 -0.3161 -0.1311
 3783SOL    HW222809   4.691   4.420   7.575 -0.2515  1.6585 -2.4930
 3784SOL     OW22810   4.396   0.330  12.491  0.5291  0.7827  0.3766
 3784SOL    HW122811   4.378   0.241  12.460  2.7028  0.5955 -0.3535
 3784SOL    HW222812   4.491   0.330  12.505  0.4110  1.1924  1.1869
 3785SOL     OW22813   1.761   2.381   8.746 -0.4469 -0.1342  0.1671
 3785SOL    HW122814   1.722   2.463   8.778  1.2067  0.6156  0.2660
 3785SOL    HW222815   1.682   2.349   8.702  0.4581 -2.8285  0.5481
 3786SOL     OW22816   0.591   4.368   6.167 -0.5745  0.0997 -0.0033
 3786SOL    HW122817   0.555   4.424   6.236  0.9451  1.6937 -0.5036
 3786SOL    HW222818   0.557   4.283   6.198  0.9007 -0.1564  0.9140
 3787SOL     OW22819   0.095   4.029   1.574  0.0166 -0.0714 -0.9822
 3787SOL    HW122820   0.056   3.976   1.644  0.0456  1.5299  0.2340
 3787SOL    HW222821   0.179   4.044   1.617  0.6690  0.1783 -2.3263
 3788SOL     OW22822   3.747   4.657   5.424  0.4885 -0.1151  0.0535
 3788SOL    HW122823   3.735   4.675   5.331  0.0824 -0.8132 -0.0239
 3788SOL    HW222824   3.801   4.578   5.422  1.2018  0.4023 -1.3559
 3789SOL     OW22825   3.328   2.949   8.409  0.7914  0.2233  0.3717
 3789SOL    HW122826   3.320   2.858   8.437 -1.2706  0.4178  0.4288
 3789SOL    HW222827   3.284   2.992   8.483  1.4113 -0.3417  1.0714
 3790SOL     OW22828   0.745   3.813   3.243  0.4549  0.4053  0.4579
 3790SOL    HW122829   0.758   3.848   3.331 -0.2056  1.8939 -0.0283
 3790SOL    HW222830   0.650   3.821   3.235  0.5677  0.4076 -0.8230
 3791SOL     OW22831   3.671   3.267   3.349  0.1623 -0.2183  0.0519
 3791SOL    HW122832   3.600   3.238   3.292  0.2047  1.5341 -0.8906
 3791SOL    HW222833   3.629   3.344   3.388 -0.3614  0.2468 -1.4213
 3792SOL     OW22834   3.132   1.608  17.292 -0.2811  0.2641 -0.1549
 3792SOL    HW122835   3.106   1.574  17.378  2.0020  1.9893  1.2243
 3792SOL    HW222836   3.086   1.692  17.294 -1.4041 -0.3328 -1.0107
 3793SOL     OW22837   4.125   4.110  10.028  0.0591  0.3781  0.0643
 3793SOL    HW122838   4.074   4.087  10.106  0.3920  1.8366  0.7122
 3793SOL    HW222839   4.201   4.152  10.068 -0.5198  1.1580  0.3499
 3794SOL     OW22840   0.454   2.150   5.671  0.5460 -0.1722  0.4514
 3794SOL    HW122841   0.474   2.189   5.586 -0.3563  0.4394  0.5208
 3794SOL    HW222842   0.540   2.161   5.712  0.7846  0.8458 -0.3334
 3795SOL     OW22843   0.416   3.019   4.486 -0.7837  0.7589  0.0146
 3795SOL    HW122844   0.389   3.079   4.417 -0.0307  1.5944  0.4428
 3795SOL    HW222845   0.436   3.080   4.558 -2.9874 -1.3688  2.3858
 3796SOL     OW22846   4.332   3.629   3.440 -0.5087  0.0378 -0.9913
 3796SOL    HW122847   4.301   3.650   3.352 -2.1812 -0.1687 -0.4487
 3796SOL    HW222848   4.320   3.710   3.490 -1.2774 -0.2491 -0.7040
 3797SOL     OW22849   1.562   0.255   2.309  0.2193 -0.0022 -0.1755
 3797SOL    HW122850   1.640   0.226   2.262 -0.7561 -0.4080 -1.5579
 3797SOL    HW222851   1.586   0.211   2.391 -3.1334  1.0569  1.3837
 3798SOL     OW22852   2.899   1.197   2.481  0.2613 -0.4718 -0.1269
 3798SOL    HW122853   2.901   1.264   2.413  1.0335 -1.0239 -0.6419
 3798SOL    HW222854   2.933   1.119   2.437 -0.0452 -0.7761  0.1660
 3799SOL     OW22855   3.335   4.115   3.435 -0.7563 -0.3759 -0.2405
 3799SOL    HW122856   3.396   4.084   3.368 -2.9660 -0.0792 -2.4087
 3799SOL    HW222857   3.293   4.189   3.391 -1.6439  0.1926  1.5593
 3800SOL     OW22858   3.926   0.012  12.395 -0.6970 -0.4257 -0.0283
 3800SOL    HW122859   3.836   0.037  12.417 -0.9070 -1.7106  0.5251
 3800SOL    HW222860   3.965   0.097  12.373 -2.6952  0.5997  0.3314
 3801SOL     OW22861   2.899   4.376   9.436  0.6953 -0.1618  0.2042
 3801SOL    HW122862   2.845   4.388   9.514 -0.7968  0.9258 -0.9768
 3801SOL    HW222863   2.985   4.406   9.465 -0.2978  2.9086  0.0041
 3802SOL     OW22864   4.302   3.124  10.714 -0.4345 -0.2270 -0.3531
 3802SOL    HW122865   4.281   3.125  10.808  1.4371  0.8705  0.0727
 3802SOL    HW222866   4.281   3.214  10.691 -0.3722 -0.3371 -0.8382
 3803SOL     OW22867   4.567   2.719   2.124  0.2398 -0.2157  0.7352
 3803SOL    HW122868   4.611   2.788   2.074  0.1018 -0.4335  0.3156
 3803SOL    HW222869   4.509   2.694   2.053  0.2442  0.7957  0.3790
 3804SOL     OW22870   3.077   0.482   4.056 -0.4022  0.4351  0.4792
 3804SOL    HW122871   3.068   0.578   4.055 -1.9314  0.2935  1.0421
 3804SOL    HW222872   3.010   0.467   4.123  0.6068  3.6233  2.2443
 3805SOL     OW22873   3.529   1.995   1.017  0.3001 -0.0621 -0.8331
 3805SOL    HW122874   3.513   1.925   1.081  0.1114 -1.0342 -1.9530
 3805SOL    HW222875   3.595   2.041   1.069 -2.7662  1.7836  1.4613
 3806SOL     OW22876   3.401   1.716  12.404  0.1684  0.5292 -0.0049
 3806SOL    HW122877   3.495   1.712  12.388 -0.0473 -1.2076 -0.8411
 3806SOL    HW222878   3.365   1.675  12.325 -0.9045 -3.1235  2.3605
 3807SOL     OW22879   0.559   0.756   7.485  0.9157 -0.2207  0.7068
 3807SOL    HW122880   0.520   0.689   7.429 -1.9702  0.9486  1.3077
 3807SOL    HW222881   0.565   0.822   7.416 -1.8892  1.0685  1.6947
 3808SOL     OW22882   4.382   2.319   2.528  0.1393  0.2362  0.3040
 3808SOL    HW122883   4.344   2.235   2.503 -0.6635  0.4475  0.8241
 3808SOL    HW222884   4.391   2.301   2.622  0.5912  0.4368  0.3005
 3809SOL     OW22885   1.784   1.384   6.544 -0.0646  0.1887 -0.4591
 3809SOL    HW122886   1.737   1.380   6.461 -1.0829 -0.0193  0.1279
 3809SOL    HW222887   1.737   1.323   6.601  0.4507 -0.9334 -1.2271
 3810SOL     OW22888   0.170   4.350   1.714  0.3219  0.1917  0.4059
 3810SOL    HW122889   0.245   4.365   1.772  1.3137 -0.0923 -0.7972
 3810SOL    HW222890   0.196   4.266   1.674  0.5641 -0.0662  1.1083
 3811SOL     OW22891   1.641   2.069   0.234 -0.1562 -0.5168  0.1426
 3811SOL    HW122892   1.623   2.135   0.167 -4.5149 -0.7072  1.1437
 3811SOL    HW222893   1.612   2.123   0.307 -0.9309  1.8174 -1.8862
 3812SOL     OW22894   2.736   1.005  11.518  0.0588  0.1085 -0.3055
 3812SOL    HW122895   2.819   0.964  11.496  0.0452  0.9363 -1.8660
 3812SOL    HW222896   2.755   1.096  11.495  2.0701 -0.2590 -0.0438
 3813SOL     OW22897   0.226   2.190  12.123  0.2973  0.1847  0.7936
 3813SOL    HW122898   0.197   2.281  12.113 -2.1908 -0.7129 -0.1791
 3813SOL    HW222899   0.146   2.143  12.145 -0.4044  1.0082  0.0335
 3814SOL     OW22900   2.522   2.425   8.463 -0.0737  0.5509  0.2390
 3814SOL    HW122901   2.539   2.390   8.551 -1.0158  0.5069  0.4078
 3814SOL    HW222902   2.429   2.405   8.458  0.2581 -1.1066  0.6415
 3815SOL     OW22903   2.410   3.067   2.827 -0.4135  0.4305  0.0293
 3815SOL    HW122904   2.345   3.032   2.766  1.3668 -0.4503 -1.3527
 3815SOL    HW222905   2.348   3.099   2.892 -0.4716  1.1735 -0.3980
 3816SOL     OW22906   0.593   3.631   3.550  0.4117  0.3364  0.3308
 3816SOL    HW122907   0.660   3.699   3.537  0.8170 -0.1747 -0.2237
 3816SOL    HW222908   0.521   3.672   3.501  0.3620 -1.6117 -1.2225
 3817SOL     OW22909   2.238   1.514  13.222  0.2069 -0.0063  0.5451
 3817SOL    HW122910   2.166   1.544  13.277 -0.1885  0.4970 -0.2523
 3817SOL    HW222911   2.181   1.449  13.181  0.7824  0.0037 -0.2587
 3818SOL     OW22912   0.527   4.072   6.579  0.1585  0.0411 -0.2774
 3818SOL    HW122913   0.527   4.120   6.496 -0.3186  0.3951 -0.0720
 3818SOL    HW222914   0.513   4.137   6.648 -1.3168  0.6956 -1.1792
 3819SOL     OW22915   2.102   2.500   9.149  0.0696  0.5853  0.3627
 3819SOL    HW122916   2.026   2.497   9.207 -0.6853 -0.7927 -0.6968
 3819SOL    HW222917   2.100   2.589   9.114  0.2497  0.3673 -0.2141
 3820SOL     OW22918   4.448   1.395   1.968  0.4778 -0.1888 -0.8027
 3820SOL    HW122919   4.360   1.371   1.941  0.5685  1.5269 -2.5961
 3820SOL    HW222920   4.471   1.441   1.887 -1.8309  1.2546 -0.6339
 3821SOL     OW22921   4.152   4.633   6.314 -0.9459  0.1192  0.1398
 3821SOL    HW122922   4.220   4.640   6.380  0.8772  1.7222 -1.9202
 3821SOL    HW222923   4.172   4.713   6.265  1.4004 -0.4046  0.2647
 3822SOL     OW22924   1.054   2.064   3.996  0.5458 -0.5706 -0.2736
 3822SOL    HW122925   0.985   2.105   4.048  2.3363  1.8136  0.2232
 3822SOL    HW222926   1.063   2.129   3.927  3.8350 -0.4112  0.3060
 3823SOL     OW22927   0.334   1.824   2.870  0.0151  0.0399  1.0332
 3823SOL    HW122928   0.238   1.832   2.865  0.1979  2.1414  0.8373
 3823SOL    HW222929   0.371   1.910   2.851  1.1675 -0.8654 -0.7283
 3824SOL     OW22930   1.352   3.367   9.543 -0.5428 -0.2807 -0.2711
 3824SOL    HW122931   1.318   3.438   9.599 -2.4128 -1.2077 -0.2259
 3824SOL    HW222932   1.280   3.305   9.556 -0.1420 -0.6947 -0.0432
 3825SOL     OW22933   2.335   2.552  17.379  0.3706 -0.5112  0.6946
 3825SOL    HW122934   2.384   2.472  17.396  1.6861 -0.0222 -0.7857
 3825SOL    HW222935   2.247   2.531  17.411  0.2524 -1.8479 -0.4873
 3826SOL     OW22936   2.812   0.060   0.328 -0.0569  0.3276 -0.0036
 3826SOL    HW122937   2.800   0.154   0.335 -1.4256  0.3136 -2.1002
 3826SOL    HW222938   2.741   0.029   0.385  1.2784  1.4129  2.2099
 3827SOL     OW22939   2.644   0.060   6.620 -0.6598 -0.4026 -0.2370
 3827SOL    HW122940   2.669   0.053   6.528  2.5636  0.9486  0.5468
 3827SOL    HW222941   2.719   0.011   6.654  0.0769  1.9749  1.5811
 3828SOL     OW22942   3.733   0.788  13.569  0.0880 -0.3497 -0.3508
 3828SOL    HW122943   3.816   0.813  13.526 -0.6115  2.3069 -0.1675
 3828SOL    HW222944   3.771   0.730  13.635  0.2369  0.3249  0.1499
 3829SOL     OW22945   2.313   1.775   8.592 -0.2854  0.1168  0.4930
 3829SOL    HW122946   2.373   1.793   8.519  1.0798  2.4115  2.1802
 3829SOL    HW222947   2.237   1.750   8.539  0.0222  0.3153 -0.0497
 3830SOL     OW22948   1.483   2.826   7.260  0.2124 -0.2611 -0.1777
 3830SOL    HW122949   1.400   2.792   7.225  0.6638 -0.6082 -0.9137
 3830SOL    HW222950   1.463   2.834   7.353  3.1435 -0.3563  0.4701
 3831SOL     OW22951   4.275   3.892  12.400 -0.4099  0.2301 -0.1225
 3831SOL    HW122952   4.368   3.911  12.412 -0.9505  2.2769  0.8140
 3831SOL    HW222953   4.236   3.946  12.469 -0.2405 -0.3916  0.4609
 3832SOL     OW22954   2.895   3.625  12.158 -0.1818  0.4149  0.5137
 3832SOL    HW122955   2.899   3.548  12.101  1.6148  0.1937  0.9494
 3832SOL    HW222956   2.949   3.683  12.104  3.2473 -1.6269  1.7411
 3833SOL     OW22957   3.138   2.359   2.022 -0.1859  0.3414  0.0035
 3833SOL    HW122958   3.180   2.282   1.984 -1.0429 -0.3264  0.4172
 3833SOL    HW222959   3.200   2.379   2.093 -0.2748  0.3728  0.0736
 3834SOL     OW22960   0.455   3.456  17.538  0.1556  0.3700 -0.0028
 3834SOL    HW122961   0.506   3.402  17.478  1.5206  1.6426  0.0039
 3834SOL    HW222962   0.403   3.509  17.478 -2.2882 -0.2737  1.5356
 3835SOL     OW22963   4.208   0.376  16.074  0.3570  0.2374 -0.6470
 3835SOL    HW122964   4.166   0.296  16.042 -1.1482  2.0425 -3.2412
 3835SOL    HW222965   4.301   0.360  16.057  1.0375  3.6315 -0.1268
 3836SOL     OW22966   3.402   2.821   8.873  0.1060  0.1290  0.4172
 3836SOL    HW122967   3.329   2.759   8.869  0.0363  0.3745 -2.1235
 3836SOL    HW222968   3.367   2.901   8.833 -0.7135  0.3021  1.4939
 3837SOL     OW22969   0.543   2.041  12.469  0.0754  0.1109 -0.1929
 3837SOL    HW122970   0.580   2.128  12.455 -0.5857  0.6695  1.5565
 3837SOL    HW222971   0.517   2.015  12.381  0.7513 -0.4028 -0.2381
 3838SOL     OW22972   0.526   2.892  12.911  0.3932 -0.1889 -0.1257
 3838SOL    HW122973   0.582   2.848  12.975 -0.3347  0.1422  0.7372
 3838SOL    HW222974   0.576   2.905  12.831 -0.0217 -1.5427 -0.6048
 3839SOL     OW22975   0.372   4.440   7.134 -0.3312 -0.4202 -0.4209
 3839SOL    HW122976   0.436   4.389   7.184 -0.3945  1.6613  1.7595
 3839SOL    HW222977   0.392   4.400   7.049 -0.9232 -1.4471 -0.0815
 3840SOL     OW22978   4.426   0.638   7.174 -0.1522 -0.3123  0.2825
 3840SOL    HW122979   4.333   0.625   7.189  0.0175 -0.4389  1.2187
 3840SOL    HW222980   4.457   0.670   7.259  1.3775  1.8873 -1.0956
 3841SOL     OW22981   0.856   1.491   1.136  0.3167 -0.2067  0.0766
 3841SOL    HW122982   0.882   1.574   1.096 -2.1791  0.4407 -0.2013
 3841SOL    HW222983   0.944   1.463   1.161  1.6268  2.0734 -1.9969
 3842SOL     OW22984   0.038   3.662   3.270  0.3610  0.4065  0.0261
 3842SOL    HW122985   0.112   3.603   3.289 -0.2576  0.1056  1.5517
 3842SOL    HW222986   4.692   3.613   3.320  1.4579 -1.0802  0.0487
 3843SOL     OW22987   0.228   4.432  13.795 -0.3491 -0.3656 -0.0926
 3843SOL    HW122988   0.296   4.394  13.739 -1.1829 -2.2601  0.1855
 3843SOL    HW222989   0.159   4.380  13.755 -0.8630  0.2784 -0.0443
 3844SOL     OW22990   2.651   3.692   8.230  0.1943 -0.2660  0.3221
 3844SOL    HW122991   2.615   3.768   8.276  0.6296  0.2784 -0.2450
 3844SOL    HW222992   2.583   3.626   8.249  1.3837 -0.9478  2.1502
 3845SOL     OW22993   0.396   1.045   0.764  0.5010 -0.5082 -0.4373
 3845SOL    HW122994   0.309   1.016   0.791  0.5591 -2.0574 -1.9175
 3845SOL    HW222995   0.434   1.079   0.845 -2.7439  1.1562  0.3694
 3846SOL     OW22996   0.037   0.946   4.280 -0.3471 -0.2526  0.1596
 3846SOL    HW122997   0.109   1.004   4.304  0.4982 -0.6093 -1.4933
 3846SOL    HW222998   0.070   0.860   4.308  0.9268 -0.0741 -0.7906
 3847SOL     OW22999   1.233   4.177   0.646  0.1130  0.2669  0.1704
 3847SOL    HW123000   1.328   4.189   0.652  0.0178  0.5670  0.9979
 3847SOL    HW223001   1.225   4.214   0.558 -1.0227  2.3476  1.1509
 3848SOL     OW23002   1.572   3.043   4.349 -0.4958  0.4472  0.1319
 3848SOL    HW123003   1.635   3.058   4.419 -1.3855  1.3652  0.7362
 3848SOL    HW223004   1.526   3.126   4.338 -1.0576 -0.2350 -2.7141
 3849SOL     OW23005   2.940   1.686   7.058  0.4814  0.2767  0.6018
 3849SOL    HW123006   2.900   1.743   7.123  1.7476  0.5735  1.1015
 3849SOL    HW223007   2.984   1.626   7.118 -1.6570  0.8199  2.6897
 3850SOL     OW23008   1.555   3.728   3.280  0.3183 -0.0263  0.2128
 3850SOL    HW123009   1.550   3.647   3.330  0.2659 -0.2367 -0.1359
 3850SOL    HW223010   1.473   3.723   3.232  0.2398  2.1161  0.1400
 3851SOL     OW23011   4.389   3.288   8.408 -0.2841 -0.7583  0.6058
 3851SOL    HW123012   4.318   3.257   8.352  0.9643 -2.1459 -0.2149
 3851SOL    HW223013   4.456   3.225   8.381  0.0877  0.2289 -0.7517
 3852SOL     OW23014   0.502   2.207  14.933  0.1082  0.2359  0.0193
 3852SOL    HW123015   0.452   2.155  14.996 -0.0539 -1.6849 -1.7039
 3852SOL    HW223016   0.484   2.298  14.958  1.1734  0.5490 -0.3505
 3853SOL     OW23017   3.312   2.894   3.450  0.0233  1.0339 -0.0382
 3853SOL    HW123018   3.265   2.862   3.373 -0.7342  0.9483  0.4593
 3853SOL    HW223019   3.341   2.806   3.475 -0.3313  1.0691  0.5116
 3854SOL     OW23020   0.589   1.537  12.122  0.3581  0.2434  0.2694
 3854SOL    HW123021   0.645   1.501  12.191 -1.1755 -2.7241 -0.0512
 3854SOL    HW223022   0.521   1.572  12.179 -0.0033  0.2664 -0.1832
 3855SOL     OW23023   0.326   2.351   4.968 -0.2313  0.3256 -0.2085
 3855SOL    HW123024   0.348   2.380   4.880 -2.1778 -2.2665 -1.5414
 3855SOL    HW223025   0.343   2.257   4.964  0.2227  0.3445  1.1389
 3856SOL     OW23026   0.306   4.537  11.203 -0.0961  0.2056 -0.0390
 3856SOL    HW123027   0.387   4.588  11.195 -0.4381  0.7006 -0.3141
 3856SOL    HW223028   0.247   4.610  11.223 -1.3108  0.0730 -3.2428
 3857SOL     OW23029   1.820   1.447   5.833  0.5341  0.3841  0.0241
 3857SOL    HW123030   1.757   1.519   5.832 -0.3744 -0.4024  0.2362
 3857SOL    HW223031   1.850   1.446   5.924 -0.1668  0.0850  0.2542
 3858SOL     OW23032   3.750   4.169   3.161 -0.5432  0.5797 -0.3351
 3858SOL    HW123033   3.747   4.232   3.090 -0.7232  1.3379  0.3493
 3858SOL    HW223034   3.658   4.169   3.188 -0.9732  0.9241 -1.8056
 3859SOL     OW23035   3.665   3.267   8.425 -0.0124 -0.5312 -0.4482
 3859SOL    HW123036   3.621   3.338   8.379  1.4169 -0.6344 -1.9848
 3859SOL    HW223037   3.755   3.266   8.390 -0.3140 -0.0012 -1.2470
 3860SOL     OW23038   2.041   1.909   4.507  0.1423  0.6157 -0.1366
 3860SOL    HW123039   1.972   1.909   4.573  1.2636 -0.7331  1.0453
 3860SOL    HW223040   2.064   2.002   4.508  1.2552  0.3360  0.4726
 3861SOL     OW23041   0.581   0.573  10.716 -0.4668 -0.7280 -0.6592
 3861SOL    HW123042   0.508   0.625  10.684 -0.0778 -0.4051 -1.0313
 3861SOL    HW223043   0.606   0.617  10.797  0.1643 -0.4987 -0.9713
 3862SOL     OW23044   3.538   2.882  10.437  0.0286  0.0586  0.2466
 3862SOL    HW123045   3.602   2.825  10.481 -0.4197 -0.3598  0.3518
 3862SOL    HW223046   3.541   2.859  10.344 -0.0665  1.5421 -0.1248
 3863SOL     OW23047   2.966   0.650   6.258 -0.0135 -0.2384  0.0273
 3863SOL    HW123048   2.885   0.613   6.295 -0.2934 -0.1193 -0.4589
 3863SOL    HW223049   2.934   0.739   6.241 -4.7097 -1.5509  1.9631
 3864SOL     OW23050   2.271   3.941   0.281 -0.3277 -0.0981  0.7592
 3864SOL    HW123051   2.256   3.961   0.188  0.3630  0.1878  0.7111
 3864SOL    HW223052   2.362   3.969   0.289 -0.6934  2.0063 -2.2167
 3865SOL     OW23053   3.062   0.597   2.604 -0.4250  0.8762 -0.0647
 3865SOL    HW123054   3.135   0.565   2.656  0.9735  2.0166 -1.3380
 3865SOL    HW223055   3.053   0.683   2.646 -0.2577  1.2366 -0.7738
 3866SOL     OW23056   4.559   2.896   2.622 -0.6271  0.3190  0.3969
 3866SOL    HW123057   4.617   2.863   2.553  1.6824  1.3080  1.8845
 3866SOL    HW223058   4.547   2.988   2.597 -0.7482  0.0266 -0.6274
 3867SOL     OW23059   2.016   2.367   5.989 -0.7578 -0.0308 -0.3782
 3867SOL    HW123060   2.062   2.409   6.062  0.1499 -2.5630  0.5238
 3867SOL    HW223061   1.927   2.360   6.022 -0.4695 -1.6349  0.0541
 3868SOL     OW23062   2.938   0.154  16.224  0.0207  0.8269 -0.1965
 3868SOL    HW123063   2.899   0.130  16.308  0.3674 -1.0140 -0.5680
 3868SOL    HW223064   2.973   0.072  16.189  1.7643  0.5735  2.1862
 3869SOL     OW23065   1.987   4.471  16.294  0.3763 -0.2488  0.2995
 3869SOL    HW123066   1.900   4.511  16.291  0.7030  0.3082 -1.6621
 3869SOL    HW223067   2.025   4.507  16.214  0.7289 -0.4843  0.3635
 3870SOL     OW23068   3.668   3.334   4.532  0.3088  0.2495 -0.6516
 3870SOL    HW123069   3.588   3.387   4.540  1.9868  2.7417 -0.5294
 3870SOL    HW223070   3.735   3.396   4.506  0.2087 -0.2323 -2.0472
 3871SOL     OW23071   2.795   4.675   9.365 -0.9385 -0.4156 -0.2030
 3871SOL    HW123072   2.836   4.595   9.397 -0.8817 -0.3063 -0.0008
 3871SOL    HW223073   2.743   4.707   9.439 -0.6572 -0.1511 -0.1222
 3872SOL     OW23074   3.958   4.103   3.313 -0.5555  0.1980 -0.4185
 3872SOL    HW123075   3.982   4.188   3.349  0.3914 -0.0240 -0.5243
 3872SOL    HW223076   3.897   4.117   3.240 -0.5463 -2.0462 -0.8700
 3873SOL     OW23077   1.613   0.811   7.955 -0.2490 -0.6147 -0.1996
 3873SOL    HW123078   1.672   0.802   8.030  1.2003  1.2478 -1.0867
 3873SOL    HW223079   1.546   0.871   7.987  0.1323 -1.4541  2.1389
 3874SOL     OW23080   3.412   1.712   8.048 -0.9862  0.0934  0.1097
 3874SOL    HW123081   3.415   1.804   8.071 -0.6438  0.1784 -0.2895
 3874SOL    HW223082   3.505   1.691   8.041 -0.1937  2.6855  2.8782
 3875SOL     OW23083   2.782   0.881   6.727 -0.3470 -0.1196 -0.0914
 3875SOL    HW123084   2.700   0.843   6.697  0.6419 -2.2681 -0.0415
 3875SOL    HW223085   2.744   0.968   6.739  1.4361  0.8309 -1.2154
 3876SOL     OW23086   3.254   3.024   2.047 -0.3249  0.0598  0.1674
 3876SOL    HW123087   3.286   3.076   1.973 -0.2194 -0.1105  0.0945
 3876SOL    HW223088   3.319   2.954   2.043  0.7808  1.1173 -0.5536
 3877SOL     OW23089   3.595   4.631  11.420 -0.0142  0.2005  0.4449
 3877SOL    HW123090   3.676   4.636  11.370 -0.4493 -1.1059 -0.4067
 3877SOL    HW223091   3.565   4.540  11.412  1.3242 -0.3079  1.3122
 3878SOL     OW23092   3.204   0.038  15.632 -0.1020  0.5926  0.0684
 3878SOL    HW123093   3.174   4.671  15.656 -0.2742  0.2535 -1.3623
 3878SOL    HW223094   3.249   0.013  15.551 -1.4160 -0.2147 -0.4147
 3879SOL     OW23095   3.535   2.344  10.143 -0.2129 -0.0946  0.2387
 3879SOL    HW123096   3.444   2.314  10.148  0.2223 -1.2043  1.3011
 3879SOL    HW223097   3.536   2.405  10.069  0.0346 -2.1181 -1.4129
 3880SOL     OW23098   1.014   3.121   9.241  0.1020  0.0037 -0.4946
 3880SOL    HW123099   0.929   3.076   9.240  1.3009 -2.2220  0.7524
 3880SOL    HW223100   1.038   3.128   9.148 -0.5843  0.0524 -0.6708
 3881SOL     OW23101   2.110   2.710  17.289  0.9532 -0.4161 -0.4020
 3881SOL    HW123102   2.182   2.658  17.253  0.0780 -0.7867 -1.6320
 3881SOL    HW223103   2.165   2.784  17.312 -0.2992  0.0730  0.9917
 3882SOL     OW23104   1.499   1.582   4.166 -0.1136  1.1314 -0.1209
 3882SOL    HW123105   1.438   1.655   4.162 -0.8027  0.4799 -1.3712
 3882SOL    HW223106   1.470   1.536   4.087  2.7379  0.8108 -0.9802
 3883SOL     OW23107   3.924   1.968   8.695 -0.3999  0.3228  0.1010
 3883SOL    HW123108   4.004   2.003   8.734 -1.0134 -0.2005  1.7955
 3883SOL    HW223109   3.964   1.912   8.629 -2.3588  0.0665 -0.8950
 3884SOL     OW23110   1.212   1.213   9.133 -0.0446  0.0055 -0.4396
 3884SOL    HW123111   1.267   1.202   9.056  0.7831 -0.7962  0.2733
 3884SOL    HW223112   1.269   1.180   9.203 -0.0626 -0.5561 -0.6916
 3885SOL     OW23113   0.949   3.449   8.289 -0.5809 -0.6655  0.0017
 3885SOL    HW123114   1.027   3.406   8.324 -1.1230 -2.4801 -1.0003
 3885SOL    HW223115   0.886   3.378   8.301 -0.8392 -0.2424  1.1177
 3886SOL     OW23116   0.007   0.927   3.477  0.1544  0.0460  0.4168
 3886SOL    HW123117   4.696   1.013   3.504  0.6628  0.3636  0.0014
 3886SOL    HW223118   4.674   0.883   3.543  0.0786 -0.0102  0.3177
 3887SOL     OW23119   1.841   1.973   2.212  0.3667 -0.0555 -0.5703
 3887SOL    HW123120   1.792   2.046   2.173  0.8856 -0.7895 -2.6061
 3887SOL    HW223121   1.811   1.901   2.157  0.7416 -0.2473 -0.5229
 3888SOL     OW23122   4.239   1.611   4.627  0.3139 -0.0112  0.5390
 3888SOL    HW123123   4.173   1.654   4.681 -1.9367  1.3471 -3.2686
 3888SOL    HW223124   4.226   1.517   4.643  2.7216 -0.3472  0.5997
 3889SOL     OW23125   3.178   1.338  16.495  0.0738  0.1709 -0.4530
 3889SOL    HW123126   3.144   1.255  16.463 -0.1828 -0.5557  1.6710
 3889SOL    HW223127   3.185   1.317  16.588  0.1404  0.1877 -0.4543
 3890SOL     OW23128   2.839   3.026   3.601 -0.2430  0.1948  0.7815
 3890SOL    HW123129   2.915   3.076   3.574  1.7409 -2.0431  2.1882
 3890SOL    HW223130   2.804   2.990   3.519  0.0642 -2.8119  1.9464
 3891SOL     OW23131   2.212   0.167  16.547 -0.0481 -0.8532  0.0568
 3891SOL    HW123132   2.190   0.233  16.481  1.3911  0.6846  1.1017
 3891SOL    HW223133   2.163   0.091  16.516 -2.0291  0.0622  0.9267
 3892SOL     OW23134   1.312   1.057  11.079  0.2633  0.0398 -0.3708
 3892SOL    HW123135   1.405   1.044  11.060  0.1275 -1.2334 -0.1678
 3892SOL    HW223136   1.291   0.966  11.098  0.0350 -0.2719 -2.0955
 3893SOL     OW23137   0.189   4.064   4.799  0.4851 -0.1337  0.0529
 3893SOL    HW123138   0.131   4.127   4.756  1.5083  0.4925 -0.4155
 3893SOL    HW223139   0.119   4.010   4.834  0.3838  0.3937  0.6509
 3894SOL     OW23140   3.867   1.346   7.706 -0.8457  0.5020 -0.0305
 3894SOL    HW123141   3.941   1.388   7.660  0.7238 -1.4736  0.7166
 3894SOL    HW223142   3.798   1.390   7.656  0.1078  0.1063 -1.6988
 3895SOL     OW23143   3.789   4.300   5.137  0.8260  0.2181 -0.5487
 3895SOL    HW123144   3.859   4.358   5.166  1.7716 -0.7759 -0.8702
 3895SOL    HW223145   3.816   4.275   5.048 -0.5580  2.6986 -1.6723
 3896SOL     OW23146   1.614   2.026   8.210  0.7197 -0.3954 -0.0692
 3896SOL    HW123147   1.693   2.013   8.264  0.5288  1.6142  0.6944
 3896SOL    HW223148   1.542   2.027   8.273  1.4034 -1.3640  0.7380
 3897SOL     OW23149   3.237   0.254   3.531 -0.4205 -0.2651  0.2205
 3897SOL    HW123150   3.295   0.254   3.607  2.0997 -1.4130 -1.7075
 3897SOL    HW223151   3.295   0.297   3.467  0.2646  0.1569  1.1302
 3898SOL     OW23152   3.314   0.580   7.096 -0.2294  0.2128  0.1843
 3898SOL    HW123153   3.245   0.548   7.038 -0.8345  1.0070  0.4763
 3898SOL    HW223154   3.276   0.551   7.179 -1.2158  1.0306  0.0134
 3899SOL     OW23155   4.652   1.569  10.125 -0.2413 -0.1674 -0.0814
 3899SOL    HW123156   4.635   1.636  10.191 -0.4654 -0.8096  0.5082
 3899SOL    HW223157   4.565   1.541  10.095 -0.1492 -0.4988 -0.0374
 3900SOL     OW23158   4.372   1.852  12.885 -0.0183  0.4346  0.1731
 3900SOL    HW123159   4.381   1.911  12.960 -3.2999  0.8238  0.2563
 3900SOL    HW223160   4.458   1.812  12.877 -0.9983 -1.5761 -0.3209
 3901SOL     OW23161   0.548   0.930   9.013  1.0206  0.4273 -0.1977
 3901SOL    HW123162   0.611   0.931   8.941  1.3438  3.5212  0.1271
 3901SOL    HW223163   0.545   0.838   9.039  0.9039  0.9540  1.6612
 3902SOL     OW23164   4.577   0.423   6.734  0.8768 -0.2434  0.0508
 3902SOL    HW123165   4.584   0.369   6.655  0.0119  0.6855 -0.6623
 3902SOL    HW223166   4.501   0.392   6.783  1.9495 -2.5411  0.2735
 3903SOL     OW23167   4.619   1.260  16.993  0.3375 -0.2147 -0.1471
 3903SOL    HW123168   4.584   1.277  17.081  0.7528 -1.0196  0.1783
 3903SOL    HW223169   4.632   1.352  16.971  3.0592 -0.6379 -0.2703
 3904SOL     OW23170   1.733   2.562  15.985 -0.5795 -0.6963 -0.2831
 3904SOL    HW123171   1.669   2.630  16.006 -0.5970 -0.6515 -0.4893
 3904SOL    HW223172   1.755   2.593  15.897 -2.2267  1.9697  0.2566
 3905SOL     OW23173   4.291   0.081  13.774 -0.2987  0.1088  0.4738
 3905SOL    HW123174   4.234   0.139  13.825 -0.7388  1.7072 -1.8245
 3905SOL    HW223175   4.318   0.140  13.704 -0.3249 -0.2843  0.1338
 3906SOL     OW23176   1.871   0.096   9.931  0.1853 -0.5637  0.6434
 3906SOL    HW123177   1.801   0.075   9.992 -0.2332  1.4808  0.8425
 3906SOL    HW223178   1.941   0.085   9.995  1.7686  0.0315 -0.9907
 3907SOL     OW23179   1.728   2.534   3.376  0.1608 -0.5000  0.1206
 3907SOL    HW123180   1.822   2.532   3.356 -0.2267  0.3553 -1.8691
 3907SOL    HW223181   1.725   2.611   3.432  1.5904 -0.5247  0.2331
 3908SOL     OW23182   1.813   3.155   7.312  0.3279  0.0677 -0.0075
 3908SOL    HW123183   1.907   3.172   7.308  0.5378 -1.1135 -0.1187
 3908SOL    HW223184   1.812   3.063   7.338  2.4910  0.3149  0.9054
 3909SOL     OW23185   2.604   1.057   9.265  0.8353 -0.1892  0.5262
 3909SOL    HW123186   2.557   1.006   9.198 -0.4155 -0.0255  1.2830
 3909SOL    HW223187   2.637   0.989   9.323  0.3544 -1.0895 -0.2606
 3910SOL     OW23188   3.324   1.461   4.165  0.1930 -0.1636 -0.6027
 3910SOL    HW123189   3.379   1.397   4.212  2.0220  0.6700 -1.6174
 3910SOL    HW223190   3.388   1.521   4.126 -1.2423  1.0765 -1.0145
 3911SOL     OW23191   3.295   0.573   9.989  0.0469  0.2627 -0.1818
 3911SOL    HW123192   3.211   0.608  10.021  0.6706  0.8300  0.8389
 3911SOL    HW223193   3.317   0.639   9.923  1.1180  1.0949  1.0102
 3912SOL     OW23194   3.829   2.446   4.173  0.1700  0.2702  0.4863
 3912SOL    HW123195   3.780   2.455   4.255  2.2365 -0.1407  1.7551
 3912SOL    HW223196   3.770   2.417   4.103  0.6015 -0.7737  0.5567
 3913SOL     OW23197   2.095   1.978   5.947 -0.1403  0.0531 -0.1546
 3913SOL    HW123198   2.058   1.904   5.898 -1.3684  1.1551 -0.9032
 3913SOL    HW223199   2.040   1.985   6.025 -0.4884 -2.4877 -0.1660
 3914SOL     OW23200   3.489   1.061   7.237  0.2741  0.8269  0.0354
 3914SOL    HW123201   3.571   1.056   7.285  1.2534  0.7784 -1.6427
 3914SOL    HW223202   3.453   0.973   7.240  1.9988  0.1235  0.0854
 3915SOL     OW23203   3.647   1.046   8.772  0.2317  0.4028 -0.1352
 3915SOL    HW123204   3.556   1.015   8.778  0.7755 -1.1413  0.1565
 3915SOL    HW223205   3.638   1.072   8.680 -1.2557 -0.1768 -0.1576
 3916SOL     OW23206   4.333   3.443  13.435 -0.1880 -0.2719  0.2130
 3916SOL    HW123207   4.288   3.409  13.513  1.5781 -1.1275  0.8740
 3916SOL    HW223208   4.273   3.514  13.411  1.7598  0.5394 -2.2067
 3917SOL     OW23209   1.238   4.261  13.518 -0.5949  0.0277  0.3671
 3917SOL    HW123210   1.181   4.196  13.560 -0.4837  1.3774  2.5493
 3917SOL    HW223211   1.213   4.339  13.567  2.5434  0.4543  1.2575
 3918SOL     OW23212   2.213   0.465   8.863 -0.2439 -0.3676 -0.1758
 3918SOL    HW123213   2.146   0.499   8.803 -1.1265  0.6684  1.4055
 3918SOL    HW223214   2.154   0.402   8.903  0.8110 -1.2488 -0.0210
 3919SOL     OW23215   2.172   4.368  17.586  0.1939  1.1555 -0.2096
 3919SOL    HW123216   2.154   4.462  17.591 -2.0841  0.7965 -1.5485
 3919SOL    HW223217   2.238   4.360  17.655 -0.2706 -1.9725 -0.1533
 3920SOL     OW23218   0.548   3.923   2.260  0.2042 -0.2665 -0.1011
 3920SOL    HW123219   0.587   3.913   2.173 -0.5425  1.2060 -0.6094
 3920SOL    HW223220   0.564   3.832   2.285  2.2018  0.8345  2.7074
 3921SOL     OW23221   0.892   0.671  16.570 -0.0624  0.2694 -0.0225
 3921SOL    HW123222   0.827   0.635  16.631 -0.2825  0.2174 -0.2820
 3921SOL    HW223223   0.859   0.616  16.498 -0.7390  1.7651 -0.8577
 3922SOL     OW23224   4.275   1.018   1.014 -0.1010 -0.2539 -0.0110
 3922SOL    HW123225   4.223   1.084   1.060  1.3407 -1.6377  3.6640
 3922SOL    HW223226   4.297   1.074   0.940 -1.5359 -0.3588 -0.5240
 3923SOL     OW23227   2.721   0.862   4.458 -0.2057  0.3117  0.0800
 3923SOL    HW123228   2.781   0.876   4.384 -1.8194  1.7869 -0.9677
 3923SOL    HW223229   2.643   0.834   4.411  1.2356  0.1254 -2.2180
 3924SOL     OW23230   4.026   2.431   2.487  0.2387 -0.0023  0.6549
 3924SOL    HW123231   4.004   2.339   2.501 -0.0954 -0.0108  0.0794
 3924SOL    HW223232   4.083   2.426   2.409 -0.2789 -0.1674  0.2891
 3925SOL     OW23233   4.397   2.758  17.613 -0.3358 -0.2267 -0.1557
 3925SOL    HW123234   4.333   2.820  17.649 -0.4649 -0.8889  0.7634
 3925SOL    HW223235   4.368   2.751  17.522 -1.6259  0.1977  0.2173
 3926SOL     OW23236   1.415   4.305   7.190  0.6135 -0.0742 -0.0994
 3926SOL    HW123237   1.430   4.341   7.277 -0.7459 -1.0229  0.5406
 3926SOL    HW223238   1.468   4.227   7.203  0.0009 -0.3990  0.4923
 3927SOL     OW23239   3.334   4.698  11.467 -0.2778 -0.4778 -0.1702
 3927SOL    HW123240   3.368   0.060  11.502  2.8388 -2.0530  0.5837
 3927SOL    HW223241   3.411   4.670  11.416  0.2774  0.9733 -0.1391
 3928SOL     OW23242   4.220   3.393  14.861 -0.1168 -0.0801  1.2674
 3928SOL    HW123243   4.236   3.331  14.933 -0.8323 -2.5373 -0.6784
 3928SOL    HW223244   4.185   3.333  14.795  0.5660  0.0800  0.7605
 3929SOL     OW23245   1.076   0.668  17.238 -0.2045 -0.1359 -0.2743
 3929SOL    HW123246   1.044   0.725  17.308  1.2642  0.5108 -0.1401
 3929SOL    HW223247   1.113   0.742  17.191 -0.0972  0.0782  0.1523
 3930SOL     OW23248   0.845   3.822  15.523 -0.2426  0.4509 -0.2260
 3930SOL    HW123249   0.834   3.890  15.456  1.3006  0.7974 -0.1436
 3930SOL    HW223250   0.782   3.849  15.590 -2.4275 -1.8125 -1.3744
 3931SOL     OW23251   1.800   1.370   4.724 -0.0201  0.6038 -0.4804
 3931SOL    HW123252   1.732   1.304   4.711  0.1764 -0.1587  2.2953
 3931SOL    HW223253   1.878   1.318   4.743 -1.3744 -1.2721 -0.0550
 3932SOL     OW23254   3.503   3.685   4.149 -0.1343 -0.1665  0.2291
 3932SOL    HW123255   3.566   3.626   4.191  0.4780  2.4935  3.0643
 3932SOL    HW223256   3.444   3.688   4.224 -0.2220 -0.5921  0.1777
 3933SOL     OW23257   0.417   4.176   8.133 -0.2931 -0.0391  0.9129
 3933SOL    HW123258   0.355   4.159   8.204 -2.0795  2.9185  0.0646
 3933SOL    HW223259   0.446   4.088   8.112 -0.9550  0.0317 -0.2962
 3934SOL     OW23260   3.254   4.149   5.870 -0.4357 -0.6166 -0.1587
 3934SOL    HW123261   3.221   4.089   5.803 -0.7903  0.1764 -0.6845
 3934SOL    HW223262   3.191   4.220   5.876 -0.2360 -0.4680  0.1815
 3935SOL     OW23263   2.769   2.189   2.413 -0.2200 -0.3207  0.7631
 3935SOL    HW123264   2.781   2.094   2.417 -0.4643 -0.3384  1.1065
 3935SOL    HW223265   2.827   2.213   2.341 -1.9479  2.2079  0.2120
 3936SOL     OW23266   1.116   3.765   2.685 -0.1074 -0.3028 -0.0040
 3936SOL    HW123267   1.149   3.679   2.712  1.0842  0.1791  0.0423
 3936SOL    HW223268   1.024   3.746   2.706 -0.3944 -0.2342 -1.1847
 3937SOL     OW23269   4.617   1.232   6.395  0.1320 -0.2706 -0.0965
 3937SOL    HW123270   4.701   1.223   6.350  1.4944  2.4803  1.8496
 3937SOL    HW223271   4.580   1.144   6.389 -0.1011 -0.0994 -1.1404
 3938SOL     OW23272   0.254   2.342   2.858  0.3223 -0.1563  0.7460
 3938SOL    HW123273   0.208   2.406   2.804  0.2385 -0.7608  0.1094
 3938SOL    HW223274   0.312   2.406   2.901 -0.7871  2.3429 -1.4423
 3939SOL     OW23275   3.573   2.649   6.777  0.1570 -0.0737  0.0522
 3939SOL    HW123276   3.573   2.635   6.682 -1.1151 -0.7579  0.1511
 3939SOL    HW223277   3.667   2.644   6.791  0.6953  1.4435 -2.9229
 3940SOL     OW23278   0.990   3.081   7.398  0.0357 -0.0133  0.0758
 3940SOL    HW123279   0.989   2.988   7.374  0.3300  0.2671 -1.0230
 3940SOL    HW223280   1.043   3.073   7.477  1.9752 -1.6622 -1.3710
 3941SOL     OW23281   0.023   0.629  14.599  0.1047  0.1162 -0.2899
 3941SOL    HW123282   4.702   0.678  14.528  1.0686 -0.6600 -1.3878
 3941SOL    HW223283   0.041   0.546  14.554 -2.1485 -0.1902 -0.6103
 3942SOL     OW23284   2.154   0.012  12.389  0.5216  0.0490  0.4834
 3942SOL    HW123285   2.146   4.668  12.319  1.5324  1.5843 -1.0373
 3942SOL    HW223286   2.248   0.025  12.402  0.8434 -2.1827  0.5109
 3943SOL     OW23287   1.849   4.197  11.551 -0.2546 -0.2989 -0.3407
 3943SOL    HW123288   1.914   4.259  11.518 -1.0227  0.3391 -0.6507
 3943SOL    HW223289   1.770   4.224  11.505 -0.7206 -0.0497  0.6023
 3944SOL     OW23290   1.861   3.854   7.496  0.2416  0.1534 -0.3807
 3944SOL    HW123291   1.858   3.895   7.410 -1.2053 -1.8713 -1.3109
 3944SOL    HW223292   1.812   3.772   7.482  1.5826 -0.7747  0.3486
 3945SOL     OW23293   1.017   0.885  15.566  0.0727  0.3203 -0.8896
 3945SOL    HW123294   1.043   0.928  15.485  0.9161  0.7116 -0.4074
 3945SOL    HW223295   1.050   0.800  15.538  0.3235 -0.4518  1.7206
 3946SOL     OW23296   3.817   2.824  15.453 -0.1211  0.0675 -0.6155
 3946SOL    HW123297   3.867   2.904  15.468  0.5171 -0.3887 -0.3103
 3946SOL    HW223298   3.801   2.800  15.544  1.3053  1.1056 -0.0844
 3947SOL     OW23299   3.671   1.661   8.049  0.2925 -0.0638 -0.0325
 3947SOL    HW123300   3.702   1.743   8.087 -1.1980  0.7547 -0.6039
 3947SOL    HW223301   3.744   1.628   7.998  0.6325 -0.6560  0.8217
 3948SOL     OW23302   0.024   4.213   5.627  0.0019 -0.4094  0.2868
 3948SOL    HW123303   0.115   4.227   5.656 -0.4468  1.3329  0.8288
 3948SOL    HW223304   0.025   4.275   5.555 -1.0480  0.7145  1.2512
 3949SOL     OW23305   2.707   3.446   4.297 -0.0629 -0.0214  0.1670
 3949SOL    HW123306   2.717   3.539   4.281 -0.8553  0.2818  1.4783
 3949SOL    HW223307   2.754   3.444   4.381  0.6634 -0.5770 -0.2462
 3950SOL     OW23308   2.235   4.125   6.906  0.2202 -0.3301  0.4866
 3950SOL    HW123309   2.278   4.210   6.900 -3.7639  1.8246  2.6784
 3950SOL    HW223310   2.171   4.147   6.973 -1.2043  1.2042 -1.3894
 3951SOL     OW23311   1.872   0.517   9.401  0.3331  0.2180 -0.4149
 3951SOL    HW123312   1.952   0.532   9.452 -0.0556 -2.4505  0.9843
 3951SOL    HW223313   1.867   0.598   9.350 -1.2530  1.6947  2.1305
 3952SOL     OW23314   1.111   0.446  16.306 -0.4083  0.1283  0.4700
 3952SOL    HW123315   1.141   0.355  16.304  1.1236  0.6683 -1.0946
 3952SOL    HW223316   1.125   0.461  16.400 -1.1153 -0.1411  0.6195
 3953SOL     OW23317   2.660   4.489   9.097  0.2440  0.0611  0.3231
 3953SOL    HW123318   2.688   4.457   9.183 -0.1193 -2.4413 -0.5020
 3953SOL    HW223319   2.746   4.501   9.058  0.1133  0.7587  0.2567
 3954SOL     OW23320   4.225   2.998   1.694 -0.3644  0.0529  0.9353
 3954SOL    HW123321   4.214   2.957   1.608  2.5314  0.1485  0.5303
 3954SOL    HW223322   4.145   3.050   1.699  0.0428  0.6616  1.0403
 3955SOL     OW23323   4.470   3.524   0.584 -0.3043 -0.2943 -0.1786
 3955SOL    HW123324   4.502   3.483   0.503  0.2773 -0.6883  0.2534
 3955SOL    HW223325   4.385   3.556   0.556  0.0248  0.8036  0.0759
 3956SOL     OW23326   4.462   2.968   6.724  0.4686  0.2035  0.4383
 3956SOL    HW123327   4.506   3.042   6.682  2.9316 -2.3428 -1.3768
 3956SOL    HW223328   4.531   2.903   6.737  0.1457 -0.3939 -0.9097
 3957SOL     OW23329   4.608   2.111   7.464  1.0170 -0.6683  0.1191
 3957SOL    HW123330   4.676   2.050   7.437  0.2504 -0.6266 -1.8562
 3957SOL    HW223331   4.539   2.117   7.398 -0.8789 -1.1924  2.0183
 3958SOL     OW23332   2.950   0.005   3.253 -0.2226 -0.4739  0.4418
 3958SOL    HW123333   2.975   4.689   3.338  0.3119  0.0324  0.4969
 3958SOL    HW223334   3.019   0.067   3.230 -1.2777  0.3452 -0.5228
 3959SOL     OW23335   4.259   1.853   1.828 -0.0083 -0.4858  0.7020
 3959SOL    HW123336   4.243   1.947   1.816  2.1983 -0.3235 -1.0666
 3959SOL    HW223337   4.233   1.823   1.741 -0.4775 -0.8620  0.9764
 3960SOL     OW23338   1.395   0.807   9.423  0.7355 -0.4569 -0.3580
 3960SOL    HW123339   1.412   0.713   9.420 -1.6061 -0.9094  1.0354
 3960SOL    HW223340   1.327   0.805   9.490 -1.2392  0.1397 -2.3606
 3961SOL     OW23341   2.935   3.585  12.741 -0.2773  0.6189 -0.5042
 3961SOL    HW123342   2.914   3.670  12.781  0.8470  0.8191 -0.3249
 3961SOL    HW223343   2.921   3.603  12.648 -0.2030  1.2752 -0.3935
 3962SOL     OW23344   2.508   3.234   7.160 -0.2304 -0.0505  0.3240
 3962SOL    HW123345   2.450   3.237   7.236  0.2913  1.4874  0.6680
 3962SOL    HW223346   2.596   3.223   7.196 -0.1927 -1.4130 -0.1682
 3963SOL     OW23347   1.951   0.529  12.436  0.4979 -0.2903  0.4004
 3963SOL    HW123348   2.028   0.473  12.426 -1.1687 -2.2255 -1.4653
 3963SOL    HW223349   1.965   0.547  12.529  0.7614  2.9555 -0.2508
 3964SOL     OW23350   4.464   4.421   4.040 -0.3864  0.1901  0.6713
 3964SOL    HW123351   4.371   4.416   4.016 -0.3370 -0.2094  0.5623
 3964SOL    HW223352   4.492   4.471   3.963  0.1818 -2.4081 -0.7915
 3965SOL     OW23353   2.093   3.785   4.305 -0.0225 -0.3675  0.2009
 3965SOL    HW123354   2.158   3.833   4.253 -1.6826  1.2911 -0.3470
 3965SOL    HW223355   2.144   3.703   4.309 -2.8211 -2.0657  0.8434
 3966SOL     OW23356   2.428   0.330   8.726 -0.1695  0.4873 -0.0422
 3966SOL    HW123357   2.350   0.363   8.770  0.3497 -0.1458  1.3492
 3966SOL    HW223358   2.503   0.342   8.785 -0.6483  0.6063  0.5301
 3967SOL     OW23359   4.460   1.436   8.700  0.1718 -0.1982  0.1300
 3967SOL    HW123360   4.430   1.390   8.778  0.5269  0.4378  0.6396
 3967SOL    HW223361   4.555   1.424   8.703 -0.0084 -1.8198 -0.2768
 3968SOL     OW23362   1.033   1.988   5.320  0.0146  0.0687  0.3738
 3968SOL    HW123363   1.040   2.067   5.268  0.1109  0.5927  1.1903
 3968SOL    HW223364   0.942   1.977   5.348  0.2781  0.0337  1.1932
 3969SOL     OW23365   1.454   0.815   0.705 -0.7319 -0.0936 -0.0856
 3969SOL    HW123366   1.393   0.816   0.778 -2.9876  2.3719 -2.0232
 3969SOL    HW223367   1.434   0.725   0.678 -2.1175 -0.0300  0.7422
 3970SOL     OW23368   0.918   0.750   9.198 -0.3224  0.0582  0.3616
 3970SOL    HW123369   0.934   0.845   9.195  1.1956 -0.2394 -0.8431
 3970SOL    HW223370   0.976   0.714   9.265 -1.3605 -0.4415  0.9909
 3971SOL     OW23371   2.839   1.314  11.474 -0.5683 -0.5018  0.0463
 3971SOL    HW123372   2.934   1.311  11.488 -0.2397 -1.6431 -2.3960
 3971SOL    HW223373   2.808   1.376  11.540 -1.7146  0.8616 -1.7771
 3972SOL     OW23374   4.142   2.565   1.155  0.0153  0.0668 -0.2828
 3972SOL    HW123375   4.063   2.603   1.192  0.0912  0.3740 -0.4365
 3972SOL    HW223376   4.135   2.584   1.061 -1.5195 -2.1926 -0.6168
 3973SOL     OW23377   0.018   3.354  12.689  0.7207  0.1012  0.2615
 3973SOL    HW123378   0.081   3.381  12.756 -1.2240  1.2944  1.6010
 3973SOL    HW223379   4.666   3.413  12.705  1.2745  1.5976 -2.6695
 3974SOL     OW23380   0.018   4.371   5.401  0.6825 -0.2229 -0.0146
 3974SOL    HW123381   0.083   4.343   5.337  0.0268 -2.3180  0.2482
 3974SOL    HW223382   0.050   4.458   5.425  1.6205 -0.4478 -0.4654
 3975SOL     OW23383   0.429   3.743   9.401 -0.0858  0.0322  0.1337
 3975SOL    HW123384   0.485   3.668   9.419 -1.9683 -1.6717 -1.0451
 3975SOL    HW223385   0.353   3.695   9.367 -0.0855  0.4319 -0.4372
 3976SOL     OW23386   3.067   0.529  14.200 -0.4796  0.3506  0.3835
 3976SOL    HW123387   3.058   0.434  14.201 -0.4184  0.3401 -0.0430
 3976SOL    HW223388   3.106   0.537  14.287  0.1734 -0.4583  0.1660
 3977SOL     OW23389   1.543   0.322   6.916 -0.1801 -0.1824 -0.5068
 3977SOL    HW123390   1.502   0.349   6.998 -0.4587  0.1311 -0.7462
 3977SOL    HW223391   1.529   0.228   6.918  1.0117 -0.3924 -1.9448
 3978SOL     OW23392   2.464   0.434   0.309  0.6046  0.0766 -0.7775
 3978SOL    HW123393   2.498   0.344   0.311 -0.2705 -0.2469 -0.7864
 3978SOL    HW223394   2.375   0.418   0.341 -0.0397 -1.5668 -3.4281
 3979SOL     OW23395   4.222   0.970   4.878  0.0775 -0.1600 -0.3022
 3979SOL    HW123396   4.131   0.999   4.872  0.8626  2.0777 -1.2930
 3979SOL    HW223397   4.214   0.935   4.967 -1.4566  2.0375  0.4371
 3980SOL     OW23398   3.620   3.864  17.648 -0.1334 -0.3834 -0.2147
 3980SOL    HW123399   3.685   3.808  17.606 -1.1591 -0.4969 -1.6603
 3980SOL    HW223400   3.674   3.912   0.026 -0.4678  0.1994 -0.3694
 3981SOL     OW23401   2.054   1.616  15.478 -0.6121 -0.0099 -0.0004
 3981SOL    HW123402   2.097   1.624  15.563 -0.0481  1.1109 -0.3874
 3981SOL    HW223403   2.113   1.559  15.428 -0.9114  0.4187 -0.8502
 3982SOL     OW23404   0.556   2.136   5.410 -0.0034 -0.3058 -0.1179
 3982SOL    HW123405   0.588   2.055   5.370  0.8840 -0.7626  1.4977
 3982SOL    HW223406   0.641   2.178   5.425 -0.3986 -0.3317  2.2424
 3983SOL     OW23407   0.147   2.052  15.438  0.1582 -0.2944 -0.2347
 3983SOL    HW123408   0.234   2.012  15.429 -0.0133 -0.1612 -2.4122
 3983SOL    HW223409   0.090   1.977  15.422 -1.7498  0.8103  1.3688
 3984SOL     OW23410   0.933   1.985   8.005 -0.0982 -0.3004  0.5016
 3984SOL    HW123411   0.923   2.037   8.085  0.2132 -0.5839  0.7227
 3984SOL    HW223412   0.979   2.047   7.947 -1.2107 -1.1243 -1.2691
 3985SOL     OW23413   3.223   3.549  16.634 -0.2840  0.6830  0.5394
 3985SOL    HW123414   3.218   3.604  16.556 -0.3205 -1.4824 -0.9852
 3985SOL    HW223415   3.146   3.584  16.679  0.9062  0.7850  2.4854
 3986SOL     OW23416   3.803   3.141   7.633  0.2034 -0.0364 -0.2768
 3986SOL    HW123417   3.714   3.161   7.607 -0.6928 -1.3882  1.7691
 3986SOL    HW223418   3.796   3.178   7.720 -1.9812  0.7659 -0.7962
 3987SOL     OW23419   3.083   2.055   2.204  0.3261  0.3863  0.0010
 3987SOL    HW123420   3.153   2.116   2.226 -0.1832  0.2648  1.9836
 3987SOL    HW223421   3.053   2.020   2.288  1.5466 -3.7346 -1.2790
 3988SOL     OW23422   2.931   1.947  15.887  0.1530  0.9475 -0.2139
 3988SOL    HW123423   2.858   1.988  15.932 -0.6030  0.8545 -1.3324
 3988SOL    HW223424   2.888   1.864  15.866 -0.5924  1.4071 -0.5129
 3989SOL     OW23425   2.802   0.574   4.419 -0.0703  0.0164 -0.4349
 3989SOL    HW123426   2.810   0.610   4.507  2.3137  0.4893 -0.8474
 3989SOL    HW223427   2.751   0.636   4.368  1.3552 -0.1770 -2.1053
 3990SOL     OW23428   3.092   3.489   8.048  0.1048  0.3777 -0.3972
 3990SOL    HW123429   2.997   3.503   8.046  0.1997  1.2077  1.5849
 3990SOL    HW223430   3.118   3.581   8.050 -0.5388  0.4837  2.2581
 3991SOL     OW23431   3.709   1.289  15.794  0.0809  0.0041 -0.6955
 3991SOL    HW123432   3.758   1.257  15.718 -1.6609 -0.1649 -1.7360
 3991SOL    HW223433   3.686   1.207  15.836  0.4299  1.1460  1.7164
 3992SOL     OW23434   1.119   0.252   4.871 -0.2275 -0.3613  0.4182
 3992SOL    HW123435   1.066   0.331   4.874 -0.2450 -0.3589  0.0152
 3992SOL    HW223436   1.202   0.289   4.841 -0.7065 -1.1135 -1.8913
 3993SOL     OW23437   4.517   3.082   0.971 -0.0327 -0.5824 -0.3560
 3993SOL    HW123438   4.475   3.119   0.894  0.7327  0.0125 -0.4827
 3993SOL    HW223439   4.605   3.062   0.939 -0.3832 -0.6074 -1.2946
 3994SOL     OW23440   3.736   2.626   5.341 -0.0748  0.3235  0.5170
 3994SOL    HW123441   3.831   2.629   5.325 -0.3204 -0.7213 -1.0757
 3994SOL    HW223442   3.743   2.658   5.431 -1.5472  1.3309  0.2741
 3995SOL     OW23443   0.300   4.299   3.252 -0.1035 -0.4309 -0.2069
 3995SOL    HW123444   0.205   4.303   3.257  0.0529 -0.2682  3.0004
 3995SOL    HW223445   0.316   4.206   3.268 -0.4742 -0.1104  2.0079
 3996SOL     OW23446   1.199   2.730  16.829  0.1788  0.0945 -0.5096
 3996SOL    HW123447   1.292   2.709  16.830 -0.4232 -2.5918 -1.6686
 3996SOL    HW223448   1.188   2.734  16.924 -2.0071  1.3048 -0.8001
 3997SOL     OW23449   2.171   2.147   3.463 -0.0818  0.3286 -0.4342
 3997SOL    HW123450   2.098   2.209   3.455 -1.4954 -1.0998  1.5075
 3997SOL    HW223451   2.242   2.204   3.433 -0.7579  1.9933  1.1606
 3998SOL     OW23452   3.329   3.670   8.978 -0.3899  0.1736  0.3340
 3998SOL    HW123453   3.300   3.686   9.068 -0.5396  0.7354  0.1862
 3998SOL    HW223454   3.388   3.742   8.954  0.5265 -1.0804 -1.2122
 3999SOL     OW23455   2.218   0.554   6.496 -0.0837 -0.0357 -0.4647
 3999SOL    HW123456   2.134   0.548   6.451 -0.5356 -0.6630  0.4408
 3999SOL    HW223457   2.211   0.557   6.592 -0.7612 -0.2432 -0.5083
 4000SOL     OW23458   3.501   3.893   8.957  0.0277  0.4913 -0.3437
 4000SOL    HW123459   3.594   3.875   8.969 -0.7341 -2.4344  1.2126
 4000SOL    HW223460   3.504   3.989   8.962  0.1528  0.3665  1.7966
 4001SOL     OW23461   3.571   2.896   5.513 -0.0892 -0.0944  0.2198
 4001SOL    HW123462   3.594   2.813   5.553 -0.3707 -0.1926  0.1798
 4001SOL    HW223463   3.654   2.942   5.527  1.2359 -1.8481 -1.8005
 4002SOL     OW23464   4.111   1.029  15.707 -0.3907  0.5895  0.4246
 4002SOL    HW123465   4.114   0.938  15.739 -0.9370 -0.2889 -1.9941
 4002SOL    HW223466   4.198   1.052  15.739  0.8649  0.6131 -3.0380
 4003SOL     OW23467   4.079   2.737   0.911  0.3337  0.4055  0.0844
 4003SOL    HW123468   4.077   2.823   0.954  0.3482  0.0867  0.7243
 4003SOL    HW223469   3.994   2.739   0.868  0.1006  0.7671  0.5575
 4004SOL     OW23470   3.734   3.882   5.888 -0.0764 -0.2615  0.1364
 4004SOL    HW123471   3.728   3.974   5.863 -2.0275 -0.3689  0.2005
 4004SOL    HW223472   3.756   3.830   5.810  3.8154  1.5265  0.0658
 4005SOL     OW23473   2.422   2.090  14.474 -0.2364 -0.0608 -0.4135
 4005SOL    HW123474   2.411   2.027  14.404  0.6936 -0.1165 -0.5167
 4005SOL    HW223475   2.332   2.118  14.489 -0.4228 -0.0413 -1.5884
 4006SOL     OW23476   2.529   4.446   8.130 -0.0593 -0.1433 -0.1917
 4006SOL    HW123477   2.453   4.491   8.167  1.2755  0.8357  1.3587
 4006SOL    HW223478   2.500   4.439   8.039 -0.6308  0.9769 -0.0906
 4007SOL     OW23479   2.497   2.678  14.504 -0.1647  0.1987 -0.0121
 4007SOL    HW123480   2.498   2.699  14.410  0.9081 -1.7527 -0.4176
 4007SOL    HW223481   2.475   2.585  14.506  0.1241  0.1522  0.7383
 4008SOL     OW23482   3.622   4.181   6.449  0.1782 -1.1915 -0.0589
 4008SOL    HW123483   3.594   4.209   6.536 -2.7637 -1.2782 -0.9786
 4008SOL    HW223484   3.535   4.148   6.426  0.5551 -2.0284 -0.2918
 4009SOL     OW23485   3.510   2.869   2.069 -0.0607  0.3198 -0.0450
 4009SOL    HW123486   3.591   2.915   2.094 -0.4144  0.9866 -0.1111
 4009SOL    HW223487   3.523   2.848   1.977 -0.2620 -0.0256  0.0070
 4010SOL     OW23488   4.537   2.807   7.869 -0.4082  0.0880  0.0520
 4010SOL    HW123489   4.544   2.899   7.844  1.4655  0.2231  1.1372
 4010SOL    HW223490   4.599   2.762   7.812 -0.7210 -0.1498 -0.0995
 4011SOL     OW23491   1.761   1.827   9.002 -0.0001  0.0185  0.2516
 4011SOL    HW123492   1.671   1.811   8.974  0.3302 -2.6581  0.7454
 4011SOL    HW223493   1.738   1.839   9.094  0.7161  1.1210  0.2955
 4012SOL     OW23494   0.885   1.884  15.129  0.4217 -0.1489 -0.5718
 4012SOL    HW123495   0.929   1.953  15.078  1.8180 -0.9173 -0.4013
 4012SOL    HW223496   0.798   1.921  15.117 -0.0729 -1.4017 -0.7858
 4013SOL     OW23497   2.414   2.993   3.410 -0.4796  1.0135 -0.1941
 4013SOL    HW123498   2.427   3.028   3.498 -0.2157  2.0760 -0.6662
 4013SOL    HW223499   2.466   2.912   3.409  0.1776  1.4210  1.3835
 4014SOL     OW23500   4.231   1.488   0.803 -0.0996 -0.3220 -0.1671
 4014SOL    HW123501   4.236   1.467   0.710 -2.4163  1.2104 -0.6248
 4014SOL    HW223502   4.204   1.580   0.799  1.0249  0.0716  1.5760
 4015SOL     OW23503   1.691   0.229  14.333 -0.1385  0.1010 -0.5959
 4015SOL    HW123504   1.636   0.153  14.315 -2.1124  1.3112  0.2716
 4015SOL    HW223505   1.782   0.200  14.342  0.0988  1.0952  0.2157
 4016SOL     OW23506   2.729   0.986   7.025 -1.1499 -0.1093 -0.4067
 4016SOL    HW123507   2.710   1.035   6.944 -1.3643  1.5596  0.6505
 4016SOL    HW223508   2.664   0.915   7.023 -0.6019 -0.6676  1.9386
 4017SOL     OW23509   4.031   3.529  11.781 -0.0632 -0.1433  0.0958
 4017SOL    HW123510   4.065   3.559  11.865  1.3419 -0.9911 -0.1638
 4017SOL    HW223511   3.991   3.445  11.805  2.3201 -0.0993  4.2193
 4018SOL     OW23512   3.597   3.277   5.627  0.6460  0.2173  0.5762
 4018SOL    HW123513   3.578   3.261   5.719  0.5127  1.7366  0.8006
 4018SOL    HW223514   3.688   3.304   5.639  0.5402  1.7029 -1.9374
 4019SOL     OW23515   2.639   4.259   1.183 -0.6799  0.1838  0.9172
 4019SOL    HW123516   2.641   4.168   1.212  0.6667  0.6828  2.3831
 4019SOL    HW223517   2.547   4.285   1.191 -1.0619 -0.5264 -1.1026
 4020SOL     OW23518   2.302   4.622   6.015  0.3739  0.2747 -0.0850
 4020SOL    HW123519   2.352   4.690   5.970  2.6097  0.4891  2.7621
 4020SOL    HW223520   2.333   4.545   5.967 -0.9172  0.9312 -2.0088
 4021SOL     OW23521   1.409   3.093   4.986 -0.6066  0.2127  0.2155
 4021SOL    HW123522   1.330   3.129   4.947 -1.3046 -1.7111 -0.1668
 4021SOL    HW223523   1.410   3.003   4.953 -3.0892 -0.1980  1.2803
 4022SOL     OW23524   4.670   3.377  14.203 -0.0682  0.1618  0.0216
 4022SOL    HW123525   4.675   3.346  14.293 -0.6971  0.8838  0.3089
 4022SOL    HW223526   4.640   3.468  14.213  2.0259  0.8666  0.0076
 4023SOL     OW23527   2.558   0.413  17.312  0.0065 -0.3593 -0.1211
 4023SOL    HW123528   2.477   0.364  17.299  0.0813 -0.0956 -1.5375
 4023SOL    HW223529   2.542   0.456  17.396 -1.1042  1.0127 -1.0496
 4024SOL     OW23530   0.920   2.223   2.543 -0.3075  0.1734 -0.2968
 4024SOL    HW123531   0.898   2.253   2.454 -0.7321 -1.1947 -0.6418
 4024SOL    HW223532   0.973   2.145   2.527  0.5435  0.7733 -0.4304
 4025SOL     OW23533   3.075   0.031  15.314 -0.4174  0.1773 -0.0135
 4025SOL    HW123534   3.089   4.669  15.267  0.8960  0.4964 -0.1772
 4025SOL    HW223535   3.161   0.031  15.354 -0.7823  3.1050  0.8017
 4026SOL     OW23536   0.685   3.218  15.839  0.0922 -0.4996  0.0421
 4026SOL    HW123537   0.620   3.279  15.875 -0.0863 -0.6565 -0.0132
 4026SOL    HW223538   0.699   3.158  15.912  1.7208  1.0420  0.9728
 4027SOL     OW23539   0.038   2.682   8.506 -0.5297 -0.0335  0.6990
 4027SOL    HW123540   4.663   2.691   8.510 -0.7372 -1.5364 -0.6115
 4027SOL    HW223541   0.063   2.766   8.544  0.9053 -0.4418  0.6480
 4028SOL     OW23542   2.328   1.389   3.046 -0.2173 -0.4498  0.6474
 4028SOL    HW123543   2.252   1.350   3.004 -0.2397 -0.5804  0.8085
 4028SOL    HW223544   2.299   1.476   3.073 -0.5537 -0.6189  0.8325
 4029SOL     OW23545   3.812   2.275  10.401  0.1628 -0.6902 -0.6658
 4029SOL    HW123546   3.820   2.226  10.319 -0.1685  0.6272 -1.4870
 4029SOL    HW223547   3.726   2.243  10.426 -0.3125 -0.2176 -1.7102
 4030SOL     OW23548   2.308   0.301   9.451  0.2442 -0.1725  0.4008
 4030SOL    HW123549   2.324   0.226   9.393  2.0791  0.8496 -0.3996
 4030SOL    HW223550   2.347   0.277   9.534 -0.1552 -0.0033  0.6383
 4031SOL     OW23551   1.468   2.725   5.260  0.2032 -0.5493 -0.3896
 4031SOL    HW123552   1.561   2.716   5.281 -0.0942  0.2306  1.2936
 4031SOL    HW223553   1.466   2.730   5.165 -0.7416 -1.1535 -0.4023
 4032SOL     OW23554   4.077   4.660   5.835 -0.5458  0.1885  0.1567
 4032SOL    HW123555   4.137   4.616   5.895 -0.1551  0.1796 -0.2416
 4032SOL    HW223556   3.994   4.654   5.883 -0.1509  0.7041  0.8970
 4033SOL     OW23557   2.010   1.082  17.041  0.4567 -0.5267  0.1980
 4033SOL    HW123558   2.041   1.157  17.091 -0.5745 -1.3063  1.9822
 4033SOL    HW223559   2.064   1.081  16.961  1.4783  0.6411  0.8695
 4034SOL     OW23560   1.602   2.618   7.571  0.5429 -0.3248  0.3668
 4034SOL    HW123561   1.549   2.696   7.558  0.7258 -0.2337  0.1704
 4034SOL    HW223562   1.557   2.590   7.651 -0.5008  0.1352 -0.0543
 4035SOL     OW23563   2.694   4.357   7.127 -0.5626  0.2382  0.1240
 4035SOL    HW123564   2.736   4.357   7.041  0.0639  1.8520  0.4254
 4035SOL    HW223565   2.658   4.269   7.134 -0.7566  0.2472 -0.6953
 4036SOL     OW23566   0.964   2.764   3.203 -0.3675 -0.0272  0.2592
 4036SOL    HW123567   0.927   2.746   3.116 -1.4883 -1.0215  0.9471
 4036SOL    HW223568   0.967   2.679   3.246 -0.3031  0.1852  0.6733
 4037SOL     OW23569   1.004   1.786   6.690  0.3947 -0.4222  0.0898
 4037SOL    HW123570   0.951   1.731   6.631 -0.3376 -1.8722  2.1128
 4037SOL    HW223571   1.087   1.739   6.686  0.9218  0.5242 -0.0890
 4038SOL     OW23572   0.762   3.149   4.741 -0.4875 -0.2726 -0.3454
 4038SOL    HW123573   0.786   3.195   4.821 -2.7274 -1.0545  0.7743
 4038SOL    HW223574   0.688   3.203   4.715  1.4622  2.4011 -0.2788
 4039SOL     OW23575   0.440   1.121   3.453  0.1014  0.5434 -0.2480
 4039SOL    HW123576   0.377   1.184   3.488  0.6681  1.0582 -0.1473
 4039SOL    HW223577   0.375   1.051   3.446 -0.4587  0.8639  1.6535
 4040SOL     OW23578   3.646   0.866  13.851 -0.1340  0.0350  0.0797
 4040SOL    HW123579   3.648   0.807  13.926 -0.5444  1.6662  1.3703
 4040SOL    HW223580   3.566   0.914  13.874  0.2019  1.8964 -2.6025
 4041SOL     OW23581   1.313   3.509   2.292  0.2008 -0.3342 -0.6686
 4041SOL    HW123582   1.340   3.601   2.283  1.7877 -0.7710 -0.2758
 4041SOL    HW223583   1.272   3.501   2.206  0.6430  2.1108 -1.1163
 4042SOL     OW23584   3.653   2.875   2.375  0.3151  0.5116  0.2577
 4042SOL    HW123585   3.677   2.786   2.348 -1.6282  0.2961 -0.8036
 4042SOL    HW223586   3.712   2.930   2.324 -0.0905  0.9074  0.2154
 4043SOL     OW23587   2.419   0.308  12.428  0.4154  0.0621  0.1252
 4043SOL    HW123588   2.480   0.245  12.388  0.2760  0.4054 -0.6262
 4043SOL    HW223589   2.417   0.278  12.519  1.1428 -1.8382 -0.4848
 4044SOL     OW23590   2.653   0.007   7.237  0.1020  0.1615  0.1172
 4044SOL    HW123591   2.610   0.056   7.308  0.4493  0.3929  0.1691
 4044SOL    HW223592   2.645   0.067   7.162 -2.0627  1.9447  1.7877
 4045SOL     OW23593   3.700   4.428   4.318  0.4277 -0.0013 -0.6632
 4045SOL    HW123594   3.702   4.347   4.266  1.3466 -0.5183  0.1761
 4045SOL    HW223595   3.787   4.446   4.283  0.5547  0.5267 -0.0650
 4046SOL     OW23596   1.552   4.377   7.822  0.2910  0.2385  0.3047
 4046SOL    HW123597   1.467   4.341   7.797 -0.3927  0.4674  2.3304
 4046SOL    HW223598   1.545   4.469   7.797  2.3496 -0.0055 -1.2295
 4047SOL     OW23599   3.905   4.477   3.165 -0.2106  0.1348 -0.1007
 4047SOL    HW123600   3.924   4.527   3.085 -0.7126 -0.5248 -0.6290
 4047SOL    HW223601   3.891   4.393   3.122 -2.3529 -0.8904  2.5935
 4048SOL     OW23602   0.608   3.971  15.659  0.4716  0.0409 -0.3748
 4048SOL    HW123603   0.603   3.971  15.755  1.2854 -1.1256 -0.3276
 4048SOL    HW223604   0.643   4.059  15.643  1.2857 -0.2673 -0.3246
 4049SOL     OW23605   1.607   1.630   5.738 -0.2203  0.0249  0.3087
 4049SOL    HW123606   1.635   1.709   5.692 -1.4895 -0.3597 -1.1081
 4049SOL    HW223607   1.551   1.589   5.672 -0.0840 -0.5954  0.5747
 4050SOL     OW23608   0.096   0.043   1.580 -0.9404  0.3375  0.1369
 4050SOL    HW123609   0.149   0.095   1.519  2.5379 -1.3170  1.7378
 4050SOL    HW223610   0.072   4.689   1.525 -0.6431  0.1613  0.2452
 4051SOL     OW23611   1.340   1.995   9.608 -0.4203  0.2458  0.0443
 4051SOL    HW123612   1.359   2.058   9.677  1.3516 -2.1682  1.7956
 4051SOL    HW223613   1.324   2.056   9.537  0.6677 -1.2528 -1.4873
 4052SOL     OW23614   2.958   2.600   9.633  0.1196  0.1080 -0.3040
 4052SOL    HW123615   3.052   2.615   9.623  0.4286  0.3162  3.0152
 4052SOL    HW223616   2.930   2.581   9.543 -1.2469 -1.7422  0.5174
 4053SOL     OW23617   0.999   3.303   3.267 -0.2490 -0.2359  0.1577
 4053SOL    HW123618   0.965   3.389   3.245 -0.7147 -1.0761 -2.4172
 4053SOL    HW223619   0.928   3.243   3.242 -1.2537  0.3631  1.6089
 4054SOL     OW23620   0.616   4.370   7.584  0.3070 -0.0633  0.3544
 4054SOL    HW123621   0.615   4.463   7.605 -0.0458  0.4897 -2.1981
 4054SOL    HW223622   0.587   4.333   7.668 -0.3550  0.9262  0.5578
 4055SOL     OW23623   1.228   4.596   7.397 -0.3370  0.3353  0.1281
 4055SOL    HW123624   1.232   4.554   7.311 -2.1704 -2.7783  1.5386
 4055SOL    HW223625   1.137   4.620   7.415 -0.6542 -0.5602 -0.3050
 4056SOL     OW23626   1.077   4.336   3.740  0.0569 -0.0384  0.4186
 4056SOL    HW123627   1.072   4.412   3.798 -0.3668 -0.4889  0.9604
 4056SOL    HW223628   1.166   4.306   3.757  0.1622 -0.6045 -1.0744
 4057SOL     OW23629   1.959   4.112  13.251 -0.3015 -0.0441 -0.3976
 4057SOL    HW123630   2.046   4.083  13.225 -0.0900 -1.0897  1.4493
 4057SOL    HW223631   1.958   4.205  13.230  2.4599 -0.0007 -0.2522
 4058SOL     OW23632   3.625   0.099   6.283 -0.2775 -0.5021  0.6976
 4058SOL    HW123633   3.632   0.063   6.371 -2.5599  0.3543  1.2176
 4058SOL    HW223634   3.632   0.190   6.311  0.6840 -0.5143  0.5145
 4059SOL     OW23635   3.865   4.506   8.080 -0.1582 -0.4337  0.2226
 4059SOL    HW123636   3.917   4.451   8.021 -0.1282  0.0700 -0.2210
 4059SOL    HW223637   3.819   4.445   8.138  0.4512 -1.3236 -0.2167
 4060SOL     OW23638   4.267   2.359  14.100 -0.4922  1.0148 -0.1497
 4060SOL    HW123639   4.352   2.354  14.056  0.8124  2.8421  2.1243
 4060SOL    HW223640   4.283   2.331  14.190 -2.2457  2.8136  0.7345
 4061SOL     OW23641   3.496   0.619  15.253 -0.3350  0.4399 -0.2253
 4061SOL    HW123642   3.584   0.583  15.248  0.5300  2.4260  0.8281
 4061SOL    HW223643   3.482   0.626  15.348  0.1135 -2.2427  0.0305
 4062SOL     OW23644   1.647   2.645   5.549  0.6926  0.4339  0.3665
 4062SOL    HW123645   1.637   2.564   5.500  1.3822  0.6146 -0.0713
 4062SOL    HW223646   1.740   2.650   5.570  1.5916 -5.0075 -2.3392
 4063SOL     OW23647   2.807   3.126  16.196  0.1964  0.1807 -0.2837
 4063SOL    HW123648   2.721   3.088  16.210  1.5022 -1.7881  2.5242
 4063SOL    HW223649   2.821   3.114  16.102 -0.5213 -2.2891 -0.0631
 4064SOL     OW23650   3.281   2.900   7.638  0.3083  0.0403  0.1891
 4064SOL    HW123651   3.367   2.914   7.679  0.8963 -0.4139 -0.8913
 4064SOL    HW223652   3.240   2.985   7.653  0.3996  0.4348 -1.8751
 4065SOL     OW23653   0.972   0.901   0.184  0.0119  0.2767  0.4804
 4065SOL    HW123654   1.048   0.886   0.128 -1.1324  0.2949 -1.0576
 4065SOL    HW223655   1.017   0.921   0.266  0.5982  0.6082  0.0770
 4066SOL     OW23656   3.086   3.272   3.566 -0.5955  0.0786 -0.3037
 4066SOL    HW123657   3.152   3.297   3.501  0.8895 -0.9072  0.8217
 4066SOL    HW223658   3.133   3.302   3.644 -0.1110 -0.0137 -0.5615
 4067SOL     OW23659   0.191   2.052  14.289 -0.3364  0.2788 -0.0707
 4067SOL    HW123660   0.179   2.065  14.195 -0.2924 -0.5780 -0.1940
 4067SOL    HW223661   0.268   2.107  14.300 -0.1543 -0.2972  1.4934
 4068SOL     OW23662   3.228   1.444   9.344 -0.6579 -0.2011  0.3570
 4068SOL    HW123663   3.178   1.479   9.418 -0.0779  0.2862  0.5201
 4068SOL    HW223664   3.312   1.433   9.389 -0.2553 -1.8218 -0.8174
 4069SOL     OW23665   2.856   1.411   8.770 -0.6369 -0.3791 -0.1995
 4069SOL    HW123666   2.834   1.400   8.863  0.3870 -1.6827 -0.1249
 4069SOL    HW223667   2.771   1.408   8.726 -0.3136 -0.8199 -0.7967
 4070SOL     OW23668   2.988   0.058   4.052 -0.2143 -0.8741 -0.5239
 4070SOL    HW123669   2.968   0.007   4.130 -1.6452 -1.9530 -1.6117
 4070SOL    HW223670   3.055   0.118   4.087  0.1895 -1.2103 -0.7124
 4071SOL     OW23671   4.597   0.431  16.968  0.3111  0.3264 -0.7810
 4071SOL    HW123672   4.538   0.435  17.043  2.4808 -0.5183  0.9666
 4071SOL    HW223673   4.649   0.351  16.972  0.4216  0.4813  0.9697
 4072SOL     OW23674   2.534   4.005   9.404 -0.4011  0.4270 -0.0766
 4072SOL    HW123675   2.564   4.060   9.332 -1.5986  2.1587  0.7642
 4072SOL    HW223676   2.469   3.950   9.361 -1.1645 -0.5946  2.3862
 4073SOL     OW23677   1.822   0.739   5.865  0.0881  0.1361  0.3123
 4073SOL    HW123678   1.851   0.745   5.956  2.5434  0.9367 -0.5164
 4073SOL    HW223679   1.727   0.741   5.874 -0.0027  3.5329 -1.6007
 4074SOL     OW23680   3.516   2.462   9.071 -0.1454  0.3075  0.3787
 4074SOL    HW123681   3.466   2.518   9.131  1.5602  1.8513  0.3766
 4074SOL    HW223682   3.507   2.378   9.117  1.4631 -0.1256 -0.1002
 4075SOL     OW23683   4.664   3.304   7.258 -0.1118  0.0471  0.0444
 4075SOL    HW123684   4.645   3.357   7.336  0.7554 -0.5518  0.6713
 4075SOL    HW223685   4.641   3.217   7.292  1.1445  0.0802  1.0255
 4076SOL     OW23686   3.785   4.044   8.629  0.0444  0.1801 -0.6776
 4076SOL    HW123687   3.865   4.012   8.670  1.2692  2.7796 -1.0310
 4076SOL    HW223688   3.790   4.012   8.539  0.7812 -0.0154 -0.5592
 4077SOL     OW23689   4.176   3.901   8.046  0.1911 -0.4732  0.3011
 4077SOL    HW123690   4.152   3.907   7.953  1.3006 -0.9251 -0.0197
 4077SOL    HW223691   4.248   3.964   8.053 -0.3833  0.0315  1.5920
 4078SOL     OW23692   1.320   3.526   4.621  0.7681  0.0138  0.6241
 4078SOL    HW123693   1.362   3.507   4.705  2.0649  1.2221  0.2468
 4078SOL    HW223694   1.259   3.453   4.609 -0.8396  1.4891 -0.1607
 4079SOL     OW23695   3.967   1.159   0.167  0.3433 -0.4452 -0.5422
 4079SOL    HW123696   3.983   1.246   0.203 -0.8448  0.2901 -1.8223
 4079SOL    HW223697   3.984   1.113   0.250 -2.2026  1.0394  0.7899
 4080SOL     OW23698   0.326   3.000   4.902 -0.3486  0.3641  0.2275
 4080SOL    HW123699   0.241   3.029   4.871 -1.7187 -4.2123 -0.4074
 4080SOL    HW223700   0.351   3.076   4.953  2.6234 -0.1190 -0.4477
 4081SOL     OW23701   1.142   3.514   0.973 -0.2966  0.0349 -0.8244
 4081SOL    HW123702   1.180   3.575   0.909  1.8975  0.0361  0.4750
 4081SOL    HW223703   1.083   3.466   0.916  0.0041  2.1196 -2.8920
 4082SOL     OW23704   4.480   3.323  13.982 -0.0887  0.9528  0.4063
 4082SOL    HW123705   4.550   3.314  14.047 -0.4180  1.7039  0.8760
 4082SOL    HW223706   4.470   3.418  13.982 -0.6526  0.8929  0.7022
 4083SOL     OW23707   0.204   2.955   8.337  0.1641 -0.7361  0.4142
 4083SOL    HW123708   0.179   2.994   8.421  0.6198 -0.6966  0.5335
 4083SOL    HW223709   0.291   2.994   8.328 -0.4062 -0.2216 -2.9559
 4084SOL     OW23710   0.600   4.399   8.384 -0.1422  0.1721 -0.1272
 4084SOL    HW123711   0.677   4.410   8.440 -0.8435  1.8466  0.5055
 4084SOL    HW223712   0.564   4.487   8.377 -1.6464 -0.3569  1.0524
 4085SOL     OW23713   3.158   3.616   3.658 -0.1657  0.4363  0.1996
 4085SOL    HW123714   3.157   3.583   3.569  1.2666 -0.3912  0.4785
 4085SOL    HW223715   3.206   3.540   3.693  0.4304  1.0652  0.7775
 4086SOL     OW23716   2.430   0.832   4.999  0.1371  0.1225  0.0573
 4086SOL    HW123717   2.426   0.736   5.002  0.3057  0.0791 -1.0886
 4086SOL    HW223718   2.399   0.842   4.909  0.9694  0.4351 -0.1977
 4087SOL     OW23719   3.134   4.634   6.761  0.0240 -0.2824 -0.6315
 4087SOL    HW123720   3.110   0.003   6.783 -0.5765 -0.9408  1.3484
 4087SOL    HW223721   3.223   4.644   6.726  0.6457  0.3159  1.1483
 4088SOL     OW23722   0.221   1.255   4.136 -0.4456  0.2423 -0.3953
 4088SOL    HW123723   0.247   1.203   4.212 -1.0059  1.3019  0.5063
 4088SOL    HW223724   0.278   1.222   4.067  0.3949  0.1279  0.3560
 4089SOL     OW23725   0.051   4.170  16.361  0.4194 -0.1844 -0.1260
 4089SOL    HW123726   0.036   4.084  16.320 -0.1404 -0.2030  0.1122
 4089SOL    HW223727   0.019   4.223  16.288 -0.3251  1.9196  1.7486
 4090SOL     OW23728   3.306   0.986   9.161 -0.0302  0.5567  0.4206
 4090SOL    HW123729   3.211   0.995   9.151  0.4007  4.6423  0.1500
 4090SOL    HW223730   3.301   0.908   9.217  0.3974  0.3715  0.2003
 4091SOL     OW23731   1.674   0.149  15.770  0.3088  0.5800 -0.6740
 4091SOL    HW123732   1.642   0.236  15.746 -1.2897  0.0790 -0.3342
 4091SOL    HW223733   1.622   0.098  15.707 -1.3856  1.3250  0.1191
 4092SOL     OW23734   0.051   3.798   3.037  0.1014 -0.0135 -0.4320
 4092SOL    HW123735   0.062   3.724   3.097  0.8752  2.5747  2.6134
 4092SOL    HW223736   4.678   3.790   3.059  0.4198  2.2621  1.7511
 4093SOL     OW23737   2.794   2.265   6.419  0.8154  0.0318  1.3198
 4093SOL    HW123738   2.747   2.295   6.341  3.5518  0.7767 -0.0433
 4093SOL    HW223739   2.876   2.313   6.411  2.1715 -2.2677  1.5137
 4094SOL     OW23740   2.297   3.276  15.568  0.0019  0.4775  0.0491
 4094SOL    HW123741   2.294   3.189  15.529  0.8560  0.3997  0.1481
 4094SOL    HW223742   2.267   3.340  15.503  1.3739  0.1530 -0.9156
 4095SOL     OW23743   3.151   3.105   2.560  0.1267  0.2206 -0.2163
 4095SOL    HW123744   3.141   3.011   2.573 -2.5349  0.6439  0.7789
 4095SOL    HW223745   3.144   3.112   2.465  2.1144  2.8420 -0.1829
 4096SOL     OW23746   3.923   0.208   1.645 -0.2434  0.0275  0.1459
 4096SOL    HW123747   3.928   0.279   1.708 -0.4302  0.6055 -0.4928
 4096SOL    HW223748   3.874   0.144   1.697  0.4459  1.2392  2.2328
 4097SOL     OW23749   2.648   3.016   1.288  0.3156  0.2065 -0.7139
 4097SOL    HW123750   2.665   2.995   1.197 -2.2779 -1.2113 -0.8724
 4097SOL    HW223751   2.586   2.947   1.311 -1.2437  1.7339 -0.3660
 4098SOL     OW23752   3.403   1.956  15.117  0.3772  0.5179  0.1107
 4098SOL    HW123753   3.459   1.882  15.094  0.8059 -0.1742  3.4171
 4098SOL    HW223754   3.352   1.928  15.193  2.3693 -0.2058  1.1915
 4099SOL     OW23755   3.144   2.978   5.249 -0.5605 -0.2798 -0.0708
 4099SOL    HW123756   3.229   2.944   5.277 -0.3815  1.5491  1.6083
 4099SOL    HW223757   3.165   3.071   5.242 -1.1124 -0.0413  1.5171
 4100SOL     OW23758   1.596   4.190   9.164 -0.2039 -0.4500  0.3048
 4100SOL    HW123759   1.604   4.103   9.123 -0.6043  0.3421 -1.4454
 4100SOL    HW223760   1.650   4.172   9.241  1.1897  0.4720 -0.4558
 4101SOL     OW23761   3.698   3.449  17.086 -0.3251  0.0012  0.5694
 4101SOL    HW123762   3.619   3.495  17.113 -1.9075 -1.5872 -1.2965
 4101SOL    HW223763   3.730   3.511  17.020 -0.7717 -1.0141 -0.6004
 4102SOL     OW23764   4.682   1.896   9.078  0.1060  0.0885 -0.0132
 4102SOL    HW123765   4.674   1.850   9.162 -0.3488 -0.5672 -0.4251
 4102SOL    HW223766   0.025   1.839   9.035 -0.4241  0.0048 -0.6856
 4103SOL     OW23767   2.980   2.487   5.806 -0.5518  0.0482 -0.2215
 4103SOL    HW123768   3.027   2.425   5.861 -0.4580 -0.7504 -1.2129
 4103SOL    HW223769   3.052   2.497   5.744  0.5471 -0.7419  0.9396
 4104SOL     OW23770   0.351   3.445   2.116  0.8063  0.3904  0.0448
 4104SOL    HW123771   0.284   3.476   2.056  0.2863 -1.5031 -0.3750
 4104SOL    HW223772   0.398   3.387   2.055  0.4968  0.8115 -0.5932
 4105SOL     OW23773   2.082   1.602   7.601  0.3970 -0.1932 -0.2006
 4105SOL    HW123774   2.040   1.575   7.683  1.6153  2.5263  1.3118
 4105SOL    HW223775   2.125   1.679   7.638  0.9697 -0.4964 -0.2416
 4106SOL     OW23776   2.078   4.570  11.767 -0.0116  0.5079 -0.1559
 4106SOL    HW123777   2.125   4.637  11.817  0.9282 -1.4937  1.5955
 4106SOL    HW223778   2.039   4.515  11.833  2.2284  0.9135  1.5123
 4107SOL     OW23779   1.113   2.300   6.545  0.0060  0.8497 -0.4578
 4107SOL    HW123780   1.074   2.338   6.466 -1.4883  1.7800  0.7135
 4107SOL    HW223781   1.107   2.206   6.529 -0.7486  1.0040 -1.1261
 4108SOL     OW23782   3.980   1.363   8.062  0.5829  0.1976 -0.9679
 4108SOL    HW123783   4.014   1.373   7.973  1.7255 -2.9761 -0.9009
 4108SOL    HW223784   3.889   1.332   8.055  0.3566  0.3476  1.5512
 4109SOL     OW23785   4.460   0.020   4.289 -0.2402 -0.0556  0.6580
 4109SOL    HW123786   4.459   0.096   4.347 -2.2355 -0.4283  1.1298
 4109SOL    HW223787   4.515   4.681   4.341 -0.8773 -1.0757  0.1639
 4110SOL     OW23788   1.072   4.578  16.261 -0.1669  0.6388  0.3330
 4110SOL    HW123789   1.153   4.539  16.294 -0.0467  2.1195  1.8194
 4110SOL    HW223790   1.107   4.667  16.259 -0.0288  0.5814  0.1627
 4111SOL     OW23791   4.153   2.332   0.421  0.5610  0.3922 -0.1831
 4111SOL    HW123792   4.188   2.370   0.340  0.8498  0.5947  0.0386
 4111SOL    HW223793   4.193   2.245   0.411 -1.3658 -0.5656  0.3478
 4112SOL     OW23794   0.112   3.185   7.642 -0.1907  0.3874  0.1577
 4112SOL    HW123795   0.050   3.112   7.641  0.2951 -0.0693  2.0187
 4112SOL    HW223796   0.055   3.244   7.691 -0.5358  2.7120 -3.0854
 4113SOL     OW23797   3.269   4.405  12.231  0.3460 -0.0670 -0.6381
 4113SOL    HW123798   3.212   4.440  12.161  0.7186  1.8081  0.0097
 4113SOL    HW223799   3.289   4.485  12.280 -0.5403  0.8124 -1.6757
 4114SOL     OW23800   2.951   0.185   1.960 -0.0895  0.2367 -0.2985
 4114SOL    HW123801   2.864   0.163   1.926  0.4934 -0.2102 -1.5071
 4114SOL    HW223802   2.932   0.246   2.031 -3.1334 -1.1281  0.0657
 4115SOL     OW23803   4.205   2.844   1.452 -0.1664  0.6306  0.1028
 4115SOL    HW123804   4.253   2.762   1.462  0.2777  1.0899  1.7773
 4115SOL    HW223805   4.250   2.884   1.377 -0.0007  1.1889  0.4974
 4116SOL     OW23806   3.904   0.940   7.430 -0.3876  0.3801  0.0636
 4116SOL    HW123807   3.976   0.932   7.368 -0.7641  3.7538 -0.7926
 4116SOL    HW223808   3.892   0.848   7.456  0.3045  0.3142  0.1641
 4117SOL     OW23809   3.328   2.421   0.965 -0.0116  0.1585 -0.3063
 4117SOL    HW123810   3.301   2.505   1.002  0.3694 -0.8150  2.1937
 4117SOL    HW223811   3.399   2.439   0.903 -0.3323  0.1397 -0.6759
 4118SOL     OW23812   4.169   1.032   6.810 -0.6270 -0.2400  0.3825
 4118SOL    HW123813   4.228   1.037   6.885  0.2583 -0.9639 -0.2654
 4118SOL    HW223814   4.228   0.994   6.745  0.0424 -0.6208  1.2139
 4119SOL     OW23815   1.184   0.335   5.489  0.2158  0.2235  0.6409
 4119SOL    HW123816   1.264   0.384   5.472  0.3158 -0.0877  0.2220
 4119SOL    HW223817   1.133   0.393   5.433 -1.4914 -1.5364  0.3554
 4120SOL     OW23818   3.210   0.330   9.735  0.6726  0.0687 -0.3895
 4120SOL    HW123819   3.214   0.372   9.821 -1.2177 -3.1082  1.2112
 4120SOL    HW223820   3.121   0.340   9.701  1.1054 -2.0459 -2.1340
 4121SOL     OW23821   4.185   4.434   3.969 -0.3349  0.5109 -0.4858
 4121SOL    HW123822   4.191   4.504   3.904 -0.8876  0.0037 -1.0763
 4121SOL    HW223823   4.189   4.487   4.049  0.8636  0.9171 -0.8215
 4122SOL     OW23824   2.828   3.612   8.048 -0.4709  0.1919 -0.4969
 4122SOL    HW123825   2.771   3.636   8.121  0.4151 -0.6995  0.4898
 4122SOL    HW223826   2.895   3.680   8.057 -1.7383  1.0868  2.1277
 4123SOL     OW23827   1.403   0.787   4.198  0.3869  0.0619  0.5524
 4123SOL    HW123828   1.355   0.756   4.274 -0.1357  1.8427  0.9668
 4123SOL    HW223829   1.459   0.851   4.243 -1.9391  1.8512  0.8832
 4124SOL     OW23830   2.465   3.737   4.394 -0.0137  0.0015 -0.2816
 4124SOL    HW123831   2.480   3.732   4.489 -0.4970  3.7920 -0.0126
 4124SOL    HW223832   2.432   3.826   4.392 -0.3818 -0.1602 -1.5534
 4125SOL     OW23833   1.852   3.246   6.771  0.8258 -0.0990  0.1442
 4125SOL    HW123834   1.903   3.247   6.852  0.5508  1.7292  0.3002
 4125SOL    HW223835   1.767   3.279   6.800  0.2623 -1.3858 -0.0145
 4126SOL     OW23836   4.027   0.324   6.674 -0.3482 -0.1587 -0.3671
 4126SOL    HW123837   3.962   0.278   6.728 -0.2625 -2.6783 -2.3941
 4126SOL    HW223838   4.011   0.417   6.692 -1.6162  0.2363 -3.5342
 4127SOL     OW23839   2.979   4.444  11.601 -0.1364 -0.3211 -0.6805
 4127SOL    HW123840   3.073   4.445  11.583 -0.6079  1.2371 -3.1532
 4127SOL    HW223841   2.943   4.480  11.520 -0.8974  0.0804 -0.1720
 4128SOL     OW23842   1.909   2.026   5.537  0.2318  0.1244  0.2222
 4128SOL    HW123843   1.963   1.986   5.470  1.4613  1.3411  0.4796
 4128SOL    HW223844   1.977   2.081   5.576  2.6038 -1.4039 -1.7480
 4129SOL     OW23845   0.186   3.644  14.109  0.0428  0.3755  0.2051
 4129SOL    HW123846   0.198   3.657  14.015 -1.8127 -1.5032 -0.3000
 4129SOL    HW223847   0.259   3.693  14.148  0.0302  0.1145  0.5581
 4130SOL     OW23848   3.770   1.691   9.008 -0.0933 -0.0470 -0.1018
 4130SOL    HW123849   3.805   1.674   9.095 -0.3365 -1.1350 -0.2172
 4130SOL    HW223850   3.787   1.602   8.977 -1.3613 -0.1511 -0.4912
 4131SOL     OW23851   0.045   2.604   3.168  0.6975  0.2187 -0.0629
 4131SOL    HW123852   0.064   2.686   3.123 -0.4022 -0.3305 -1.5162
 4131SOL    HW223853   0.127   2.555   3.180  0.7620  0.1669 -0.7319
 4132SOL     OW23854   0.031   2.517   6.192  0.5127 -0.1591  0.4026
 4132SOL    HW123855   0.120   2.488   6.173  0.3451 -0.1133 -0.4756
 4132SOL    HW223856   4.701   2.485   6.116  0.8014  1.3085 -0.4019
 4133SOL     OW23857   0.132   4.700  15.796 -0.1503 -0.4210 -0.3100
 4133SOL    HW123858   0.082   0.048  15.752 -2.5585 -2.7372 -1.1410
 4133SOL    HW223859   0.065   4.670  15.857 -1.8153 -0.0274 -1.9571
 4134SOL     OW23860   2.480   0.876  11.022  0.1131  0.4701 -0.3082
 4134SOL    HW123861   2.546   0.807  11.030  0.1256  0.5099 -0.0534
 4134SOL    HW223862   2.414   0.856  11.089 -0.8240 -0.1483 -1.4292
 4135SOL     OW23863   2.165   0.934   2.099  0.1181  0.5473  0.0960
 4135SOL    HW123864   2.214   1.010   2.132  0.4413 -1.2164  3.6963
 4135SOL    HW223865   2.232   0.872   2.069 -0.0437 -0.9335  2.8211
 4136SOL     OW23866   1.238   1.347   7.084 -0.2980 -0.1157  0.2625
 4136SOL    HW123867   1.166   1.364   7.145 -1.3326 -2.1390 -0.3744
 4136SOL    HW223868   1.296   1.409   7.126  1.0274 -0.1258 -1.5887
 4137SOL     OW23869   0.948   1.259   5.755 -0.1177 -0.6021 -0.0668
 4137SOL    HW123870   0.912   1.332   5.804  3.2047  0.5887  0.6127
 4137SOL    HW223871   0.920   1.185   5.809  2.7511 -1.8848 -0.3309
 4138SOL     OW23872   1.607   4.308   0.976 -0.0957 -0.2686  1.0871
 4138SOL    HW123873   1.547   4.275   1.042 -1.3474 -0.7199 -0.2653
 4138SOL    HW223874   1.649   4.226   0.952 -3.7948 -1.9220  0.3529
 4139SOL     OW23875   0.173   1.972  14.880 -0.1706  0.2668  0.1059
 4139SOL    HW123876   0.097   2.024  14.853  1.2716  1.4562 -1.6819
 4139SOL    HW223877   0.191   1.997  14.970 -0.1275  3.3968 -0.7555
 4140SOL     OW23878   2.687   2.508   2.856 -0.6144 -0.0448 -0.6296
 4140SOL    HW123879   2.599   2.478   2.879 -1.2705  2.2078 -0.1301
 4140SOL    HW223880   2.694   2.473   2.767 -2.3108  0.6108 -1.0261
 4141SOL     OW23881   3.960   0.356   7.224 -0.1218  0.2517 -0.3317
 4141SOL    HW123882   3.879   0.347   7.173 -1.1569  0.1167  1.3480
 4141SOL    HW223883   4.010   0.400   7.155  0.5398  2.2893  1.4202
 4142SOL     OW23884   2.666   2.686   7.716  0.4770 -0.1759 -0.3943
 4142SOL    HW123885   2.633   2.610   7.765 -0.7900  0.3247 -0.4722
 4142SOL    HW223886   2.601   2.753   7.736 -0.2155 -1.0709  0.3825
 4143SOL     OW23887   2.596   3.535   0.633 -0.1179  0.1924  0.1354
 4143SOL    HW123888   2.645   3.558   0.712 -0.3269 -0.2997  0.4109
 4143SOL    HW223889   2.661   3.516   0.566  1.1601  1.7715  0.9316
 4144SOL     OW23890   1.111   1.256   5.190  0.0084  0.0953 -0.3052
 4144SOL    HW123891   1.130   1.187   5.127  0.8041  0.2847 -0.2749
 4144SOL    HW223892   1.015   1.253   5.194  0.0540 -0.8669  0.1001
 4145SOL     OW23893   3.533   4.448   3.101  0.2779  0.1047 -0.2678
 4145SOL    HW123894   3.556   4.533   3.137  2.5378 -1.7853  2.7914
 4145SOL    HW223895   3.600   4.431   3.035  0.9524  0.8539  0.2140
 4146SOL     OW23896   2.244   1.244   6.265 -0.2769  0.4112  0.2228
 4146SOL    HW123897   2.168   1.187   6.278 -1.4899  1.6935 -1.2275
 4146SOL    HW223898   2.214   1.318   6.212 -1.2976 -0.5673 -0.5921
 4147SOL     OW23899   3.074   4.045  13.044  0.1100 -1.0182  0.0200
 4147SOL    HW123900   3.162   4.017  13.071  0.2428 -0.3751  0.2635
 4147SOL    HW223901   3.033   3.963  13.018 -1.8905 -0.4886  1.5594
 4148SOL     OW23902   1.408   1.962   9.223  0.0061 -0.0680  0.2654
 4148SOL    HW123903   1.452   2.015   9.290 -1.1275  0.8525  0.2712
 4148SOL    HW223904   1.401   1.879   9.271  0.6287 -0.7331 -0.8036
 4149SOL     OW23905   2.303   0.271   4.509 -0.6026  0.3641 -0.2223
 4149SOL    HW123906   2.344   0.311   4.586 -1.2484 -0.6019  0.6207
 4149SOL    HW223907   2.235   0.334   4.484 -0.0012  1.4137  0.7861
 4150SOL     OW23908   1.690   3.074   8.394 -0.4011  0.1805 -0.4938
 4150SOL    HW123909   1.630   3.146   8.414 -0.4464  1.0736 -3.9614
 4150SOL    HW223910   1.643   2.992   8.410  0.9508 -0.6845 -1.0106
 4151SOL     OW23911   2.688   0.197  13.289  0.2347 -0.1673 -0.1530
 4151SOL    HW123912   2.604   0.210  13.245 -0.9199 -0.0765  2.0181
 4151SOL    HW223913   2.709   0.104  13.279  1.6282  0.3430 -1.9240
 4152SOL     OW23914   2.865   3.411   3.630  0.6535  0.0969  0.5770
 4152SOL    HW123915   2.942   3.357   3.616  1.2389  0.4551  2.4493
 4152SOL    HW223916   2.813   3.369   3.562  2.1720  1.0974 -1.1991
 4153SOL     OW23917   1.868   0.586  15.038 -0.4733 -0.3082 -0.1569
 4153SOL    HW123918   1.801   0.604  14.971 -1.5742 -0.6223  0.8603
 4153SOL    HW223919   1.817   0.560  15.115  2.1767 -1.8600  1.0529
 4154SOL     OW23920   0.412   0.039  11.439 -0.0263 -0.5388  0.0913
 4154SOL    HW123921   0.476   0.018  11.371  0.3531  0.6267  0.0926
 4154SOL    HW223922   0.336   0.056  11.383 -0.3830 -1.0040  0.4365
 4155SOL     OW23923   4.436   3.059   1.878 -0.2329 -0.2433  0.3728
 4155SOL    HW123924   4.381   3.021   1.809 -1.5840  0.9261  0.8187
 4155SOL    HW223925   4.489   2.985   1.907  0.7805  1.5374  3.0909
 4156SOL     OW23926   3.829   2.068   1.460 -0.0320  0.0464 -0.0821
 4156SOL    HW123927   3.754   2.020   1.425  0.9480 -1.3508 -0.2705
 4156SOL    HW223928   3.872   2.098   1.380 -0.1524 -0.2532 -0.2560
 4157SOL     OW23929   2.396   0.255   2.814  0.0638  0.1231  0.3628
 4157SOL    HW123930   2.446   0.204   2.751  0.3271  0.8433 -0.0106
 4157SOL    HW223931   2.321   0.195   2.813 -0.5068  0.8706 -1.7610
 4158SOL     OW23932   1.712   4.567  14.297  0.2876  0.1126  0.7951
 4158SOL    HW123933   1.771   4.501  14.260  0.4923 -0.7087  2.5866
 4158SOL    HW223934   1.634   4.520  14.326 -0.5541  2.0281  1.6684
 4159SOL     OW23935   3.004   3.362   7.304  0.2961  0.7497 -0.0290
 4159SOL    HW123936   3.099   3.349   7.297  0.1528  0.1602 -0.9467
 4159SOL    HW223937   3.011   3.388   7.396 -1.2556  1.4480 -0.1126
 4160SOL     OW23938   0.117   2.327   2.145 -0.3697 -0.1848 -0.3949
 4160SOL    HW123939   0.203   2.362   2.123 -0.1262 -0.1581  0.6193
 4160SOL    HW223940   0.120   2.323   2.240 -1.8914  1.9804 -0.2377
 4161SOL     OW23941   1.505   2.862   5.621 -0.3027  0.1713 -0.0697
 4161SOL    HW123942   1.563   2.787   5.612 -0.6146 -0.5210  3.7719
 4161SOL    HW223943   1.551   2.922   5.562 -1.1006 -0.0280 -0.8861
 4162SOL     OW23944   2.718   3.559  14.796  0.4979  0.2416  0.6538
 4162SOL    HW123945   2.809   3.556  14.823  0.2242 -0.3019  1.5030
 4162SOL    HW223946   2.729   3.561  14.701 -1.9094 -1.7989  0.3269
 4163SOL     OW23947   2.911   2.587   7.639 -0.4214 -0.0150 -0.4423
 4163SOL    HW123948   2.821   2.599   7.668 -0.7572  0.5404 -1.7232
 4163SOL    HW223949   2.947   2.671   7.666  0.8567 -0.6640 -0.1307
 4164SOL     OW23950   1.303   2.397   4.935 -0.3445 -0.3270  0.3596
 4164SOL    HW123951   1.394   2.370   4.947  0.8453  3.0548 -1.1374
 4164SOL    HW223952   1.306   2.482   4.891 -1.8576  0.0824  1.0644
 4165SOL     OW23953   1.196   1.170  16.421 -0.4706  0.1314  0.4845
 4165SOL    HW123954   1.280   1.127  16.410  0.5618  1.5978  2.6173
 4165SOL    HW223955   1.147   1.092  16.447 -1.6780  0.9089  0.5869
 4166SOL     OW23956   3.450   2.870   9.181 -0.1194 -0.1653 -0.8726
 4166SOL    HW123957   3.412   2.890   9.095 -0.9743  1.7447 -0.0548
 4166SOL    HW223958   3.428   2.777   9.187 -2.2598  0.4625  1.0759
 4167SOL     OW23959   4.236   4.546   0.191  0.1334 -0.0580  0.5669
 4167SOL    HW123960   4.145   4.551   0.220  0.4197  0.0121  1.4665
 4167SOL    HW223961   4.270   4.464   0.226 -2.0611 -2.6629 -3.3598
 4168SOL     OW23962   4.519   3.499  11.700 -0.2783 -0.2492 -0.5178
 4168SOL    HW123963   4.484   3.465  11.618 -0.9874 -0.9681  0.0815
 4168SOL    HW223964   4.613   3.490  11.685 -0.0800  3.4864 -1.5574
 4169SOL     OW23965   3.071   2.010  12.518  0.8032  0.0811 -0.0391
 4169SOL    HW123966   3.056   2.056  12.435  1.6936 -0.7843 -0.6720
 4169SOL    HW223967   3.131   2.067  12.565  1.6250 -0.6909 -0.1420
 4170SOL     OW23968   1.449   2.410  17.609 -0.4556  0.3458 -0.5106
 4170SOL    HW123969   1.408   2.333  17.649 -1.0432  0.8289 -0.1776
 4170SOL    HW223970   1.486   2.441   0.007  2.0698 -1.3464 -1.0123
 4171SOL     OW23971   0.311   0.975   7.456 -0.3897 -0.0016  0.4689
 4171SOL    HW123972   0.279   0.912   7.521 -1.5027  1.0175  0.8907
 4171SOL    HW223973   0.237   1.035   7.457 -0.7613 -0.4215 -1.3430
 4172SOL     OW23974   3.331   2.004   5.736  0.6763 -0.2280 -0.2401
 4172SOL    HW123975   3.399   2.070   5.728  1.9634 -1.4404  0.5760
 4172SOL    HW223976   3.254   2.047   5.771  1.1343  0.6118 -0.2668
 4173SOL     OW23977   4.148   3.888   3.685 -0.0156  0.7133 -0.2838
 4173SOL    HW123978   4.086   3.936   3.741 -0.2397 -0.2371  0.2722
 4173SOL    HW223979   4.086   3.862   3.617 -1.3161 -0.9793  1.5694
 4174SOL     OW23980   1.487   1.496  15.795 -0.0432  0.3517 -0.0644
 4174SOL    HW123981   1.394   1.499  15.772 -0.5122 -0.8049  1.6805
 4174SOL    HW223982   1.514   1.586  15.776  1.3769  0.1534  1.0252
 4175SOL     OW23983   1.924   0.929   7.901 -0.2165  0.5553  0.0601
 4175SOL    HW123984   1.911   0.943   7.807  1.9398 -2.4633 -0.6663
 4175SOL    HW223985   1.844   0.965   7.940 -0.0364  2.6606 -1.5210
 4176SOL     OW23986   0.625   1.406   8.779 -0.2126  0.1380  0.0392
 4176SOL    HW123987   0.537   1.442   8.764 -0.4162 -0.2895  0.2041
 4176SOL    HW223988   0.616   1.383   8.871 -0.1206  3.7297  0.9329
 4177SOL     OW23989   2.472   4.707  12.145 -0.2151 -0.9252  0.2618
 4177SOL    HW123990   2.490   0.080  12.135  1.1610 -1.2368 -0.2414
 4177SOL    HW223991   2.514   4.667  12.069  1.2432 -1.4095  1.3135
 4178SOL     OW23992   4.437   1.963  10.734 -0.7623 -0.0005  0.3341
 4178SOL    HW123993   4.518   1.999  10.699 -0.2620 -0.1141  1.3591
 4178SOL    HW223994   4.413   2.027  10.802 -1.2286  0.3235 -0.1366
 4179SOL     OW23995   3.978   3.874   4.059  0.4011 -0.2116  0.0218
 4179SOL    HW123996   3.954   3.965   4.072 -1.0746 -0.9856  2.7059
 4179SOL    HW223997   3.916   3.848   3.991  0.2452  1.9342 -0.6517
 4180SOL     OW23998   1.577   0.299  10.090  0.4821  0.1491  0.2575
 4180SOL    HW123999   1.563   0.213  10.129 -1.5012  0.1444 -0.4497
 4180SOL    HW224000   1.593   0.282   9.997  1.9434  1.3267  0.2823
 4181SOL     OW24001   0.898   1.225   7.674 -0.6543  0.1536 -0.2423
 4181SOL    HW124002   0.975   1.281   7.670  0.7039 -1.6594  0.2021
 4181SOL    HW224003   0.917   1.171   7.751 -0.7404 -3.2331 -2.5624
 4182SOL     OW24004   2.707   1.184   7.224  0.4161  0.2211 -0.1418
 4182SOL    HW124005   2.699   1.106   7.169  0.7585 -1.3505  2.0159
 4182SOL    HW224006   2.797   1.173   7.254 -0.2187 -1.4752  1.1907
 4183SOL     OW24007   4.428   1.209   5.466 -0.0714 -0.7515  1.1512
 4183SOL    HW124008   4.460   1.149   5.534  0.6893 -0.5783  0.9550
 4183SOL    HW224009   4.495   1.197   5.398 -1.0541 -0.0104  0.0529
 4184SOL     OW24010   1.602   4.275  11.440  0.1279  0.4185  0.8190
 4184SOL    HW124011   1.536   4.290  11.373  2.3031  1.1941 -1.1578
 4184SOL    HW224012   1.614   4.365  11.469  0.2990  0.4280  0.7193
 4185SOL     OW24013   2.642   1.773   0.399  0.3021 -0.0762  0.1133
 4185SOL    HW124014   2.694   1.841   0.356 -0.9042  0.2976 -0.7603
 4185SOL    HW224015   2.612   1.825   0.474  0.8510  0.7390 -0.2283
 4186SOL     OW24016   2.884   4.703   7.433  0.0581  0.1433 -0.1382
 4186SOL    HW124017   2.866   0.053   7.371  2.8643  1.3198  0.3527
 4186SOL    HW224018   2.937   0.035   7.494  0.8543  1.3807 -1.8948
 4187SOL     OW24019   0.713   3.198   6.764  0.1809 -0.0932 -0.1204
 4187SOL    HW124020   0.785   3.147   6.800 -0.9947 -1.8823 -0.2953
 4187SOL    HW224021   0.651   3.125   6.761 -1.9416  1.6361  1.5161
 4188SOL     OW24022   3.399   2.618   8.123 -0.0838 -0.2877  0.8710
 4188SOL    HW124023   3.314   2.628   8.167  0.1027  0.9383  0.9508
 4188SOL    HW224024   3.363   2.618   8.035  0.5443  0.4903  0.6123
 4189SOL     OW24025   0.936   1.492  13.090  0.0380  0.7829  0.2106
 4189SOL    HW124026   0.928   1.552  13.165 -2.4914  1.2720 -0.4587
 4189SOL    HW224027   0.993   1.541  13.031 -1.0118  0.8746 -0.7124
 4190SOL     OW24028   0.737   3.041   6.174  0.5260  0.4152 -0.1187
 4190SOL    HW124029   0.686   2.964   6.200  0.0418  0.6872 -0.2584
 4190SOL    HW224030   0.747   3.081   6.260  1.4525  1.4610 -0.7155
 4191SOL     OW24031   0.422   1.395   4.392 -0.0373  0.1134 -0.0081
 4191SOL    HW124032   0.380   1.480   4.378 -0.0083  0.2380  0.6774
 4191SOL    HW224033   0.514   1.421   4.388  0.3448 -1.6202 -2.4990
 4192SOL     OW24034   2.202   2.971   2.667  0.1818 -0.0678 -0.0076
 4192SOL    HW124035   2.277   2.941   2.616 -0.6449 -3.1059  0.5296
 4192SOL    HW224036   2.158   3.030   2.605 -1.4851 -1.2545  0.0259
 4193SOL     OW24037   4.094   2.215   8.741  0.7154 -0.0543  0.1425
 4193SOL    HW124038   4.112   2.302   8.778  3.2788 -0.2852 -0.5399
 4193SOL    HW224039   4.034   2.242   8.671 -1.1332  1.1700  2.2104
 4194SOL     OW24040   4.457   2.561   4.203 -0.4100  0.0322  0.2862
 4194SOL    HW124041   4.459   2.622   4.277  1.6462  1.9016 -1.3237
 4194SOL    HW224042   4.433   2.490   4.263 -0.0567  0.8507  1.3963
 4195SOL     OW24043   1.570   1.035   4.888  0.3601 -0.1724 -0.0261
 4195SOL    HW124044   1.632   1.023   4.816 -0.8096 -0.6795 -0.9364
 4195SOL    HW224045   1.528   1.120   4.873  2.7722  1.3424  1.7873
 4196SOL     OW24046   3.389   0.615   5.831 -0.1855  0.3903  0.2733
 4196SOL    HW124047   3.476   0.630   5.868  0.1192  0.9054 -0.6524
 4196SOL    HW224048   3.381   0.521   5.848 -0.1031  0.2869 -0.2447
 4197SOL     OW24049   0.624   1.914   0.793 -0.0513  0.1348  0.5064
 4197SOL    HW124050   0.608   1.905   0.887  0.4098 -0.9876  0.4818
 4197SOL    HW224051   0.549   1.862   0.768 -0.0483  0.7676 -0.7948
 4198SOL     OW24052   3.346   2.716   2.574  0.0278  0.1333  0.0908
 4198SOL    HW124053   3.362   2.740   2.483  1.2541 -1.1094 -0.0258
 4198SOL    HW224054   3.427   2.673   2.602  0.8804  1.9938  0.4833
 4199SOL     OW24055   1.038   3.418   2.366 -0.4873  0.4308 -0.9545
 4199SOL    HW124056   1.124   3.443   2.332  1.1825 -0.3195  2.6917
 4199SOL    HW224057   0.972   3.470   2.321  0.9831  2.9430 -0.2129
 4200SOL     OW24058   1.637   3.717   4.682  0.1769  0.1685 -0.1224
 4200SOL    HW124059   1.659   3.674   4.765  0.8066  3.5085  1.4240
 4200SOL    HW224060   1.580   3.790   4.705  0.4800  0.9248 -1.8012
 4201SOL     OW24061   2.199   3.028   5.549 -0.0988  0.4154 -0.0782
 4201SOL    HW124062   2.294   3.033   5.547  0.1132 -2.7742  1.5214
 4201SOL    HW224063   2.170   3.117   5.570 -0.6750 -0.1584  1.5835
 4202SOL     OW24064   4.405   2.091  13.681  0.2045 -0.1043 -0.1686
 4202SOL    HW124065   4.499   2.088  13.661  0.0758  1.0102 -0.9424
 4202SOL    HW224066   4.374   2.112  13.592 -0.6251  3.7447  1.0432
 4203SOL     OW24067   3.094   0.126  15.854 -0.2983 -0.0185 -0.1686
 4203SOL    HW124068   3.133   0.102  15.770  2.3436 -1.3276  1.4279
 4203SOL    HW224069   3.157   0.095  15.919 -0.6380  1.8257  1.0209
 4204SOL     OW24070   1.743   0.074   2.855  0.5762  0.2008  0.1968
 4204SOL    HW124071   1.647   0.072   2.851  0.6167  0.8959 -0.9795
 4204SOL    HW224072   1.763   4.702   2.840 -1.7476 -0.4920  1.3976
 4205SOL     OW24073   0.145   3.104  11.675 -0.2312  0.2024  0.1621
 4205SOL    HW124074   0.094   3.117  11.595 -0.3991 -2.5050 -0.1545
 4205SOL    HW224075   0.141   3.009  11.676  1.6241  0.1357  2.0188
 4206SOL     OW24076   3.159   0.525   6.453  0.0127 -0.3367  0.2411
 4206SOL    HW124077   3.127   0.446   6.411  1.3858 -0.0544 -1.3412
 4206SOL    HW224078   3.079   0.578   6.450 -0.0862 -0.5243 -0.2746
 4207SOL     OW24079   1.399   3.847   0.695 -0.0056 -0.0715  0.8282
 4207SOL    HW124080   1.469   3.805   0.746  0.7476 -0.2692 -0.3629
 4207SOL    HW224081   1.434   3.936   0.688 -0.4117 -0.1088 -1.7264
 4208SOL     OW24082   4.536   4.431   6.695  0.5663 -0.1107 -0.0783
 4208SOL    HW124083   4.472   4.361   6.685  1.6260 -1.3233  1.5185
 4208SOL    HW224084   4.600   4.404   6.629  0.6135 -2.0552  0.7660
 4209SOL     OW24085   0.699   4.486   4.781  0.1716 -0.2830 -0.3352
 4209SOL    HW124086   0.621   4.440   4.752  1.6421 -2.1411 -1.3614
 4209SOL    HW224087   0.765   4.419   4.760  0.5960 -0.0641  0.2825
 4210SOL     OW24088   0.533   2.971  12.034  0.2211  0.3509 -0.2460
 4210SOL    HW124089   0.626   2.954  12.017  0.1799  1.5364 -1.7386
 4210SOL    HW224090   0.533   2.959  12.129 -1.5737  0.9253 -0.1846
 4211SOL     OW24091   1.782   2.403   6.826 -0.6775  0.2326 -0.7075
 4211SOL    HW124092   1.737   2.371   6.905  1.3206 -0.5488  0.1257
 4211SOL    HW224093   1.726   2.385   6.751 -1.4629  1.7400 -0.4868
 4212SOL     OW24094   0.650   1.368   7.653 -0.3694 -0.4704  0.5800
 4212SOL    HW124095   0.712   1.303   7.687  1.1842  0.4163 -0.6008
 4212SOL    HW224096   0.701   1.448   7.643 -1.9272  0.2169 -1.8753
 4213SOL     OW24097   2.985   2.368   3.639  0.5077 -0.1620 -0.0199
 4213SOL    HW124098   3.079   2.382   3.631  0.3758 -0.6562 -2.5028
 4213SOL    HW224099   2.983   2.327   3.726  0.3653  1.7395  0.8835
 4214SOL     OW24100   3.491   1.156   6.964  0.3694  0.1171 -0.4993
 4214SOL    HW124101   3.505   1.105   7.045 -3.4818  0.8936  0.6274
 4214SOL    HW224102   3.514   1.244   6.995 -1.0120  0.4582 -0.4503
 4215SOL     OW24103   2.886   2.626   5.144 -0.5199 -0.4101 -0.4711
 4215SOL    HW124104   2.916   2.554   5.198 -2.3940 -0.2977  0.7247
 4215SOL    HW224105   2.823   2.584   5.085 -2.3454  3.4882 -1.3546
 4216SOL     OW24106   1.104   2.305   0.372  0.0527 -0.3537 -0.2314
 4216SOL    HW124107   1.151   2.311   0.455  0.6376 -3.5760 -0.3410
 4216SOL    HW224108   1.144   2.372   0.315 -2.3974  0.6490 -0.7847
 4217SOL     OW24109   4.694   3.070  12.685  0.2148 -0.5566  0.4054
 4217SOL    HW124110   4.711   3.158  12.719 -0.0378 -0.6898  0.8712
 4217SOL    HW224111   0.051   3.028  12.722 -0.4288 -4.4451 -2.5646
 4218SOL     OW24112   0.442   2.340   3.744  0.5086 -0.0756 -0.2626
 4218SOL    HW124113   0.351   2.345   3.714 -0.1647 -2.4694  1.3322
 4218SOL    HW224114   0.478   2.419   3.705  2.1689 -0.6729  0.0612
 4219SOL     OW24115   0.829   4.342   7.908  0.1302  0.2171  0.1036
 4219SOL    HW124116   0.828   4.264   7.854  0.1647  0.1067  0.2628
 4219SOL    HW224117   0.885   4.308   7.978 -1.6817  0.3572  1.6123
 4220SOL     OW24118   4.152   1.282   2.704 -0.0505  0.5292  0.0076
 4220SOL    HW124119   4.088   1.290   2.633 -0.0191  0.9288  0.0225
 4220SOL    HW224120   4.130   1.363   2.751  0.0707  0.4885  0.1329
 4221SOL     OW24121   3.490   2.569   7.616 -0.2434  0.6630 -0.5121
 4221SOL    HW124122   3.498   2.603   7.527  0.3563  1.4685 -0.1545
 4221SOL    HW224123   3.581   2.541   7.629  0.1905  2.2153 -0.2031
 4222SOL     OW24124   0.850   3.379   1.000  0.1698  0.1049  0.2314
 4222SOL    HW124125   0.842   3.283   0.997 -1.7108  0.3124 -1.5932
 4222SOL    HW224126   0.900   3.393   0.919 -0.9323  1.2823 -0.2392
 4223SOL     OW24127   2.277   1.005   9.075 -0.8614 -0.8788  0.7754
 4223SOL    HW124128   2.321   0.934   9.029 -3.5134 -2.4516  0.6284
 4223SOL    HW224129   2.239   0.963   9.152 -1.6472  0.0413  0.8867
 4224SOL     OW24130   0.734   3.926   6.363 -0.2124  0.6454 -0.1072
 4224SOL    HW124131   0.765   3.964   6.281 -2.4730  1.3502 -0.6189
 4224SOL    HW224132   0.684   3.994   6.409 -1.0098  0.1084 -0.1782
 4225SOL     OW24133   2.063   2.207   8.671 -0.1720  0.8119  0.7444
 4225SOL    HW124134   2.006   2.224   8.745  0.8440  1.7145  1.3258
 4225SOL    HW224135   2.104   2.126   8.701 -0.1486  0.9783  1.1607
 4226SOL     OW24136   2.793   1.143   0.619 -0.4696  0.2392  0.5603
 4226SOL    HW124137   2.725   1.187   0.669  1.3609  2.5260  1.0578
 4226SOL    HW224138   2.736   1.086   0.568  1.9338 -1.6713 -0.0055
 4227SOL     OW24139   1.798   2.615   2.166  0.0900  0.0215  0.0727
 4227SOL    HW124140   1.854   2.542   2.191 -2.1414 -1.5193  0.6293
 4227SOL    HW224141   1.847   2.692   2.135 -0.2862 -0.3312 -1.3956
 4228SOL     OW24142   2.848   0.866   6.211  0.0558 -0.1274 -0.4808
 4228SOL    HW124143   2.756   0.873   6.186  0.2974  2.3082 -0.6364
 4228SOL    HW224144   2.858   0.911   6.295 -2.1229 -0.6948  0.0934
 4229SOL     OW24145   1.138   4.389   6.225 -0.3606 -0.1154 -0.1851
 4229SOL    HW124146   1.141   4.311   6.280  3.5704 -0.0429 -0.2990
 4229SOL    HW224147   1.226   4.423   6.242 -0.0649 -1.1549  0.3628
 4230SOL     OW24148   0.189   3.583   1.539 -0.3228  0.5625 -0.1359
 4230SOL    HW124149   0.174   3.581   1.444 -1.4736  1.7149  0.0171
 4230SOL    HW224150   0.106   3.610   1.578 -0.4909  0.9164 -0.7253
 4231SOL     OW24151   2.161   1.968   8.739  0.6919  0.0258 -0.3488
 4231SOL    HW124152   2.222   1.927   8.679  1.2696  0.1877  0.1239
 4231SOL    HW224153   2.090   1.908   8.759 -1.8798  1.9472 -3.7008
 4232SOL     OW24154   0.832   2.728   6.113  0.4563  0.1554 -0.4476
 4232SOL    HW124155   0.875   2.711   6.198  0.8407 -1.1506 -0.9123
 4232SOL    HW224156   0.880   2.808   6.089 -1.7884  0.5770 -3.4848
 4233SOL     OW24157   0.715   0.998   3.396 -0.0463 -0.1452 -0.5815
 4233SOL    HW124158   0.631   1.037   3.375 -0.2631 -0.3124 -0.0177
 4233SOL    HW224159   0.693   0.965   3.483 -0.2115 -0.9225 -0.9223
 4234SOL     OW24160   0.482   0.675   8.809  0.5945 -0.4866  0.0352
 4234SOL    HW124161   0.571   0.709   8.803 -0.4024  2.1279 -0.3514
 4234SOL    HW224162   0.459   0.710   8.896 -2.5199 -0.7691 -0.6500
 4235SOL     OW24163   0.120   3.816  13.342  0.2977 -0.1041  0.3826
 4235SOL    HW124164   0.103   3.906  13.314 -2.6049 -1.0246 -0.9281
 4235SOL    HW224165   0.079   3.815  13.428 -0.5799 -4.0197 -0.0597
 4236SOL     OW24166   2.602   4.009   5.086 -0.1252 -0.4853 -0.0946
 4236SOL    HW124167   2.680   3.990   5.137 -0.2860  1.5249  0.8852
 4236SOL    HW224168   2.562   4.079   5.138 -2.1487 -1.4839 -0.3133
 4237SOL     OW24169   0.995   1.165  13.683 -0.1468  0.1559 -0.0123
 4237SOL    HW124170   0.904   1.137  13.678 -0.2057  0.2931  0.2763
 4237SOL    HW224171   1.008   1.161  13.777 -0.0178  0.3125 -0.0224
 4238SOL     OW24172   0.167   1.125   2.700  0.0336  0.0700 -0.8728
 4238SOL    HW124173   0.245   1.080   2.668  0.7449  1.4824 -1.1031
 4238SOL    HW224174   0.150   1.067   2.774  0.1066 -3.6951 -3.7970
 4239SOL     OW24175   4.348   1.686   2.327 -0.3796 -0.6327  0.0874
 4239SOL    HW124176   4.368   1.593   2.315 -0.7419 -0.5421 -1.3199
 4239SOL    HW224177   4.304   1.705   2.244 -0.9333  2.0849  1.0058
 4240SOL     OW24178   2.909   3.785   4.989  0.5491  0.1078 -0.0087
 4240SOL    HW124179   2.933   3.878   4.996  1.1374  0.1232 -2.3993
 4240SOL    HW224180   2.995   3.754   4.960  1.1050  0.6297  1.0651
 4241SOL     OW24181   0.148   1.792   5.863 -0.0704 -0.0664 -0.5479
 4241SOL    HW124182   0.125   1.722   5.924 -1.1436 -0.4017 -1.3138
 4241SOL    HW224183   0.173   1.750   5.780 -0.5760 -1.7498  0.1531
 4242SOL     OW24184   0.465   3.907  11.205 -0.2906 -0.4853  0.2305
 4242SOL    HW124185   0.439   3.827  11.160  1.2258 -0.4764 -0.6924
 4242SOL    HW224186   0.557   3.895  11.231 -0.5448 -1.2817  0.7567
 4243SOL     OW24187   1.343   3.679   7.810  0.0314 -0.0022 -0.4552
 4243SOL    HW124188   1.399   3.732   7.867  1.9400 -1.9432 -0.5606
 4243SOL    HW224189   1.284   3.651   7.880 -0.1140  0.4916 -0.3742
 4244SOL     OW24190   2.648   4.532   5.436 -0.0561 -0.4509 -0.1486
 4244SOL    HW124191   2.642   4.625   5.416 -0.1925 -0.3790  0.2304
 4244SOL    HW224192   2.560   4.508   5.465 -0.1151 -0.4183 -0.3014
 4245SOL     OW24193   3.057   4.303   2.784 -0.4055  0.2383  0.2810
 4245SOL    HW124194   3.059   4.210   2.758 -1.1972  0.7318 -1.5684
 4245SOL    HW224195   3.147   4.317   2.814 -0.6682  0.5659  0.9160
 4246SOL     OW24196   3.449   1.345   1.863 -0.1418 -0.8188 -0.0791
 4246SOL    HW124197   3.481   1.380   1.780 -0.1297 -2.1627 -0.6351
 4246SOL    HW224198   3.373   1.401   1.882 -0.9696 -1.6337 -0.9696
 4247SOL     OW24199   2.541   2.881   6.951 -0.0215  0.3089 -0.1715
 4247SOL    HW124200   2.619   2.847   6.994  2.1804  3.3826 -1.7774
 4247SOL    HW224201   2.505   2.799   6.917 -1.4501  0.9499 -0.2331
 4248SOL     OW24202   0.052   1.957   7.287 -0.0065 -0.3080  0.5653
 4248SOL    HW124203   0.144   1.956   7.312  0.7784  1.2893 -2.2996
 4248SOL    HW224204   0.059   1.990   7.197 -1.2697  1.2263  1.0325
 4249SOL     OW24205   1.418   2.153  17.195  0.2745  0.3005  0.1866
 4249SOL    HW124206   1.433   2.159  17.289  0.0146 -1.1270  0.3248
 4249SOL    HW224207   1.459   2.230  17.155 -1.8030  0.8950 -0.7640
 4250SOL     OW24208   4.714   0.389   7.992  0.0867 -0.3517  0.1388
 4250SOL    HW124209   4.696   0.481   7.971 -0.8469 -0.0996  2.0366
 4250SOL    HW224210   0.076   0.391   8.040  0.4326  0.1435 -0.4649
 4251SOL     OW24211   1.519   1.804   1.948  0.1515 -0.1301 -0.1629
 4251SOL    HW124212   1.483   1.724   1.987  0.8189 -0.0290  0.6452
 4251SOL    HW224213   1.503   1.872   2.014  0.7658 -2.1444  2.0522
 4252SOL     OW24214   1.506   3.078   5.850 -0.2735  0.8773  0.1520
 4252SOL    HW124215   1.566   3.115   5.786 -0.0505 -2.4043 -1.4853
 4252SOL    HW224216   1.491   2.990   5.817 -4.1547  1.4650  0.2695
 4253SOL     OW24217   3.401   3.015   5.725  0.6303  0.1583  0.1304
 4253SOL    HW124218   3.441   2.988   5.642 -1.7701  0.1123 -1.0193
 4253SOL    HW224219   3.357   2.932   5.745 -0.3313  0.5932 -0.1421
 4254SOL     OW24220   3.767   0.931   4.522  0.6289  0.1093  0.4120
 4254SOL    HW124221   3.700   0.977   4.472  2.1120  0.7391 -1.0032
 4254SOL    HW224222   3.826   0.906   4.451 -2.3260  1.6057 -2.5349
 4255SOL     OW24223   0.898   0.219   3.039 -0.2028  0.0168 -0.0493
 4255SOL    HW124224   0.964   0.239   2.973  0.1944  0.9994  0.6348
 4255SOL    HW224225   0.878   0.296   3.093 -0.8182  0.1737 -0.4901
 4256SOL     OW24226   4.048   4.469   3.612 -0.4877 -0.2109 -0.7835
 4256SOL    HW124227   4.007   4.419   3.541 -1.0545 -0.3398 -0.3649
 4256SOL    HW224228   3.997   4.550   3.607  0.2970  0.2408 -1.5253
 4257SOL     OW24229   2.905   0.412   4.243  0.2435 -0.0421  0.2699
 4257SOL    HW124230   2.856   0.476   4.295 -1.3022 -0.6564 -0.4470
 4257SOL    HW224231   2.871   0.328   4.273 -0.8557  0.4313  0.3397
 4258SOL     OW24232   3.743   3.222   1.997 -0.7845 -0.5894 -0.2681
 4258SOL    HW124233   3.837   3.237   1.989 -0.5786 -1.1124  1.2444
 4258SOL    HW224234   3.724   3.181   1.912 -1.6757 -1.3695  0.2964
 4259SOL     OW24235   4.296   2.936   1.215  0.1641  0.4876 -0.1123
 4259SOL    HW124236   4.224   2.940   1.152 -0.5941 -1.2828  0.6802
 4259SOL    HW224237   4.362   2.890   1.162  1.0266  1.2733  0.2677
 4260SOL     OW24238   1.631   2.638   3.820 -0.2045 -0.2873 -0.4532
 4260SOL    HW124239   1.698   2.677   3.877 -1.4038  0.4005  0.4673
 4260SOL    HW224240   1.581   2.713   3.788  0.2610 -0.1395 -0.8534
 4261SOL     OW24241   1.943   3.170   7.950 -0.1601  0.1553  0.5345
 4261SOL    HW124242   1.878   3.237   7.926  0.5213  0.7281  0.2886
 4261SOL    HW224243   1.981   3.154   7.864 -1.6234  0.5016 -0.1896
 4262SOL     OW24244   2.682   0.705  17.224 -0.0008  0.8515  0.5391
 4262SOL    HW124245   2.630   0.628  17.247 -2.0811  0.7506 -4.5254
 4262SOL    HW224246   2.665   0.713  17.130 -2.6594 -3.2689  0.6571
 4263SOL     OW24247   0.295   2.528   8.410 -0.0914 -0.0107  0.0382
 4263SOL    HW124248   0.289   2.438   8.379 -1.6659  0.1336 -0.0857
 4263SOL    HW224249   0.219   2.536   8.468 -1.5202 -0.6366 -1.7545
 4264SOL     OW24250   0.899   3.165   4.311  0.6041 -0.2048 -0.5426
 4264SOL    HW124251   0.968   3.224   4.281  0.8064  0.7481  1.7609
 4264SOL    HW224252   0.927   3.143   4.400 -0.0180 -0.2574 -0.3545
 4265SOL     OW24253   2.817   4.416   2.155 -0.3714  0.1432 -0.2296
 4265SOL    HW124254   2.835   4.429   2.248  1.2292  1.1726 -0.6987
 4265SOL    HW224255   2.802   4.506   2.128  1.4986  0.0407 -1.5952
 4266SOL     OW24256   3.400   0.975   6.109  0.0873 -0.8924  0.4011
 4266SOL    HW124257   3.356   0.927   6.039  1.2937  0.4536 -1.3134
 4266SOL    HW224258   3.394   0.918   6.185 -0.0442 -0.5158  0.6710
 4267SOL     OW24259   3.546   4.396   5.823  0.0591  0.5434  0.1152
 4267SOL    HW124260   3.585   4.428   5.904  0.3782  0.0005  0.1761
 4267SOL    HW224261   3.587   4.466   5.772  1.0831 -0.8093 -0.9127
 4268SOL     OW24262   2.455   2.046   3.109 -0.2109 -0.0209 -0.1108
 4268SOL    HW124263   2.435   2.139   3.115  0.4389  0.1263 -0.1763
 4268SOL    HW224264   2.413   2.020   3.027  0.6568  0.7184 -0.7981
 4269SOL     OW24265   2.891   1.914   0.724  0.2093  0.3281 -0.2160
 4269SOL    HW124266   2.943   1.837   0.701 -1.3059 -0.4776 -0.9501
 4269SOL    HW224267   2.884   1.898   0.818  1.2195 -0.7839 -0.3364
 4270SOL     OW24268   0.644   1.994  13.539  0.6562 -0.7167  0.0278
 4270SOL    HW124269   0.707   1.969  13.471 -0.1775  0.1955 -1.0734
 4270SOL    HW224270   0.575   2.017  13.477  0.8609 -0.7620 -0.2162
 4271SOL     OW24271   1.497   0.159   2.874  0.0101 -0.2614  0.1545
 4271SOL    HW124272   1.416   0.111   2.888  0.8592 -1.1934  1.7685
 4271SOL    HW224273   1.473   0.236   2.822 -0.8947  0.1289  1.1701
 4272SOL     OW24274   3.824   3.934   7.842  0.3285 -0.3778 -0.4132
 4272SOL    HW124275   3.891   3.969   7.782  0.9858 -2.7018 -1.0646
 4272SOL    HW224276   3.833   3.995   7.915 -1.4273  1.9312 -2.1246
 4273SOL     OW24277   0.225   0.444  13.205 -0.7374 -0.4053  0.6496
 4273SOL    HW124278   0.212   0.496  13.284 -2.3026  0.4231 -0.1434
 4273SOL    HW224279   0.136   0.453  13.172 -0.9024  1.5575  1.6388
 4274SOL     OW24280   2.457   4.337   1.843 -0.0548  0.4453 -0.0792
 4274SOL    HW124281   2.400   4.289   1.903  4.2704 -2.4725  1.7723
 4274SOL    HW224282   2.543   4.330   1.885 -1.3781 -2.9278  2.0985
 4275SOL     OW24283   4.530   3.090  17.080 -0.0719  0.8318  0.4316
 4275SOL    HW124284   4.596   3.147  17.119  1.4930  0.7890 -2.1492
 4275SOL    HW224285   4.549   3.089  16.986  2.0343  0.4265  0.8589
 4276SOL     OW24286   3.823   2.056   5.915 -0.7400  0.0603  0.0872
 4276SOL    HW124287   3.806   1.966   5.886  0.5935 -0.2661  0.2917
 4276SOL    HW224288   3.890   2.037   5.981 -2.0951  2.7094  2.2038
 4277SOL     OW24289   4.686   2.635   3.876 -0.1121  0.0288  0.6870
 4277SOL    HW124290   4.694   2.731   3.876 -1.2009  0.1234 -0.1266
 4277SOL    HW224291   4.718   2.633   3.966  0.2969  0.0490  0.5444
 4278SOL     OW24292   3.512   3.154   7.151  0.1667 -0.3216 -0.6006
 4278SOL    HW124293   3.555   3.176   7.233 -0.2153 -0.3745 -0.3852
 4278SOL    HW224294   3.587   3.163   7.092  1.2654  2.0503  1.1720
 4279SOL     OW24295   2.767   1.539   7.839 -0.4453 -0.0657 -0.3341
 4279SOL    HW124296   2.795   1.450   7.859  3.3198  0.8493 -1.6108
 4279SOL    HW224297   2.775   1.581   7.924  1.0057 -0.8034 -0.1194
 4280SOL     OW24298   2.741   3.146   6.054 -0.4140  0.3205 -0.1379
 4280SOL    HW124299   2.746   3.205   6.129  3.3784 -0.1912  0.0169
 4280SOL    HW224300   2.804   3.189   5.996  0.9617 -0.5647  0.7016
 4281SOL     OW24301   1.672   1.334   5.591  0.2701  0.3801 -0.7711
 4281SOL    HW124302   1.723   1.395   5.643  0.1987  0.9753 -1.4060
 4281SOL    HW224303   1.583   1.369   5.590  1.1752  2.6962  1.3914
 4282SOL     OW24304   3.312   4.520   5.898 -0.5058  0.2254 -0.1777
 4282SOL    HW124305   3.228   4.518   5.852  0.0285 -1.5619 -1.0863
 4282SOL    HW224306   3.369   4.467   5.842  0.0281 -1.0359  1.5619
 4283SOL     OW24307   2.303   4.369   5.884  0.1069  0.1396  0.1165
 4283SOL    HW124308   2.217   4.359   5.841 -0.4841 -0.9665  1.5664
 4283SOL    HW224309   2.357   4.308   5.834  0.4342 -0.6659  1.4789
 4284SOL     OW24310   0.818   1.966   4.244  0.2988  0.5945  0.2717
 4284SOL    HW124311   0.732   2.006   4.256  1.7542  3.9643 -0.8800
 4284SOL    HW224312   0.801   1.932   4.156  1.8004 -3.8427  1.6494
 4285SOL     OW24313   1.649   1.743   8.017 -0.2714 -0.3051 -0.6472
 4285SOL    HW124314   1.605   1.707   8.094  0.7939  1.2998  0.7272
 4285SOL    HW224315   1.743   1.752   8.035 -0.4326 -0.4146  0.2608
 4286SOL     OW24316   2.360   0.616   9.048 -0.7482 -0.0123  0.4340
 4286SOL    HW124317   2.331   0.553   8.982 -0.1286 -1.6673  1.7548
 4286SOL    HW224318   2.378   0.556   9.119 -0.2317 -0.5868 -0.1815
 4287SOL     OW24319   0.742   2.683   0.202  0.1362  0.0176  0.1818
 4287SOL    HW124320   0.793   2.658   0.124 -0.3942  3.6167 -1.3457
 4287SOL    HW224321   0.662   2.716   0.161  0.1172  1.6171  1.4971
 4288SOL     OW24322   0.751   1.782  11.587  0.3029  0.6897  0.0188
 4288SOL    HW124323   0.798   1.734  11.655 -0.5415  0.9434  0.7828
 4288SOL    HW224324   0.803   1.752  11.512 -0.1283 -2.6581  1.0693
 4289SOL     OW24325   2.520   0.157   2.585 -0.0137  0.2803  0.1024
 4289SOL    HW124326   2.578   0.084   2.560  0.5794  0.1339  1.9047
 4289SOL    HW224327   2.555   0.224   2.527 -0.5711 -2.1533 -3.0965
 4290SOL     OW24328   3.248   0.302   1.389 -0.3920 -0.1261 -0.5456
 4290SOL    HW124329   3.319   0.260   1.438 -0.8490 -0.4666 -0.1688
 4290SOL    HW224330   3.240   0.380   1.444 -2.1815  0.0249 -1.0302
 4291SOL     OW24331   4.626   3.076   6.529 -0.6254 -0.0656 -0.1087
 4291SOL    HW124332   4.683   3.069   6.452  0.8200 -1.1857  1.0858
 4291SOL    HW224333   4.699   3.095   6.588  0.1225  0.1579 -1.1099
 4292SOL     OW24334   2.569   1.707   7.797  0.4397  0.3090 -0.1191
 4292SOL    HW124335   2.503   1.648   7.834  0.8972 -0.4946 -0.5807
 4292SOL    HW224336   2.641   1.645   7.787  0.8188  0.9754 -1.4933
 4293SOL     OW24337   4.709   4.477   0.537 -0.3505  0.4081 -0.0924
 4293SOL    HW124338   0.003   4.571   0.538 -0.6226  0.4615 -0.8241
 4293SOL    HW224339   4.644   4.486   0.467 -0.8113 -0.9231  0.1581
 4294SOL     OW24340   2.035   0.595  12.676 -0.6137 -0.0735 -0.6882
 4294SOL    HW124341   2.092   0.669  12.652  2.0430 -1.0509  2.5733
 4294SOL    HW224342   2.106   0.531  12.672 -0.4774  0.1664 -2.0079
 4295SOL     OW24343   3.792   1.429   3.813  0.1127  0.4792 -0.2225
 4295SOL    HW124344   3.885   1.448   3.799  0.1156  0.9409  0.4488
 4295SOL    HW224345   3.762   1.496   3.875 -0.8683 -0.5487  0.4175
 4296SOL     OW24346   0.700   2.173   8.892 -0.0281  0.6652 -0.0564
 4296SOL    HW124347   0.631   2.117   8.858  1.4547 -0.1104 -1.7863
 4296SOL    HW224348   0.681   2.161   8.985 -0.7874  1.3683 -0.1228
 4297SOL     OW24349   2.540   1.221  10.518 -0.0249 -0.5805  0.1984
 4297SOL    HW124350   2.452   1.231  10.480  0.1884 -0.1740 -0.1961
 4297SOL    HW224351   2.550   1.130  10.490  3.6618  0.5014 -1.9858
 4298SOL     OW24352   3.796   1.018   2.349 -0.2765 -0.2183 -0.2303
 4298SOL    HW124353   3.877   0.974   2.326  0.5025  1.0414  0.0732
 4298SOL    HW224354   3.737   0.943   2.347  0.1209 -0.5462  0.5671
 4299SOL     OW24355   1.488   0.668   0.984 -0.3267 -0.1525 -1.1166
 4299SOL    HW124356   1.469   0.616   1.062 -1.7338  0.3324 -1.1441
 4299SOL    HW224357   1.427   0.740   1.000  1.4034  0.7953  1.2971
 4300SOL     OW24358   0.249   0.370   8.069 -0.6048  0.0641  0.4324
 4300SOL    HW124359   0.295   0.415   7.999 -1.3929 -1.1899 -0.8963
 4300SOL    HW224360   0.310   0.381   8.143 -0.9114  3.4926  0.1417
 4301SOL     OW24361   2.978   4.673   4.331 -0.3705  0.7221  0.2255
 4301SOL    HW124362   3.033   4.605   4.371  1.3443  2.1578  0.3013
 4301SOL    HW224363   3.028   0.031   4.353  0.9528 -0.2715  0.8323
 4302SOL     OW24364   4.297   0.275   3.567  0.6144 -0.3095 -0.2471
 4302SOL    HW124365   4.329   0.299   3.481  2.2610 -1.4345  0.0483
 4302SOL    HW224366   4.371   0.239   3.617 -1.2571 -0.4734  2.4664
 4303SOL     OW24367   1.053   3.757   7.640 -0.6957  0.0622  0.2552
 4303SOL    HW124368   1.017   3.696   7.704 -1.6390 -0.1633 -0.4967
 4303SOL    HW224369   1.079   3.831   7.695  0.6264 -0.7229  0.6901
 4304SOL     OW24370   1.856   3.523   7.113  0.1162  0.2997 -0.2036
 4304SOL    HW124371   1.821   3.611   7.116 -1.1650 -0.2425  0.6521
 4304SOL    HW224372   1.799   3.479   7.176 -0.6512  1.8693  0.1817
 4305SOL     OW24373   3.725   3.965   9.904  0.3265  0.4473  0.2164
 4305SOL    HW124374   3.661   3.930   9.842  0.1588  1.1112  0.0266
 4305SOL    HW224375   3.790   4.017   9.858 -1.2506  1.6676 -0.6325
 4306SOL     OW24376   0.156   1.686  10.669  0.5883  0.0254 -0.1842
 4306SOL    HW124377   0.205   1.767  10.685  0.2968 -0.1921  1.8894
 4306SOL    HW224378   0.081   1.700  10.727  1.1080  2.5180 -0.1010
 4307SOL     OW24379   2.110   2.943  15.627 -0.1293 -0.0284 -0.3382
 4307SOL    HW124380   2.126   2.873  15.692 -1.8998 -0.6064 -0.5241
 4307SOL    HW224381   2.026   2.918  15.590 -0.5149  2.7317 -1.2601
 4308SOL     OW24382   3.365   4.250   4.146 -0.6552 -0.0831 -0.5093
 4308SOL    HW124383   3.423   4.232   4.072  1.2551  0.6172  0.8292
 4308SOL    HW224384   3.285   4.200   4.129 -0.0003 -1.2784 -0.1216
 4309SOL     OW24385   3.870   1.805   1.195 -0.3791  0.3159  0.7283
 4309SOL    HW124386   3.794   1.747   1.193 -0.5707  0.6431 -0.9885
 4309SOL    HW224387   3.942   1.747   1.169 -0.6966  0.1686  0.1811
 4310SOL     OW24388   3.041   0.588  10.600  0.2338  0.0230  0.7865
 4310SOL    HW124389   3.091   0.642  10.661  3.0126 -0.0001 -1.5007
 4310SOL    HW224390   3.069   0.636  10.522  0.7039 -0.5710  0.5913
 4311SOL     OW24391   0.514   3.965   4.187 -0.4435 -0.4297  0.5868
 4311SOL    HW124392   0.565   4.032   4.142  0.3150 -2.1913 -1.1804
 4311SOL    HW224393   0.443   4.019   4.224 -0.2322 -1.5498  2.6346
 4312SOL     OW24394   4.351   0.168   9.032  0.1685  0.4098  0.0723
 4312SOL    HW124395   4.411   0.100   9.002 -0.3209  0.5500 -1.1980
 4312SOL    HW224396   4.287   0.153   8.963  0.0594  1.1851  0.0057
 4313SOL     OW24397   3.089   3.905   6.777  0.1692 -0.3690  0.4498
 4313SOL    HW124398   3.173   3.948   6.757 -0.6407  1.0490  0.1202
 4313SOL    HW224399   3.025   3.962   6.734  0.1012 -0.3449  0.5839
 4314SOL     OW24400   4.202   2.861   6.801 -0.0060  0.3187  0.1788
 4314SOL    HW124401   4.277   2.895   6.752 -0.4169 -0.4661 -1.0201
 4314SOL    HW224402   4.195   2.915   6.879  0.0487  1.8935 -0.9157
 4315SOL     OW24403   3.632   0.079   9.453 -0.8574 -0.0878 -0.4585
 4315SOL    HW124404   3.620   4.707   9.477 -1.2901 -0.4173 -1.9488
 4315SOL    HW224405   3.543   0.109   9.472 -0.9524 -0.4395 -0.3391
 4316SOL     OW24406   0.949   2.875   5.235  0.0933 -0.2343  0.0501
 4316SOL    HW124407   1.044   2.881   5.236  0.1050 -0.5438  0.9744
 4316SOL    HW224408   0.926   2.886   5.327 -0.2407 -1.0644  0.0708
 4317SOL     OW24409   2.860   1.032   4.784  0.3270  0.3108  0.2108
 4317SOL    HW124410   2.802   0.960   4.808 -0.8979  0.6462 -1.6896
 4317SOL    HW224411   2.919   0.985   4.725 -0.2835 -0.0970 -0.0826
 4318SOL     OW24412   2.977   0.228  16.552 -0.0878  0.4648 -0.8930
 4318SOL    HW124413   2.902   0.286  16.561 -0.3041 -0.2022  1.7130
 4318SOL    HW224414   2.936   0.146  16.526 -0.5536  0.0084  1.2480
 4319SOL     OW24415   0.097   2.327  15.562  0.3343  0.1147  0.3392
 4319SOL    HW124416   0.073   2.234  15.568 -1.1233  0.3476 -1.8808
 4319SOL    HW224417   0.052   2.350  15.481  1.3710  1.2839  0.0993
 4320SOL     OW24418   0.399   3.009   7.978  0.0307  0.4009  0.5590
 4320SOL    HW124419   0.304   3.012   7.994 -0.2864  0.5254 -1.3470
 4320SOL    HW224420   0.417   3.085   7.922  2.7805 -0.1593  0.6792
 4321SOL     OW24421   4.240   3.343   7.326  1.0663 -0.2333  0.3213
 4321SOL    HW124422   4.288   3.400   7.267  1.1792  1.4610  2.0313
 4321SOL    HW224423   4.290   3.349   7.408  0.8645  0.3401  0.3993
 4322SOL     OW24424   2.011   0.264   4.197  0.0758  0.0710 -0.4779
 4322SOL    HW124425   1.973   0.336   4.247 -2.5264 -1.3126 -0.4764
 4322SOL    HW224426   2.099   0.295   4.173 -0.4381  0.7397 -1.4668
 4323SOL     OW24427   4.021   4.422   6.700 -0.0848 -0.8703 -0.2526
 4323SOL    HW124428   3.937   4.459   6.729 -0.0797 -0.7018 -0.4568
 4323SOL    HW224429   4.077   4.490   6.736 -2.5346  1.2641 -0.4367
 4324SOL     OW24430   0.394   3.135   1.327  0.3841 -0.3754  0.5393
 4324SOL    HW124431   0.474   3.088   1.303  1.3509  0.9007  1.2371
 4324SOL    HW224432   0.326   3.084   1.284 -0.0760  0.6825  0.0188
 4325SOL     OW24433   0.292   2.359   0.603  0.4382 -0.1732 -0.4673
 4325SOL    HW124434   0.233   2.417   0.652  2.3416 -0.8673  2.6233
 4325SOL    HW224435   0.331   2.419   0.539 -0.0688  0.1048 -0.5104
 4326SOL     OW24436   3.621   1.980   9.684  0.1129 -0.6176  0.5823
 4326SOL    HW124437   3.622   1.966   9.589  1.4368  4.5916 -0.1565
 4326SOL    HW224438   3.710   2.006   9.705  0.0459 -0.6056  0.8538
 4327SOL     OW24439   1.511   3.457   8.753 -0.2986 -0.0468  0.2026
 4327SOL    HW124440   1.508   3.449   8.848  0.6397 -0.0956  0.2266
 4327SOL    HW224441   1.559   3.539   8.743 -1.3882  0.5734  0.0653
 4328SOL     OW24442   3.006   4.336   7.140 -0.2145 -0.5543 -0.1180
 4328SOL    HW124443   3.076   4.316   7.203 -0.8842 -0.0633  0.7784
 4328SOL    HW224444   2.934   4.312   7.199  1.9249 -0.7691  2.4133
 4329SOL     OW24445   4.386   4.162   6.678  0.4714 -0.0826 -0.2047
 4329SOL    HW124446   4.423   4.145   6.765  1.6211 -2.3782 -1.1540
 4329SOL    HW224447   4.309   4.107   6.687  0.0456  0.1997 -2.2470
 4330SOL     OW24448   0.896   2.654   6.615 -0.3866 -0.3341 -0.3939
 4330SOL    HW124449   0.983   2.621   6.638 -0.4827  1.5624  2.6926
 4330SOL    HW224450   0.847   2.586   6.662 -1.1348  1.2494  1.1001
 4331SOL     OW24451   2.394   1.511   7.891 -0.7062 -0.1125 -0.1701
 4331SOL    HW124452   2.319   1.569   7.905 -1.1344 -0.4898 -0.8581
 4331SOL    HW224453   2.380   1.457   7.968 -0.0369 -1.3725 -0.9247
 4332SOL     OW24454   0.010   0.430   0.908 -0.8791  0.1873  0.2016
 4332SOL    HW124455   0.033   0.503   0.851 -0.6578  0.4344  0.6089
 4332SOL    HW224456   4.644   0.463   0.934 -0.4552  1.5233 -0.1066
 4333SOL     OW24457   0.536   3.762  17.668  0.0169 -0.1407 -0.0210
 4333SOL    HW124458   0.451   3.799   0.005  0.5961  2.1747 -1.6576
 4333SOL    HW224459   0.563   3.826  17.602  0.4664  0.6966  0.9763
 4334SOL     OW24460   1.891   0.883   2.008 -0.4854  0.8233 -0.3887
 4334SOL    HW124461   1.844   0.948   2.060 -2.4809 -0.6975 -0.2754
 4334SOL    HW224462   1.983   0.908   2.019 -0.3704 -0.5495  1.9147
 4335SOL     OW24463   1.227   1.618   2.227 -0.2414  1.1415 -0.2355
 4335SOL    HW124464   1.191   1.533   2.252 -0.4595  1.2545 -0.1623
 4335SOL    HW224465   1.207   1.614   2.134  3.8596 -1.7382 -0.9704
 4336SOL     OW24466   2.943   3.388   3.193 -0.2858 -0.4768  0.1770
 4336SOL    HW124467   3.000   3.437   3.134 -0.4290 -0.6634 -0.1165
 4336SOL    HW224468   2.989   3.304   3.189 -0.1134 -0.3682 -0.0948
 4337SOL     OW24469   0.806   2.281   8.495  0.3635 -0.9391 -0.2305
 4337SOL    HW124470   0.851   2.198   8.511  1.8064  0.0456  0.7667
 4337SOL    HW224471   0.874   2.347   8.511 -0.9618  0.6174 -1.0703
 4338SOL     OW24472   1.535   0.834   3.184  0.1212  0.1475  0.5862
 4338SOL    HW124473   1.537   0.926   3.159 -1.5362 -0.1503 -0.6784
 4338SOL    HW224474   1.528   0.796   3.096 -2.4765 -0.6605  1.1434
 4339SOL     OW24475   0.892   4.168   5.923  0.4413  0.6516  0.2778
 4339SOL    HW124476   0.928   4.252   5.892  1.5978  0.3520  0.8170
 4339SOL    HW224477   0.829   4.144   5.855 -0.1718  0.8668  0.7706
 4340SOL     OW24478   0.329   3.273  15.406 -0.2479  0.3368 -0.0109
 4340SOL    HW124479   0.259   3.211  15.386  2.7249 -3.3649  0.9853
 4340SOL    HW224480   0.307   3.340  15.342 -2.7435 -0.0078  0.4942
 4341SOL     OW24481   0.185   1.277   8.009 -0.4050  0.1337 -0.0644
 4341SOL    HW124482   0.236   1.203   7.977 -2.7218 -1.3846 -0.2987
 4341SOL    HW224483   0.190   1.336   7.934 -2.5439 -0.8857 -1.0299
 4342SOL     OW24484   0.761   0.459  14.265 -0.4392  0.4729 -0.3802
 4342SOL    HW124485   0.761   0.555  14.263 -0.2100  0.4541 -1.3965
 4342SOL    HW224486   0.744   0.442  14.357  1.4198 -1.7035 -0.4539
 4343SOL     OW24487   4.279   0.151  12.117  0.0383  0.2598 -0.1615
 4343SOL    HW124488   4.371   0.134  12.139 -0.1983  1.1436  1.4478
 4343SOL    HW224489   4.259   0.077  12.059 -0.7767  0.3348  0.0223
 4344SOL     OW24490   3.721   1.542   0.267 -0.0152  0.3167  0.4402
 4344SOL    HW124491   3.755   1.631   0.255  0.3457  0.1044 -0.1096
 4344SOL    HW224492   3.793   1.491   0.231 -1.6592 -2.7063  1.4201
 4345SOL     OW24493   3.824   2.810   5.125  0.3455 -0.1188  0.0030
 4345SOL    HW124494   3.750   2.768   5.170  0.1581 -0.0707 -0.2649
 4345SOL    HW224495   3.862   2.857   5.200  0.1777 -0.4997  0.3298
 4346SOL     OW24496   2.404   2.168  10.722 -0.0882 -0.0767 -0.2110
 4346SOL    HW124497   2.435   2.251  10.688  1.3434 -0.4976  0.0378
 4346SOL    HW224498   2.400   2.127  10.636 -1.4211  3.9410 -2.0364
 4347SOL     OW24499   2.577   0.332   2.401 -0.4113  0.0303  0.3020
 4347SOL    HW124500   2.596   0.417   2.441 -0.2530  0.7354 -1.2454
 4347SOL    HW224501   2.557   0.357   2.311 -1.4839  0.2949  0.6246
 4348SOL     OW24502   1.435   3.829  10.415  0.2254 -0.1115 -0.2340
 4348SOL    HW124503   1.508   3.823  10.476 -0.8118  0.7406  1.0917
 4348SOL    HW224504   1.452   3.918  10.386 -0.3514  0.5137  1.3491
 4349SOL     OW24505   1.269   2.297   5.599  0.0738 -0.2291 -0.1230
 4349SOL    HW124506   1.283   2.310   5.505  1.3573 -0.7854  0.0077
 4349SOL    HW224507   1.335   2.362   5.623 -0.4650  0.3754 -0.2491
 4350SOL     OW24508   0.372   2.870   2.022 -0.0749 -0.3669  0.1340
 4350SOL    HW124509   0.417   2.840   1.942 -0.9247  0.0793 -0.5055
 4350SOL    HW224510   0.299   2.808   2.018  0.0105 -0.5492  1.4404
 4351SOL     OW24511   3.381   4.170   7.710 -0.1552  0.2697 -0.5982
 4351SOL    HW124512   3.364   4.256   7.672  0.0491  0.7720  0.4471
 4351SOL    HW224513   3.477   4.172   7.711 -0.1217 -1.1120 -0.7623
 4352SOL     OW24514   0.579   4.436   3.544 -0.6387 -0.4036 -0.1525
 4352SOL    HW124515   0.631   4.514   3.523 -0.5514 -1.3156 -3.2845
 4352SOL    HW224516   0.626   4.363   3.505 -1.6923 -2.1768  1.9293
 4353SOL     OW24517   4.266   1.374   6.962 -0.2051 -0.4798 -0.4949
 4353SOL    HW124518   4.222   1.405   6.883  2.0008 -0.0739 -1.5531
 4353SOL    HW224519   4.214   1.406   7.036 -0.6596 -2.0200 -0.1417
 4354SOL     OW24520   3.831   0.880  15.741  0.1027 -0.1602  0.1809
 4354SOL    HW124521   3.837   0.835  15.657 -1.3896 -1.0025  0.5153
 4354SOL    HW224522   3.921   0.868  15.772 -1.2975 -0.9000  4.0422
 4355SOL     OW24523   2.130   0.671  16.128 -0.2262 -0.1422  0.3277
 4355SOL    HW124524   2.174   0.750  16.160 -1.2939  0.9229 -0.8740
 4355SOL    HW224525   2.064   0.706  16.068 -0.1224 -0.2505  0.1488
 4356SOL     OW24526   3.359   0.290   3.802  0.0300 -0.0502  0.0200
 4356SOL    HW124527   3.309   0.270   3.881  0.1951 -0.4436  0.0266
 4356SOL    HW224528   3.327   0.374   3.770  2.2255  0.6412 -0.3961
 4357SOL     OW24529   3.923   2.305   7.092  0.3873  0.2975 -0.2111
 4357SOL    HW124530   3.885   2.348   7.016  2.0959  1.3825 -0.4423
 4357SOL    HW224531   3.851   2.311   7.156  2.3053  0.4742  1.9306
 4358SOL     OW24532   2.295   3.721  13.890  0.0249  0.0585 -0.1956
 4358SOL    HW124533   2.237   3.748  13.960 -1.0733 -2.0308 -0.3108
 4358SOL    HW224534   2.377   3.759  13.921 -1.3690  2.4036  0.5673
 4359SOL     OW24535   4.446   2.393   4.774  0.3294  0.5877 -0.1462
 4359SOL    HW124536   4.510   2.352   4.832 -0.9384 -0.5220  0.4595
 4359SOL    HW224537   4.479   2.349   4.695 -0.1342 -0.5468  0.2962
 4360SOL     OW24538   0.850   0.554   5.665 -0.2315  0.3083  0.0715
 4360SOL    HW124539   0.783   0.519   5.606 -0.2344  0.2092  0.1330
 4360SOL    HW224540   0.858   0.645   5.639 -0.2115  0.2466 -0.1399
 4361SOL     OW24541   1.561   3.530   9.273  0.2112 -0.2722 -0.1399
 4361SOL    HW124542   1.529   3.596   9.335  1.2898 -1.4203  1.6558
 4361SOL    HW224543   1.633   3.573   9.227  0.7727 -0.3504  0.6725
 4362SOL     OW24544   3.799   0.285   8.340 -0.1845  0.4559  0.2057
 4362SOL    HW124545   3.778   0.354   8.403  0.6172  0.6656  0.2359
 4362SOL    HW224546   3.770   0.204   8.380 -3.2913  0.8088 -1.2606
 4363SOL     OW24547   2.514   1.213   5.230  0.0674 -0.0149  0.5292
 4363SOL    HW124548   2.500   1.307   5.238 -3.4503 -0.6347  1.4796
 4363SOL    HW224549   2.427   1.188   5.200  0.2855 -1.4934  1.1632
 4364SOL     OW24550   3.567   3.877   9.656 -0.0596  0.2800  0.1404
 4364SOL    HW124551   3.581   3.868   9.561  2.2121 -0.6864  0.5764
 4364SOL    HW224552   3.496   3.940   9.647  1.4839  2.0496  0.4147
 4365SOL     OW24553   0.049   3.569  10.089 -0.1787  0.3088  0.2671
 4365SOL    HW124554   0.102   3.532  10.159 -0.8714  0.0780  0.6709
 4365SOL    HW224555   4.690   3.518  10.105  0.5294 -0.9045 -0.1441
 4366SOL     OW24556   4.134   1.554   9.955  0.5200  0.1617 -0.7254
 4366SOL    HW124557   4.152   1.647   9.966  0.1825 -0.1624  2.7528
 4366SOL    HW224558   4.182   1.517  10.029 -0.4018 -0.7796 -0.5991
 4367SOL     OW24559   3.567   2.789   0.133  0.2166 -0.1007 -0.1025
 4367SOL    HW124560   3.497   2.820   0.191 -0.1847 -0.3472 -0.4515
 4367SOL    HW224561   3.523   2.770   0.050 -0.7783  0.5868  0.2780
 4368SOL     OW24562   2.612   2.368   7.183 -0.2410  0.0700  0.6712
 4368SOL    HW124563   2.670   2.438   7.151  2.0735 -1.3940  1.6771
 4368SOL    HW224564   2.607   2.392   7.276  1.4241  0.6753  0.6043
 4369SOL     OW24565   0.143   2.675   7.934  0.4678 -0.0492  0.1210
 4369SOL    HW124566   0.060   2.672   7.982  1.7294  2.1749  2.5152
 4369SOL    HW224567   0.201   2.664   8.010  1.5155 -1.0372 -0.8294
 4370SOL     OW24568   2.503   1.461   4.715  0.1207  0.3672 -0.0984
 4370SOL    HW124569   2.470   1.391   4.658  2.0681  0.1822 -1.0117
 4370SOL    HW224570   2.442   1.533   4.698 -0.7494 -0.8493 -2.2547
 4371SOL     OW24571   3.665   1.463   5.838  0.0147  0.2936  0.1172
 4371SOL    HW124572   3.603   1.393   5.816 -0.4141  1.0997 -1.2514
 4371SOL    HW224573   3.744   1.414   5.862  1.7302  1.8420 -2.4189
 4372SOL     OW24574   3.930   2.301   0.908 -0.0846 -0.2225  0.4875
 4372SOL    HW124575   3.958   2.237   0.843 -0.7230 -0.4959  0.4908
 4372SOL    HW224576   3.836   2.286   0.909 -0.0264 -0.5851  0.1726
 4373SOL     OW24577   3.503   1.107  10.114  0.2084 -0.2094  0.5108
 4373SOL    HW124578   3.473   1.189  10.153 -2.2382 -0.4173 -0.9558
 4373SOL    HW224579   3.437   1.091  10.047 -0.0193  0.0148  0.6825
 4374SOL     OW24580   2.481   2.452  11.318  0.0171 -0.1873 -0.0062
 4374SOL    HW124581   2.510   2.466  11.227  2.8496 -0.5946  0.8233
 4374SOL    HW224582   2.485   2.540  11.356 -1.3641 -0.0763 -0.1176
 4375SOL     OW24583   2.679   0.246   8.204 -0.1674  0.6288 -0.8292
 4375SOL    HW124584   2.726   0.271   8.284 -0.9599  0.5990 -0.3611
 4375SOL    HW224585   2.682   0.150   8.201 -3.2374  0.5208 -0.4510
 4376SOL     OW24586   0.334   3.919   7.849 -0.2174 -0.0590  0.2719
 4376SOL    HW124587   0.304   4.010   7.846  1.2087  0.3624 -1.0605
 4376SOL    HW224588   0.383   3.920   7.931  2.3682  2.1841 -1.3303
 4377SOL     OW24589   1.191   2.452   2.276  0.2936  0.5486  0.4574
 4377SOL    HW124590   1.112   2.496   2.305  0.3272  0.4765  0.6614
 4377SOL    HW224591   1.166   2.374   2.226  1.1359  1.2900 -1.1019
 4378SOL     OW24592   3.643   1.438  10.837 -0.1266 -0.2779 -0.2945
 4378SOL    HW124593   3.586   1.515  10.847 -2.5500 -2.3203  1.6333
 4378SOL    HW224594   3.586   1.370  10.874  1.6792 -0.8134  1.4629
 4379SOL     OW24595   4.187   2.538   9.122  0.2563 -0.6884  0.0625
 4379SOL    HW124596   4.106   2.537   9.071  0.7921  1.1857 -0.8476
 4379SOL    HW224597   4.237   2.612   9.087  0.4084 -0.3765  0.9424
 4380SOL     OW24598   2.098   4.327   5.107 -0.2087  0.6091 -0.1767
 4380SOL    HW124599   2.111   4.411   5.151 -1.4872  0.8296 -0.2228
 4380SOL    HW224600   2.067   4.362   5.024  1.3574  1.1883 -0.5153
 4381SOL     OW24601   2.334   0.220   0.735 -0.1168  0.4399  0.0033
 4381SOL    HW124602   2.314   0.130   0.710 -0.2273  0.3363  0.4838
 4381SOL    HW224603   2.368   0.250   0.650 -1.7986 -0.9627 -1.1702
 4382SOL     OW24604   0.229   1.781  16.946 -0.2720  0.0031  0.6823
 4382SOL    HW124605   0.263   1.804  16.859  0.6951  1.8571  1.5422
 4382SOL    HW224606   0.303   1.728  16.974  0.8670 -0.4586 -3.1383
 4383SOL     OW24607   1.298   0.255   0.312 -0.3813 -0.3236  0.1867
 4383SOL    HW124608   1.359   0.207   0.368 -0.5883 -0.5257  0.2423
 4383SOL    HW224609   1.363   0.288   0.250  0.7000 -1.9107  0.4630
 4384SOL     OW24610   4.590   2.071   8.093  0.4232  0.0433 -0.0588
 4384SOL    HW124611   4.526   2.082   8.163  2.2068 -0.6459  1.6760
 4384SOL    HW224612   4.585   2.159   8.057  0.9128 -0.1430 -0.5894
 4385SOL     OW24613   4.093   3.012   1.008  0.2416 -0.7689  0.4545
 4385SOL    HW124614   4.031   3.056   1.066  2.1006  2.2290  0.1252
 4385SOL    HW224615   4.146   3.082   0.969 -0.1907 -0.5167  0.3239
 4386SOL     OW24616   1.994   3.414  15.802 -0.0540 -0.1536 -0.4616
 4386SOL    HW124617   2.017   3.327  15.769 -0.5694 -0.5473  0.2084
 4386SOL    HW224618   1.908   3.402  15.843  0.2914 -1.4444 -0.1102
 4387SOL     OW24619   3.139   0.315   1.745  0.6234 -0.1646  0.0861
 4387SOL    HW124620   3.218   0.262   1.731  0.9163  0.5341 -0.9479
 4387SOL    HW224621   3.092   0.268   1.813  1.4808 -0.1069  0.7299
 4388SOL     OW24622   0.088   1.570   3.188  0.6706 -0.0180 -0.6532
 4388SOL    HW124623   0.008   1.616   3.211  0.4858 -0.9682  0.6566
 4388SOL    HW224624   0.056   1.487   3.152 -0.4272 -0.4709  1.3656
 4389SOL     OW24625   2.292   3.183  15.937 -0.0096  0.0775  0.2935
 4389SOL    HW124626   2.321   3.259  15.885 -1.0452 -0.0836 -0.5139
 4389SOL    HW224627   2.215   3.168  15.882 -0.7224  0.4074  1.2063
 4390SOL     OW24628   0.938   3.874   6.019 -0.0051  0.0601 -0.2093
 4390SOL    HW124629   1.009   3.894   5.958 -1.3603 -1.2086 -2.2094
 4390SOL    HW224630   0.889   3.955   6.033 -1.5599 -0.9469  0.2682
 4391SOL     OW24631   2.869   3.691   5.259  0.1112 -0.1418 -0.1760
 4391SOL    HW124632   2.915   3.764   5.301 -0.7038 -0.2613  0.9082
 4391SOL    HW224633   2.880   3.712   5.166  0.3347  0.1105 -0.0938
 4392SOL     OW24634   3.172   4.468   4.160 -0.4849  0.0834 -0.4659
 4392SOL    HW124635   3.253   4.419   4.176 -0.4654 -0.0989 -1.1407
 4392SOL    HW224636   3.114   4.392   4.161 -1.6574  0.9710 -1.9792
 4393SOL     OW24637   2.296   0.235   5.526 -0.2667  0.0700  0.1355
 4393SOL    HW124638   2.212   0.221   5.570 -0.3753  1.7410  0.4548
 4393SOL    HW224639   2.365   0.232   5.593 -0.9659 -1.5958  0.7950
 4394SOL     OW24640   3.131   1.613   8.009  0.0301 -0.8319 -0.5388
 4394SOL    HW124641   3.219   1.627   8.044 -0.3076 -2.0268  0.7792
 4394SOL    HW224642   3.130   1.517   8.011 -0.4563 -0.7772  2.3538
 4395SOL     OW24643   2.402   1.273   0.459 -0.0138  0.2036 -0.1317
 4395SOL    HW124644   2.495   1.279   0.438 -0.5049  0.9596 -2.0938
 4395SOL    HW224645   2.378   1.187   0.422  0.5847 -1.0547  2.4231
 4396SOL     OW24646   1.128   3.494   5.994  0.0680 -0.5705 -0.0193
 4396SOL    HW124647   1.198   3.541   5.948 -2.2427  2.9919  0.1800
 4396SOL    HW224648   1.180   3.422   6.031  0.7107 -0.6790 -1.1407
 4397SOL     OW24649   3.121   2.970   5.931 -0.6315 -0.0057  0.1358
 4397SOL    HW124650   3.077   2.901   5.881 -0.1485  0.5558 -1.0566
 4397SOL    HW224651   3.129   2.925   6.015  0.5726 -2.0927 -1.0826
 4398SOL     OW24652   2.561   4.222   8.257  0.2141  0.2374  0.3474
 4398SOL    HW124653   2.581   4.306   8.215  0.7841  0.5600  1.2537
 4398SOL    HW224654   2.498   4.257   8.320  0.8516  1.3074  0.4066
 4399SOL     OW24655   4.354   0.986   2.109  0.1757  0.1539 -0.1575
 4399SOL    HW124656   4.355   0.891   2.110 -0.2227  0.1398 -1.7096
 4399SOL    HW224657   4.317   1.007   2.195 -1.3695 -1.1930 -0.4821
 4400SOL     OW24658   1.358   0.902   5.510  0.1864  0.4809  0.3780
 4400SOL    HW124659   1.291   0.970   5.499 -0.7862 -0.6267 -0.6265
 4400SOL    HW224660   1.436   0.957   5.521  0.8581 -0.2229 -0.8842
 4401SOL     OW24661   0.080   0.864   5.727  0.5077  0.0206 -0.1461
 4401SOL    HW124662   0.155   0.920   5.747 -0.1013  0.5890  0.5835
 4401SOL    HW224663   0.049   0.829   5.811  0.1639  0.0766 -0.2524
 4402SOL     OW24664   2.397   0.973  11.376  0.7401  0.4830 -0.0828
 4402SOL    HW124665   2.318   1.027  11.386  0.9601  0.7947 -0.0280
 4402SOL    HW224666   2.375   0.910  11.307 -0.4063  2.0913 -1.1846
 4403SOL     OW24667   3.026   1.595   5.113 -0.1565  0.6376 -0.4446
 4403SOL    HW124668   3.091   1.643   5.163  0.3247 -0.2411 -0.2212
 4403SOL    HW224669   3.044   1.613   5.021 -0.9434 -1.9571 -1.1149
 4404SOL     OW24670   4.664   2.096  11.797  0.2956  0.0011  0.6846
 4404SOL    HW124671   4.572   2.096  11.825 -0.0765  1.4449 -0.5256
 4404SOL    HW224672   4.706   2.138  11.872 -1.9344  2.1312  0.7601
 4405SOL     OW24673   4.178   4.078  12.580 -0.4320  0.5630 -0.2338
 4405SOL    HW124674   4.128   4.147  12.537  0.2702  0.5239 -1.1189
 4405SOL    HW224675   4.143   4.077  12.669 -1.3145  3.5550 -0.5404
 4406SOL     OW24676   0.172   3.561   9.316  0.0060 -0.1030 -0.0336
 4406SOL    HW124677   0.124   3.535   9.394  0.8082 -1.7867 -0.0972
 4406SOL    HW224678   0.098   3.567   9.255  0.5088  2.5152 -0.4138
 4407SOL     OW24679   3.511   3.515   7.115  0.0434  0.3448 -0.4841
 4407SOL    HW124680   3.538   3.423   7.115 -0.0687  0.3077  0.7679
 4407SOL    HW224681   3.582   3.554   7.168  0.0849 -0.1511 -0.1715
 4408SOL     OW24682   0.616   2.550   6.817  0.2654  0.4786  0.0791
 4408SOL    HW124683   0.563   2.503   6.754  1.3487  1.0861 -1.2770
 4408SOL    HW224684   0.695   2.496   6.806 -0.2695 -0.3072  0.1202
 4409SOL     OW24685   3.557   2.828   7.942  0.1059  0.5844  0.0411
 4409SOL    HW124686   3.625   2.801   7.880  1.1481 -1.5660  2.0792
 4409SOL    HW224687   3.503   2.748   7.943 -0.2147  0.8387  4.0188
 4410SOL     OW24688   0.904   0.047   2.331 -0.5996 -0.2823 -0.5300
 4410SOL    HW124689   0.836   0.038   2.263 -0.9740  0.8313 -0.3101
 4410SOL    HW224690   0.974   0.094   2.285 -1.0644  1.5546  0.6195
 4411SOL     OW24691   1.679   2.639   2.453  0.1017  0.2565  0.1715
 4411SOL    HW124692   1.698   2.545   2.458  3.2527  0.6983 -3.0422
 4411SOL    HW224693   1.685   2.646   2.357 -1.5929  0.3505  0.0785
 4412SOL     OW24694   4.650   1.859  12.835 -0.3999 -0.1192 -0.1705
 4412SOL    HW124695   4.667   1.952  12.826  0.3269 -0.1541  0.8441
 4412SOL    HW224696   4.719   1.831  12.775 -1.7182 -0.6236 -1.4569
 4413SOL     OW24697   4.413   1.991  13.107  0.2520  0.4933  0.1106
 4413SOL    HW124698   4.483   1.974  13.171  0.4126  1.5450  0.2144
 4413SOL    HW224699   4.376   2.067  13.151 -1.5140 -0.9974  1.1784
 4414SOL     OW24700   1.691   4.436   7.411 -0.6856 -0.0690  0.3463
 4414SOL    HW124701   1.630   4.510   7.419 -1.6193 -0.6267 -1.5870
 4414SOL    HW224702   1.632   4.362   7.424 -1.5794  0.5882 -0.0087
 4415SOL     OW24703   3.108   3.156   3.125 -0.2280  0.4140  0.2352
 4415SOL    HW124704   3.183   3.117   3.080 -0.0545  0.3662  0.5666
 4415SOL    HW224705   3.050   3.086   3.096  0.7645 -0.0609 -0.6255
 4416SOL     OW24706   2.159   3.652  10.528  0.0200 -0.3584 -0.3517
 4416SOL    HW124707   2.118   3.622  10.446  1.3139  0.4315 -1.2879
 4416SOL    HW224708   2.081   3.697  10.562  1.5151  0.6524  1.7156
 4417SOL     OW24709   0.511   0.917   7.239 -0.2594  0.1181  0.7254
 4417SOL    HW124710   0.485   0.844   7.184  0.7737  0.0896  0.2784
 4417SOL    HW224711   0.458   0.993   7.216 -0.3706 -1.0905 -2.9770
 4418SOL     OW24712   1.557   0.483  14.245  1.0602  0.0773  0.0777
 4418SOL    HW124713   1.609   0.409  14.275 -1.3068 -1.5331  0.2018
 4418SOL    HW224714   1.487   0.483  14.311  0.3507 -1.9855 -0.6720
 4419SOL     OW24715   0.004   3.869   2.593  0.5691 -0.2285  0.5662
 4419SOL    HW124716   0.057   3.790   2.583 -0.3600 -0.8092  0.1710
 4419SOL    HW224717   0.024   3.916   2.512 -1.8156 -0.5928 -0.2472
 4420SOL     OW24718   1.332   1.741  10.029 -0.5558  0.7149 -0.3035
 4420SOL    HW124719   1.299   1.673  10.088 -2.7600  0.6330 -1.6446
 4420SOL    HW224720   1.427   1.727  10.035 -0.8420 -1.4656 -0.9310
 4421SOL     OW24721   1.866   3.908   4.248 -0.5351 -0.1992  0.3445
 4421SOL    HW124722   1.944   3.869   4.287 -0.0750 -0.9098 -1.2806
 4421SOL    HW224723   1.888   3.999   4.231  0.3109 -0.4630  0.0314
 4422SOL     OW24724   1.006   4.066   2.059  0.6668 -0.4210  0.3993
 4422SOL    HW124725   1.084   4.010   2.061 -0.0328 -1.4066 -0.0775
 4422SOL    HW224726   1.044   4.153   2.065  0.4773 -0.2987 -0.2067
 4423SOL     OW24727   4.699   4.276   1.150  0.3330 -0.0074 -0.2926
 4423SOL    HW124728   4.614   4.310   1.121  0.1550 -1.4134 -1.4153
 4423SOL    HW224729   4.677   4.229   1.229  1.9918  1.6375  1.1545
 4424SOL     OW24730   0.474   1.519  10.705 -0.5261  0.2958 -0.0161
 4424SOL    HW124731   0.445   1.611  10.706 -2.5217 -0.3275 -0.2742
 4424SOL    HW224732   0.564   1.525  10.737 -0.1948  0.8060 -1.0178
 4425SOL     OW24733   2.395   4.504  10.498  0.4587 -0.1601  0.0993
 4425SOL    HW124734   2.457   4.523  10.427  1.0888 -0.0429  0.6840
 4425SOL    HW224735   2.319   4.528  10.445  0.2917  1.9094  1.2753
 4426SOL     OW24736   4.708   2.542  16.275  0.5324 -0.1669  0.0560
 4426SOL    HW124737   4.710   2.499  16.360 -0.1836 -2.9899 -1.3219
 4426SOL    HW224738   4.655   2.476  16.229  3.8175 -1.8198 -1.3539
 4427SOL     OW24739   3.993   2.753   6.226 -0.1526  0.0060  0.5867
 4427SOL    HW124740   4.013   2.661   6.241  2.0332  0.6591  1.6937
 4427SOL    HW224741   4.078   2.795   6.239  1.0664 -2.1731 -0.5515
 4428SOL     OW24742   2.309   2.285   3.121  0.9253 -0.0001  0.9636
 4428SOL    HW124743   2.234   2.236   3.155 -0.4347  2.2719  1.2911
 4428SOL    HW224744   2.287   2.369   3.162 -1.4905 -0.4916  0.6849
 4429SOL     OW24745   0.604   4.601  12.688 -0.6088  0.2947  0.3161
 4429SOL    HW124746   0.587   4.695  12.686  1.1855  0.5541 -1.9914
 4429SOL    HW224747   0.697   4.605  12.712 -0.7414 -0.3631  0.9459
 4430SOL     OW24748   2.626   3.965   5.778  0.0064  0.5652 -0.8251
 4430SOL    HW124749   2.685   3.939   5.707  0.2117 -1.6267  0.1452
 4430SOL    HW224750   2.616   3.877   5.815 -3.6602  1.8139  1.1924
 4431SOL     OW24751   3.183   3.340   3.811 -0.4182 -0.3701  0.1250
 4431SOL    HW124752   3.167   3.395   3.888  0.0430 -1.7843  1.2241
 4431SOL    HW224753   3.268   3.308   3.843  0.4486 -0.0448 -1.8849
 4432SOL     OW24754   3.336   0.199   7.571 -0.1726 -0.1315 -0.3728
 4432SOL    HW124755   3.367   0.289   7.579 -3.6960  1.2043 -1.7098
 4432SOL    HW224756   3.242   0.217   7.574 -0.0972  0.6312 -2.6914
 4433SOL     OW24757   2.131   3.734  14.886 -0.0531 -0.3211 -0.0448
 4433SOL    HW124758   2.223   3.715  14.868 -0.3687 -0.6373 -1.2941
 4433SOL    HW224759   2.108   3.809  14.831 -0.6699 -0.4828 -0.0033
 4434SOL     OW24760   0.558   0.065   1.374 -0.1374 -0.4356 -0.3762
 4434SOL    HW124761   0.515   0.139   1.331  0.1621 -0.1762 -0.2352
 4434SOL    HW224762   0.524   4.704   1.338  0.8131 -1.0052  0.0016
 4435SOL     OW24763   2.289   1.626   1.594 -0.4754  0.4833 -0.3957
 4435SOL    HW124764   2.241   1.620   1.511 -0.0968  1.0271 -0.6472
 4435SOL    HW224765   2.245   1.551   1.635 -0.9884  0.7698 -0.4284
 4436SOL     OW24766   2.720   2.954  15.622  0.0370 -0.4419 -0.4775
 4436SOL    HW124767   2.626   2.935  15.614 -0.3897  2.1439 -1.5828
 4436SOL    HW224768   2.745   2.914  15.539 -1.9687 -0.1037 -1.2471
 4437SOL     OW24769   1.263   0.813   8.687  0.6614  0.3036  0.1895
 4437SOL    HW124770   1.356   0.810   8.663  0.8872  2.0587  0.8573
 4437SOL    HW224771   1.216   0.761   8.622  1.3497  0.5805 -0.5313
 4438SOL     OW24772   2.794   4.391   5.209  0.4142  0.0222 -0.1450
 4438SOL    HW124773   2.757   4.366   5.294  1.4574 -1.0352  0.0074
 4438SOL    HW224774   2.857   4.321   5.193  1.7710  1.5986 -1.6473
 4439SOL     OW24775   3.596   0.574  10.206  0.3418 -0.2730  0.2956
 4439SOL    HW124776   3.562   0.569  10.296  0.9647  0.2417  0.5575
 4439SOL    HW224777   3.564   0.657  10.172 -1.1526 -0.7154  0.6195
 4440SOL     OW24778   0.998   0.191   6.878  0.1511  0.3864  0.2849
 4440SOL    HW124779   0.975   0.259   6.941  1.0760  1.6512 -0.7309
 4440SOL    HW224780   1.085   0.177   6.915  0.1087 -1.7002 -0.4364
 4441SOL     OW24781   0.394   0.297   2.861 -0.0010 -0.1868 -0.0448
 4441SOL    HW124782   0.436   0.231   2.916 -1.4360  0.2730  1.5964
 4441SOL    HW224783   0.453   0.300   2.785 -0.0798  2.0357  0.0002
 4442SOL     OW24784   0.919   2.187   4.372  0.0237 -0.1518 -0.2975
 4442SOL    HW124785   0.964   2.254   4.321  1.9020 -0.7540  0.5901
 4442SOL    HW224786   0.881   2.139   4.299 -1.5517 -3.0670  2.4593
 4443SOL     OW24787   1.238   0.204   7.027  0.3091  0.2066 -0.2323
 4443SOL    HW124788   1.315   0.152   7.051 -0.0339 -0.3484 -0.3328
 4443SOL    HW224789   1.220   0.229   7.118  1.8634  0.2387  0.0590
 4444SOL     OW24790   2.088   3.820   3.733 -0.0808 -0.5876 -0.3769
 4444SOL    HW124791   2.011   3.773   3.765  0.6196  0.9141  3.5745
 4444SOL    HW224792   2.109   3.866   3.815 -2.8057  0.3926 -0.2417
 4445SOL     OW24793   3.313   2.634   9.197 -0.3946 -0.5916 -0.5919
 4445SOL    HW124794   3.259   2.692   9.250  0.9418 -1.8362  2.1420
 4445SOL    HW224795   3.251   2.613   9.127 -1.0291  3.6893 -1.2981
 4446SOL     OW24796   1.450   3.575   8.454 -0.1541 -0.5264  0.5000
 4446SOL    HW124797   1.461   3.648   8.514 -2.2279 -0.6497  1.0173
 4446SOL    HW224798   1.490   3.614   8.377 -1.0221 -0.2000  0.2158
 4447SOL     OW24799   3.157   2.685   4.549 -0.5942  0.4154  0.0513
 4447SOL    HW124800   3.147   2.696   4.644 -2.8030 -0.7436 -0.0435
 4447SOL    HW224801   3.106   2.757   4.512  2.1839  0.7277 -3.0740
 4448SOL     OW24802   2.084   4.313   5.727  0.5162 -0.1526  0.0020
 4448SOL    HW124803   2.023   4.239   5.721  0.7055 -0.4855  2.5458
 4448SOL    HW224804   2.063   4.370   5.653 -1.5538 -0.8891  0.0084
 4449SOL     OW24805   0.702   4.401   9.496  0.2676 -0.8538 -0.0351
 4449SOL    HW124806   0.759   4.390   9.420 -0.4536 -0.5893 -0.6024
 4449SOL    HW224807   0.640   4.330   9.482  1.1648 -1.2979 -1.6904
 4450SOL     OW24808   2.360   2.396  16.078 -0.4809  0.2214 -0.6101
 4450SOL    HW124809   2.266   2.395  16.096 -0.2709  0.0788  0.4576
 4450SOL    HW224810   2.362   2.405  15.983 -0.4284  2.7603 -0.3931
 4451SOL     OW24811   0.958   4.172  15.776 -0.5733  0.1357  0.1610
 4451SOL    HW124812   0.958   4.086  15.819  1.8112 -0.3735 -0.8199
 4451SOL    HW224813   0.875   4.172  15.730 -0.4438  2.5610 -0.0403
 4452SOL     OW24814   2.747   2.526   4.694 -0.4252 -0.4231  0.2648
 4452SOL    HW124815   2.795   2.517   4.776 -1.7067 -0.3009  1.0266
 4452SOL    HW224816   2.722   2.435   4.684 -0.5291 -0.5928  2.0978
 4453SOL     OW24817   2.789   1.446  15.614  0.1429 -0.7057 -0.5915
 4453SOL    HW124818   2.884   1.434  15.611  0.5960  2.1108  2.7911
 4453SOL    HW224819   2.773   1.400  15.696  1.4859  0.4604  0.3166
 4454SOL     OW24820   1.149   1.574   4.307 -0.0466 -0.7134 -0.3015
 4454SOL    HW124821   1.219   1.639   4.295 -0.7306 -0.0299 -0.6188
 4454SOL    HW224822   1.163   1.513   4.234 -0.5444 -0.9146 -0.2274
 4455SOL     OW24823   1.307   2.961   8.637 -0.2970 -0.2225 -0.3824
 4455SOL    HW124824   1.324   2.971   8.543  0.5559 -0.4007 -0.2484
 4455SOL    HW224825   1.394   2.981   8.673  0.1819  0.4289 -1.9064
 4456SOL     OW24826   1.087   3.226   7.848  0.3774 -0.5907  0.3447
 4456SOL    HW124827   1.037   3.252   7.925 -0.0009 -3.1040  0.9316
 4456SOL    HW224828   1.172   3.250   7.884  1.0125 -0.4859 -1.2268
 4457SOL     OW24829   1.278   2.134   0.789  0.2619  0.3030 -0.7483
 4457SOL    HW124830   1.237   2.177   0.864  0.0795 -0.6050 -0.3153
 4457SOL    HW224831   1.271   2.200   0.721 -1.4166  0.9885  0.0920
 4458SOL     OW24832   4.008   3.772   8.646  0.9092 -0.1071 -0.3316
 4458SOL    HW124833   4.014   3.707   8.715 -0.3690  0.3350  0.2111
 4458SOL    HW224834   3.953   3.726   8.582 -0.7498  1.0685  0.2283
 4459SOL     OW24835   4.182   2.932   5.156 -0.4216 -0.3207  0.3354
 4459SOL    HW124836   4.124   2.902   5.086 -1.3553 -0.7417  1.3044
 4459SOL    HW224837   4.266   2.956   5.116 -0.2166 -0.5245  0.6414
 4460SOL     OW24838   0.546   1.960   7.491  0.3157 -0.1992  0.3119
 4460SOL    HW124839   0.627   2.005   7.514 -1.5907  1.4374  3.6964
 4460SOL    HW224840   0.586   1.873   7.483  1.0828  0.5030 -3.8182
 4461SOL     OW24841   3.828   4.102   4.445 -0.1378  0.3817  0.2147
 4461SOL    HW124842   3.821   4.065   4.533 -0.7582  2.0828  0.8766
 4461SOL    HW224843   3.918   4.135   4.443 -0.8501  2.2651 -0.1597
 4462SOL     OW24844   2.509   1.128  13.063  0.1408 -0.0655 -0.1213
 4462SOL    HW124845   2.423   1.145  13.026  1.1130  0.9490 -1.9281
 4462SOL    HW224846   2.549   1.072  12.996  3.5705  2.1154  0.1030
 4463SOL     OW24847   4.200   4.653   2.527  0.0417  0.2024  0.2106
 4463SOL    HW124848   4.135   4.628   2.461 -0.2521 -0.1089  0.6185
 4463SOL    HW224849   4.151   4.716   2.581 -1.3035 -0.6086 -0.0734
 4464SOL     OW24850   0.942   2.458   3.679 -0.0275 -0.1293  0.2504
 4464SOL    HW124851   0.972   2.368   3.687  2.9351  1.1438  3.6703
 4464SOL    HW224852   1.012   2.486   3.621 -1.0565  0.5558 -0.6671
 4465SOL     OW24853   0.387   3.824   4.639  0.1274 -0.0765 -0.2284
 4465SOL    HW124854   0.331   3.889   4.682  1.0435  0.1055  0.6948
 4465SOL    HW224855   0.413   3.779   4.719  0.7893  2.0524  0.7483
 4466SOL     OW24856   0.624   0.182   5.062  0.0179 -0.6012  0.2119
 4466SOL    HW124857   0.648   0.090   5.051  2.0424  0.2658 -2.6964
 4466SOL    HW224858   0.539   0.177   5.105  0.1569 -1.1699  0.4143
 4467SOL     OW24859   2.894   1.518   3.994  0.1482  0.0845 -0.0865
 4467SOL    HW124860   2.931   1.461   3.927 -0.9867 -2.7476  1.6779
 4467SOL    HW224861   2.972   1.521   4.048 -1.2476  2.1501  1.8099
 4468SOL     OW24862   1.831   4.076   2.272 -0.2869  0.2520 -0.1935
 4468SOL    HW124863   1.807   4.063   2.180  1.3517  0.9226 -0.7119
 4468SOL    HW224864   1.915   4.120   2.260 -1.6439  2.8924  0.1101
 4469SOL     OW24865   1.555   1.887   2.378  0.6321  0.1262  0.2097
 4469SOL    HW124866   1.603   1.960   2.418  1.2216  0.1880 -0.6186
 4469SOL    HW224867   1.614   1.814   2.394 -0.6625 -0.7925  0.8649
 4470SOL     OW24868   2.627   2.095   7.727 -0.3554  0.1453  0.0043
 4470SOL    HW124869   2.677   2.098   7.809  1.3451 -1.0997 -0.9735
 4470SOL    HW224870   2.707   2.080   7.675 -0.3905 -1.1794  0.3430
 4471SOL     OW24871   1.816   2.604   6.582 -0.6762  0.2789 -0.3051
 4471SOL    HW124872   1.804   2.686   6.534  1.6685  0.6376 -0.3115
 4471SOL    HW224873   1.834   2.640   6.669 -0.4075  0.4927 -0.4488
 4472SOL     OW24874   1.160   1.090  13.215 -0.3214  0.3183  0.4366
 4472SOL    HW124875   1.185   1.180  13.234 -2.0041  0.8943 -0.0455
 4472SOL    HW224876   1.068   1.099  13.239 -0.6894 -1.2403 -0.3524
 4473SOL     OW24877   0.124   2.198  13.742  0.1347  0.0397  0.0779
 4473SOL    HW124878   0.191   2.158  13.686  0.3723 -1.6905  1.6173
 4473SOL    HW224879   0.165   2.284  13.750  0.5437 -0.0218 -1.2575
 4474SOL     OW24880   0.342   1.653   2.189 -0.4819 -0.8167 -0.2676
 4474SOL    HW124881   0.296   1.587   2.241 -2.0880  1.2435  0.9375
 4474SOL    HW224882   0.427   1.609   2.190  0.9056  1.9054  1.7841
 4475SOL     OW24883   0.787   1.973  14.750  0.2000 -0.3360  0.0889
 4475SOL    HW124884   0.851   1.928  14.695 -1.1731 -3.5732  1.1446
 4475SOL    HW224885   0.843   2.014  14.816  0.7191 -2.6607  1.0933
 4476SOL     OW24886   0.518   4.337   4.202 -0.6446  0.6992  0.0047
 4476SOL    HW124887   0.542   4.382   4.283  0.4564  0.4559 -0.1905
 4476SOL    HW224888   0.593   4.278   4.199 -0.9183  0.1641  3.1439
 4477SOL     OW24889   2.087   2.519   1.982 -0.0476 -0.2316  0.0280
 4477SOL    HW124890   2.065   2.600   1.936 -0.0810 -0.6738 -0.7302
 4477SOL    HW224891   2.135   2.548   2.060  0.4082  0.4739 -0.5165
 4478SOL     OW24892   1.732   2.400   7.481 -0.0926  0.3258 -0.4159
 4478SOL    HW124893   1.649   2.354   7.469 -0.2963  0.0950  1.8853
 4478SOL    HW224894   1.711   2.483   7.523  0.7958  1.0769 -1.4199
 4479SOL     OW24895   4.658   4.705   3.215 -0.5624  0.5031  0.0627
 4479SOL    HW124896   4.629   0.017   3.130  1.0511 -1.2169 -1.1486
 4479SOL    HW224897   0.033   4.710   3.209 -0.4274 -2.8018 -0.4862
 4480SOL     OW24898   3.908   0.734   5.436 -0.2078  0.5477  0.0394
 4480SOL    HW124899   3.861   0.809   5.473 -0.4602 -0.3540  1.5457
 4480SOL    HW224900   3.982   0.741   5.497  0.7367  0.3796 -1.0934
 4481SOL     OW24901   1.913   0.071  14.327  0.0202 -0.2827  0.4612
 4481SOL    HW124902   1.848   0.005  14.305  0.9699 -1.3388  0.8169
 4481SOL    HW224903   1.968   0.075  14.248  1.9157 -1.4692  1.7093
 4482SOL     OW24904   1.047   2.624  11.580  0.3472  0.0201  0.1784
 4482SOL    HW124905   1.000   2.555  11.532  0.0207 -0.4943  1.2357
 4482SOL    HW224906   1.034   2.587  11.667  1.8126  0.7316  0.7073
 4483SOL     OW24907   4.103   1.038   5.751  0.1880 -0.1290 -0.1053
 4483SOL    HW124908   4.060   1.076   5.675 -1.4277  0.0383  0.9135
 4483SOL    HW224909   4.035   0.988   5.796  1.3597  0.1552  1.9630
 4484SOL     OW24910   2.296   0.612  17.414 -0.1806 -0.2079  0.1943
 4484SOL    HW124911   2.258   0.665  17.483  1.6103  0.2191  0.8341
 4484SOL    HW224912   2.345   0.549  17.466 -1.3594 -1.8434 -0.6555
 4485SOL     OW24913   0.606   4.177   5.939  0.7481  0.6725  0.5936
 4485SOL    HW124914   0.513   4.184   5.922  0.9720 -0.3931 -1.0560
 4485SOL    HW224915   0.632   4.263   5.973  1.7114  0.2181  1.0154
 4486SOL     OW24916   2.704   2.888   7.364 -0.1120 -0.6561 -0.3168
 4486SOL    HW124917   2.796   2.916   7.368 -0.4421  0.4786 -0.6431
 4486SOL    HW224918   2.684   2.853   7.451  1.6927 -0.4964  0.1669
 4487SOL     OW24919   0.433   0.198   4.216  0.0545  0.3989  0.3165
 4487SOL    HW124920   0.435   0.187   4.311  0.4242 -2.0456  0.0276
 4487SOL    HW224921   0.339   0.210   4.203  0.0915  1.2758  0.8571
 4488SOL     OW24922   4.520   0.322   3.415  0.1460 -0.0984  0.4264
 4488SOL    HW124923   4.552   0.333   3.326  0.4181 -2.3867  0.2335
 4488SOL    HW224924   4.602   0.318   3.464 -1.5463 -0.6415  3.2490
 4489SOL     OW24925   0.494   0.082  11.947  0.2474 -0.1676  0.0693
 4489SOL    HW124926   0.579   0.057  11.982  0.7825  1.2282 -0.2603
 4489SOL    HW224927   0.442   0.095  12.027  0.9148  0.1595  0.4452
 4490SOL     OW24928   2.344   3.466   3.620 -0.0869 -0.9417  0.3970
 4490SOL    HW124929   2.403   3.412   3.566  1.1383 -0.2014  0.9986
 4490SOL    HW224930   2.258   3.460   3.580  0.0160 -2.0864  0.3325
 4491SOL     OW24931   4.469   1.789   5.234  0.1235  0.7480  0.3958
 4491SOL    HW124932   4.512   1.747   5.308 -0.7097 -0.7785  0.0024
 4491SOL    HW224933   4.430   1.860   5.285  0.5176  0.5382  0.9885
 4492SOL     OW24934   1.982   0.951   5.697 -0.0386  0.1579 -0.1738
 4492SOL    HW124935   1.928   0.885   5.740 -0.9772  0.7814 -0.3986
 4492SOL    HW224936   1.956   1.032   5.741 -0.1643 -0.6052  1.1510
 4493SOL     OW24937   1.058   4.002   0.716  0.0197  0.3346 -0.0493
 4493SOL    HW124938   1.099   3.956   0.789 -0.1961  0.3061  0.0551
 4493SOL    HW224939   1.137   4.052   0.696  1.3189 -2.1919 -1.2573
 4494SOL     OW24940   4.073   2.154   0.128  0.6919  0.5734  0.2341
 4494SOL    HW124941   4.027   2.215   0.070 -0.8214  1.6243  2.5184
 4494SOL    HW224942   4.153   2.146   0.076  0.0905 -3.2678 -0.0952
 4495SOL     OW24943   3.925   0.582   6.784  0.3307 -0.0020  0.3271
 4495SOL    HW124944   3.861   0.595   6.714  0.6074 -2.8683 -0.4717
 4495SOL    HW224945   3.930   0.671   6.820 -2.2756 -0.2759  1.3511
 4496SOL     OW24946   3.487   0.005  10.333 -0.0328 -0.5738  0.0738
 4496SOL    HW124947   3.442   0.035  10.412 -0.7985  0.3803 -0.7441
 4496SOL    HW224948   3.553   0.074  10.320  0.4802 -0.8341  1.2641
 4497SOL     OW24949   1.698   3.532  12.934 -0.0099 -0.4138  0.5522
 4497SOL    HW124950   1.689   3.444  12.969 -0.8963 -0.5439 -0.0095
 4497SOL    HW224951   1.697   3.518  12.840 -3.1611 -1.3420  0.7433
 4498SOL     OW24952   4.040   3.651   9.479 -0.6788  0.0852  0.8337
 4498SOL    HW124953   4.095   3.724   9.452  0.1671 -0.1130  2.0158
 4498SOL    HW224954   3.968   3.666   9.417 -1.0848 -0.1270  1.2540
 4499SOL     OW24955   1.924   1.407  14.665 -0.1281 -0.2481  0.4276
 4499SOL    HW124956   1.887   1.348  14.600  0.8892  0.4842 -0.8042
 4499SOL    HW224957   1.893   1.490  14.628  0.1177  0.3407  1.5446
 4500SOL     OW24958   3.567   1.312  16.947 -0.5286 -0.6442  0.5526
 4500SOL    HW124959   3.613   1.363  16.881  1.2299  0.0091  2.2983
 4500SOL    HW224960   3.483   1.357  16.962  0.8745  2.5255 -1.1163
 4501SOL     OW24961   1.947   0.071   7.215  0.2572  0.1586  0.2344
 4501SOL    HW124962   1.921   0.028   7.297  0.9660 -2.4319 -0.8980
 4501SOL    HW224963   2.037   0.039   7.222 -0.0064 -0.7974 -0.8269
 4502SOL     OW24964   4.140   2.279   4.991  0.0212  0.5539 -0.2066
 4502SOL    HW124965   4.211   2.239   4.942 -1.3361 -1.1442 -0.7937
 4502SOL    HW224966   4.126   2.212   5.058 -0.6433  1.0974  0.1996
 4503SOL     OW24967   3.986   2.436   6.302 -0.3726  0.5562  0.1332
 4503SOL    HW124968   4.005   2.343   6.288  1.6378  0.6857  2.0415
 4503SOL    HW224969   3.891   2.428   6.308 -0.2000  0.4517  2.6397
 4504SOL     OW24970   1.767   1.550   1.613  0.4205  0.0267 -0.1199
 4504SOL    HW124971   1.792   1.643   1.616 -0.9246  0.3575  0.4738
 4504SOL    HW224972   1.678   1.553   1.647 -0.0215  1.5783 -1.3642
 4505SOL     OW24973   3.641   3.002   1.062 -0.1652 -0.2701  0.0136
 4505SOL    HW124974   3.682   2.925   1.101 -1.3681 -0.0674  1.6648
 4505SOL    HW224975   3.551   2.975   1.047 -0.4759  1.6747 -1.7234
 4506SOL     OW24976   3.077   3.237  15.102  0.4139 -0.2592  0.0551
 4506SOL    HW124977   3.134   3.186  15.044 -2.0233 -2.0895 -0.7427
 4506SOL    HW224978   3.131   3.224  15.180 -0.2234 -1.4151  0.3109
 4507SOL     OW24979   1.727   0.688   2.716 -0.0883 -0.3858 -0.8394
 4507SOL    HW124980   1.749   0.599   2.741  0.8688 -0.1858 -0.9828
 4507SOL    HW224981   1.762   0.700   2.627  0.1466  1.5369 -0.4838
 4508SOL     OW24982   3.579   1.064   9.369  0.2522  0.1622 -0.5509
 4508SOL    HW124983   3.643   0.993   9.379 -0.0303  0.1789  1.3440
 4508SOL    HW224984   3.630   1.125   9.316  2.2145 -0.7568  0.2763
 4509SOL     OW24985   3.352   4.293   8.331  0.0375  0.1172 -0.3723
 4509SOL    HW124986   3.356   4.287   8.426 -1.5219  0.0246 -0.3148
 4509SOL    HW224987   3.414   4.224   8.309  0.5514  1.3018 -2.6387
 4510SOL     OW24988   2.214   1.965   2.128 -0.1351 -0.1053 -0.2511
 4510SOL    HW124989   2.171   2.045   2.155  0.4174  0.3581 -0.7498
 4510SOL    HW224990   2.233   1.929   2.215  2.1720  0.0719 -0.6787
 4511SOL     OW24991   4.577   2.169   9.895  0.1854  0.3345 -0.2348
 4511SOL    HW124992   4.618   2.108   9.834  0.1111  0.2111 -0.1612
 4511SOL    HW224993   4.647   2.233   9.910 -0.8351  1.7595 -1.4395
 4512SOL     OW24994   3.047   0.790   9.927 -0.2802 -0.1436 -0.0908
 4512SOL    HW124995   2.988   0.807  10.000  0.9917  1.9697  0.4409
 4512SOL    HW224996   3.071   0.875   9.891 -0.8540  0.2456  0.4789
 4513SOL     OW24997   3.104   1.626   2.987  0.0662 -0.7281 -0.2942
 4513SOL    HW124998   3.186   1.654   3.030 -1.1956  0.1542  1.5387
 4513SOL    HW224999   3.081   1.695   2.925 -2.1579 -1.6189 -0.4440
 4514SOL     OW25000   4.450   3.892   4.719 -0.3217 -0.2218 -0.1810
 4514SOL    HW125001   4.375   3.914   4.775  1.0738  1.6315  0.9696
 4514SOL    HW225002   4.481   3.804   4.740  0.9532  0.0612 -0.8734
 4515SOL     OW25003   2.213   2.553   2.228  0.2401  0.1610 -0.4280
 4515SOL    HW125004   2.204   2.635   2.276  0.8462 -0.0517  0.0394
 4515SOL    HW225005   2.277   2.500   2.275 -1.9935  0.0919  2.4652
 4516SOL     OW25006   3.516   0.436   9.985 -0.1402  0.1265  0.7363
 4516SOL    HW125007   3.428   0.472   9.985 -1.2593 -2.5593 -1.0561
 4516SOL    HW225008   3.561   0.490  10.050  2.7650 -2.2304  0.6913
 4517SOL     OW25009   4.279   4.297   5.095  0.3926  0.3382  0.0444
 4517SOL    HW125010   4.327   4.317   5.176 -3.0198 -0.7566  2.2928
 4517SOL    HW225011   4.213   4.248   5.143  0.8257 -0.4899 -0.2151
 4518SOL     OW25012   4.700   0.076   1.266 -0.6193 -0.2414 -0.1114
 4518SOL    HW125013   4.619   0.057   1.220  0.1620  0.3771 -1.7261
 4518SOL    HW225014   0.003   0.152   1.214 -2.1930 -0.9058 -1.8012
 4519SOL     OW25015   1.864   3.263   5.900  0.4148  0.2560 -0.8967
 4519SOL    HW125016   1.859   3.326   5.972  1.5693 -2.2603  1.3850
 4519SOL    HW225017   1.850   3.331   5.833 -0.8862  0.2208 -0.6640
 4520SOL     OW25018   1.717   1.126   6.841 -0.3054 -0.0096 -0.4816
 4520SOL    HW125019   1.735   1.205   6.891  2.6598 -0.5116 -0.7251
 4520SOL    HW225020   1.792   1.080   6.878 -0.2957 -0.1145 -0.6288
 4521SOL     OW25021   3.565   3.967   3.236 -0.3959  0.3254  0.3050
 4521SOL    HW125022   3.473   3.987   3.218 -0.7527 -0.4158  1.3028
 4521SOL    HW225023   3.582   3.876   3.211  0.1272  0.6861 -0.6480
 4522SOL     OW25024   0.112   2.426  12.114 -0.2770  0.4207 -0.1219
 4522SOL    HW125025   0.055   2.487  12.161 -0.7771  1.1863 -1.7304
 4522SOL    HW225026   0.103   2.443  12.020  1.7577 -2.1977 -0.7934
 4523SOL     OW25027   0.534   0.087   4.453  0.2668  0.6973  0.1596
 4523SOL    HW125028   0.601   0.091   4.521  1.6290 -1.2374 -1.0460
 4523SOL    HW225029   0.510   4.715   4.440  0.9777  0.7384 -1.3716
 4524SOL     OW25030   2.083   2.352   4.618  0.1431  0.3048  0.5154
 4524SOL    HW125031   2.006   2.317   4.573  1.1662 -1.4811  0.1857
 4524SOL    HW225032   2.084   2.444   4.590 -2.6151  0.0410 -0.4916
 4525SOL     OW25033   0.424   1.943   5.843 -0.0578  0.3033 -0.3278
 4525SOL    HW125034   0.381   2.019   5.806 -0.6625 -0.8949 -2.0734
 4525SOL    HW225035   0.475   1.909   5.769 -0.0800  0.2647 -0.3257
 4526SOL     OW25036   3.774   1.804   6.969  0.3072  0.1119 -0.2562
 4526SOL    HW125037   3.803   1.884   7.013  1.7407 -1.1590  1.1027
 4526SOL    HW225038   3.694   1.789   7.019  0.9273  3.3602  1.7624
 4527SOL     OW25039   3.841   1.141  12.868  0.1970  0.0721  0.5740
 4527SOL    HW125040   3.858   1.194  12.947  0.4109  0.9343 -0.0536
 4527SOL    HW225041   3.777   1.086  12.913  0.5922 -0.9322 -0.1122
 4528SOL     OW25042   3.712   0.561   5.118  0.3397 -0.3162  0.3285
 4528SOL    HW125043   3.743   0.481   5.076  0.6030 -0.3428  0.5783
 4528SOL    HW225044   3.797   0.589   5.153  0.4925  1.3381 -1.4006
 4529SOL     OW25045   3.260   0.007  10.158  0.2026  0.4633 -0.0240
 4529SOL    HW125046   3.246   0.068  10.086  1.9118 -0.7268 -1.3782
 4529SOL    HW225047   3.355   0.017  10.168  0.4532  0.0119 -1.9438
 4530SOL     OW25048   2.760   0.728   2.789 -0.2156  0.3809 -0.3948
 4530SOL    HW125049   2.767   0.659   2.724 -1.4605 -0.1145 -0.0074
 4530SOL    HW225050   2.851   0.748   2.809 -0.2611  1.2730 -1.0690
 4531SOL     OW25051   2.324   0.998   3.451  0.3350 -0.2988 -0.0190
 4531SOL    HW125052   2.395   0.942   3.485  0.8955  0.5699  0.2547
 4531SOL    HW225053   2.290   0.944   3.380 -0.3491 -0.0770  0.1406
 4532SOL     OW25054   0.533   1.632   4.044 -0.4054  0.3744 -0.3633
 4532SOL    HW125055   0.438   1.623   4.048 -0.2368 -1.1858  0.2423
 4532SOL    HW225056   0.548   1.714   4.091  1.2077 -0.5090  0.6613
 4533SOL     OW25057   1.038   3.333   1.836 -0.3662 -0.0877  0.4941
 4533SOL    HW125058   0.965   3.392   1.816 -1.2319 -0.8407  1.4292
 4533SOL    HW225059   1.087   3.339   1.755 -0.7884 -1.7308  0.1106
 4534SOL     OW25060   0.262   0.156   5.778  0.5465  0.9471  0.2777
 4534SOL    HW125061   0.347   0.121   5.749  0.1152 -0.0404  0.2159
 4534SOL    HW225062   0.266   0.238   5.727  1.4484  0.0658 -1.0893
 4535SOL     OW25063   4.482   0.394  15.993  0.1762  0.4518  0.1667
 4535SOL    HW125064   4.465   0.352  15.909 -0.9182  1.4424 -0.1133
 4535SOL    HW225065   4.576   0.385  16.008  0.2366  0.1979 -0.3868
 4536SOL     OW25066   4.249   2.846   7.423  0.3033  0.3124 -0.5371
 4536SOL    HW125067   4.192   2.915   7.455 -2.4321 -2.5021  0.6629
 4536SOL    HW225068   4.263   2.785   7.496  0.1261  1.2481  0.2822
 4537SOL     OW25069   3.672   0.980   3.357  0.0350  0.1178 -0.1054
 4537SOL    HW125070   3.712   0.897   3.383 -0.5813  0.0305  0.5392
 4537SOL    HW225071   3.620   0.963   3.279  3.7703  0.0433 -2.6121
 4538SOL     OW25072   0.852   2.767  12.877 -0.7059  0.4141 -0.3959
 4538SOL    HW125073   0.794   2.759  12.952  0.5594  1.8947  0.7438
 4538SOL    HW225074   0.804   2.822  12.814  0.0186  0.7005 -0.6979
 4539SOL     OW25075   2.771   1.030   3.343 -0.2903 -0.4214  0.1657
 4539SOL    HW125076   2.712   1.065   3.410 -0.1569  1.9156 -0.8947
 4539SOL    HW225077   2.743   0.939   3.333  0.6685 -0.5715 -1.2018
 4540SOL     OW25078   3.816   1.053   5.305  0.0353 -0.4383  0.1635
 4540SOL    HW125079   3.850   0.966   5.285  0.5141 -0.0435 -0.7393
 4540SOL    HW225080   3.725   1.025   5.322  1.1912 -4.3851 -0.0933
 4541SOL     OW25081   1.892   3.437   1.628  0.2313  0.3101  0.6344
 4541SOL    HW125082   1.970   3.395   1.665 -0.1144  0.6657  1.7527
 4541SOL    HW225083   1.922   3.527   1.641  0.4709  0.5706 -1.6862
 4542SOL     OW25084   0.674   0.411   7.469  0.2342  0.6146 -0.2363
 4542SOL    HW125085   0.658   0.318   7.451 -1.9541  0.8727  0.3535
 4542SOL    HW225086   0.583   0.440   7.471 -0.5118 -1.7330 -0.1925
 4543SOL     OW25087   0.781   4.346   7.199  0.4073 -0.0670 -0.2389
 4543SOL    HW125088   0.784   4.263   7.151  1.5277 -0.6039  0.7931
 4543SOL    HW225089   0.691   4.340   7.231  0.6185  0.9040  0.5258
 4544SOL     OW25090   0.674   1.144  12.637 -0.3642  0.5045  0.4867
 4544SOL    HW125091   0.768   1.155  12.626 -0.2042 -0.9970  0.3247
 4544SOL    HW225092   0.668   1.107  12.725  0.6254  0.0516  0.3682
 4545SOL     OW25093   1.893   2.019   6.522  0.3724  0.3638 -0.0875
 4545SOL    HW125094   1.814   2.067   6.546 -0.6076 -1.2210 -0.1216
 4545SOL    HW225095   1.870   1.927   6.536 -0.2269  0.6870  1.0705
 4546SOL     OW25096   4.129   2.625   3.729  0.7981 -0.1804 -0.5317
 4546SOL    HW125097   4.137   2.689   3.800 -0.3658 -1.6047  0.8804
 4546SOL    HW225098   4.220   2.612   3.704  0.5156 -0.6229 -1.3423
 4547SOL     OW25099   0.997   3.876   6.395  0.5364 -0.2241 -0.8914
 4547SOL    HW125100   1.033   3.907   6.312 -0.1665  0.1209 -1.0716
 4547SOL    HW225101   0.906   3.901   6.378  0.1255  0.1389  1.7866
 4548SOL     OW25102   0.091   2.262  17.390 -0.6582 -0.1278 -0.3701
 4548SOL    HW125103   0.018   2.227  17.340 -1.8829  2.2132 -0.2309
 4548SOL    HW225104   0.160   2.221  17.338  0.4734 -1.5855  2.3116
 4549SOL     OW25105   2.632   0.754  13.137  0.3632 -0.1969  0.3831
 4549SOL    HW125106   2.568   0.739  13.206  0.1330 -1.1872 -0.0493
 4549SOL    HW225107   2.696   0.801  13.190  1.2425 -1.3419  0.3477
 4550SOL     OW25108   3.621   0.705   8.686  0.1143 -0.0781 -0.8904
 4550SOL    HW125109   3.684   0.776   8.672 -0.2126  0.2354 -0.7593
 4550SOL    HW225110   3.538   0.752   8.681  0.5330  0.5610 -2.0234
 4551SOL     OW25111   2.575   4.380  15.190 -0.5609 -0.2766  0.3834
 4551SOL    HW125112   2.529   4.384  15.274 -1.1843  1.7406 -0.0487
 4551SOL    HW225113   2.608   4.469  15.177  0.9127 -0.6353  1.5500
 4552SOL     OW25114   3.373   3.311   5.489  0.2153 -0.1357 -0.2936
 4552SOL    HW125115   3.463   3.317   5.522  0.3560 -0.5271 -0.6204
 4552SOL    HW225116   3.332   3.286   5.572 -1.2941  1.0109 -0.6949
 4553SOL     OW25117   0.529   1.637   4.615  0.1364  0.1303  0.1251
 4553SOL    HW125118   0.610   1.678   4.584  0.7933 -0.0290  1.6028
 4553SOL    HW225119   0.461   1.657   4.550  0.7824 -0.3805 -0.7010
 4554SOL     OW25120   3.383   1.828   4.261  0.1504 -0.2291 -0.3141
 4554SOL    HW125121   3.437   1.808   4.338 -0.2296  2.4542  0.6473
 4554SOL    HW225122   3.325   1.885   4.312 -1.3261  1.1493 -3.5556
 4555SOL     OW25123   4.513   4.423  10.001 -0.0941  0.2137  0.5516
 4555SOL    HW125124   4.438   4.368   9.979 -0.3572  0.9121 -0.2886
 4555SOL    HW225125   4.476   4.478  10.070 -0.0625 -0.8366  1.4159
 4556SOL     OW25126   4.678   4.706   3.595  0.4005 -0.0381  0.0904
 4556SOL    HW125127   4.666   4.691   3.501  0.4095  1.0962 -0.0970
 4556SOL    HW225128   0.050   0.010   3.600 -0.1429  1.2364  3.9278
 4557SOL     OW25129   3.387   4.057   9.561  0.4132  0.3696 -0.4169
 4557SOL    HW125130   3.303   4.095   9.587  0.4038  0.0040  0.0806
 4557SOL    HW225131   3.371   4.029   9.471  0.2201 -0.7581 -0.0241
 4558SOL     OW25132   3.731   3.093  10.767  0.2143 -0.3918  0.5286
 4558SOL    HW125133   3.712   3.181  10.734  1.0295 -0.4782 -0.1580
 4558SOL    HW225134   3.652   3.043  10.747  0.8136 -0.5651 -1.4404
 4559SOL     OW25135   0.649   2.456   0.373 -0.5116 -0.3180 -0.1469
 4559SOL    HW125136   0.696   2.522   0.322  1.3869 -0.5269  1.3265
 4559SOL    HW225137   0.640   2.388   0.306  1.3522  0.4366 -1.1490
 4560SOL     OW25138   1.240   2.169   4.683 -0.1332  0.7431  0.2102
 4560SOL    HW125139   1.221   2.187   4.775 -2.1601 -1.3069  0.1982
 4560SOL    HW225140   1.212   2.078   4.680 -0.2728  0.8233 -1.0897
 4561SOL     OW25141   2.830   1.602   6.512 -0.4025  0.0398  0.5032
 4561SOL    HW125142   2.895   1.672   6.504  1.2963 -1.4744  1.0581
 4561SOL    HW225143   2.877   1.525   6.479 -2.1895 -0.3817 -1.1022
 4562SOL     OW25144   0.792   3.046  16.909  0.2327  0.0636  0.0970
 4562SOL    HW125145   0.732   3.051  16.984  1.3747  0.7361  0.9607
 4562SOL    HW225146   0.738   3.089  16.843  2.0492  1.3459 -0.5614
 4563SOL     OW25147   1.626   2.427   1.076  0.0888 -0.0882 -0.9136
 4563SOL    HW125148   1.599   2.348   1.123 -1.2920  0.7390 -0.3202
 4563SOL    HW225149   1.541   2.464   1.056  0.3813  0.3586 -1.3255
 4564SOL     OW25150   4.592   4.065   7.173  0.3672  0.0594  0.3878
 4564SOL    HW125151   4.517   4.008   7.190  0.0264  0.4540  0.2042
 4564SOL    HW225152   4.601   4.120   7.251 -2.8129  0.4929  0.4698
 4565SOL     OW25153   4.531   4.251   9.428 -0.0209 -0.1266  0.9335
 4565SOL    HW125154   4.564   4.165   9.399  5.1478  2.0516  0.4308
 4565SOL    HW225155   4.448   4.227   9.470 -1.1214  0.1258 -1.0939
 4566SOL     OW25156   1.637   3.291   4.661  0.0979 -0.2528  0.7587
 4566SOL    HW125157   1.694   3.222   4.627  0.1868  0.7651 -1.1243
 4566SOL    HW225158   1.558   3.265   4.614  0.4190  1.5285 -0.7285
 4567SOL     OW25159   4.412   0.907   5.291 -0.5611  0.5204 -0.2778
 4567SOL    HW125160   4.435   0.948   5.374 -0.6955  2.1006 -1.0216
 4567SOL    HW225161   4.464   0.952   5.225 -0.1600 -1.7820 -1.5172
 4568SOL     OW25162   1.972   2.286   7.583 -0.7413  0.5021 -0.0430
 4568SOL    HW125163   1.887   2.300   7.541 -0.5077 -1.1396 -1.0667
 4568SOL    HW225164   2.032   2.346   7.539 -1.6191 -0.1615 -2.1607
 4569SOL     OW25165   2.373   0.056   9.309  0.0457 -0.2977  0.2383
 4569SOL    HW125166   2.328   4.693   9.298 -0.3578  0.4015 -3.2987
 4569SOL    HW225167   2.396   0.065   9.216  0.9472 -0.4986  0.4422
 4570SOL     OW25168   0.151   2.709   7.061  0.2296 -0.3129 -0.7870
 4570SOL    HW125169   0.097   2.744   7.133  1.4118  0.5191 -0.3132
 4570SOL    HW225170   0.239   2.706   7.098  0.4335 -1.1065 -1.3386
 4571SOL     OW25171   1.607   0.948   2.378 -0.0532 -0.4757  0.0162
 4571SOL    HW125172   1.538   0.886   2.352 -0.2074  0.6997 -2.3283
 4571SOL    HW225173   1.603   1.001   2.299 -0.1018  1.3332  1.2348
 4572SOL     OW25174   1.864   1.817   1.653  0.2987 -0.1644 -0.0975
 4572SOL    HW125175   1.840   1.898   1.698 -1.2930 -0.9156  0.3891
 4572SOL    HW225176   1.953   1.808   1.687  0.6967 -2.3841 -1.7399
 4573SOL     OW25177   2.574   4.043   2.398  0.2165 -0.2569 -0.8120
 4573SOL    HW125178   2.640   4.096   2.443  0.4617 -2.1245  1.0514
 4573SOL    HW225179   2.558   4.087   2.314  1.3297  0.8714 -0.4437
 4574SOL     OW25180   2.485   0.381   0.919  0.5203 -0.2070  0.0595
 4574SOL    HW125181   2.455   0.308   0.864 -1.6647  0.1008  0.8531
 4574SOL    HW225182   2.429   0.372   0.996  0.5795 -0.4780  0.0708
 4575SOL     OW25183   3.783   0.474  15.331 -0.2178  0.1654  0.2295
 4575SOL    HW125184   3.876   0.466  15.350 -0.3925 -1.2425  0.5399
 4575SOL    HW225185   3.756   0.449  15.420 -2.5588  0.8085 -0.2957
 4576SOL     OW25186   2.301   2.526  11.872  0.2500  0.1576 -0.1624
 4576SOL    HW125187   2.325   2.533  11.780  1.1746 -0.7870  0.0044
 4576SOL    HW225188   2.284   2.432  11.869  2.0799 -0.1960  0.5118
 4577SOL     OW25189   1.672   3.393   7.305  0.0400  0.7417  0.1214
 4577SOL    HW125190   1.698   3.301   7.298  1.3352  1.0624  0.6869
 4577SOL    HW225191   1.598   3.380   7.246  0.3727  0.9381 -0.3458
 4578SOL     OW25192   2.874   4.063   7.264  0.1139 -0.8894  0.0383
 4578SOL    HW125193   2.906   3.986   7.217  0.2458 -1.5910  1.2885
 4578SOL    HW225194   2.782   4.070   7.238  0.2084  2.6100  0.6154
 4579SOL     OW25195   0.380   2.736   3.110  0.5189 -0.1478 -0.6492
 4579SOL    HW125196   0.358   2.812   3.164  0.4469 -0.2906 -0.4788
 4579SOL    HW225197   0.331   2.745   3.029 -0.4314 -1.6266 -0.2466
 4580SOL     OW25198   3.446   3.178   3.205  0.3504  0.2532  0.2046
 4580SOL    HW125199   3.390   3.149   3.133 -0.7777 -0.3322  1.3276
 4580SOL    HW225200   3.459   3.093   3.248  0.4813 -0.3105 -0.9284
 4581SOL     OW25201   3.982   0.434   7.879  0.1611 -0.2362 -0.3708
 4581SOL    HW125202   4.073   0.440   7.908 -0.1421 -1.7819  0.8681
 4581SOL    HW225203   3.936   0.408   7.958 -1.1052  3.2452  0.0352
 4582SOL     OW25204   3.874   2.285   3.898 -0.1576 -0.2641  0.4975
 4582SOL    HW125205   3.846   2.194   3.892 -3.1384  0.6860 -0.0201
 4582SOL    HW225206   3.957   2.269   3.944 -1.4301  1.6869  3.4710
 4583SOL     OW25207   0.226   4.357   0.610  0.0032 -0.1798 -0.4405
 4583SOL    HW125208   0.225   4.271   0.566  0.1513  1.0618 -2.8885
 4583SOL    HW225209   0.145   4.399   0.583 -1.2396 -1.0240  2.0567
 4584SOL     OW25210   4.341   1.454   1.058  0.3103  0.7787  0.5006
 4584SOL    HW125211   4.318   1.468   0.966  1.3778  1.3546  0.3174
 4584SOL    HW225212   4.256   1.417   1.082 -0.9079  3.5025  0.4238
 4585SOL     OW25213   4.181   1.898  10.531  0.1681  0.0122  0.2841
 4585SOL    HW125214   4.221   1.920  10.447 -0.1307  2.2373  0.7213
 4585SOL    HW225215   4.109   1.959  10.520  0.1970 -0.1235 -0.6829
 4586SOL     OW25216   3.620   0.139  12.979  0.1009 -0.9010  0.3771
 4586SOL    HW125217   3.684   0.083  13.024  1.9849 -1.0827 -2.4925
 4586SOL    HW225218   3.665   0.224  12.974  1.3156 -1.5752 -0.3063
 4587SOL     OW25219   3.977   4.488   5.236  0.2079 -0.2086  0.4436
 4587SOL    HW125220   4.038   4.505   5.165  0.5547 -2.0229  0.2958
 4587SOL    HW225221   3.905   4.547   5.214  0.5185  0.0572  0.1427
 4588SOL     OW25222   4.612   3.233   2.870 -0.4368  0.2901  0.6531
 4588SOL    HW125223   4.652   3.280   2.943 -0.6057  0.4568  0.6396
 4588SOL    HW225224   4.593   3.152   2.917  1.0602  0.4275  1.4781
 4589SOL     OW25225   0.507   4.038   7.335 -0.0711  0.3848  0.3640
 4589SOL    HW125226   0.419   4.066   7.359 -0.1135  0.3321  0.2694
 4589SOL    HW225227   0.495   3.945   7.315  0.2161  0.6025 -0.7989
 4590SOL     OW25228   2.716   1.356   5.033  0.0299  0.0719  0.2123
 4590SOL    HW125229   2.766   1.307   5.098 -0.7743  0.0459  0.8164
 4590SOL    HW225230   2.647   1.291   5.016  0.7700 -1.0512  1.5786
 4591SOL     OW25231   3.887   1.307  12.368  0.7872 -0.6425  0.8112
 4591SOL    HW125232   3.841   1.227  12.341  0.5962 -0.5591  0.8981
 4591SOL    HW225233   3.862   1.316  12.460  1.1608 -1.2918  0.9754
 4592SOL     OW25234   0.563   1.957  11.484 -0.3545  0.2468  0.1247
 4592SOL    HW125235   0.623   2.031  11.471  0.6368 -0.9556 -1.9962
 4592SOL    HW225236   0.628   1.894  11.514 -0.4211  0.7822  1.3905
 4593SOL     OW25237   3.294   4.319   8.890  0.0658 -0.2853 -0.2108
 4593SOL    HW125238   3.278   4.225   8.895  0.9162 -0.3575  1.0609
 4593SOL    HW225239   3.219   4.359   8.933 -0.8292  1.9673 -3.7947
 4594SOL     OW25240   1.435   1.981   8.429  0.2122 -0.0156  0.0576
 4594SOL    HW125241   1.391   1.982   8.514  0.3775 -2.5641  0.1749
 4594SOL    HW225242   1.506   1.917   8.437 -1.3769 -1.8611 -0.5270
 4595SOL     OW25243   1.482   3.488   0.720  0.2698 -0.5115 -0.3249
 4595SOL    HW125244   1.576   3.466   0.720  1.1730  3.2718  0.4956
 4595SOL    HW225245   1.487   3.571   0.767  0.4744 -1.4375  1.2586
 4596SOL     OW25246   0.725   0.832   6.344  0.6702 -0.9647  0.7835
 4596SOL    HW125247   0.792   0.788   6.395 -1.5802 -3.0724  1.9350
 4596SOL    HW225248   0.675   0.880   6.410  3.3571  0.1108  2.0454
 4597SOL     OW25249   0.991   2.486   8.520  0.3761 -0.2374 -0.5667
 4597SOL    HW125250   0.939   2.566   8.510 -0.4721 -0.9314 -1.7574
 4597SOL    HW225251   1.022   2.482   8.610 -2.4848  0.0865  0.4304
 4598SOL     OW25252   1.615   1.524   4.883 -0.0137  0.3174 -0.1715
 4598SOL    HW125253   1.680   1.475   4.833 -0.7302 -1.7489  0.9028
 4598SOL    HW225254   1.650   1.519   4.972 -0.2169  0.8173 -0.0655
 4599SOL     OW25255   3.667   3.147   1.755  0.3797  0.1312  0.2981
 4599SOL    HW125256   3.713   3.159   1.672 -1.5110 -1.3316 -0.9803
 4599SOL    HW225257   3.641   3.239   1.762  2.1075  0.6177  0.2563
 4600SOL     OW25258   3.187   3.611   7.247  0.2950 -0.0658  0.0411
 4600SOL    HW125259   3.200   3.529   7.198 -1.4149 -0.9060  0.9903
 4600SOL    HW225260   3.149   3.659   7.174 -0.0122  1.8257  1.4418
 4601SOL     OW25261   1.426   0.222   4.435  0.2719  0.2441 -0.0483
 4601SOL    HW125262   1.520   0.209   4.423  0.2854  1.3158 -1.1449
 4601SOL    HW225263   1.402   0.130   4.440 -1.3314  0.7442  1.2529
 4602SOL     OW25264   1.672   4.088   7.389 -0.3555 -0.5306  0.1304
 4602SOL    HW125265   1.736   4.146   7.348 -0.8851 -1.4573 -2.0249
 4602SOL    HW225266   1.675   4.018   7.324 -0.3560  1.2749 -1.8000
 4603SOL     OW25267   4.004   3.072  10.844 -0.2414 -0.2631 -0.3602
 4603SOL    HW125268   3.916   3.090  10.811 -1.0849  1.1958  2.6776
 4603SOL    HW225269   3.997   3.055  10.938  0.2958  1.1053 -0.0714
 4604SOL     OW25270   0.351   3.202   1.598  0.0534 -0.0390 -0.1886
 4604SOL    HW125271   0.322   3.193   1.507 -1.3135  3.5098 -0.1224
 4604SOL    HW225272   0.442   3.174   1.588 -0.9100 -3.1615 -0.0790
 4605SOL     OW25273   4.643   1.438  14.546 -0.1849  1.1300 -0.2260
 4605SOL    HW125274   4.672   1.528  14.528  3.8859 -0.2640 -0.6594
 4605SOL    HW225275   4.658   1.403  14.458  0.2887  2.3898 -0.6443
 4606SOL     OW25276   0.932   2.765   9.201 -0.1921 -0.3281 -0.1425
 4606SOL    HW125277   0.854   2.781   9.148 -0.5788  1.9477  1.1142
 4606SOL    HW225278   0.969   2.691   9.151  1.3916  1.1740 -1.2177
 4607SOL     OW25279   0.964   2.540  12.452  0.1071  0.5364  0.3918
 4607SOL    HW125280   0.973   2.631  12.423 -0.6199  0.7076  0.7179
 4607SOL    HW225281   1.055   2.512  12.445 -0.8297 -2.5590  0.7636
 4608SOL     OW25282   3.518   2.445  13.564 -0.3653 -0.9173  0.6985
 4608SOL    HW125283   3.506   2.529  13.519  2.0816 -0.1362  1.4945
 4608SOL    HW225284   3.507   2.454  13.659  0.9818 -2.2376  0.9741
 4609SOL     OW25285   4.114   2.792   5.869 -0.0732  0.0415  0.1473
 4609SOL    HW125286   4.106   2.772   5.776 -1.1503  0.2320  0.2015
 4609SOL    HW225287   4.030   2.769   5.909  2.2788 -3.3225  3.2609
 4610SOL     OW25288   1.870   0.219   8.758 -0.5285 -0.6808 -0.2426
 4610SOL    HW125289   1.878   0.304   8.801 -2.0496 -1.4046  1.4502
 4610SOL    HW225290   1.815   0.167   8.816 -1.5062 -0.0301 -0.5858
 4611SOL     OW25291   1.710   4.077   2.899  0.1048  0.0458  0.0053
 4611SOL    HW125292   1.758   4.117   2.826 -0.5901 -1.5993 -1.3437
 4611SOL    HW225293   1.720   3.986   2.872 -0.8341 -0.0301 -0.0669
 4612SOL     OW25294   1.687   3.572   2.110 -0.9609  0.2233 -0.2815
 4612SOL    HW125295   1.768   3.621   2.127 -1.8098  1.4941  0.0453
 4612SOL    HW225296   1.688   3.540   2.020 -0.5704 -0.4074 -0.0570
 4613SOL     OW25297   2.636   2.648  14.934 -0.3102 -0.3668 -0.1113
 4613SOL    HW125298   2.555   2.691  14.960  0.6657  1.0311  0.5960
 4613SOL    HW225299   2.679   2.708  14.873  0.9295 -0.1620  0.9551
 4614SOL     OW25300   4.551   1.954   2.015  0.2765  0.1930 -0.2707
 4614SOL    HW125301   4.555   1.860   2.001 -0.8288 -0.0044  0.7008
 4614SOL    HW225302   4.502   1.974   1.935 -1.4499 -2.6187  0.0663
 4615SOL     OW25303   3.403   2.645   9.815  0.0693  0.0279  0.6553
 4615SOL    HW125304   3.448   2.728   9.834 -0.7383  0.3941  0.9776
 4615SOL    HW225305   3.453   2.576   9.858  0.7379 -1.3326 -2.3195
 4616SOL     OW25306   1.642   2.290  11.139  0.2615  0.0414 -0.4938
 4616SOL    HW125307   1.585   2.303  11.215  1.9254 -0.6573  0.8761
 4616SOL    HW225308   1.666   2.199  11.155 -0.0258 -0.2190 -1.5980
 4617SOL     OW25309   3.343   3.975   9.296 -0.5529 -0.4692 -0.2345
 4617SOL    HW125310   3.389   3.908   9.245 -0.6792 -1.8278  1.4408
 4617SOL    HW225311   3.252   3.951   9.280 -0.7208 -0.0730  0.1004
 4618SOL     OW25312   3.107   0.511   8.115  0.0956  0.2269 -0.0754
 4618SOL    HW125313   3.179   0.465   8.158 -0.9318  1.3792  2.8340
 4618SOL    HW225314   3.144   0.515   8.026  1.0525  0.5401  0.3355
 4619SOL     OW25315   3.681   4.186   4.232  0.5429  0.1608  0.2291
 4619SOL    HW125316   3.644   4.104   4.199 -0.1788  1.0731 -1.2058
 4619SOL    HW225317   3.694   4.166   4.325 -2.5951  1.6382  1.0097
 4620SOL     OW25318   2.495   2.429  15.405 -1.1690  0.5059  0.6480
 4620SOL    HW125319   2.422   2.448  15.345 -0.1823  1.4708 -0.2418
 4620SOL    HW225320   2.562   2.452  15.341 -2.3618  1.4759 -0.2653
 4621SOL     OW25321   1.746   2.188  13.984 -0.3551 -0.0498  0.3293
 4621SOL    HW125322   1.671   2.203  14.040  1.1960 -1.1013  2.6819
 4621SOL    HW225323   1.800   2.266  13.994  0.2060  0.0738 -3.7381
 4622SOL     OW25324   2.041   0.358   2.207  0.4822  0.4601 -0.1700
 4622SOL    HW125325   2.116   0.299   2.204 -0.6471 -0.9944  0.4369
 4622SOL    HW225326   2.011   0.344   2.297 -0.1151  2.1434 -0.1095
 4623SOL     OW25327   3.930   3.908   0.675  0.3863 -0.1270 -0.3569
 4623SOL    HW125328   4.016   3.931   0.710  0.6110  0.4562 -1.2836
 4623SOL    HW225329   3.888   3.850   0.738 -0.8390  1.8971  0.7037
 4624SOL     OW25330   2.222   3.216  10.420 -0.0050 -0.0980  0.0100
 4624SOL    HW125331   2.167   3.148  10.459  0.7884 -0.1247  1.1040
 4624SOL    HW225332   2.301   3.205  10.472 -0.1400 -0.3790  0.1563
 4625SOL     OW25333   1.329   2.907  10.800  0.3054 -0.4148  0.1077
 4625SOL    HW125334   1.234   2.919  10.792  0.2082 -1.2348  0.0276
 4625SOL    HW225335   1.349   2.814  10.808 -1.6283 -1.0195 -2.1018
 4626SOL     OW25336   2.292   3.434   2.867  0.7906 -0.2810 -0.4287
 4626SOL    HW125337   2.380   3.439   2.905 -0.2366  1.1095  1.7213
 4626SOL    HW225338   2.254   3.355   2.906 -0.6282  1.3553  1.5009
 4627SOL     OW25339   2.558   1.562   1.564  0.2085 -0.0638  0.6000
 4627SOL    HW125340   2.528   1.473   1.546  0.4096  0.1823 -0.9572
 4627SOL    HW225341   2.477   1.602   1.596  1.0060  1.7982  0.2767
 4628SOL     OW25342   3.092   2.886   6.736 -0.4606 -0.2431 -0.4548
 4628SOL    HW125343   3.183   2.868   6.759 -0.3894  0.1603 -0.4158
 4628SOL    HW225344   3.052   2.805   6.768  0.3892 -0.3574  0.3062
 4629SOL     OW25345   3.018   0.067   2.270  0.4420 -0.0320  0.0315
 4629SOL    HW125346   2.991   0.095   2.357  1.3987 -1.6793  0.8669
 4629SOL    HW225347   2.942   0.016   2.241  0.7423 -0.6083  0.2418
 4630SOL     OW25348   2.985   2.818   1.617 -0.2779 -0.4270  0.4051
 4630SOL    HW125349   2.965   2.741   1.563 -0.1035  0.2153 -0.5873
 4630SOL    HW225350   2.948   2.881   1.555 -2.2807 -0.4335  1.6047
 4631SOL     OW25351   0.464   2.704   9.205 -0.4351 -0.0612 -0.2986
 4631SOL    HW125352   0.381   2.718   9.159 -0.5962  0.1038  0.0419
 4631SOL    HW225353   0.455   2.613   9.234  0.2957 -0.0710 -0.1046
 4632SOL     OW25354   2.010   3.367   8.167 -0.1524 -0.0469 -0.1845
 4632SOL    HW125355   1.927   3.415   8.170  0.6223  1.2995 -0.2020
 4632SOL    HW225356   1.982   3.296   8.110 -2.2559  0.4417  0.2433
 4633SOL     OW25357   3.778   3.401  10.453 -0.0670 -0.1218  0.0689
 4633SOL    HW125358   3.729   3.335  10.502  2.1452 -2.8859 -1.4705
 4633SOL    HW225359   3.770   3.477  10.512  0.9680  0.9471 -1.1457
 4634SOL     OW25360   2.271   3.320   7.883  0.4629  0.5011 -0.3658
 4634SOL    HW125361   2.308   3.402   7.917 -0.1625  1.6682 -2.5111
 4634SOL    HW225362   2.189   3.348   7.843  0.4774 -0.3223 -0.9844
 4635SOL     OW25363   3.598   0.750   1.316  0.5890 -0.1592 -0.3004
 4635SOL    HW125364   3.563   0.697   1.245  2.7076 -1.0660 -0.6765
 4635SOL    HW225365   3.518   0.767   1.365  0.1583  0.7716 -1.3274
 4636SOL     OW25366   0.139   3.547   1.991  0.7412 -0.3447 -0.2432
 4636SOL    HW125367   0.132   3.489   1.915 -2.1172  0.2167 -0.4067
 4636SOL    HW225368   0.047   3.551   2.019  1.5922 -0.7837  2.5501
 4637SOL     OW25369   2.578   4.467   9.995 -0.3700  0.2537 -0.4372
 4637SOL    HW125370   2.582   4.371   9.989 -1.7901  0.1789 -0.3838
 4637SOL    HW225371   2.492   4.489  10.031 -0.7739 -1.8535 -0.0857
 4638SOL     OW25372   1.095   1.319   3.529  0.2376 -0.3136  0.5240
 4638SOL    HW125373   1.015   1.333   3.479  1.0992 -1.0129 -1.0814
 4638SOL    HW225374   1.091   1.402   3.576 -0.3711 -0.4121  0.6370
 4639SOL     OW25375   0.792   4.068   5.530  0.3525  0.1665  0.0715
 4639SOL    HW125376   0.735   4.039   5.601  0.2467  0.9601  0.3128
 4639SOL    HW225377   0.756   4.156   5.541  1.2272  0.4436  0.6872
 4640SOL     OW25378   4.195   3.099   5.710 -0.6930 -0.1884  0.0552
 4640SOL    HW125379   4.159   3.174   5.662  2.8950  1.8268  0.4588
 4640SOL    HW225380   4.152   3.109   5.795  0.9161  1.1621  0.7084
 4641SOL     OW25381   1.921   2.224  12.716  0.1721  0.1274  0.8927
 4641SOL    HW125382   1.883   2.248  12.801  0.8132  2.2278  0.5774
 4641SOL    HW225383   1.988   2.292  12.707 -0.3335  0.5520  0.3202
 4642SOL     OW25384   0.316   1.057   9.003  0.4554 -0.6483  0.6377
 4642SOL    HW125385   0.278   1.009   8.930  3.1320  0.1504 -1.3124
 4642SOL    HW225386   0.406   1.025   9.003  0.9813  0.8252 -0.1973
 4643SOL     OW25387   4.136   3.960   9.120 -0.0207 -0.0964  0.0417
 4643SOL    HW125388   4.198   3.887   9.111 -0.4816 -0.7245  1.9655
 4643SOL    HW225389   4.192   4.031   9.152 -0.0981  0.1362 -0.3325
 4644SOL     OW25390   1.253   1.498   9.715 -0.1051 -0.2459 -0.3959
 4644SOL    HW125391   1.304   1.440   9.659 -2.4527 -1.5676 -1.1835
 4644SOL    HW225392   1.201   1.547   9.651  0.8001  0.2462 -0.7567
 4645SOL     OW25393   0.513   1.840  13.013 -0.8121  0.1259 -0.0326
 4645SOL    HW125394   0.477   1.900  12.948 -0.2236  0.5067 -0.0084
 4645SOL    HW225395   0.596   1.807  12.980 -0.8755  0.3746 -0.4322
 4646SOL     OW25396   2.353   2.698  16.049 -0.2298 -0.1275  0.1030
 4646SOL    HW125397   2.440   2.730  16.072  0.1440 -1.1870  0.1504
 4646SOL    HW225398   2.348   2.607  16.079 -0.9570 -0.1628 -0.1379
 4647SOL     OW25399   0.854   1.673  15.313  0.3319  0.0660 -0.1509
 4647SOL    HW125400   0.873   1.746  15.254  0.9961  0.0260  0.0188
 4647SOL    HW225401   0.819   1.607  15.252 -0.1476  1.0464 -0.9366
 4648SOL     OW25402   2.014   3.565  10.306 -0.1532  0.4415  0.2950
 4648SOL    HW125403   1.953   3.610  10.248 -0.9311  0.4711  1.1335
 4648SOL    HW225404   1.949   3.518  10.359  1.5837 -1.3408  0.8621
 4649SOL     OW25405   1.011   2.350   6.314 -0.0481 -0.2235  0.1635
 4649SOL    HW125406   0.960   2.292   6.257 -0.9385  0.2634  0.4629
 4649SOL    HW225407   1.061   2.401   6.251 -0.5577 -0.7839 -0.6933
 4650SOL     OW25408   2.127   3.333   1.716 -0.0686 -0.3877 -0.3381
 4650SOL    HW125409   2.184   3.395   1.671  1.2542 -1.5340 -0.2302
 4650SOL    HW225410   2.172   3.250   1.702  0.1284 -0.6504  1.8663
 4651SOL     OW25411   4.681   4.111   7.744  0.0287  0.1660  0.2931
 4651SOL    HW125412   4.620   4.060   7.798  0.6504 -1.1081 -0.2183
 4651SOL    HW225413   4.625   4.168   7.691 -0.7303  0.8580  1.8280
 4652SOL     OW25414   2.590   3.401   1.777 -0.3500 -0.2435  0.0828
 4652SOL    HW125415   2.498   3.412   1.800 -0.5422  1.0266 -1.2997
 4652SOL    HW225416   2.588   3.308   1.799  1.5954  0.3724  2.9407
 4653SOL     OW25417   1.182   2.564   1.237  0.3516  0.0720  0.5349
 4653SOL    HW125418   1.187   2.472   1.264 -0.8968 -0.3995 -0.8619
 4653SOL    HW225419   1.255   2.582   1.179  0.2524 -1.5704 -0.1059
 4654SOL     OW25420   2.884   2.893   4.048  0.3515  0.1266 -0.4476
 4654SOL    HW125421   2.867   2.944   4.128 -1.7262  1.3762 -1.7006
 4654SOL    HW225422   2.979   2.890   4.035  0.4316  0.0303  0.1459
 4655SOL     OW25423   2.754   1.029   5.726  0.1503 -0.3128  0.6545
 4655SOL    HW125424   2.721   1.029   5.637 -1.6930  0.3438  1.3297
 4655SOL    HW225425   2.731   0.941   5.756  0.7162 -1.1294 -1.3522
 4656SOL     OW25426   0.897   3.915   5.057  0.3796  0.1862 -0.1082
 4656SOL    HW125427   0.951   3.837   5.070  0.7265  0.2785 -1.0191
 4656SOL    HW225428   0.908   3.968   5.136 -3.0596 -1.4255  1.4673
 4657SOL     OW25429   4.323   2.765  11.701  0.2307  0.0906  0.4062
 4657SOL    HW125430   4.279   2.752  11.784 -0.0151  1.1695  0.4550
 4657SOL    HW225431   4.412   2.786  11.732 -0.4263  3.4523  0.0796
 4658SOL     OW25432   2.291   1.661  11.767 -0.5512 -0.1015 -0.4397
 4658SOL    HW125433   2.299   1.722  11.694 -3.1325 -0.4679 -1.0198
 4658SOL    HW225434   2.280   1.714  11.846  0.6047 -0.3829 -0.0867
 4659SOL     OW25435   2.143   3.907  11.856  0.2966 -0.1375 -0.3445
 4659SOL    HW125436   2.140   3.813  11.835 -1.0468 -0.2324  0.2627
 4659SOL    HW225437   2.219   3.912  11.914  0.9681 -0.4416 -1.1887
 4660SOL     OW25438   2.635   3.213  13.317  0.8274  0.1451  0.2789
 4660SOL    HW125439   2.631   3.260  13.234  1.1544  0.3747  0.3910
 4660SOL    HW225440   2.677   3.283  13.366 -1.2829  1.1103  0.6826
 4661SOL     OW25441   3.970   4.087   6.427  0.0796 -0.1131 -0.0909
 4661SOL    HW125442   3.930   4.174   6.423 -0.1235 -0.1796  0.5622
 4661SOL    HW225443   3.977   4.064   6.334  1.4193  1.7855 -0.4504
 4662SOL     OW25444   0.572   1.287   3.271  0.2174  0.8599  0.2683
 4662SOL    HW125445   0.510   1.244   3.212  2.4400 -0.8929 -0.7789
 4662SOL    HW225446   0.524   1.277   3.353  0.1526 -0.0206  0.1207
 4663SOL     OW25447   1.379   1.493   3.243  0.2409 -0.3635  0.4406
 4663SOL    HW125448   1.317   1.431   3.205  1.5448 -2.1609  1.2843
 4663SOL    HW225449   1.453   1.469   3.187  0.2617  0.3319  0.1624
 4664SOL     OW25450   1.981   2.341   3.651  0.1412 -0.3363 -0.8653
 4664SOL    HW125451   1.985   2.336   3.556 -2.6691 -0.6246 -0.9563
 4664SOL    HW225452   1.950   2.432   3.652  1.6136  0.1572  0.6245
 4665SOL     OW25453   3.848   0.381   6.329 -0.7411  0.4030  0.4741
 4665SOL    HW125454   3.896   0.462   6.347  0.5926 -0.2648 -0.1658
 4665SOL    HW225455   3.762   0.416   6.353 -0.1334  1.1717  1.5323
 4666SOL     OW25456   3.382   0.493   8.146  0.1381  0.6329 -0.1666
 4666SOL    HW125457   3.369   0.518   8.055 -1.2486 -0.1644 -0.1859
 4666SOL    HW225458   3.428   0.409   8.142 -0.3206  0.4665 -1.9174
 4667SOL     OW25459   2.453   1.218  11.199 -0.0136 -0.0071  0.1654
 4667SOL    HW125460   2.451   1.122  11.203 -0.1447  0.0297  0.9770
 4667SOL    HW225461   2.543   1.238  11.226 -0.3677 -1.4626  2.4319
 4668SOL     OW25462   2.554   2.330  16.486 -0.0498 -0.6187 -0.4746
 4668SOL    HW125463   2.636   2.326  16.535 -0.0411 -1.7468 -0.5776
 4668SOL    HW225464   2.536   2.421  16.462  0.0094 -1.0458 -2.1506
 4669SOL     OW25465   0.639   4.477  12.938  0.1756 -0.0162  0.2752
 4669SOL    HW125466   0.654   4.394  12.893  1.4489 -0.2517  1.1123
 4669SOL    HW225467   0.634   4.538  12.865 -0.4843  1.6255  1.6830
 4670SOL     OW25468   2.085   0.418   9.564 -0.3401 -0.1378 -0.1144
 4670SOL    HW125469   2.155   0.368   9.521 -1.7199 -0.7778 -1.6177
 4670SOL    HW225470   2.031   0.346   9.595 -1.7403  0.7338 -0.5495
 4671SOL     OW25471   1.062   3.737   7.380  0.7386  0.0813 -0.3578
 4671SOL    HW125472   1.083   3.645   7.365  0.8411 -0.2051  1.6212
 4671SOL    HW225473   1.062   3.734   7.476  0.6300  1.2686 -0.3111
 4672SOL     OW25474   1.067   0.337   6.438 -0.2211  0.4098  0.0361
 4672SOL    HW125475   1.013   0.373   6.509  0.9810  0.5286  0.8878
 4672SOL    HW225476   1.094   0.252   6.473  0.1286 -0.1357 -1.5787
 4673SOL     OW25477   2.921   2.536   7.955  0.0358  0.6525 -0.3116
 4673SOL    HW125478   2.928   2.550   7.861  2.2375  0.6366 -0.1556
 4673SOL    HW225479   3.010   2.567   7.973  0.3596 -0.0989 -0.6600
 4674SOL     OW25480   1.466   1.536  16.405  0.0334 -0.1475 -0.0832
 4674SOL    HW125481   1.444   1.507  16.494 -0.0356 -5.1061 -1.7113
 4674SOL    HW225482   1.480   1.629  16.420 -0.5682 -0.0211 -0.2979
 4675SOL     OW25483   3.608   1.631   4.991 -0.0217 -0.7554 -0.0506
 4675SOL    HW125484   3.521   1.648   4.955  0.3351 -0.0444 -0.5961
 4675SOL    HW225485   3.655   1.711   4.964 -1.5236 -0.2505 -1.1687
 4676SOL     OW25486   3.735   2.196   2.454  0.4326  0.0607 -0.6987
 4676SOL    HW125487   3.822   2.185   2.492  0.3208  1.3241 -0.0638
 4676SOL    HW225488   3.707   2.105   2.447  1.2178 -0.0271 -2.5550
 4677SOL     OW25489   3.209   2.491  11.822 -0.4684  0.3404  0.6268
 4677SOL    HW125490   3.216   2.586  11.812 -0.7142  0.2782 -0.1542
 4677SOL    HW225491   3.123   2.482  11.780  0.4917  0.1663 -1.2846
 4678SOL     OW25492   4.337   4.606   3.620 -0.8183 -0.0615  0.0795
 4678SOL    HW125493   4.262   4.551   3.599 -0.4546 -0.7300  0.5067
 4678SOL    HW225494   4.378   4.618   3.534 -0.6837 -2.2723 -0.1886
 4679SOL     OW25495   3.674   1.605   1.182 -0.2798  0.6516 -0.7780
 4679SOL    HW125496   3.646   1.529   1.234  0.1383 -0.0778 -1.6034
 4679SOL    HW225497   3.592   1.653   1.174 -0.1960  1.0146  0.5872
 4680SOL     OW25498   3.025   1.087   7.354 -0.2753  0.7412  0.0411
 4680SOL    HW125499   3.107   1.117   7.316  0.9835 -0.8399  1.5266
 4680SOL    HW225500   3.035   1.121   7.443 -2.4236 -0.9043  0.9223
 4681SOL     OW25501   1.942   0.130   6.922 -0.1809  0.3960  0.1360
 4681SOL    HW125502   1.938   0.035   6.928 -0.3360  0.3430 -0.7574
 4681SOL    HW225503   1.922   0.150   7.013 -1.6254 -0.7450  0.0603
 4682SOL     OW25504   2.954   3.312   6.989  0.5312 -0.6304  0.0896
 4682SOL    HW125505   3.007   3.298   6.911 -1.0575  1.4670 -1.3688
 4682SOL    HW225506   3.025   3.363   7.029  0.0513 -0.1463  0.3300
 4683SOL     OW25507   0.366   4.082  16.041  0.0578 -1.0669  0.2175
 4683SOL    HW125508   0.339   3.991  16.048  1.0726 -1.3580  0.3947
 4683SOL    HW225509   0.430   4.095  16.111 -0.7164  1.3235  0.4947
 4684SOL     OW25510   2.277   3.439  16.744  0.2028  0.1872 -0.3029
 4684SOL    HW125511   2.191   3.468  16.777  0.5808  0.6168  0.2988
 4684SOL    HW225512   2.312   3.396  16.823 -0.1536 -1.6465 -1.1317
 4685SOL     OW25513   1.047   2.998   3.053  0.0083  0.1913  0.4438
 4685SOL    HW125514   0.965   3.003   3.003 -1.0667 -0.9080  2.0927
 4685SOL    HW225515   1.019   2.956   3.134 -1.8917  2.0525  0.7682
 4686SOL     OW25516   3.810   0.108  15.107 -0.8346  0.1455  0.0596
 4686SOL    HW125517   3.890   0.155  15.127 -1.2558  0.1264  1.7665
 4686SOL    HW225518   3.755   0.186  15.099  0.9190  1.3818  0.1314
 4687SOL     OW25519   1.688   2.867   6.113  0.2502  0.2077 -0.1271
 4687SOL    HW125520   1.778   2.839   6.129 -0.1113 -1.2945 -0.7080
 4687SOL    HW225521   1.673   2.811   6.037 -2.5345  0.6245  0.0814
 4688SOL     OW25522   3.222   3.720   9.219 -0.1971  0.0665  0.5978
 4688SOL    HW125523   3.242   3.694   9.309  0.5986 -2.2030 -0.2346
 4688SOL    HW225524   3.148   3.661   9.202  0.9047 -1.7199  1.9976
 4689SOL     OW25525   1.253   3.674   6.298  0.1113 -0.0784  0.3410
 4689SOL    HW125526   1.204   3.751   6.268  1.6783  0.4635 -0.8800
 4689SOL    HW225527   1.315   3.676   6.225  0.1002  0.3702  0.3430
 4690SOL     OW25528   3.070   0.857   7.633  0.2452  0.6974  0.3416
 4690SOL    HW125529   3.120   0.919   7.686  0.8249  1.4637 -1.0990
 4690SOL    HW225530   3.122   0.855   7.553  0.6732  2.2605  0.5894
 4691SOL     OW25531   3.248   1.230   3.889  0.1570 -0.7895 -0.1438
 4691SOL    HW125532   3.226   1.219   3.981  1.3823  1.1636  0.3973
 4691SOL    HW225533   3.343   1.230   3.900  0.0803 -0.8741  0.4838
 4692SOL     OW25534   4.238   0.243   7.195  0.6014 -0.0182  0.0135
 4692SOL    HW125535   4.205   0.209   7.278 -0.3508 -0.7726 -0.6785
 4692SOL    HW225536   4.287   0.322   7.218 -1.7386  0.6554  2.5826
 4693SOL     OW25537   2.393   2.282   3.408 -0.2715  0.1355 -0.3057
 4693SOL    HW125538   2.458   2.230   3.455 -0.4551 -1.6702 -2.0891
 4693SOL    HW225539   2.385   2.355   3.470 -2.9005 -0.4940  0.1050
 4694SOL     OW25540   4.026   1.278   6.779  0.1041  0.0275  0.3564
 4694SOL    HW125541   3.960   1.273   6.849  1.8135 -1.2333  1.8606
 4694SOL    HW225542   4.056   1.189   6.766  2.4251  0.7604  0.6329
 4695SOL     OW25543   2.485   3.118   2.114 -0.3027 -0.2303  0.5070
 4695SOL    HW125544   2.471   3.151   2.203  0.8257 -0.4517  0.7713
 4695SOL    HW225545   2.479   3.024   2.129 -1.0384 -0.0423  1.4008
 4696SOL     OW25546   4.513   1.326  11.461  0.4510  0.4085 -0.1157
 4696SOL    HW125547   4.595   1.289  11.427 -0.3348 -0.2487 -1.3007
 4696SOL    HW225548   4.533   1.419  11.474  3.4420 -0.5653  2.3765
 4697SOL     OW25549   0.851   0.581   6.255  0.4171  0.4143 -0.3179
 4697SOL    HW125550   0.901   0.521   6.199  0.7567  0.7906 -0.4186
 4697SOL    HW225551   0.816   0.524   6.324 -0.0561  0.8973 -0.1612
 4698SOL     OW25552   2.090   1.221   7.918  0.0771 -0.1174 -0.0698
 4698SOL    HW125553   2.158   1.221   7.851 -2.5117  0.5530 -2.6665
 4698SOL    HW225554   2.131   1.275   7.986  0.7053 -0.1770 -0.4029
 4699SOL     OW25555   0.037   2.954  13.234  0.4165 -0.1048  0.1322
 4699SOL    HW125556   0.060   3.047  13.237 -1.2255  0.2590  1.3864
 4699SOL    HW225557   4.703   2.949  13.312 -0.4417 -1.0141 -0.5224
 4700SOL     OW25558   1.450   1.646  12.319 -0.3503 -0.3432  0.0529
 4700SOL    HW125559   1.434   1.717  12.381 -0.6265 -0.2998 -0.0643
 4700SOL    HW225560   1.483   1.577  12.376  0.6302 -0.2330 -0.3858
 4701SOL     OW25561   4.131   0.800   3.453 -0.1202  0.5198 -0.4939
 4701SOL    HW125562   4.219   0.776   3.426  0.2648  0.7839  0.5260
 4701SOL    HW225563   4.098   0.724   3.501  0.1811  1.1001  0.6340
 4702SOL     OW25564   1.347   4.047   3.177 -0.0121  0.0467  0.3948
 4702SOL    HW125565   1.423   4.076   3.228  0.0185  0.2142  0.2555
 4702SOL    HW225566   1.353   3.954   3.201 -1.5564  0.1164  1.0617
 4703SOL     OW25567   0.248   3.477   5.224  0.1110 -0.3833  0.0676
 4703SOL    HW125568   0.234   3.548   5.161 -2.2220  2.4068  3.7313
 4703SOL    HW225569   0.219   3.517   5.306 -0.1608  0.4924 -0.4511
 4704SOL     OW25570   2.186   0.884   7.969 -0.4082  0.0627 -0.2106
 4704SOL    HW125571   2.232   0.856   7.890 -0.4379  0.7225 -0.4653
 4704SOL    HW225572   2.114   0.935   7.932 -1.0749 -0.5407  0.2475
 4705SOL     OW25573   0.456   1.133  12.235 -0.1133  0.3375  0.1724
 4705SOL    HW125574   0.467   1.049  12.190  0.5904 -0.5845  2.0492
 4705SOL    HW225575   0.361   1.143  12.227 -0.3173 -1.0410  0.8863
 4706SOL     OW25576   3.310   1.004   7.746  0.0905  0.6208 -0.0123
 4706SOL    HW125577   3.403   1.006   7.723  0.3355  0.8186  1.0125
 4706SOL    HW225578   3.308   1.019   7.840  0.7743 -0.4097  0.1662
 4707SOL     OW25579   4.711   3.549   5.655 -0.1395 -0.2892 -0.3317
 4707SOL    HW125580   4.660   3.468   5.662  1.2504 -1.2083 -0.6720
 4707SOL    HW225581   4.676   3.604   5.724  0.0202 -1.3019  0.5655
 4708SOL     OW25582   0.587   0.646   3.554  0.0799  0.1177  0.0389
 4708SOL    HW125583   0.660   0.585   3.566 -0.7935 -1.5247 -2.8502
 4708SOL    HW225584   0.632   0.728   3.575 -0.5505  0.7881 -1.2669
 4709SOL     OW25585   0.337   3.619  17.332 -0.4306  0.7888 -0.1522
 4709SOL    HW125586   0.261   3.616  17.390  0.3987 -0.7109  0.8597
 4709SOL    HW225587   0.375   3.703  17.357 -1.4831  1.2969 -0.3034
 4710SOL     OW25588   0.237   1.261   5.347  0.4593 -0.4745 -0.0230
 4710SOL    HW125589   0.237   1.271   5.252  1.4765 -1.8983 -0.1554
 4710SOL    HW225590   0.214   1.169   5.356  4.9808 -1.5141  0.7693
 4711SOL     OW25591   2.732   1.150  16.940  0.0677 -0.2858 -0.2728
 4711SOL    HW125592   2.680   1.153  17.019  0.9809  0.7583  0.2869
 4711SOL    HW225593   2.778   1.234  16.944  0.3095 -0.6057  3.0745
 4712SOL     OW25594   4.493   2.784   8.576 -0.4315 -0.1973  0.4908
 4712SOL    HW125595   4.506   2.760   8.668  1.7680 -1.5605 -0.1805
 4712SOL    HW225596   4.410   2.741   8.558 -0.6250  0.0812  0.7142
 4713SOL     OW25597   1.940   1.779   6.898  0.3727  0.3452 -0.1207
 4713SOL    HW125598   1.957   1.842   6.969  1.6474 -0.9630  0.7357
 4713SOL    HW225599   1.913   1.836   6.827  1.8053  0.4578 -0.5737
 4714SOL     OW25600   2.218   3.947  15.650  0.7667  0.5076  0.0682
 4714SOL    HW125601   2.274   3.902  15.713 -3.6082 -0.2554  3.4118
 4714SOL    HW225602   2.291   3.980  15.598  1.7569  0.8718  1.6917
 4715SOL     OW25603   1.659   1.195  17.153 -0.3016 -0.3846  0.3154
 4715SOL    HW125604   1.682   1.106  17.128 -3.0791 -0.3445 -2.3903
 4715SOL    HW225605   1.630   1.170  17.241  0.7587  0.0910  0.8012
 4716SOL     OW25606   0.154   1.084   3.731  0.0526 -0.6198 -0.2005
 4716SOL    HW125607   0.148   1.103   3.638 -0.3116  0.2756  0.0103
 4716SOL    HW225608   0.074   1.038   3.756  0.0017 -0.3136  0.2025
 4717SOL     OW25609   3.813   0.813  12.205  0.7552  0.5066  0.3342
 4717SOL    HW125610   3.853   0.877  12.265  1.7678 -0.7815  1.0283
 4717SOL    HW225611   3.789   0.871  12.133  0.0148  1.3291  1.2483
 4718SOL     OW25612   1.465   2.699  16.899  0.0482 -0.4118  0.0394
 4718SOL    HW125613   1.526   2.696  16.973  0.2909  1.9142 -0.0807
 4718SOL    HW225614   1.491   2.780  16.857 -0.4733 -1.3591 -2.0955
 4719SOL     OW25615   1.226   2.142   8.297 -0.0301  0.0147  0.2908
 4719SOL    HW125616   1.283   2.201   8.248 -0.8113 -0.9730 -1.8162
 4719SOL    HW225617   1.285   2.098   8.358  0.8168  0.7622  0.0085
 4720SOL     OW25618   3.844   3.843   1.795 -0.1922 -0.0351 -1.0253
 4720SOL    HW125619   3.912   3.884   1.741  1.6426 -0.7648  0.7111
 4720SOL    HW225620   3.773   3.850   1.732 -0.1322  0.5309 -1.0292
 4721SOL     OW25621   4.099   1.020   4.585 -0.0476  1.0593 -0.1869
 4721SOL    HW125622   4.021   0.972   4.556  0.5009  0.5198 -0.7600
 4721SOL    HW225623   4.152   0.945   4.611 -1.3687  0.3481  0.4552
 4722SOL     OW25624   3.573   4.152   0.560  0.0251 -0.0129  0.5960
 4722SOL    HW125625   3.574   4.217   0.630  2.9248  0.2558  0.3184
 4722SOL    HW225626   3.491   4.112   0.588 -0.3236  0.5599  0.3993
 4723SOL     OW25627   0.920   0.327   3.896  0.1110  0.4126 -0.0767
 4723SOL    HW125628   0.981   0.335   3.970  0.5945 -0.3566 -0.3927
 4723SOL    HW225629   0.940   0.240   3.860  1.4690  0.7956 -0.2424
 4724SOL     OW25630   2.057   2.434   8.363  0.2965  0.2932  0.6444
 4724SOL    HW125631   2.039   2.515   8.315  0.1889 -0.4956 -0.6724
 4724SOL    HW225632   2.011   2.378   8.300 -1.4646  0.4519  1.7864
 4725SOL     OW25633   0.903   2.734   0.453  0.2087 -0.3699  0.0383
 4725SOL    HW125634   0.844   2.708   0.382  0.2612 -0.3998  0.0061
 4725SOL    HW225635   0.989   2.699   0.431  0.5243  2.9738 -4.0192
 4726SOL     OW25636   0.872   1.829   9.719  0.1416 -0.2080  0.2218
 4726SOL    HW125637   0.948   1.874   9.756 -1.1190  1.2896  0.9829
 4726SOL    HW225638   0.798   1.865   9.768 -0.6601 -2.9380  1.0244
 4727SOL     OW25639   2.194   1.581  12.455  0.1297  0.6004  0.3657
 4727SOL    HW125640   2.158   1.665  12.427 -1.6644 -0.1322  0.4462
 4727SOL    HW225641   2.124   1.554  12.515 -1.4421  0.2611 -1.6074
 4728SOL     OW25642   4.404   1.387   6.069  0.1628 -0.4048 -0.2139
 4728SOL    HW125643   4.369   1.335   5.997  2.4102 -2.7524  0.3710
 4728SOL    HW225644   4.370   1.475   6.052 -1.0896 -0.9443 -0.4349
 4729SOL     OW25645   0.646   4.283   5.461 -0.2746 -0.1093 -0.3648
 4729SOL    HW125646   0.552   4.289   5.441 -0.4600  0.2715  0.6350
 4729SOL    HW225647   0.638   4.327   5.545 -1.7314  0.6313 -0.8930
 4730SOL     OW25648   2.797   0.711  15.854 -0.2844 -0.0314  0.3257
 4730SOL    HW125649   2.764   0.771  15.920  0.0108  0.8490 -0.3220
 4730SOL    HW225650   2.722   0.726  15.796  0.1328 -0.7958 -0.4189
 4731SOL     OW25651   0.620   3.158   4.198  0.2635 -0.2570 -0.2036
 4731SOL    HW125652   0.709   3.172   4.230  0.3650 -0.0670 -0.5674
 4731SOL    HW225653   0.638   3.125   4.110  1.6224 -2.7478  1.0158
 4732SOL     OW25654   2.831   0.355   3.095 -0.6662  0.0024  0.1710
 4732SOL    HW125655   2.797   0.298   3.026 -0.7094  0.3683 -0.1047
 4732SOL    HW225656   2.906   0.302   3.125  0.3587  2.1708  1.4168
 4733SOL     OW25657   1.055   0.644  11.689 -0.5635 -0.0634 -0.6047
 4733SOL    HW125658   1.053   0.705  11.762  0.8828  0.7671 -1.2659
 4733SOL    HW225659   1.141   0.603  11.698  0.2686  1.7517 -0.2559
 4734SOL     OW25660   3.313   0.759   9.780 -0.2381  0.3377  0.1656
 4734SOL    HW125661   3.339   0.839   9.735  0.8289  0.2102  0.5541
 4734SOL    HW225662   3.222   0.787   9.788 -0.6333 -0.9181  0.0492
 4735SOL     OW25663   3.221   4.705   4.582 -0.3336 -0.3087  0.7360
 4735SOL    HW125664   3.270   0.045   4.639  0.4826 -0.3393  0.0635
 4735SOL    HW225665   3.219   0.045   4.508  2.1863  0.7028  1.4735
 4736SOL     OW25666   3.228   3.156   9.329  0.5542  0.0565  0.0543
 4736SOL    HW125667   3.224   3.225   9.395  2.0036 -0.3793  0.5873
 4736SOL    HW225668   3.217   3.076   9.380  0.3712  1.7220  2.6780
 4737SOL     OW25669   0.566   3.196   7.565  0.3268 -0.1512 -0.1516
 4737SOL    HW125670   0.648   3.227   7.527 -0.3235  2.5102  0.6209
 4737SOL    HW225671   0.594   3.114   7.605  1.3161  0.6642  0.8066
 4738SOL     OW25672   4.659   2.125  13.551 -0.0306  0.2908  0.0678
 4738SOL    HW125673   0.022   2.172  13.559 -0.2543  0.5370  0.9241
 4738SOL    HW225674   4.613   2.192  13.499  1.4154  0.5847 -0.8683
 4739SOL     OW25675   2.289   4.374   8.933 -0.2662 -0.1891  0.3611
 4739SOL    HW125676   2.377   4.367   8.896 -0.9795 -1.9817 -1.0476
 4739SOL    HW225677   2.256   4.456   8.898  2.9837  0.5575 -0.9030
 4740SOL     OW25678   3.357   3.986   0.640  0.4404  0.3566  0.3667
 4740SOL    HW125679   3.320   3.927   0.705 -0.7140 -2.2357 -2.6969
 4740SOL    HW225680   3.323   3.958   0.556 -0.2547  1.4059  0.2891
 4741SOL     OW25681   3.903   3.331   5.708 -0.3047 -0.3699 -0.2307
 4741SOL    HW125682   3.972   3.368   5.652  0.8841 -1.1504  0.7125
 4741SOL    HW225683   3.940   3.340   5.795  0.5514 -0.0381 -0.6247
 4742SOL     OW25684   3.051   4.628   1.617 -0.1726  0.3456  0.4682
 4742SOL    HW125685   3.147   4.627   1.616 -0.2064 -1.7745  0.3737
 4742SOL    HW225686   3.050   4.715   1.576 -1.1079  0.6862  1.2389
 4743SOL     OW25687   2.185   2.240   8.064  0.4106  0.2618 -0.2089
 4743SOL    HW125688   2.236   2.163   8.038 -0.2765  0.5628 -2.4653
 4743SOL    HW225689   2.123   2.247   7.991 -0.6049  0.3514  0.6503
 4744SOL     OW25690   4.541   4.607   6.906  0.3490 -0.3812 -0.0441
 4744SOL    HW125691   4.450   4.635   6.917  0.1982  0.6745 -3.7277
 4744SOL    HW225692   4.537   4.549   6.830  1.6847  0.2257 -0.5701
 4745SOL     OW25693   0.600   1.494   2.425  0.3565  0.0414 -0.7119
 4745SOL    HW125694   0.617   1.414   2.475  2.9974  1.7385  1.1016
 4745SOL    HW225695   0.505   1.498   2.430  0.3036  1.2700 -2.8358
 4746SOL     OW25696   2.568   3.175   3.270 -0.2274  0.4179 -0.0115
 4746SOL    HW125697   2.549   3.082   3.287 -0.9756  0.2999 -1.4398
 4746SOL    HW225698   2.539   3.184   3.179  0.2168 -2.8756 -0.4801
 4747SOL     OW25699   1.368   0.546   3.316  0.6435  0.0624 -0.4348
 4747SOL    HW125700   1.453   0.589   3.302  0.0515  1.2731 -0.2495
 4747SOL    HW225701   1.395   0.454   3.323 -0.0799 -0.1657 -0.6510
 4748SOL     OW25702   1.121   3.602   6.752 -0.4445  0.3226  0.2930
 4748SOL    HW125703   1.156   3.628   6.837  0.4231 -1.2553  0.4022
 4748SOL    HW225704   1.160   3.515   6.743  0.4377  0.7539 -0.1244
 4749SOL     OW25705   4.671   2.411   6.448 -0.8364  0.0932 -0.1471
 4749SOL    HW125706   0.005   2.338   6.420  0.8471  0.9306  0.9552
 4749SOL    HW225707   4.678   2.464   6.368 -0.2669  1.3286  0.7109
 4750SOL     OW25708   3.119   2.989   3.751  0.2725 -0.0871 -0.4299
 4750SOL    HW125709   3.123   3.083   3.771 -2.3312 -0.4388  1.8494
 4750SOL    HW225710   3.172   2.986   3.672  0.8834  2.4999 -0.1280
 4751SOL     OW25711   4.325   0.026  10.828  0.6155 -0.4048  0.5561
 4751SOL    HW125712   4.234   0.054  10.839  1.1480  1.8923 -1.0762
 4751SOL    HW225713   4.311   4.664  10.875 -2.2337  0.2366  0.8640
 4752SOL     OW25714   3.306   0.673   4.028  0.5650  0.3756  0.0818
 4752SOL    HW125715   3.232   0.723   4.062 -1.5742 -1.8968 -1.2532
 4752SOL    HW225716   3.289   0.583   4.054 -0.9094 -0.3036 -3.1706
 4753SOL     OW25717   2.492   4.578   6.301  0.2918 -0.3423  0.2759
 4753SOL    HW125718   2.566   4.627   6.266  0.2357 -0.8093 -0.4831
 4753SOL    HW225719   2.421   4.588   6.237 -1.4819  1.2984  2.4680
 4754SOL     OW25720   1.092   3.935   7.880 -0.2682  0.0197  0.5200
 4754SOL    HW125721   1.150   3.980   7.941  1.3985 -1.0797 -0.2570
 4754SOL    HW225722   1.094   4.004   7.814  0.2124 -0.7588 -0.2841
 4755SOL     OW25723   2.568   0.154  10.428  0.0589  0.2376 -0.1404
 4755SOL    HW125724   2.534   0.200  10.505  1.7016  0.3609  0.5184
 4755SOL    HW225725   2.657   0.127  10.453 -0.8035 -2.5560 -0.0950
 4756SOL     OW25726   2.920   2.579   1.513 -0.1278  0.3018  0.5874
 4756SOL    HW125727   2.934   2.487   1.492 -0.1738  0.8215 -1.6641
 4756SOL    HW225728   2.879   2.607   1.431  0.6783  0.6730  0.3071
 4757SOL     OW25729   1.664   0.723  13.631  0.1523 -0.2872 -0.5196
 4757SOL    HW125730   1.613   0.711  13.712  0.6111  3.4084  0.3067
 4757SOL    HW225731   1.725   0.792  13.657  0.3147 -0.9588  0.8884
 4758SOL     OW25732   2.316   3.307   8.624 -0.5866 -0.0176 -0.2646
 4758SOL    HW125733   2.240   3.255   8.651  0.9603 -2.5681 -0.8148
 4758SOL    HW225734   2.280   3.347   8.545 -0.2168  1.3057  0.2423
 4759SOL     OW25735   1.612   0.775   6.887  0.4225 -0.7382  0.3748
 4759SOL    HW125736   1.673   0.742   6.953  1.0774  0.5083  0.4007
 4759SOL    HW225737   1.604   0.865   6.919  1.2073 -1.5805  2.9333
 4760SOL     OW25738   2.548   0.822   2.428 -0.3330 -0.0686  0.3354
 4760SOL    HW125739   2.494   0.755   2.388 -0.1870 -0.5664  0.9732
 4760SOL    HW225740   2.474   0.861   2.475  0.2244  2.1123 -0.5906
 4761SOL     OW25741   3.887   2.264  17.609  0.4542  0.2335 -0.4049
 4761SOL    HW125742   3.815   2.301  17.558  0.5401 -0.5975 -1.1118
 4761SOL    HW225743   3.843   2.191  17.652 -1.4557  1.2674 -0.5990
 4762SOL     OW25744   1.442   4.029   5.054  0.3191 -0.3527  0.3307
 4762SOL    HW125745   1.449   4.092   4.983  0.4446  1.2414  1.7492
 4762SOL    HW225746   1.372   4.058   5.114  1.0022  4.4168 -1.1271
 4763SOL     OW25747   3.690   1.026   5.005  0.2689 -0.7972 -0.0102
 4763SOL    HW125748   3.708   1.104   5.057  0.7406  1.3489 -3.4005
 4763SOL    HW225749   3.636   1.064   4.935  0.2669 -1.3110 -0.2859
 4764SOL     OW25750   1.020   0.725  10.074  0.2162  0.0904 -0.1354
 4764SOL    HW125751   1.101   0.674  10.066  0.3071  0.1296  0.5219
 4764SOL    HW225752   0.980   0.672  10.142 -0.9956 -0.0496 -0.9521
 4765SOL     OW25753   1.058   3.518   0.221  0.2289  0.4099 -0.4557
 4765SOL    HW125754   1.014   3.434   0.211  2.5289 -0.9291  0.9309
 4765SOL    HW225755   0.981   3.573   0.239 -1.1007 -1.3002 -0.9485
 4766SOL     OW25756   1.666   1.571  14.592 -0.5604  0.1944  0.1713
 4766SOL    HW125757   1.733   1.639  14.603  0.0132 -0.3405 -0.0379
 4766SOL    HW225758   1.590   1.612  14.636 -1.4428 -0.6339 -0.5879
 4767SOL     OW25759   2.126   0.953   2.805  0.2517  0.0701  0.4244
 4767SOL    HW125760   2.057   0.922   2.864 -0.1242  2.1311  1.0778
 4767SOL    HW225761   2.180   0.874   2.805  0.0318 -0.0795  0.2274
 4768SOL     OW25762   1.713   4.594  15.248 -0.1125 -0.4581 -0.2399
 4768SOL    HW125763   1.651   4.668  15.243 -0.1788 -0.6004 -1.4047
 4768SOL    HW225764   1.662   4.547  15.314  0.5487 -0.1874  0.4621
 4769SOL     OW25765   2.977   3.045   8.387 -0.3890 -0.4801  0.3504
 4769SOL    HW125766   2.994   2.976   8.451 -0.9212 -1.0427 -0.1161
 4769SOL    HW225767   3.033   3.027   8.312  0.7944 -2.3437  1.6755
 4770SOL     OW25768   1.121   3.467   7.424  0.1369  0.1922 -0.0662
 4770SOL    HW125769   1.053   3.434   7.483  1.8890 -0.2865  1.7082
 4770SOL    HW225770   1.114   3.393   7.363  2.3820  0.3305 -0.4952
 4771SOL     OW25771   1.323   2.387  15.095  0.1881  0.2957 -0.2054
 4771SOL    HW125772   1.360   2.324  15.157  0.4089  1.6339  1.0270
 4771SOL    HW225773   1.393   2.452  15.091  1.3804 -1.0301 -1.0489
 4772SOL     OW25774   2.785   2.445   8.425 -0.1156 -0.3043  0.4634
 4772SOL    HW125775   2.795   2.501   8.349 -0.5765 -0.9656 -0.0804
 4772SOL    HW225776   2.692   2.441   8.447  0.2304 -1.8718  1.7166
 4773SOL     OW25777   3.981   4.186   2.435  0.1914  0.5107  0.0319
 4773SOL    HW125778   3.948   4.139   2.358  0.5961 -0.7731  0.6454
 4773SOL    HW225779   4.068   4.214   2.408  0.7781  0.1937  1.6309
 4774SOL     OW25780   3.083   0.113   7.597 -0.4084 -0.4175  0.1023
 4774SOL    HW125781   3.033   0.173   7.653 -0.9763 -0.8479  0.0641
 4774SOL    HW225782   3.102   0.049   7.666 -1.6621 -0.7217  0.1785
 4775SOL     OW25783   1.270   1.344   1.504  0.0165 -0.4171 -0.8571
 4775SOL    HW125784   1.204   1.280   1.477  1.7812 -1.8969 -1.6542
 4775SOL    HW225785   1.317   1.360   1.422  1.0763 -1.6158 -0.4796
 4776SOL     OW25786   2.018   0.781   7.435 -0.4024 -0.6653 -0.3965
 4776SOL    HW125787   2.110   0.759   7.422 -0.1719  1.3041 -2.1927
 4776SOL    HW225788   1.987   0.709   7.490  1.2626  0.1304  1.5733
 4777SOL     OW25789   1.514   4.652   7.392 -0.2350  0.2693  0.1475
 4777SOL    HW125790   1.422   4.624   7.392 -1.0109  2.8055 -2.5824
 4777SOL    HW225791   1.516   0.001   7.327 -1.8295  0.0250 -0.1698
 4778SOL     OW25792   2.356   2.095   6.157  0.5132 -0.1880 -0.0181
 4778SOL    HW125793   2.275   2.052   6.184 -0.1175  1.2087  0.3401
 4778SOL    HW225794   2.416   2.038   6.205  1.0746  0.4070 -0.0054
 4779SOL     OW25795   2.143   0.307   6.683 -0.0400  0.0232  0.0990
 4779SOL    HW125796   2.099   0.241   6.630 -1.1669 -0.1887  1.3176
 4779SOL    HW225797   2.074   0.314   6.749 -0.6877  0.5526 -0.6294
 4780SOL     OW25798   0.143   1.104  13.000 -0.1647 -0.3250 -0.1883
 4780SOL    HW125799   0.070   1.164  13.016  0.7140  1.0799 -1.4345
 4780SOL    HW225800   0.214   1.148  13.046  1.3241 -0.7672 -2.0823
 4781SOL     OW25801   2.773   1.303   2.947  0.2246 -0.5843 -0.2973
 4781SOL    HW125802   2.806   1.238   2.884 -3.3894 -1.7388 -0.9486
 4781SOL    HW225803   2.832   1.291   3.021 -0.2897 -0.4422  0.1265
 4782SOL     OW25804   0.142   0.234   0.697 -0.2254  0.2552  0.4875
 4782SOL    HW125805   0.225   0.190   0.718  0.0684 -0.7330 -2.7677
 4782SOL    HW225806   0.101   0.261   0.779  0.0173  0.8003  0.4351
 4783SOL     OW25807   4.568   4.528  10.332  0.0430  0.3167  0.3542
 4783SOL    HW125808   4.551   4.576  10.413  0.2038  0.7572  0.1264
 4783SOL    HW225809   4.492   4.545  10.277  0.1610  2.4114  0.8091
 4784SOL     OW25810   1.880   0.213   7.624 -0.6063  0.0335  0.2114
 4784SOL    HW125811   1.809   0.151   7.603  0.7938 -0.6592 -2.4944
 4784SOL    HW225812   1.834   0.285   7.666 -0.2403  0.2177  0.2932
 4785SOL     OW25813   4.247   3.150  17.095  0.0878 -0.3528 -0.2077
 4785SOL    HW125814   4.280   3.223  17.043 -2.3361  1.1477  0.3884
 4785SOL    HW225815   4.331   3.105  17.107  0.1202 -0.8757 -2.4713
 4786SOL     OW25816   3.482   2.613   7.044  0.4835 -0.2684  0.0185
 4786SOL    HW125817   3.512   2.597   6.954  0.8830 -1.5674  0.3980
 4786SOL    HW225818   3.472   2.708   7.040  0.1733 -0.3242 -0.5740
 4787SOL     OW25819   3.464   3.598   4.924  0.1961  0.2733 -0.1846
 4787SOL    HW125820   3.468   3.519   4.870 -2.4028  0.7560 -1.1244
 4787SOL    HW225821   3.480   3.655   4.849 -1.2699 -1.6195 -1.9308
 4788SOL     OW25822   0.218   2.752   1.725 -0.2456 -0.3791 -0.7022
 4788SOL    HW125823   0.310   2.757   1.751 -1.1603 -2.7964  2.9561
 4788SOL    HW225824   0.198   2.659   1.736 -1.2998 -0.0737 -0.1144
 4789SOL     OW25825   3.683   0.718   4.221 -0.0520  0.2947 -0.1762
 4789SOL    HW125826   3.646   0.719   4.133 -3.3039 -2.0703  1.1366
 4789SOL    HW225827   3.659   0.798   4.268  0.4961  0.6918 -0.5758
 4790SOL     OW25828   1.645   3.856   4.446 -0.2241 -0.5605  0.1690
 4790SOL    HW125829   1.729   3.856   4.400 -0.3147 -1.3084  0.0074
 4790SOL    HW225830   1.663   3.787   4.510 -1.4538 -2.6237 -1.6967
 4791SOL     OW25831   2.847   1.602   3.138  0.2053 -0.0565  0.0050
 4791SOL    HW125832   2.938   1.629   3.139  0.5371 -1.2570  2.5181
 4791SOL    HW225833   2.834   1.560   3.052 -0.4374 -0.3610  0.2491
 4792SOL     OW25834   0.698   0.358   4.288 -0.6824  0.2721 -0.2363
 4792SOL    HW125835   0.685   0.280   4.234 -1.4439  1.5556 -1.8867
 4792SOL    HW225836   0.606   0.386   4.297 -1.1724 -1.1061 -0.9745
 4793SOL     OW25837   3.199   4.236  13.788 -0.3187 -0.3590 -0.0272
 4793SOL    HW125838   3.277   4.292  13.786 -0.3518 -0.3124 -0.0027
 4793SOL    HW225839   3.142   4.286  13.847  0.8608  0.1109  0.7293
 4794SOL     OW25840   4.288   1.541   1.493  0.4406 -0.3265 -0.5645
 4794SOL    HW125841   4.320   1.608   1.433 -1.8010 -0.9531 -2.4917
 4794SOL    HW225842   4.275   1.467   1.434  1.4815 -0.7854 -0.1941
 4795SOL     OW25843   4.159   4.193   4.661 -0.7956 -0.2597  0.2978
 4795SOL    HW125844   4.176   4.101   4.682 -0.5822 -0.1822  0.4717
 4795SOL    HW225845   4.083   4.209   4.718 -1.6995  0.4805 -1.1122
 4796SOL     OW25846   4.476   2.361  16.569 -0.4328  0.4777 -0.2085
 4796SOL    HW125847   4.387   2.378  16.600 -0.0554 -0.7404  1.5214
 4796SOL    HW225848   4.474   2.436  16.509  1.4706 -0.0132 -0.8958
 4797SOL     OW25849   0.197   4.382   4.830  0.4483 -0.1330  0.2449
 4797SOL    HW125850   0.132   4.334   4.881  0.5956 -3.6485 -2.8835
 4797SOL    HW225851   0.234   4.437   4.899  0.1371  0.3810  0.0008
 4798SOL     OW25852   2.465   4.275   3.848 -0.0975  0.4031  0.0246
 4798SOL    HW125853   2.522   4.309   3.917  1.4384  1.8357 -1.9633
 4798SOL    HW225854   2.462   4.344   3.782 -2.4757  1.1396  0.8851
 4799SOL     OW25855   1.402   2.238   3.644  0.1732  0.7201 -0.0975
 4799SOL    HW125856   1.469   2.280   3.698  0.6320  0.6589 -0.6171
 4799SOL    HW225857   1.441   2.268   3.562  0.3217  4.2220  1.2300
 4800SOL     OW25858   2.669   2.137  17.521  0.3801 -0.2860 -0.2406
 4800SOL    HW125859   2.761   2.133  17.549  0.0985 -1.0348  0.5701
 4800SOL    HW225860   2.643   2.125  17.612 -1.6447 -1.7730 -1.0266
 4801SOL     OW25861   2.166   4.629   3.568  0.0119 -0.2468 -0.1290
 4801SOL    HW125862   2.107   4.704   3.562 -0.5080 -0.6377  0.0457
 4801SOL    HW225863   2.252   4.659   3.539  0.0944  0.9639  1.4087
 4802SOL     OW25864   0.169   0.251   7.588  0.0100  0.6777 -0.3871
 4802SOL    HW125865   0.096   0.205   7.630 -0.5655  0.1826 -1.9131
 4802SOL    HW225866   0.221   0.275   7.664 -0.5341 -0.5792  0.3595
 4803SOL     OW25867   0.414   3.939   6.163  0.2652 -0.0638  0.1672
 4803SOL    HW125868   0.425   3.937   6.068  2.5412  0.9363  0.4193
 4803SOL    HW225869   0.446   3.851   6.182 -3.3964 -1.8321 -1.9973
 4804SOL     OW25870   2.408   3.375   9.338  0.2751  0.6848  0.0745
 4804SOL    HW125871   2.399   3.470   9.341  3.6549  1.0073  0.3704
 4804SOL    HW225872   2.458   3.364   9.257 -1.0181  1.5195 -0.8391
 4805SOL     OW25873   4.002   2.552   4.542  0.7597  0.3041  0.3198
 4805SOL    HW125874   4.054   2.485   4.585 -0.9469 -1.2385  0.0120
 4805SOL    HW225875   3.917   2.519   4.573  1.5590 -0.9990  1.1601
 4806SOL     OW25876   1.771   0.058   6.392 -0.2077  0.1259  0.2767
 4806SOL    HW125877   1.757   0.152   6.384 -1.9083 -0.1334  0.2261
 4806SOL    HW225878   1.794   0.047   6.299 -0.8055  2.1896 -0.1119
 4807SOL     OW25879   3.087   4.341   1.007 -0.1158 -0.2557  0.1376
 4807SOL    HW125880   3.174   4.350   0.969 -0.9828 -1.0033 -1.9845
 4807SOL    HW225881   3.078   4.428   1.048 -0.8872  0.2002 -1.0218
 4808SOL     OW25882   2.596   1.934   4.829  0.5314  0.4398  0.0755
 4808SOL    HW125883   2.603   1.935   4.924 -0.5728 -2.0573  0.1861
 4808SOL    HW225884   2.685   1.913   4.801  0.4125 -1.2044  0.9212
 4809SOL     OW25885   2.522   2.143  11.420  0.6087 -0.7635 -0.2169
 4809SOL    HW125886   2.507   2.166  11.511  2.4869  0.9727 -0.3520
 4809SOL    HW225887   2.571   2.221  11.392  2.0798 -1.8397 -0.6189
 4810SOL     OW25888   4.703   3.012   8.911 -0.5172  1.2123 -0.1583
 4810SOL    HW125889   0.058   3.046   8.959  1.0209 -0.9691 -1.0544
 4810SOL    HW225890   4.636   3.080   8.906 -0.7946  0.8593 -1.3247
 4811SOL     OW25891   2.565   1.158  16.133  0.2029 -0.4354  0.8562
 4811SOL    HW125892   2.597   1.227  16.076 -0.8654 -1.8444 -1.4316
 4811SOL    HW225893   2.470   1.167  16.124  0.4146  0.1452 -0.7897
 4812SOL     OW25894   3.981   3.102   1.732  0.5008 -0.3586  0.0166
 4812SOL    HW125895   3.991   3.188   1.772  0.3751 -0.4260  0.1944
 4812SOL    HW225896   3.923   3.119   1.657 -0.2912  0.9351  0.9238
 4813SOL     OW25897   0.599   1.296   4.044  0.1098 -0.0817 -0.4380
 4813SOL    HW125898   0.667   1.364   4.038  0.0262  0.0606  0.1559
 4813SOL    HW225899   0.587   1.273   3.952  2.0686  2.1425 -1.2499
 4814SOL     OW25900   3.894   4.123   8.049 -0.3747 -0.4630 -0.1054
 4814SOL    HW125901   3.823   4.182   8.074 -0.4402  0.3454 -2.1670
 4814SOL    HW225902   3.898   4.064   8.125  0.9614  0.2876  0.4208
 4815SOL     OW25903   2.290   3.157   0.055  0.2174 -0.4618  0.2434
 4815SOL    HW125904   2.367   3.197   0.095 -0.0892 -0.4478  0.8136
 4815SOL    HW225905   2.302   3.062   0.046 -2.1768 -0.6803 -0.6646
 4816SOL     OW25906   2.121   2.203   5.778  0.2843 -0.1376 -0.3706
 4816SOL    HW125907   2.102   2.277   5.837  0.5396  1.7234 -2.6187
 4816SOL    HW225908   2.132   2.135   5.844  0.4107  0.2089 -0.0320
 4817SOL     OW25909   3.401   0.384  14.880 -0.5425 -0.0053 -0.1011
 4817SOL    HW125910   3.472   0.320  14.875 -0.8845 -0.5268  1.5638
 4817SOL    HW225911   3.321   0.341  14.850 -0.8815 -0.4774  1.5025
 4818SOL     OW25912   3.703   1.501   3.335  0.3075  0.2736 -0.0158
 4818SOL    HW125913   3.748   1.422   3.305 -2.1202 -0.4085 -1.8304
 4818SOL    HW225914   3.685   1.491   3.428  1.7618 -3.3507 -0.1137
 4819SOL     OW25915   2.352   2.546   6.616 -0.0479 -0.1464 -0.1563
 4819SOL    HW125916   2.434   2.512   6.653  0.8094  1.7425 -0.3083
 4819SOL    HW225917   2.288   2.487   6.653  0.5218 -2.2738 -2.5515
 4820SOL     OW25918   2.729   2.033   5.965 -0.3994  0.6133  0.0324
 4820SOL    HW125919   2.743   1.939   5.976  3.0198  0.9573 -1.4572
 4820SOL    HW225920   2.788   2.069   6.032 -0.0393  1.2808 -0.6461
 4821SOL     OW25921   2.000   2.195   1.445  0.3602 -0.0900  0.0085
 4821SOL    HW125922   1.913   2.210   1.481  1.3837  0.4519  2.2444
 4821SOL    HW225923   1.982   2.217   1.353  1.1194 -1.2415 -0.4219
 4822SOL     OW25924   2.311   0.766   0.681 -0.0328 -0.4615  0.0306
 4822SOL    HW125925   2.282   0.715   0.757 -2.3931  1.7081  0.5925
 4822SOL    HW225926   2.348   0.693   0.630 -1.2380 -0.6750 -0.5477
 4823SOL     OW25927   3.113   4.701   8.268  0.0673 -0.3066  0.3099
 4823SOL    HW125928   3.101   4.618   8.315  0.3597 -0.0159  0.8947
 4823SOL    HW225929   3.206   4.688   8.250 -0.2611 -0.1753 -1.5232
 4824SOL     OW25930   1.787   4.627  16.173 -0.0444  0.2778 -0.0864
 4824SOL    HW125931   1.700   4.667  16.169  0.9310  2.2527 -1.4639
 4824SOL    HW225932   1.806   4.628  16.079  0.1377 -2.7806 -0.0795
 4825SOL     OW25933   4.070   3.088   2.057 -0.1083 -0.1731  0.5054
 4825SOL    HW125934   4.158   3.077   2.093 -0.7283 -2.2013  1.4158
 4825SOL    HW225935   4.066   3.180   2.033  0.7000 -0.5452 -0.9944
 4826SOL     OW25936   1.940   3.298   2.978 -0.3984  0.4231 -0.4598
 4826SOL    HW125937   1.904   3.221   2.933 -2.0747 -0.8249  3.0063
 4826SOL    HW225938   1.909   3.363   2.915 -0.5675 -0.9365 -1.7735
 4827SOL     OW25939   3.507   3.543   7.513  0.3514  0.4743  0.2083
 4827SOL    HW125940   3.579   3.605   7.503 -0.7545  1.7344  0.0603
 4827SOL    HW225941   3.445   3.589   7.456  0.9072 -1.1224 -1.7012
 4828SOL     OW25942   3.907   1.089   8.188 -0.5579 -0.3738 -0.5294
 4828SOL    HW125943   3.843   1.035   8.233 -0.1151  0.7229  1.4356
 4828SOL    HW225944   3.842   1.153   8.160  0.1681  0.6167  0.0283
 4829SOL     OW25945   0.281   4.103   2.997 -0.6617 -0.0998  0.3184
 4829SOL    HW125946   0.205   4.065   2.953 -1.2764 -0.3815  1.6312
 4829SOL    HW225947   0.279   4.189   2.956  0.6906  0.3437  1.1757
 4830SOL     OW25948   1.201   0.592   7.907 -0.0508  0.0021  0.1138
 4830SOL    HW125949   1.129   0.565   7.850 -0.6767 -0.4578  1.1101
 4830SOL    HW225950   1.282   0.591   7.857 -1.1592 -3.4788 -1.5948
 4831SOL     OW25951   1.443   3.835   2.335 -0.0774  0.1249  0.4867
 4831SOL    HW125952   1.380   3.886   2.386 -1.1866 -0.6292 -0.1148
 4831SOL    HW225953   1.521   3.852   2.387 -0.1445 -0.4501  0.7739
 4832SOL     OW25954   2.803   2.782   9.316 -0.4758 -0.0709 -0.1246
 4832SOL    HW125955   2.728   2.826   9.357 -1.6261 -1.8558 -0.3097
 4832SOL    HW225956   2.798   2.697   9.360 -0.4825  1.6361  3.2000
 4833SOL     OW25957   4.084   1.915   2.865 -0.1824  0.0712  0.1445
 4833SOL    HW125958   4.158   1.895   2.808 -0.5160 -1.6721  0.3009
 4833SOL    HW225959   4.015   1.892   2.803  1.5987 -0.6928 -1.5567
 4834SOL     OW25960   4.417   3.881   7.516 -0.2400 -0.0616 -0.0593
 4834SOL    HW125961   4.471   3.956   7.492 -1.8437  0.4828 -1.9142
 4834SOL    HW225962   4.462   3.839   7.589  1.2163  0.4813 -0.6493
 4835SOL     OW25963   0.678   0.734   3.975 -0.2617 -0.2147 -0.2523
 4835SOL    HW125964   0.770   0.713   3.957  0.6933  2.7406  1.1971
 4835SOL    HW225965   0.680   0.830   3.980  0.3390 -0.2213 -0.3410
 4836SOL     OW25966   0.927   2.509  13.012 -0.7569  0.0829 -0.0402
 4836SOL    HW125967   0.903   2.574  13.078  2.4655  0.2313  0.9880
 4836SOL    HW225968   1.005   2.469  13.050 -1.0167 -2.2451 -1.8939
 4837SOL     OW25969   1.612   4.373   3.641  0.2476 -0.4244  0.1919
 4837SOL    HW125970   1.702   4.390   3.668  0.0572  0.0747  0.5302
 4837SOL    HW225971   1.608   4.425   3.560  0.7389 -1.3239 -0.4084
 4838SOL     OW25972   3.951   2.383   8.532  0.0228 -0.0596  0.1724
 4838SOL    HW125973   3.965   2.416   8.621 -0.8378  0.5311  0.0901
 4838SOL    HW225974   3.984   2.454   8.478  1.7217 -0.0558  1.2155
 4839SOL     OW25975   3.454   1.037   2.384 -0.1954 -0.4910  0.2825
 4839SOL    HW125976   3.436   1.129   2.365 -4.3173 -0.4105  4.5653
 4839SOL    HW225977   3.449   1.004   2.295 -3.5187 -0.7614  0.5999
 4840SOL     OW25978   3.363   3.163   0.065 -0.0688 -0.7890  0.3521
 4840SOL    HW125979   3.429   3.232   0.077 -0.1140 -1.0238  2.0139
 4840SOL    HW225980   3.344   3.170  17.657  1.1366  1.9838  0.2889
 4841SOL     OW25981   4.560   2.058   5.843 -0.1055  0.5075 -0.2475
 4841SOL    HW125982   4.570   2.118   5.917  0.3106  0.4220 -0.2388
 4841SOL    HW225983   4.481   2.085   5.796 -1.3194 -1.8737  0.3973
 4842SOL     OW25984   1.191   3.438   5.574 -0.4190 -0.1715  0.4621
 4842SOL    HW125985   1.134   3.513   5.591  0.7923  1.3786 -2.1084
 4842SOL    HW225986   1.261   3.485   5.527  0.6220 -2.2388 -0.0834
 4843SOL     OW25987   0.173   3.583   5.449 -0.6183  0.0773  0.5035
 4843SOL    HW125988   0.157   3.675   5.426  0.9973 -0.1127 -1.3554
 4843SOL    HW225989   0.092   3.565   5.495 -1.6207 -0.6321 -1.5380
 4844SOL     OW25990   2.372   3.772  14.761 -0.9798  0.4246  0.6917
 4844SOL    HW125991   2.430   3.750  14.688 -0.5864 -1.5552  1.5982
 4844SOL    HW225992   2.385   3.867  14.767 -1.7857  0.6465 -1.0286
 4845SOL     OW25993   4.039   1.709  15.268 -0.0533 -0.6205  0.9003
 4845SOL    HW125994   3.949   1.691  15.295 -0.5310  1.9024  1.0097
 4845SOL    HW225995   4.046   1.659  15.186 -0.0627 -0.0380  0.5463
 4846SOL     OW25996   4.254   0.457   2.775  0.4781 -0.0542  0.3697
 4846SOL    HW125997   4.166   0.480   2.806 -0.3834  0.1530 -2.2577
 4846SOL    HW225998   4.305   0.517   2.830  1.3899  0.0222 -0.5784
 4847SOL     OW25999   1.543   3.164  13.431 -0.1155  0.3127 -0.0041
 4847SOL    HW126000   1.636   3.142  13.419  0.1547  0.3907  1.9120
 4847SOL    HW226001   1.541   3.259  13.416  1.0451  0.2529 -0.5633
 4848SOL     OW26002   3.745   0.582   0.455 -0.9194 -0.0314  0.1713
 4848SOL    HW126003   3.837   0.590   0.481 -0.6183 -1.5269 -0.3971
 4848SOL    HW226004   3.719   0.495   0.485 -1.1446 -0.3982 -1.0677
 4849SOL     OW26005   1.883   1.354  12.793 -0.1789  0.3326 -0.0785
 4849SOL    HW126006   1.949   1.421  12.814  1.8227 -1.5966 -0.3048
 4849SOL    HW226007   1.936   1.280  12.765  0.9947  1.0082  0.3617
 4850SOL     OW26008   4.316   3.820   8.407  0.0007 -0.5119 -0.2444
 4850SOL    HW126009   4.343   3.728   8.411 -1.6242 -0.9762  0.0473
 4850SOL    HW226010   4.355   3.849   8.325  0.5785 -2.3084 -0.6087
 4851SOL     OW26011   1.761   0.969   0.097 -0.0157 -0.1224  0.1728
 4851SOL    HW126012   1.691   0.968   0.161 -1.5606 -2.6108 -1.5520
 4851SOL    HW226013   1.809   1.049   0.120  1.1381 -1.2889  1.7630
 4852SOL     OW26014   1.801   2.376   2.794  0.2419 -0.2665  0.4448
 4852SOL    HW126015   1.788   2.300   2.851 -2.2738 -0.4243 -0.3351
 4852SOL    HW226016   1.894   2.392   2.806  0.3543  0.4218 -1.2889
 4853SOL     OW26017   3.603   0.498   6.957  0.0671 -0.5532 -0.9447
 4853SOL    HW126018   3.521   0.530   6.996  1.1033 -0.4109  1.0894
 4853SOL    HW226019   3.597   0.530   6.867 -0.7130  1.3979 -0.2017
 4854SOL     OW26020   0.625   1.324   9.033 -0.1921  0.0796  0.0678
 4854SOL    HW126021   0.698   1.272   9.068 -1.4386 -1.1069  0.8922
 4854SOL    HW226022   0.583   1.374   9.103 -0.1542  1.1101 -0.6425
 4855SOL     OW26023   0.349   1.962   8.535 -0.1396  0.0560  0.1421
 4855SOL    HW126024   0.274   1.905   8.551 -1.3938  1.6446 -0.0126
 4855SOL    HW226025   0.347   1.975   8.440  0.5307 -0.3380  0.0704
 4856SOL     OW26026   3.341   3.671   1.922  0.1365  0.2614 -0.2621
 4856SOL    HW126027   3.281   3.731   1.877 -1.5735 -0.6854  0.7226
 4856SOL    HW226028   3.415   3.696   1.867  1.0054  0.6026  1.0928
 4857SOL     OW26029   2.888   4.310   6.184  0.5323  0.2322 -0.5571
 4857SOL    HW126030   2.830   4.234   6.189  1.2144 -0.2746 -0.3046
 4857SOL    HW226031   2.860   4.358   6.262 -0.5263 -3.2710  1.2265
 4858SOL     OW26032   1.728   1.827   9.276  0.0889  0.6450 -0.5488
 4858SOL    HW126033   1.809   1.781   9.297 -1.8616 -2.5197  0.0691
 4858SOL    HW226034   1.721   1.880   9.355  2.1671  2.1198 -1.3726
 4859SOL     OW26035   3.114   3.772   8.811 -0.0443  0.3547 -0.4638
 4859SOL    HW126036   3.194   3.725   8.836 -0.4802  0.5970  1.4365
 4859SOL    HW226037   3.047   3.730   8.865  0.6163 -2.4503 -1.8402
 4860SOL     OW26038   1.646   0.424   9.181  0.0454 -0.5062  0.4701
 4860SOL    HW126039   1.695   0.365   9.123 -0.6896  0.3641 -1.0332
 4860SOL    HW226040   1.722   0.467   9.221  1.3767 -1.4482 -1.0328
 4861SOL     OW26041   2.762   3.135   2.300 -0.0291 -0.0637 -0.0676
 4861SOL    HW126042   2.772   3.084   2.380  1.8878 -0.2510 -0.4233
 4861SOL    HW226043   2.685   3.187   2.321  0.6120  1.8740 -2.4802
 4862SOL     OW26044   1.629   0.485  13.466  0.3101 -0.2878 -0.2575
 4862SOL    HW126045   1.539   0.509  13.442  1.2612  1.5769 -1.9531
 4862SOL    HW226046   1.643   0.570  13.508  0.7636 -1.9093  2.8912
 4863SOL     OW26047   3.493   4.206   2.409 -0.1624  0.4367 -0.2888
 4863SOL    HW126048   3.502   4.193   2.315  0.4750  2.3253 -0.4714
 4863SOL    HW226049   3.572   4.258   2.421  1.7535 -1.5807 -4.1121
 4864SOL     OW26050   4.128   3.806   6.975  0.3219  0.2910 -0.3066
 4864SOL    HW126051   4.215   3.781   6.942  0.7939  1.6513 -0.1046
 4864SOL    HW226052   4.069   3.761   6.915 -0.4500  1.8842 -0.7436
 4865SOL     OW26053   1.504   3.276   1.718 -0.0462  1.1317  0.3655
 4865SOL    HW126054   1.476   3.192   1.755 -0.8146  1.5770  0.7852
 4865SOL    HW226055   1.425   3.307   1.673  0.1289  2.7314  1.1682
 4866SOL     OW26056   1.484   2.937   1.752  0.5000  0.2941  0.1845
 4866SOL    HW126057   1.451   2.847   1.749 -0.3558  0.5498  2.0163
 4866SOL    HW226058   1.421   2.974   1.813  0.2111 -0.5394  0.3895
 4867SOL     OW26059   1.497   4.163   3.393 -0.1443 -0.2048  0.4186
 4867SOL    HW126060   1.538   4.110   3.462  1.0386  1.2386  0.8027
 4867SOL    HW226061   1.562   4.230   3.374  0.6207 -1.5707 -1.7612
 4868SOL     OW26062   3.033   1.654   7.677  0.0027  0.2354 -0.0452
 4868SOL    HW126063   3.064   1.564   7.681  0.7213  0.4453 -0.7585
 4868SOL    HW226064   2.949   1.653   7.721  0.3208 -1.6377  0.4792
 4869SOL     OW26065   3.297   3.513   9.713  0.1131 -0.0019  0.2225
 4869SOL    HW126066   3.310   3.583   9.777  2.7294 -0.1152 -0.1895
 4869SOL    HW226067   3.383   3.475   9.729  0.7764  2.5003  2.6905
 4870SOL     OW26068   1.087   2.429   5.798  0.3072  0.0618 -0.1602
 4870SOL    HW126069   1.122   2.445   5.710 -1.1119 -0.9906 -0.9326
 4870SOL    HW226070   1.086   2.516   5.837  0.1164  0.5194 -1.1746
 4871SOL     OW26071   4.581   0.648  16.833  0.1063  0.3810  0.3067
 4871SOL    HW126072   4.672   0.675  16.819  0.8504 -1.4635  1.5550
 4871SOL    HW226073   4.580   0.561  16.871  1.0831  1.1963  2.1976
 4872SOL     OW26074   2.434   4.247   7.803 -0.5343 -0.3841 -0.2044
 4872SOL    HW126075   2.477   4.179   7.856 -0.6462 -0.1647  0.1674
 4872SOL    HW226076   2.389   4.183   7.747 -1.0164  0.7802 -1.1392
 4873SOL     OW26077   1.875   3.874   5.418  0.3458  0.2368 -0.3053
 4873SOL    HW126078   1.941   3.820   5.374 -0.0072 -0.0216 -0.5237
 4873SOL    HW226079   1.800   3.867   5.359  0.4532  3.2513 -0.7777
 4874SOL     OW26080   1.651   0.870  12.728 -0.1678 -0.5120 -0.2027
 4874SOL    HW126081   1.711   0.944  12.718 -1.1206  0.3176  0.2144
 4874SOL    HW226082   1.691   0.808  12.789 -0.4003  0.1300  0.6058
 4875SOL     OW26083   4.665   4.571   4.407 -0.1467 -0.5850  0.8736
 4875SOL    HW126084   0.013   4.528   4.457  0.9995 -1.0479 -1.0988
 4875SOL    HW226085   4.626   4.496   4.362 -0.9302  1.7043 -2.2990
 4876SOL     OW26086   2.301   4.050   0.006 -0.0157  0.2338 -0.0335
 4876SOL    HW126087   2.377   4.019  17.642 -0.3541 -1.0442  0.2562
 4876SOL    HW226088   2.232   4.027  17.628  0.9337  0.2633 -1.0920
 4877SOL     OW26089   3.390   0.184   3.132 -0.2218  0.2840  0.1083
 4877SOL    HW126090   3.452   0.237   3.083 -0.9629  1.1349  0.0670
 4877SOL    HW226091   3.414   0.211   3.221 -1.2482 -0.0741  0.5025
 4878SOL     OW26092   3.721   3.058   4.019 -0.2026 -0.1437 -0.6617
 4878SOL    HW126093   3.815   3.077   4.012  0.1976 -1.7097  0.5866
 4878SOL    HW226094   3.694   3.081   3.931 -2.5296 -0.7752 -0.1138
 4879SOL     OW26095   2.017   3.345   6.567 -0.3516  0.1060 -0.9387
 4879SOL    HW126096   1.956   3.355   6.640  2.6163 -1.7280  1.7688
 4879SOL    HW226097   1.984   3.266   6.525  1.8600 -2.1092  1.4931
 4880SOL     OW26098   3.020   2.375   4.574 -0.2889  0.2195  0.5197
 4880SOL    HW126099   3.010   2.414   4.487 -0.5301 -1.0376 -0.0240
 4880SOL    HW226100   2.950   2.310   4.583 -2.2164  2.2811  0.1675
 4881SOL     OW26101   4.171   1.938   5.036 -0.0317 -0.4713  0.3375
 4881SOL    HW126102   4.084   1.977   5.046 -0.2924 -1.0342  0.2546
 4881SOL    HW226103   4.168   1.865   5.098  1.5497 -0.0681  0.8989
 4882SOL     OW26104   2.470   3.365   5.978 -0.4422  0.1340 -0.0094
 4882SOL    HW126105   2.477   3.280   5.935 -1.9847 -0.2665  0.5285
 4882SOL    HW226106   2.409   3.346   6.049  0.3126  0.8999  0.8568
 4883SOL     OW26107   4.455   1.433   6.345 -0.5415  0.0581 -0.6285
 4883SOL    HW126108   4.415   1.425   6.259 -0.6450  0.5380 -0.6252
 4883SOL    HW226109   4.507   1.355   6.365  2.8106  1.4978 -3.6258
 4884SOL     OW26110   0.195   2.779  11.778  0.1351  0.0704  0.3121
 4884SOL    HW126111   0.175   2.689  11.802  1.4505 -0.3154 -0.0154
 4884SOL    HW226112   0.202   2.771  11.683  0.3366  0.5188  0.2887
 4885SOL     OW26113   1.843   4.625   2.482 -0.7089 -0.5064  0.3315
 4885SOL    HW126114   1.789   4.552   2.512  0.0339 -0.8817  0.7403
 4885SOL    HW226115   1.935   4.599   2.481 -0.2746  1.1030 -1.2051
 4886SOL     OW26116   1.636   0.493  11.022 -0.2117 -0.3598 -0.3141
 4886SOL    HW126117   1.713   0.471  10.970  0.6883 -1.3416  1.4291
 4886SOL    HW226118   1.566   0.470  10.961  0.1393 -1.1723 -0.4031
 4887SOL     OW26119   0.747   0.586   0.304  0.4437  0.1810 -0.2790
 4887SOL    HW126120   0.675   0.628   0.351  2.2014 -0.3119  2.8781
 4887SOL    HW226121   0.800   0.557   0.378 -0.3453  1.0439  0.6150
 4888SOL     OW26122   4.171   3.317  11.621 -0.2425 -0.4945 -0.0167
 4888SOL    HW126123   4.157   3.302  11.714  1.6941 -4.2999 -0.3597
 4888SOL    HW226124   4.086   3.307  11.578 -1.3660 -2.1764  2.5882
 4889SOL     OW26125   2.849   4.375   3.761 -0.0412 -0.2380 -0.1644
 4889SOL    HW126126   2.782   4.332   3.708  1.2015 -0.2578 -1.7434
 4889SOL    HW226127   2.832   4.468   3.746 -0.3399  0.1093  2.3463
 4890SOL     OW26128   2.101   1.558   0.981  0.1087 -0.4246 -0.0441
 4890SOL    HW126129   2.039   1.545   1.053 -1.2673 -0.2362 -1.2110
 4890SOL    HW226130   2.080   1.499   0.909 -1.5233  1.9360 -1.5064
 4891SOL     OW26131   4.318   3.712  16.764  0.1598 -0.3545  0.4368
 4891SOL    HW126132   4.325   3.617  16.765  0.0396 -0.3611  0.5489
 4891SOL    HW226133   4.335   3.735  16.672 -0.5986 -1.2248  0.0781
 4892SOL     OW26134   0.403   3.267  14.688 -0.8481 -0.2193 -0.3149
 4892SOL    HW126135   0.411   3.236  14.598 -0.0354  0.3994 -0.4531
 4892SOL    HW226136   0.483   3.319  14.684  0.0079 -1.7240 -3.2634
 4893SOL     OW26137   0.255   1.683   0.232  0.6737 -0.3952  1.1373
 4893SOL    HW126138   0.169   1.659   0.269 -0.2396 -0.1963 -0.8485
 4893SOL    HW226139   0.288   1.736   0.304  1.2825  0.9023 -0.1000
 4894SOL     OW26140   3.588   2.464  14.526  0.2429 -0.1216  0.3881
 4894SOL    HW126141   3.519   2.503  14.578 -1.2629 -1.1576 -0.8342
 4894SOL    HW226142   3.600   2.373  14.554 -2.0309 -0.1257  1.3226
 4895SOL     OW26143   3.319   1.104   3.317 -0.7842 -0.0901  0.3816
 4895SOL    HW126144   3.305   1.028   3.373  4.5640 -1.6212 -0.3076
 4895SOL    HW226145   3.239   1.102   3.264  0.0213  1.7100 -0.9188
 4896SOL     OW26146   3.914   4.053   6.147  0.3093  0.3161 -0.0822
 4896SOL    HW126147   3.898   4.147   6.161  1.1035  0.1407  2.1271
 4896SOL    HW226148   3.910   4.032   6.054  0.8446  1.8979 -0.4668
 4897SOL     OW26149   0.964   1.113   8.490  0.1047  0.3123 -0.1298
 4897SOL    HW126150   0.878   1.146   8.519 -0.0442 -0.8239  0.7165
 4897SOL    HW226151   0.961   1.018   8.495  1.7241  0.2895  0.3253
 4898SOL     OW26152   4.184   2.372   7.886  0.4275 -0.2866 -0.8398
 4898SOL    HW126153   4.103   2.416   7.910  0.8602  1.0644 -1.8491
 4898SOL    HW226154   4.250   2.440   7.873 -1.3346  1.4174 -0.8295
 4899SOL     OW26155   3.776   3.779   8.983  0.1660 -0.1886 -0.1827
 4899SOL    HW126156   3.814   3.711   8.928  3.3037  0.7154  0.9006
 4899SOL    HW226157   3.821   3.858   8.955  1.3427 -0.0175  2.2046
 4900SOL     OW26158   0.404   2.080   1.124 -0.5673 -0.3527 -0.1753
 4900SOL    HW126159   0.419   1.996   1.080  2.9926 -0.0400  0.4940
 4900SOL    HW226160   0.309   2.087   1.109 -0.4314 -0.6598 -1.1698
 4901SOL     OW26161   2.722   0.066   5.722  0.5765  0.4506  0.6935
 4901SOL    HW126162   2.746   0.018   5.801 -2.1175 -0.7325  0.8127
 4901SOL    HW226163   2.794   0.129   5.722  0.0793  1.0189 -0.0401
 4902SOL     OW26164   1.079   0.276   3.386 -0.7457  0.2715  0.5360
 4902SOL    HW126165   1.037   0.197   3.351  1.7997  0.2014 -2.3740
 4902SOL    HW226166   1.169   0.268   3.355 -0.1633 -0.3880  2.3814
 4903SOL     OW26167   2.648   2.394   5.367 -0.3495  0.4875 -0.0349
 4903SOL    HW126168   2.626   2.485   5.387 -1.7495  0.2084 -0.2711
 4903SOL    HW226169   2.575   2.364   5.312 -0.9359  2.1241 -0.1574
 4904SOL     OW26170   0.138   1.426   7.782 -0.4624 -0.3928  0.0172
 4904SOL    HW126171   0.227   1.450   7.754 -0.4213  0.1225  0.5910
 4904SOL    HW226172   0.080   1.449   7.710 -2.5144  0.3136  1.9088
 4905SOL     OW26173   4.649   2.003   3.578 -0.6995 -0.0548 -0.0980
 4905SOL    HW126174   4.676   2.033   3.664 -1.6769 -2.0128  0.8925
 4905SOL    HW226175   4.624   2.088   3.542 -1.1722  0.7534  2.1553
 4906SOL     OW26176   0.824   1.291   3.799  0.1150  0.2968 -0.4475
 4906SOL    HW126177   0.823   1.376   3.842  0.2435 -1.2584  2.5958
 4906SOL    HW226178   0.762   1.302   3.727  0.3784 -0.0737 -0.7307
 4907SOL     OW26179   1.130   0.549   3.429 -0.6470 -0.1784 -0.2714
 4907SOL    HW126180   1.096   0.461   3.415  2.1801 -1.2391 -0.5521
 4907SOL    HW226181   1.214   0.547   3.382 -0.8933 -2.0940 -0.6513
 4908SOL     OW26182   3.438   2.294   2.084 -0.5733 -0.2521 -0.1044
 4908SOL    HW126183   3.454   2.282   1.990  1.2953  1.3973  0.0046
 4908SOL    HW226184   3.512   2.351   2.106  0.4090 -1.0175 -1.4449
 4909SOL     OW26185   4.381   3.758   2.280 -0.3912  0.5350 -0.3819
 4909SOL    HW126186   4.421   3.682   2.325  0.0479  1.0253  0.0665
 4909SOL    HW226187   4.369   3.816   2.355 -1.4575 -0.6336  0.3557
 4910SOL     OW26188   2.563   4.502   6.785  0.3329 -0.1407  0.4982
 4910SOL    HW126189   2.616   4.430   6.751  1.2326  0.4104  0.7325
 4910SOL    HW226190   2.628   4.562   6.823 -0.9968  1.8004 -0.2683
 4911SOL     OW26191   2.257   0.088  15.966  0.5370  0.6980 -0.2504
 4911SOL    HW126192   2.298   0.094  15.880  1.6117  1.6713  0.3305
 4911SOL    HW226193   2.328   0.123  16.020  0.2109  0.3904  0.3782
 4912SOL     OW26194   4.020   0.642   0.503 -0.0292 -0.2170 -0.0618
 4912SOL    HW126195   4.095   0.611   0.555 -0.5464  0.4374  1.0567
 4912SOL    HW226196   4.056   0.636   0.415 -0.4187 -0.8552 -0.1840
 4913SOL     OW26197   0.675   0.465   5.488 -0.0750 -0.1335 -0.6406
 4913SOL    HW126198   0.653   0.508   5.405  1.8976  1.7239 -0.1978
 4913SOL    HW226199   0.694   0.379   5.450 -1.1636 -0.8541  0.4521
 4914SOL     OW26200   0.255   1.083  15.234 -0.1896 -0.6111  0.3580
 4914SOL    HW126201   0.256   0.995  15.270 -2.3420 -0.4309  0.8348
 4914SOL    HW226202   0.298   1.061  15.151 -1.1343 -0.9437 -0.0474
 4915SOL     OW26203   0.256   2.622  16.710 -0.0746 -0.1332 -0.1211
 4915SOL    HW126204   0.171   2.592  16.679  0.0974 -2.4634  1.6770
 4915SOL    HW226205   0.309   2.544  16.724  1.7360  0.9359 -1.0063
 4916SOL     OW26206   0.613   2.198   9.216  0.7629 -0.0176  0.2753
 4916SOL    HW126207   0.605   2.130   9.283  1.8550 -0.4727 -0.0467
 4916SOL    HW226208   0.547   2.169   9.153  1.0893 -0.8518  0.3199
 4917SOL     OW26209   0.396   2.729  17.291  0.1161  0.4106  0.1929
 4917SOL    HW126210   0.326   2.665  17.288  0.4981 -0.0846  1.5893
 4917SOL    HW226211   0.453   2.698  17.220  0.3369  1.6483 -0.1705
 4918SOL     OW26212   1.663   0.199   8.468 -0.0787  0.0069 -0.3506
 4918SOL    HW126213   1.627   0.287   8.478 -0.9470 -0.7397  3.0349
 4918SOL    HW226214   1.755   0.223   8.463 -0.5876  2.2280  1.4031
 4919SOL     OW26215   4.359   0.842   4.493 -0.3419 -0.1213  0.2329
 4919SOL    HW126216   4.410   0.801   4.422  0.7916  1.1794  0.3056
 4919SOL    HW226217   4.295   0.772   4.506 -0.3822 -0.7138 -2.9788
 4920SOL     OW26218   1.230   1.286   6.035  0.3653  0.0721 -0.8499
 4920SOL    HW126219   1.323   1.262   6.040  0.2449  0.4774  3.3566
 4920SOL    HW226220   1.230   1.371   5.990  0.7247 -0.4719 -1.8721
 4921SOL     OW26221   0.860   0.057   9.257  0.2819 -0.4130 -0.0838
 4921SOL    HW126222   0.896   4.693   9.231 -0.8756 -0.7314 -0.6728
 4921SOL    HW226223   0.778   0.032   9.300  0.6055 -1.7172 -0.2141
 4922SOL     OW26224   1.555   0.483   3.962  0.3330 -0.0736  0.3446
 4922SOL    HW126225   1.487   0.541   3.929 -1.6352 -2.2740  0.5044
 4922SOL    HW226226   1.503   0.408   3.992 -0.4556 -0.0587 -0.9580
 4923SOL     OW26227   4.481   4.188  10.894  0.3708 -0.1396 -0.4164
 4923SOL    HW126228   4.562   4.228  10.926  0.1757  0.0702 -0.1914
 4923SOL    HW226229   4.434   4.171  10.975 -0.6513  0.4067 -0.8950
 4924SOL     OW26230   0.255   2.385  10.302 -0.2712 -0.1660 -0.4759
 4924SOL    HW126231   0.269   2.479  10.308  0.4185 -0.2049 -1.4295
 4924SOL    HW226232   0.304   2.371  10.221  0.3887  0.1684 -0.1305
 4925SOL     OW26233   3.307   4.417   7.644 -0.3011  0.8554  0.2055
 4925SOL    HW126234   3.332   4.475   7.572 -0.5192 -0.1881 -0.7180
 4925SOL    HW226235   3.215   4.403   7.624 -0.6204  0.7981  1.7138
 4926SOL     OW26236   3.373   1.054   9.844  0.6710  0.2853  0.0377
 4926SOL    HW126237   3.278   1.038   9.842  0.5359  0.7754  2.3112
 4926SOL    HW226238   3.373   1.121   9.776  0.6473 -0.5048 -0.7517
 4927SOL     OW26239   3.052   1.892  15.018 -0.2564  0.3801 -0.2637
 4927SOL    HW126240   3.123   1.830  15.006 -0.5007  0.1688 -0.6277
 4927SOL    HW226241   2.987   1.856  15.078  0.2939  1.3850  0.9268
 4928SOL     OW26242   0.551   3.107   5.989 -0.8792  0.5650 -0.3769
 4928SOL    HW126243   0.559   3.022   5.946 -0.4016  1.1371 -1.4120
 4928SOL    HW226244   0.611   3.105   6.064  0.5150  1.0789 -1.4740
 4929SOL     OW26245   0.820   1.190  17.474 -0.4157 -0.3046 -0.1466
 4929SOL    HW126246   0.897   1.190  17.531  1.1373  2.2049 -2.2427
 4929SOL    HW226247   0.797   1.098  17.486 -1.0509 -0.0285  0.7101
 4930SOL     OW26248   2.846   0.954   5.089 -0.0928 -0.1460 -0.5796
 4930SOL    HW126249   2.838   0.892   5.016 -1.7412 -0.9328  0.2729
 4930SOL    HW226250   2.772   1.014   5.073 -2.2615 -2.3888  1.0400
 4931SOL     OW26251   2.703   4.268  13.330 -0.0654 -0.2560 -0.1701
 4931SOL    HW126252   2.797   4.255  13.341 -0.0954  0.6286  1.1807
 4931SOL    HW226253   2.689   4.227  13.245 -1.4220  1.9529 -1.0056
 4932SOL     OW26254   3.548   1.633  15.638  0.4094  0.3153  0.4170
 4932SOL    HW126255   3.474   1.656  15.582  1.3949 -0.8257 -1.3484
 4932SOL    HW226256   3.622   1.632  15.577 -0.9770 -0.7345 -1.2465
 4933SOL     OW26257   1.438   3.889   9.220  0.0265 -0.4451  0.1563
 4933SOL    HW126258   1.508   3.905   9.157 -0.6560 -2.6970 -1.2190
 4933SOL    HW226259   1.477   3.822   9.276 -0.3681  0.1567  1.1444
 4934SOL     OW26260   4.158   2.789   5.434 -0.0358 -0.3526 -0.5921
 4934SOL    HW126261   4.217   2.852   5.476  0.0085 -0.2523 -0.8048
 4934SOL    HW226262   4.164   2.828   5.347  0.2713 -1.9020 -1.2621
 4935SOL     OW26263   1.878   1.121   6.146 -0.1137  0.0141  0.1168
 4935SOL    HW126264   1.880   1.217   6.147  2.3780 -0.0470 -0.1124
 4935SOL    HW226265   1.800   1.100   6.095  0.9927 -1.1987 -1.0826
 4936SOL     OW26266   2.065   1.546   3.789  0.6513  0.3627 -0.2891
 4936SOL    HW126267   2.074   1.451   3.782  0.1048  0.1551  1.9363
 4936SOL    HW226268   2.073   1.568   3.696 -2.5725 -1.7962 -1.0672
 4937SOL     OW26269   4.161   3.751   6.669 -0.1450  0.0048 -0.1480
 4937SOL    HW126270   4.242   3.702   6.681  0.2580  0.3599 -1.5429
 4937SOL    HW226271   4.136   3.727   6.580  1.3117 -1.3420 -0.1797
 4938SOL     OW26272   3.864   1.246   5.868  0.3309 -0.8614 -0.0800
 4938SOL    HW126273   3.873   1.249   5.773  0.2717  2.4003  0.0062
 4938SOL    HW226274   3.860   1.151   5.875  0.2080 -0.7848  0.9544
 4939SOL     OW26275   3.431   0.367   5.637  0.1053 -0.7542  0.4113
 4939SOL    HW126276   3.445   0.280   5.600  1.7131  0.7663 -2.5411
 4939SOL    HW226277   3.445   0.419   5.558  0.2455 -0.8460  0.3748
 4940SOL     OW26278   0.615   2.551  12.943  0.4780 -0.1057 -0.0924
 4940SOL    HW126279   0.608   2.641  12.974  1.0329  0.1546 -0.7156
 4940SOL    HW226280   0.685   2.520  13.001  0.4987 -0.5791 -0.3688
 4941SOL     OW26281   2.177   0.472   3.906  0.2026 -0.0771 -0.3791
 4941SOL    HW126282   2.186   0.559   3.868  1.6836  0.4307  1.1725
 4941SOL    HW226283   2.082   0.465   3.912  0.0387  1.3383 -1.2936
 4942SOL     OW26284   4.483   1.819   9.662 -0.0620  0.3698  0.0783
 4942SOL    HW126285   4.417   1.833   9.594  2.1434  3.8084 -1.3358
 4942SOL    HW226286   4.555   1.875   9.634  2.4399 -3.8314 -1.9782
 4943SOL     OW26287   2.508   3.973   7.944 -0.2160  0.0643 -0.7605
 4943SOL    HW126288   2.469   3.893   7.907  1.8522 -1.2057 -0.2078
 4943SOL    HW226289   2.600   3.964   7.916  0.7464  1.1113  2.1633
 4944SOL     OW26290   3.756   2.651   8.277 -0.1951 -0.0973 -0.4747
 4944SOL    HW126291   3.708   2.568   8.283 -0.2981  0.0384  0.5987
 4944SOL    HW226292   3.685   2.715   8.272 -0.4152 -0.2154  1.0878
 4945SOL     OW26293   1.109   4.275   7.556  0.0969 -0.1793 -0.2816
 4945SOL    HW126294   1.085   4.285   7.463  0.1632  0.9676 -0.1706
 4945SOL    HW226295   1.050   4.203   7.579 -0.6339  0.6417  0.4096
 4946SOL     OW26296   2.916   1.595   2.375  0.2398 -0.1679 -0.2042
 4946SOL    HW126297   2.944   1.593   2.467  0.9270 -2.1750 -0.4585
 4946SOL    HW226298   2.940   1.510   2.340 -0.3443 -0.6850  0.6319
 4947SOL     OW26299   2.985   1.911   5.753 -0.3891  0.4959  0.7045
 4947SOL    HW126300   3.060   1.858   5.726  2.6071  2.7201  4.5703
 4947SOL    HW226301   3.017   1.997   5.781 -0.3731  1.0094 -0.8940
 4948SOL     OW26302   2.789   2.003   4.043  0.4081 -0.7850 -0.2825
 4948SOL    HW126303   2.798   1.979   3.950 -1.0699  0.7672 -0.8061
 4948SOL    HW226304   2.695   1.993   4.058 -0.0893  2.4065 -1.3831
 4949SOL     OW26305   1.626   3.891  13.663  0.4088  0.3217  0.7387
 4949SOL    HW126306   1.555   3.935  13.615  1.7429  2.5369  0.8044
 4949SOL    HW226307   1.579   3.808  13.675  2.2593 -0.5024  2.2813
 4950SOL     OW26308   2.571   0.188   4.411  0.3053 -0.1425 -0.1306
 4950SOL    HW126309   2.613   0.147   4.487  0.5152  0.7993  0.2639
 4950SOL    HW226310   2.484   0.195   4.450  0.0667  0.6218 -0.8114
 4951SOL     OW26311   1.736   0.271   5.788  0.0092  0.4801 -0.4728
 4951SOL    HW126312   1.732   0.320   5.871  2.2370 -0.0577 -0.0353
 4951SOL    HW226313   1.726   0.345   5.729 -0.1787 -0.6098 -1.8010
 4952SOL     OW26314   1.966   2.025   7.593  0.2276 -0.8152 -0.0785
 4952SOL    HW126315   2.040   2.004   7.535  1.3419 -1.5589  1.5945
 4952SOL    HW226316   1.965   2.120   7.583  0.2457 -0.5482  2.3392
 4953SOL     OW26317   2.480   0.566  14.859 -0.4623 -0.4609 -0.1787
 4953SOL    HW126318   2.486   0.576  14.954  2.6687 -1.2361 -0.3063
 4953SOL    HW226319   2.494   0.655  14.825 -0.8147 -0.5371 -0.5221
 4954SOL     OW26320   2.785   0.666   7.348  0.0173  0.1320  0.0244
 4954SOL    HW126321   2.838   0.615   7.409 -3.7733 -2.4186  1.1841
 4954SOL    HW226322   2.839   0.744   7.333  2.7611 -1.6257  0.8367
 4955SOL     OW26323   4.372   3.502   4.339 -0.7028 -0.2943 -0.1779
 4955SOL    HW126324   4.289   3.454   4.343 -1.0138  0.4659  3.0056
 4955SOL    HW226325   4.349   3.554   4.263  0.1463  2.3342  1.3579
 4956SOL     OW26326   1.946   3.031  13.195  0.0334  0.1974  0.2269
 4956SOL    HW126327   1.903   2.971  13.134  1.1895  1.1406 -1.5172
 4956SOL    HW226328   2.038   3.004  13.189  0.5389  1.8760  0.4241
 4957SOL     OW26329   0.135   4.329   8.169 -0.0914 -0.3469 -0.1841
 4957SOL    HW126330   0.201   4.391   8.199  1.6499 -1.9296 -0.7082
 4957SOL    HW226331   0.055   4.361   8.210  0.3940  2.4483 -1.3700
 4958SOL     OW26332   4.052   2.742   4.330 -0.1286 -0.0616 -0.2734
 4958SOL    HW126333   4.042   2.680   4.258  0.3815 -1.2296  0.6640
 4958SOL    HW226334   4.053   2.681   4.404 -0.6784  1.1967  0.7841
 4959SOL     OW26335   3.261   2.544   3.127  0.0474  0.0198  0.1730
 4959SOL    HW126336   3.254   2.450   3.147 -1.6002  0.0053 -0.4912
 4959SOL    HW226337   3.304   2.550   3.041 -0.9542  2.0085 -0.1719
 4960SOL     OW26338   2.835   2.587   6.492 -0.2258  0.2153  0.5682
 4960SOL    HW126339   2.775   2.609   6.421 -0.3359 -0.5122  0.4421
 4960SOL    HW226340   2.780   2.596   6.570 -0.8349  1.4194  0.0025
 4961SOL     OW26341   3.174   1.839   4.053  0.3129  0.2466 -0.5546
 4961SOL    HW126342   3.234   1.803   4.118 -0.2735 -2.3135 -1.4629
 4961SOL    HW226343   3.088   1.825   4.094  0.2688 -0.0952 -0.7668
 4962SOL     OW26344   4.024   3.053   6.469  0.4987 -0.0245  0.2470
 4962SOL    HW126345   4.070   3.122   6.516 -1.2857 -0.3967  2.5142
 4962SOL    HW226346   4.009   2.975   6.523 -0.1117 -0.9101 -1.1862
 4963SOL     OW26347   2.301   1.364  16.993 -0.4926 -0.3598  0.8317
 4963SOL    HW126348   2.312   1.286  16.939  1.6652 -0.6159  1.6417
 4963SOL    HW226349   2.293   1.316  17.076 -0.3463 -2.4334 -0.3644
 4964SOL     OW26350   0.766   1.314  15.973 -0.2312  0.4012  0.1508
 4964SOL    HW126351   0.857   1.284  15.963 -0.4719 -0.4118  0.3500
 4964SOL    HW226352   0.780   1.408  15.968 -1.3878  0.5258 -0.7623
 4965SOL     OW26353   1.969   2.064   2.688  0.3702 -0.1468  0.1096
 4965SOL    HW126354   2.008   2.148   2.666  1.0035 -0.4731 -0.0198
 4965SOL    HW226355   1.964   2.025   2.601 -0.8163 -1.5322  0.8094
 4966SOL     OW26356   3.716   1.884   7.616  0.2210  0.0674  0.2583
 4966SOL    HW126357   3.745   1.943   7.686 -1.9836  0.7757  0.5948
 4966SOL    HW226358   3.791   1.826   7.616  0.5752  0.5205  1.3938
 4967SOL     OW26359   0.389   0.376   8.494 -0.3868  0.1408  0.1162
 4967SOL    HW126360   0.351   0.448   8.544  1.9136  0.5852  1.2439
 4967SOL    HW226361   0.327   0.304   8.504 -0.2792 -0.2822 -2.2286
 4968SOL     OW26362   0.702   3.593   7.709 -0.7956  0.1980  0.0910
 4968SOL    HW126363   0.626   3.651   7.723  0.8002  2.7588 -1.6925
 4968SOL    HW226364   0.667   3.514   7.750  2.3852 -0.5710  1.2914
 4969SOL     OW26365   3.508   1.392  14.915 -0.2683  0.1584  0.2404
 4969SOL    HW126366   3.507   1.435  15.000  0.2700 -0.1820  0.4212
 4969SOL    HW226367   3.602   1.385  14.897 -0.4063  1.6375 -1.0608
 4970SOL     OW26368   0.573   4.239  11.814 -0.6387 -0.5260  0.0284
 4970SOL    HW126369   0.661   4.235  11.853 -0.9358  0.0422  0.7524
 4970SOL    HW226370   0.594   4.186  11.737  0.3935 -0.0358 -0.0295
 4971SOL     OW26371   1.439   4.024   5.831 -0.0054 -0.1848  0.1022
 4971SOL    HW126372   1.534   4.018   5.841  0.2613  0.1914 -2.2715
 4971SOL    HW226373   1.432   4.094   5.767  1.5783 -1.5318 -1.5115
 4972SOL     OW26374   1.474   3.486   7.072  0.5568  0.2882  0.2761
 4972SOL    HW126375   1.442   3.571   7.043  1.5315  0.6983  0.4385
 4972SOL    HW226376   1.394   3.433   7.070  0.6712  0.1654 -2.0245
 4973SOL     OW26377   3.249   0.614   8.668 -0.2567 -0.3286 -0.0036
 4973SOL    HW126378   3.211   0.669   8.737  2.2934  1.5861 -0.1315
 4973SOL    HW226379   3.270   0.676   8.598  0.3217 -0.8162 -0.2555
 4974SOL     OW26380   4.053   1.703   3.646  0.0925  0.7851 -0.3512
 4974SOL    HW126381   4.131   1.715   3.592  1.4267 -2.1111  0.9194
 4974SOL    HW226382   3.987   1.719   3.578 -0.7230  1.3974  0.5915
 4975SOL     OW26383   0.762   4.050   8.089 -0.3935  0.1172 -0.3022
 4975SOL    HW126384   0.787   4.062   7.997  0.3339  0.8417 -0.0069
 4975SOL    HW226385   0.818   4.118   8.126 -1.5086  0.8398  0.0445
 4976SOL     OW26386   1.080   3.673   5.638  0.0044  0.3624  0.3458
 4976SOL    HW126387   1.009   3.699   5.697 -0.8435 -1.2541  0.0510
 4976SOL    HW226388   1.154   3.712   5.684  1.2497 -1.9454  0.3085
 4977SOL     OW26389   4.425   0.030   3.384  0.4046  0.5122  0.2669
 4977SOL    HW126390   4.428   0.124   3.400 -1.2951  0.2448  2.1084
 4977SOL    HW226391   4.501   0.009   3.329 -1.1706 -1.8516 -0.9767
 4978SOL     OW26392   0.922   0.300   1.615  0.4026  0.1094 -0.0865
 4978SOL    HW126393   0.870   0.224   1.640  0.8017 -0.5113 -1.1444
 4978SOL    HW226394   0.871   0.339   1.544  0.3668  0.2789  0.0329
 4979SOL     OW26395   2.290   3.780   9.570  0.0478 -0.0934 -0.3527
 4979SOL    HW126396   2.265   3.859   9.618  4.5807  0.2154  1.4954
 4979SOL    HW226397   2.314   3.802   9.480 -2.5936  1.9428 -0.5603
 4980SOL     OW26398   2.019   3.814  15.841  0.5802  0.3557  0.0278
 4980SOL    HW126399   2.094   3.755  15.855 -0.3943 -1.0704 -0.8435
 4980SOL    HW226400   2.017   3.862  15.924  3.1330  2.0285 -0.8635
 4981SOL     OW26401   4.016   2.914   3.078 -0.0431 -0.0668 -0.1570
 4981SOL    HW126402   4.100   2.879   3.048  0.9472  2.0258  0.1525
 4981SOL    HW226403   4.003   2.882   3.167  2.2231 -0.1999  0.1298
 4982SOL     OW26404   1.473   1.599   1.436  0.0739  0.1493  0.3074
 4982SOL    HW126405   1.433   1.572   1.519 -0.4884 -4.0226 -1.3071
 4982SOL    HW226406   1.500   1.512   1.405  1.3625  0.8984 -0.6476
 4983SOL     OW26407   2.289   1.508   2.600  0.4079 -0.0990 -0.2745
 4983SOL    HW126408   2.222   1.490   2.533  0.3097  1.9110 -0.7281
 4983SOL    HW226409   2.358   1.447   2.575 -1.1776 -2.2256  0.6114
 4984SOL     OW26410   4.097   0.472   5.089  0.2928 -0.1570  0.1985
 4984SOL    HW126411   4.057   0.557   5.112  0.3986  0.1781 -0.8343
 4984SOL    HW226412   4.187   0.506   5.084  0.1769 -0.2970 -2.9698
 4985SOL     OW26413   2.661   4.672   8.508  0.1732 -0.3381  0.0095
 4985SOL    HW126414   2.654   0.047   8.503  0.6573 -0.2802  0.3953
 4985SOL    HW226415   2.711   4.654   8.429  1.2690 -1.2680  0.9067
 4986SOL     OW26416   3.916   2.019   7.062 -0.3873  0.4411  0.7797
 4986SOL    HW126417   4.011   2.009   7.071 -0.0797  1.7427 -1.0858
 4986SOL    HW226418   3.916   2.115   7.065  3.2341  0.5532 -2.2124
 4987SOL     OW26419   4.016   4.298   8.968  0.0248  0.2334 -0.2324
 4987SOL    HW126420   4.100   4.266   9.001 -0.0504  1.3199  1.0120
 4987SOL    HW226421   4.039   4.290   8.875  2.0322 -1.1278  0.3932
 4988SOL     OW26422   0.946   4.528   6.345  0.3669  0.0554 -0.4798
 4988SOL    HW126423   1.006   4.594   6.381  0.1464 -0.2419  0.4285
 4988SOL    HW226424   0.988   4.505   6.262  2.0302  1.7974 -0.1271
 4989SOL     OW26425   2.418   0.230   9.682  0.1276  0.1900 -0.0321
 4989SOL    HW126426   2.370   0.149   9.700 -0.5653  0.3798 -0.9954
 4989SOL    HW226427   2.439   0.257   9.771  0.3058  0.1088 -0.0476
 4990SOL     OW26428   3.191   1.048   3.676  0.3380 -0.4340 -0.0634
 4990SOL    HW126429   3.252   1.083   3.611  1.7091 -0.5332  1.2006
 4990SOL    HW226430   3.198   1.109   3.749  0.8281  0.2168 -0.6491
 4991SOL     OW26431   1.511   3.787   7.554  0.1611  0.0737 -0.5116
 4991SOL    HW126432   1.595   3.794   7.599  1.0757 -0.4285 -2.1707
 4991SOL    HW226433   1.446   3.756   7.618  0.2321  0.4759 -0.2491
 4992SOL     OW26434   4.389   3.148  13.505 -0.0188  0.2710 -0.3385
 4992SOL    HW126435   4.415   3.203  13.431 -0.6929  0.0627 -0.7385
 4992SOL    HW226436   4.386   3.215  13.573 -1.1260 -0.6589  0.5212
 4993SOL     OW26437   2.879   0.656   1.946  0.1848 -0.5098  0.7929
 4993SOL    HW126438   2.847   0.746   1.943  1.5827 -0.0785 -1.3551
 4993SOL    HW226439   2.807   0.610   1.989  0.1648 -1.2870 -0.0657
 4994SOL     OW26440   2.440   2.879   0.282  0.0900  0.8671  0.2143
 4994SOL    HW126441   2.524   2.836   0.266 -0.4327  0.8121 -2.4542
 4994SOL    HW226442   2.440   2.925   0.366 -0.8946 -1.0043  1.2519
 4995SOL     OW26443   4.487   4.312   4.881 -0.2407 -0.6979  0.1606
 4995SOL    HW126444   4.449   4.324   4.794 -1.4694  0.6484  0.8891
 4995SOL    HW226445   4.419   4.336   4.944 -0.5000 -1.3615  0.1319
 4996SOL     OW26446   1.328   1.512   4.803  0.0820 -0.0812 -0.3484
 4996SOL    HW126447   1.289   1.534   4.888  0.8920 -0.3017  0.0882
 4996SOL    HW226448   1.414   1.551   4.822  0.4505  0.0407 -2.2989
 4997SOL     OW26449   1.961   3.515   0.092 -0.1550  0.3438  0.4243
 4997SOL    HW126450   1.876   3.506   0.049 -0.4028  2.4500  0.4701
 4997SOL    HW226451   1.987   3.426   0.111  0.5000  0.3987 -0.2506
 4998SOL     OW26452   0.597   1.015  14.873  0.0019 -0.0381 -0.0246
 4998SOL    HW126453   0.604   1.072  14.797 -0.6954  2.4752  1.7724
 4998SOL    HW226454   0.644   0.939  14.842 -0.7597 -0.1025 -1.0234
 4999SOL     OW26455   1.994   3.942  11.496  0.0330  0.2218  0.1120
 4999SOL    HW126456   1.936   4.016  11.508 -2.1394 -1.4078 -0.3224
 4999SOL    HW226457   2.079   3.978  11.521  0.6728  0.3008 -2.1712
 5000SOL     OW26458   3.009   4.021  14.635  0.1395 -0.2055 -0.4205
 5000SOL    HW126459   3.025   4.074  14.713 -0.5391  1.3379 -1.3317
 5000SOL    HW226460   2.981   3.944  14.684  0.0564  0.4246  0.5269
 5001SOL     OW26461   3.980   3.526  16.100 -0.4097 -0.3185  0.3046
 5001SOL    HW126462   4.041   3.508  16.172  2.4059 -1.0114 -2.2366
 5001SOL    HW226463   3.925   3.596  16.136  0.2470  0.4088 -0.0896
 5002SOL     OW26464   1.796   0.349  16.156 -0.3442 -0.5413  0.1771
 5002SOL    HW126465   1.817   0.361  16.064 -0.1177 -0.2468  0.2700
 5002SOL    HW226466   1.705   0.319  16.154 -0.6729  0.3279  1.6218
 5003SOL     OW26467   0.941   1.947   5.022 -0.2807 -0.1922 -0.3042
 5003SOL    HW126468   0.870   1.959   4.958 -0.3654 -0.9987 -0.3585
 5003SOL    HW226469   0.987   2.031   5.020 -0.8668  0.1608  1.0811
 5004SOL     OW26470   1.301   3.044   1.922 -0.3163  0.1521 -0.2166
 5004SOL    HW126471   1.296   3.075   2.013  2.4424  2.6590 -0.9273
 5004SOL    HW226472   1.207   3.049   1.903  0.1891 -0.9094 -2.8872
 5005SOL     OW26473   2.351   4.181  13.100 -0.3053  0.0773  0.3250
 5005SOL    HW126474   2.392   4.182  13.014 -1.1276  0.1434 -0.0616
 5005SOL    HW226475   2.267   4.226  13.088  0.0493  0.4593 -0.6346
 5006SOL     OW26476   4.614   1.771   9.315  0.1158  0.1308  0.2260
 5006SOL    HW126477   4.541   1.820   9.353 -0.5504 -0.8926  0.2908
 5006SOL    HW226478   4.582   1.684   9.340 -0.4226  0.3525  0.3134
 5007SOL     OW26479   1.163   0.269   9.315 -0.4049  0.3091 -0.6824
 5007SOL    HW126480   1.159   0.332   9.387 -1.6773  0.8927 -1.2623
 5007SOL    HW226481   1.226   0.317   9.262 -0.3511  1.0819  0.0699
 5008SOL     OW26482   0.249   2.069   4.927  0.4185  0.4070  0.5102
 5008SOL    HW126483   0.216   2.049   5.015  0.8374  0.9021  0.7790
 5008SOL    HW226484   0.323   2.008   4.927  0.2273  0.1748  1.5657
 5009SOL     OW26485   0.369   3.819   2.884 -0.4066 -0.2318 -0.1055
 5009SOL    HW126486   0.339   3.743   2.935 -1.5154  1.4830  1.7856
 5009SOL    HW226487   0.301   3.881   2.909 -1.7104 -0.3868 -3.2248
 5010SOL     OW26488   2.704   4.052   1.423 -0.3228 -0.3158  0.0191
 5010SOL    HW126489   2.715   4.143   1.451  0.8325 -0.4408 -0.0198
 5010SOL    HW226490   2.793   4.017   1.426 -0.2011 -0.0629 -0.4905
 5011SOL     OW26491   3.758   1.587  15.168 -0.0896 -0.0684  0.9114
 5011SOL    HW126492   3.777   1.496  15.147  2.8727  0.6229  0.6611
 5011SOL    HW226493   3.662   1.586  15.168 -0.0670 -1.8652 -0.7438
 5012SOL     OW26494   3.039   3.768  13.419  0.1192 -0.1909  0.1889
 5012SOL    HW126495   2.958   3.731  13.384 -0.3152 -0.3899  1.4105
 5012SOL    HW226496   3.078   3.706  13.481  1.1248  0.5848  0.3242
 5013SOL     OW26497   3.248   4.720   2.990 -0.3445  0.2273  0.0573
 5013SOL    HW126498   3.285   0.007   2.902 -2.8958  0.2823 -1.0188
 5013SOL    HW226499   3.312   0.046   3.044 -2.4158  0.0821  2.6569
 5014SOL     OW26500   0.068   4.581   5.741 -0.1319 -0.1202 -0.9205
 5014SOL    HW126501   4.695   4.572   5.722 -0.4349  0.6983  0.1773
 5014SOL    HW226502   0.069   4.658   5.797  0.6720 -0.1685 -0.8612
 5015SOL     OW26503   0.723   1.036  17.217  1.0010 -0.1429 -0.0149
 5015SOL    HW126504   0.799   1.059  17.270  0.3988 -0.6563  1.0694
 5015SOL    HW226505   0.762   0.989  17.143 -1.6395  0.4144 -1.7699
 5016SOL     OW26506   4.589   4.198  15.350  0.1034  0.2146 -0.4822
 5016SOL    HW126507   4.575   4.214  15.256 -0.8542 -0.6040 -0.4782
 5016SOL    HW226508   4.610   4.105  15.348 -0.1381  0.1603 -0.4772
 5017SOL     OW26509   3.454   2.698   4.097  0.1847 -0.4021  0.1577
 5017SOL    HW126510   3.476   2.774   4.152  2.0876 -2.8133  2.6941
 5017SOL    HW226511   3.509   2.725   4.024  2.3195 -0.7018  1.6619
 5018SOL     OW26512   1.415   0.206   6.272 -0.2795  0.1905 -0.1366
 5018SOL    HW126513   1.446   0.210   6.362 -2.1318  2.3360  0.3886
 5018SOL    HW226514   1.333   0.254   6.283  0.5240  1.2943  0.9366
 5019SOL     OW26515   0.987   2.148   3.504  0.2524  0.0121 -0.3617
 5019SOL    HW126516   0.938   2.105   3.435 -1.4608  0.0052  0.8826
 5019SOL    HW226517   1.041   2.210   3.455  1.0477  0.6958  1.3772
 5020SOL     OW26518   0.669   2.661   5.708  0.5121  0.1152 -0.2438
 5020SOL    HW126519   0.630   2.595   5.651  1.9478 -2.2804  1.5963
 5020SOL    HW226520   0.758   2.626   5.708  0.2263 -0.5827  0.8902
 5021SOL     OW26521   1.131   2.260   7.109  0.0844  0.4435  0.1049
 5021SOL    HW126522   1.222   2.289   7.101 -0.2256  0.6999 -2.3188
 5021SOL    HW226523   1.088   2.331   7.061 -0.6475  2.2572  3.4471
 5022SOL     OW26524   3.807   2.522   0.523  0.3062 -0.0057  0.2595
 5022SOL    HW126525   3.866   2.596   0.509 -0.7116  0.3580 -1.9651
 5022SOL    HW226526   3.819   2.483   0.436  2.0764 -0.7940  0.8397
 5023SOL     OW26527   1.617   0.011   8.088 -0.0349 -0.2912 -0.4712
 5023SOL    HW126528   1.631   0.105   8.077  0.3920 -0.0666  2.0270
 5023SOL    HW226529   1.622   0.006   8.184  0.6417  1.4304 -0.4148
 5024SOL     OW26530   4.506   2.360   2.086 -0.4096 -0.1081  0.0851
 5024SOL    HW126531   4.553   2.384   2.167 -0.0557 -3.1622  0.8027
 5024SOL    HW226532   4.488   2.267   2.098  1.8643 -0.4556  0.9450
 5025SOL     OW26533   0.900   1.566   6.521 -0.0909  0.1973 -0.2479
 5025SOL    HW126534   0.983   1.541   6.480 -0.7821 -1.0598 -0.8916
 5025SOL    HW226535   0.886   1.486   6.572 -1.2214 -0.4158 -1.5360
 5026SOL     OW26536   1.545   0.370   3.061 -0.2295  0.4590 -0.7143
 5026SOL    HW126537   1.495   0.442   3.022  0.4102  0.9928 -0.5449
 5026SOL    HW226538   1.525   0.305   2.994  2.7097 -1.1673 -0.0230
 5027SOL     OW26539   4.098   3.688   6.390 -0.1035 -0.3268 -0.2499
 5027SOL    HW126540   4.056   3.640   6.320 -4.3333  2.1758  0.5800
 5027SOL    HW226541   4.139   3.756   6.337  0.1994  0.2927  0.7662
 5028SOL     OW26542   2.715   2.220  15.047  0.2420 -0.0836 -0.1606
 5028SOL    HW126543   2.671   2.141  15.017  0.2535 -0.3629  0.5621
 5028SOL    HW226544   2.788   2.224  14.985 -0.6297 -0.4912 -1.2291
 5029SOL     OW26545   4.016   2.423  14.046 -0.3451  0.8967  0.7424
 5029SOL    HW126546   3.980   2.401  14.132 -1.3990 -1.1412 -0.2228
 5029SOL    HW226547   4.111   2.412  14.053 -0.4407 -0.1788  0.3405
 5030SOL     OW26548   1.489   2.378   1.406  0.2840 -0.4700  0.0130
 5030SOL    HW126549   1.426   2.346   1.341  0.2780  1.0699 -0.7380
 5030SOL    HW226550   1.529   2.304   1.451  2.0817  0.3302 -0.2858
 5031SOL     OW26551   4.257   2.572   2.610  0.1595 -0.5214  0.0618
 5031SOL    HW126552   4.180   2.527   2.577 -0.7759  0.6535  0.6329
 5031SOL    HW226553   4.314   2.572   2.533 -0.9685  0.0957 -0.7769
 5032SOL     OW26554   2.139   3.047   7.048 -0.2513 -0.4674  0.2378
 5032SOL    HW126555   2.093   3.082   7.124  0.0213  0.9022 -0.2347
 5032SOL    HW226556   2.184   2.971   7.085 -0.6381 -1.0644 -0.5138
 5033SOL     OW26557   1.099   3.008   7.665  0.1643  0.1792 -0.0073
 5033SOL    HW126558   1.145   2.928   7.691 -2.5206 -0.6980  2.0479
 5033SOL    HW226559   1.109   3.069   7.738 -0.0920  0.5597 -0.2917
 5034SOL     OW26560   1.705   0.915   7.531  0.5247  0.3665  0.0051
 5034SOL    HW126561   1.786   0.966   7.528  1.0763 -0.5392 -0.6243
 5034SOL    HW226562   1.649   0.981   7.572 -1.2732  0.0593 -1.9330
 5035SOL     OW26563   0.968   2.364  13.545 -0.3461  0.2685 -0.2644
 5035SOL    HW126564   0.920   2.413  13.479 -1.4707 -2.2510 -1.3100
 5035SOL    HW226565   0.899   2.315  13.590  0.9496 -0.0651  1.3685
 5036SOL     OW26566   3.893   0.881   6.422  0.5389 -0.3085 -0.1543
 5036SOL    HW126567   3.950   0.944   6.378 -2.3373  3.1297  1.1024
 5036SOL    HW226568   3.876   0.926   6.505 -0.2622 -2.4467  0.8502
 5037SOL     OW26569   4.416   2.147  13.975  0.0897  0.7868  0.2869
 5037SOL    HW126570   4.406   2.144  13.880 -1.4717  0.6589  0.4541
 5037SOL    HW226571   4.462   2.226  14.004  1.4656 -0.2269  0.8647
 5038SOL     OW26572   3.663   1.893  11.487 -0.7034  0.1468 -0.0379
 5038SOL    HW126573   3.702   1.852  11.410  0.5340 -0.1165  0.7465
 5038SOL    HW226574   3.572   1.865  11.475 -0.0717 -1.4224 -1.1047
 5039SOL     OW26575   0.894   4.673   5.992 -0.1820  0.2765 -0.2014
 5039SOL    HW126576   0.974   4.669   6.044  0.2187  1.2867 -0.7410
 5039SOL    HW226577   0.920   4.697   5.903 -0.4093  1.1841 -0.0185
 5040SOL     OW26578   1.045   3.404   4.229 -0.0401 -0.7932 -0.6455
 5040SOL    HW126579   1.135   3.433   4.217 -0.8717  2.4915  1.1915
 5040SOL    HW226580   1.017   3.451   4.307 -1.4733  0.2431 -1.7751
 5041SOL     OW26581   3.531   4.210  16.960 -0.0586  0.0047 -0.2412
 5041SOL    HW126582   3.507   4.281  16.901 -2.2137 -0.0585  0.5697
 5041SOL    HW226583   3.536   4.138  16.898  1.5609  0.5510 -0.7553
 5042SOL     OW26584   2.358   2.071  11.204  0.0796 -0.0698  0.3469
 5042SOL    HW126585   2.424   2.088  11.271  2.2124  0.4975 -1.9126
 5042SOL    HW226586   2.303   2.146  11.226 -2.3803 -0.9893 -2.6512
 5043SOL     OW26587   1.463   2.859   6.789 -0.0401 -0.6136  0.0956
 5043SOL    HW126588   1.466   2.811   6.706  0.5994 -2.0254  0.9269
 5043SOL    HW226589   1.396   2.922   6.761  0.6127 -0.6785 -1.6326
 5044SOL     OW26590   3.394   0.549   2.417 -0.6438 -0.1309  0.1941
 5044SOL    HW126591   3.332   0.478   2.428 -1.3538  0.1953 -1.6018
 5044SOL    HW226592   3.324   0.615   2.413 -0.7390 -0.3787 -2.1691
 5045SOL     OW26593   0.306   2.026  13.634  0.2230 -0.1698 -1.0968
 5045SOL    HW126594   0.280   2.008  13.543 -0.5460  0.9782 -1.1100
 5045SOL    HW226595   0.367   1.957  13.659 -0.3975 -0.4527 -0.3380
 5046SOL     OW26596   0.080   3.655  15.086  0.4316 -0.5230 -0.0873
 5046SOL    HW126597   0.113   3.686  15.170 -1.1751  0.2533  0.2420
 5046SOL    HW226598   4.707   3.663  15.103  0.5622 -0.7317  0.7034
 5047SOL     OW26599   4.093   2.183  12.040 -0.1546 -0.0660  0.5448
 5047SOL    HW126600   4.126   2.129  11.968  2.1559  1.8669  0.1497
 5047SOL    HW226601   3.998   2.183  12.034 -0.1123  3.7340 -0.1876
 5048SOL     OW26602   4.674   1.547   2.100 -0.1930 -0.0885 -0.2222
 5048SOL    HW126603   4.622   1.470   2.076  1.9648 -1.6799  0.2774
 5048SOL    HW226604   4.638   1.622   2.052 -0.8949  0.0809  0.5671
 5049SOL     OW26605   3.437   3.431  11.595 -0.4365 -0.1993  0.1134
 5049SOL    HW126606   3.499   3.483  11.543  0.6575 -1.0151  0.6291
 5049SOL    HW226607   3.360   3.433  11.538 -1.2957 -0.3775  1.2848
 5050SOL     OW26608   2.124   2.473   7.490  0.6500 -0.5238  0.8166
 5050SOL    HW126609   2.119   2.538   7.419 -3.1173 -1.0709  0.6002
 5050SOL    HW226610   2.219   2.483   7.502  0.2835  1.8308  1.7926
 5051SOL     OW26611   2.035   3.287   4.278  0.3558  0.1573 -0.5557
 5051SOL    HW126612   2.066   3.300   4.368 -1.4483 -0.0756  0.0939
 5051SOL    HW226613   2.042   3.193   4.261 -0.6570 -0.0840  0.3608
 5052SOL     OW26614   2.555   1.544  15.561 -0.0133 -0.0783 -0.3709
 5052SOL    HW126615   2.509   1.461  15.574  0.5264 -0.6507 -2.1299
 5052SOL    HW226616   2.644   1.509  15.573  0.3687  1.1915  0.5099
 5053SOL     OW26617   2.377   1.015   7.310  0.0471  0.2858  0.2766
 5053SOL    HW126618   2.296   1.065   7.323  0.8351  1.3822  0.8953
 5053SOL    HW226619   2.412   1.056   7.231  0.7572 -1.3466 -0.2629
 5054SOL     OW26620   3.764   1.767   5.846  0.2543  0.3130  0.0416
 5054SOL    HW126621   3.757   1.677   5.880  0.3093  0.1884 -0.2788
 5054SOL    HW226622   3.744   1.743   5.756  2.3979  0.5727 -0.4947
 5055SOL     OW26623   0.003   2.394   4.277  0.0662 -0.0615  0.2891
 5055SOL    HW126624   0.095   2.421   4.277  0.2378 -0.5983 -3.1456
 5055SOL    HW226625   4.710   2.357   4.364 -1.0030 -2.6553 -0.9645
 5056SOL     OW26626   3.993   3.937   7.379 -0.2141 -0.3629 -0.1002
 5056SOL    HW126627   3.996   3.972   7.290  0.6404 -0.1326  0.0187
 5056SOL    HW226628   4.017   4.009   7.437  2.9696 -0.9856 -0.6357
 5057SOL     OW26629   1.851   4.370   3.838 -0.2762 -0.2767 -0.2068
 5057SOL    HW126630   1.844   4.295   3.778  1.5098 -0.6418  0.0596
 5057SOL    HW226631   1.945   4.387   3.835 -0.1072 -1.2306 -0.2876
 5058SOL     OW26632   0.487   1.531   6.765  0.0432  0.2494  0.0642
 5058SOL    HW126633   0.564   1.499   6.718 -1.3754 -2.3297 -0.4942
 5058SOL    HW226634   0.420   1.464   6.751  1.3183 -1.4396  2.1078
 5059SOL     OW26635   3.275   4.110   7.321 -0.3809  0.0346 -0.1543
 5059SOL    HW126636   3.211   4.159   7.372 -0.0413  1.8290 -1.4597
 5059SOL    HW226637   3.225   4.030   7.302 -1.4521  0.3580  1.3031
 5060SOL     OW26638   1.671   0.790   4.967 -0.0901 -0.0307 -0.0977
 5060SOL    HW126639   1.619   0.870   4.958 -0.8514 -0.4238  0.8441
 5060SOL    HW226640   1.643   0.747   4.886 -0.5958 -0.8937  0.5360
 5061SOL     OW26641   3.338   1.325  10.370 -0.5224  0.0150  0.0263
 5061SOL    HW126642   3.376   1.397  10.419 -0.3052  0.1500 -0.3383
 5061SOL    HW226643   3.347   1.358  10.280  1.3805  0.2368  0.2958
 5062SOL     OW26644   0.723   1.303   2.023  0.5009  0.4665 -0.3627
 5062SOL    HW126645   0.737   1.393   2.054 -0.1551 -0.0327  1.4320
 5062SOL    HW226646   0.638   1.318   1.983  0.0142 -1.3457  0.0211
 5063SOL     OW26647   2.609   0.212   3.978  0.4192 -0.0088 -0.4706
 5063SOL    HW126648   2.649   0.249   3.899  0.4605  2.0608  0.5063
 5063SOL    HW226649   2.543   0.149   3.950 -3.5798  2.8441  2.6053
 5064SOL     OW26650   1.973   3.073   6.437 -0.2647  0.1098 -0.1791
 5064SOL    HW126651   1.899   3.040   6.489  1.6901 -2.2603  1.1271
 5064SOL    HW226652   2.006   2.993   6.397 -1.6435 -0.2252 -0.6469
 5065SOL     OW26653   0.806   0.435   1.869 -0.2985 -0.1195  0.7208
 5065SOL    HW126654   0.867   0.405   1.801 -1.8308 -2.8875  0.5684
 5065SOL    HW226655   0.768   0.511   1.825 -0.4505 -0.0444  0.9816
 5066SOL     OW26656   1.554   1.443   4.428  0.6326 -0.2423 -0.0657
 5066SOL    HW126657   1.518   1.513   4.482 -0.7772 -1.1896  0.2205
 5066SOL    HW226658   1.548   1.471   4.337 -1.1092 -1.5511 -0.3578
 5067SOL     OW26659   1.850   4.012   3.422  0.1414 -0.4729  0.0244
 5067SOL    HW126660   1.944   3.999   3.404 -0.3386 -1.8687 -1.4297
 5067SOL    HW226661   1.812   3.980   3.341 -0.9602  1.8433 -0.3872
 5068SOL     OW26662   1.022   1.347   7.288  0.0457  0.8540 -0.5095
 5068SOL    HW126663   1.008   1.415   7.355 -1.4211 -1.1149  1.1551
 5068SOL    HW226664   0.933   1.318   7.268  0.4195  1.1184 -2.6040
 5069SOL     OW26665   4.564   0.670   8.890  0.2387  0.1903 -0.1532
 5069SOL    HW126666   4.558   0.755   8.934 -2.3464 -0.3435  0.5754
 5069SOL    HW226667   4.522   0.618   8.959 -1.8280  0.5776 -1.1225
 5070SOL     OW26668   2.340   2.865   0.029 -0.0217 -0.2056 -0.5428
 5070SOL    HW126669   2.330   2.770   0.033 -0.9687 -0.0228  1.2359
 5070SOL    HW226670   2.388   2.869   0.111  1.2049  1.6966 -1.3599
 5071SOL     OW26671   0.741   2.132   3.747  0.1534  0.3945  0.2088
 5071SOL    HW126672   0.799   2.164   3.679  1.0727 -2.3622 -0.2873
 5071SOL    HW226673   0.684   2.071   3.700  0.2367  0.9687 -0.6288
 5072SOL     OW26674   4.713   1.078   4.793  0.1338  0.0066 -0.0928
 5072SOL    HW126675   4.641   1.100   4.733  1.2210  1.5446 -0.8206
 5072SOL    HW226676   0.055   1.030   4.740 -1.4646 -1.4952 -0.6219
 5073SOL     OW26677   2.833   2.128   2.888  0.3176  0.2499  0.0401
 5073SOL    HW126678   2.922   2.160   2.902 -0.3337  1.2438  1.9465
 5073SOL    HW226679   2.799   2.121   2.977  0.9908 -1.1667  0.1726
 5074SOL     OW26680   3.722   4.011   2.518 -0.2097 -0.3164 -0.9153
 5074SOL    HW126681   3.807   4.024   2.477  0.5199 -1.4331  0.2650
 5074SOL    HW226682   3.668   4.042   2.445 -3.4860  0.4926  1.8387
 5075SOL     OW26683   4.081   2.686   0.199 -0.2648  0.2812 -0.1605
 5075SOL    HW126684   4.122   2.756   0.148  0.5639 -0.1780 -0.1215
 5075SOL    HW226685   4.058   2.620   0.133  0.0155  1.7011 -1.6770
 5076SOL     OW26686   2.247   0.434  16.084  0.3898  0.2504  0.4502
 5076SOL    HW126687   2.221   0.432  15.992 -0.6646  3.0457  0.6740
 5076SOL    HW226688   2.234   0.525  16.111 -0.4804 -0.3016  1.8989
 5077SOL     OW26689   2.383   2.542   7.581  0.0558  0.4869  0.0003
 5077SOL    HW126690   2.477   2.533   7.566  0.2176  1.4403  0.4248
 5077SOL    HW226691   2.367   2.492   7.661 -2.9255  0.1961 -0.7829
 5078SOL     OW26692   1.028   1.490   5.456  0.0908 -0.1588 -0.1240
 5078SOL    HW126693   1.037   1.585   5.454 -1.9978  0.0314  0.5001
 5078SOL    HW226694   0.936   1.472   5.472  0.2159  0.3485  1.1213
 5079SOL     OW26695   4.422   0.458   6.379  0.2531  0.1250 -0.2118
 5079SOL    HW126696   4.373   0.383   6.413  0.1117  1.4404  2.4026
 5079SOL    HW226697   4.369   0.534   6.402 -3.6256 -2.7375  0.4471
 5080SOL     OW26698   1.579   0.572  15.623 -0.1534  0.2156 -0.8573
 5080SOL    HW126699   1.549   0.663  15.627  1.4113  0.6528  0.8654
 5080SOL    HW226700   1.574   0.573  15.528  1.2194  1.7218 -0.9099
 5081SOL     OW26701   2.531   0.747   1.191 -0.5985  0.3600  0.1712
 5081SOL    HW126702   2.481   0.728   1.111 -3.3992 -0.1696  2.0573
 5081SOL    HW226703   2.610   0.781   1.149  0.8902 -0.5935  2.1811
 5082SOL     OW26704   2.119   1.350   8.534  0.0859  0.0616 -0.6675
 5082SOL    HW126705   2.124   1.258   8.560  1.1366  0.5300  0.7503
 5082SOL    HW226706   2.100   1.385   8.620 -1.3352 -0.4432 -0.7765
 5083SOL     OW26707   0.271   0.061   5.008 -0.0271  0.5712 -0.1940
 5083SOL    HW126708   0.283   4.687   5.003 -3.4017  0.0753  1.5045
 5083SOL    HW226709   0.177   0.068   5.023  0.2403  1.0063  1.3190
 5084SOL     OW26710   1.337   3.762  14.371  0.6659  0.2769 -0.5425
 5084SOL    HW126711   1.360   3.707  14.446  0.2190 -0.2922 -0.8219
 5084SOL    HW226712   1.242   3.767  14.385  0.5772 -0.0148 -1.0291
 5085SOL     OW26713   4.410   3.511   1.863 -0.0059 -0.0407  0.2422
 5085SOL    HW126714   4.356   3.579   1.903 -0.0101 -0.3380  0.7465
 5085SOL    HW226715   4.359   3.439   1.902 -0.1746 -0.3979 -0.6177
 5086SOL     OW26716   3.176   3.784   3.883  0.5424 -0.5750  0.4604
 5086SOL    HW126717   3.127   3.709   3.917  0.5768  0.0084  1.7843
 5086SOL    HW226718   3.192   3.748   3.796 -0.0036  2.6472 -0.9674
 5087SOL     OW26719   2.387   0.837   4.693 -0.0278 -0.1619  0.8498
 5087SOL    HW126720   2.455   0.900   4.667 -1.1029  0.0122 -1.5615
 5087SOL    HW226721   2.315   0.895   4.719 -2.1638 -2.0039 -0.9560
 5088SOL     OW26722   2.150   0.936   3.634  0.8481 -0.9075 -0.2953
 5088SOL    HW126723   2.235   0.967   3.601  0.3102 -1.7105 -2.4644
 5088SOL    HW226724   2.115   0.903   3.551  1.9111 -3.6238  0.3410
 5089SOL     OW26725   0.613   3.533   4.464 -0.1525 -0.4405  0.4030
 5089SOL    HW126726   0.565   3.611   4.491 -1.4982 -0.7777 -1.0486
 5089SOL    HW226727   0.600   3.539   4.370 -1.5169 -0.5579  0.5807
 5090SOL     OW26728   4.690   2.630   5.594  0.3509  0.0934  0.1993
 5090SOL    HW126729   4.664   2.698   5.532  2.4831 -1.2864 -2.1958
 5090SOL    HW226730   0.036   2.681   5.641  1.4982 -0.4694 -0.8233
 5091SOL     OW26731   3.179   3.393   9.916 -0.0145  0.0515 -0.3839
 5091SOL    HW126732   3.217   3.457   9.977  1.3306 -0.0850 -1.0878
 5091SOL    HW226733   3.227   3.421   9.838  0.6968  1.6155  0.6109
 5092SOL     OW26734   0.266   1.517   4.027 -0.1912 -0.0331  0.1073
 5092SOL    HW126735   0.254   1.445   4.089  1.2823 -0.8244 -0.5348
 5092SOL    HW226736   0.188   1.572   4.037 -0.6983 -0.7962  0.4089
 5093SOL     OW26737   1.488   3.450   1.164  0.4265 -0.3869  0.0722
 5093SOL    HW126738   1.496   3.382   1.097 -0.7200  0.1113 -0.5800
 5093SOL    HW226739   1.415   3.413   1.214 -0.1119 -0.7569 -0.9831
 5094SOL     OW26740   0.290   1.329   5.056 -0.5261  0.4274  0.1367
 5094SOL    HW126741   0.221   1.383   5.016 -0.0643 -0.7391 -2.1995
 5094SOL    HW226742   0.364   1.388   5.045  1.6056 -2.1570  0.8551
 5095SOL     OW26743   3.423   3.856   6.711 -0.2612  0.9272  0.3629
 5095SOL    HW126744   3.422   3.835   6.617 -2.8079 -0.8639  0.7660
 5095SOL    HW226745   3.433   3.772   6.756 -0.8754  1.9971  2.4729
 5096SOL     OW26746   0.868   1.322   3.360  0.8275 -0.5522  0.5768
 5096SOL    HW126747   0.917   1.369   3.292  0.1407 -0.8480 -0.1245
 5096SOL    HW226748   0.803   1.283   3.300 -0.9697  2.3396  0.6213
 5097SOL     OW26749   2.250   2.301  14.123  0.0651 -0.8390  1.2364
 5097SOL    HW126750   2.220   2.217  14.156 -2.5119 -0.2264  0.4357
 5097SOL    HW226751   2.169   2.334  14.084  1.8026  0.1510 -1.5701
 5098SOL     OW26752   2.137   2.626   2.554 -0.1779 -0.3568  0.1708
 5098SOL    HW126753   2.229   2.598   2.549 -0.0011  0.5030 -1.2631
 5098SOL    HW226754   2.123   2.660   2.466 -1.1886  1.1704  0.9217
 5099SOL     OW26755   0.705   0.603   8.334 -0.1545  0.3355  0.1907
 5099SOL    HW126756   0.676   0.519   8.371  0.1993  0.1010 -0.0679
 5099SOL    HW226757   0.715   0.580   8.242  0.0277  2.2642 -0.2515
 5100SOL     OW26758   0.450   1.416   5.874  0.2076 -0.1941 -0.1528
 5100SOL    HW126759   0.362   1.440   5.844 -0.1989  1.3149  2.3082
 5100SOL    HW226760   0.461   1.335   5.824  2.7262  0.0293  0.0657
 5101SOL     OW26761   2.687   0.366   5.768 -0.0666  0.0034 -0.1664
 5101SOL    HW126762   2.776   0.349   5.737  0.1971  0.7809  0.1483
 5101SOL    HW226763   2.676   0.451   5.726  0.9991  0.1502 -0.1688
 5102SOL     OW26764   4.648   1.120  13.507  0.4576  0.0955 -0.4027
 5102SOL    HW126765   4.585   1.165  13.562  1.1295 -1.6449  1.7828
 5102SOL    HW226766   4.647   1.170  13.425  0.4593  0.0712 -0.4175
 5103SOL     OW26767   2.564   2.698  11.490  0.0036  0.4944 -0.4857
 5103SOL    HW126768   2.574   2.763  11.560 -1.6882  0.2827 -0.0641
 5103SOL    HW226769   2.584   2.752  11.413  1.5680 -1.7768 -1.7090
 5104SOL     OW26770   0.437   2.473   9.325 -0.0093 -0.1470  0.0773
 5104SOL    HW126771   0.355   2.447   9.283  0.0059 -1.9658  1.1399
 5104SOL    HW226772   0.433   2.412   9.399  0.4676 -0.4951 -0.1845
 5105SOL     OW26773   3.744   3.986   0.167  0.1940 -0.7430 -0.4775
 5105SOL    HW126774   3.720   4.070   0.208  0.8495 -0.5161 -0.5640
 5105SOL    HW226775   3.724   3.926   0.239  1.0319  0.8532  1.0863
 5106SOL     OW26776   4.636   0.272   2.445 -0.4102  0.3156  0.1769
 5106SOL    HW126777   4.713   0.275   2.503 -0.2169  3.3305 -0.2363
 5106SOL    HW226778   4.569   0.253   2.511 -2.0488  1.0439 -1.3081
 5107SOL     OW26779   2.046   1.546  11.074 -0.4860  0.0051 -0.6409
 5107SOL    HW126780   2.036   1.575  11.165  1.2843 -1.7787  0.1130
 5107SOL    HW226781   2.116   1.482  11.082 -1.1800 -0.8365 -1.3412
 5108SOL     OW26782   3.717   0.851   7.241 -0.1334 -0.6411  0.7432
 5108SOL    HW126783   3.737   0.938   7.209  0.2963 -1.2558 -0.6565
 5108SOL    HW226784   3.769   0.798   7.181  1.8337  2.4260 -0.2267
 5109SOL     OW26785   2.016   3.841   3.172 -0.2856 -0.3179  0.1149
 5109SOL    HW126786   2.043   3.914   3.115  0.1746 -0.3324  0.3156
 5109SOL    HW226787   2.094   3.808   3.215  0.1152 -0.6770 -0.8969
 5110SOL     OW26788   4.320   4.042  10.605  0.5453  0.0059  0.0258
 5110SOL    HW126789   4.241   4.037  10.660  1.9126  0.2912  2.0163
 5110SOL    HW226790   4.380   3.982  10.647  0.4768 -1.0392 -1.3717
 5111SOL     OW26791   2.124   3.993   9.325 -0.2020  0.6167 -0.1369
 5111SOL    HW126792   2.172   4.067   9.363  0.9843 -0.4566  0.4573
 5111SOL    HW226793   2.190   3.924   9.334 -0.9257  0.2901  2.6036
 5112SOL     OW26794   2.970   2.000   6.662  0.2478  0.3310  0.4223
 5112SOL    HW126795   3.002   2.043   6.741  0.5813  1.8168 -0.5353
 5112SOL    HW226796   2.918   1.927   6.697 -1.8086  1.6042 -0.0135
 5113SOL     OW26797   0.504   2.297  16.129 -0.3327  0.2503 -0.1758
 5113SOL    HW126798   0.582   2.329  16.083 -1.3262 -0.1772 -2.1539
 5113SOL    HW226799   0.446   2.361  16.086  1.2350  0.2040 -2.3728
 5114SOL     OW26800   0.770   3.033   3.981 -0.2024  0.9395  0.0324
 5114SOL    HW126801   0.805   3.114   3.945  0.1869  0.9852  0.5226
 5114SOL    HW226802   0.755   2.993   3.895  2.7179  1.4166 -0.6803
 5115SOL     OW26803   2.350   0.745   1.930  0.5484  0.3369 -0.3044
 5115SOL    HW126804   2.280   0.683   1.950  0.8695  0.2608  0.5687
 5115SOL    HW226805   2.341   0.739   1.835  2.9457  0.1343 -0.5181
 5116SOL     OW26806   4.220   1.030   7.608  0.2720 -0.2534 -0.2585
 5116SOL    HW126807   4.314   1.013   7.600  0.5388  0.7452  0.6729
 5116SOL    HW226808   4.200   1.036   7.515 -0.1241 -2.6744 -0.3143
 5117SOL     OW26809   0.893   1.683   4.356 -0.3504  0.5648  0.0403
 5117SOL    HW126810   0.962   1.620   4.377  0.4262  0.7658 -1.9537
 5117SOL    HW226811   0.950   1.743   4.308 -0.8587  0.9210 -0.1118
 5118SOL     OW26812   0.846   2.290   2.281  0.2995 -0.0042 -0.4449
 5118SOL    HW126813   0.755   2.320   2.280  0.1307 -0.5680 -2.4498
 5118SOL    HW226814   0.886   2.376   2.267  1.9581 -0.4957  1.3661
 5119SOL     OW26815   3.626   1.888   8.883 -0.0014 -0.2242 -0.5792
 5119SOL    HW126816   3.646   1.807   8.931 -1.4136  0.3891  1.0382
 5119SOL    HW226817   3.685   1.939   8.938 -0.1622 -1.6076  0.8880
 5120SOL     OW26818   0.502   4.679   7.140 -0.6856  0.1443 -0.7494
 5120SOL    HW126819   0.464   4.596   7.110 -1.9904  0.6086 -0.3658
 5120SOL    HW226820   0.448   4.703   7.214  1.3748  2.2373  0.0793
 5121SOL     OW26821   2.908   3.134   2.064  0.3831 -0.5584  0.2402
 5121SOL    HW126822   2.855   3.160   2.140 -1.2501  0.4789 -1.2527
 5121SOL    HW226823   2.980   3.197   2.073  0.3508 -0.6323  1.0089
 5122SOL     OW26824   3.073   2.405   2.505  0.3060  1.1072 -0.8567
 5122SOL    HW126825   3.103   2.457   2.430  3.4816 -1.3175 -1.2819
 5122SOL    HW226826   2.991   2.373   2.466 -1.3041  1.3768  2.2989
 5123SOL     OW26827   3.137   3.581   4.695  0.2933 -0.1361  0.0177
 5123SOL    HW126828   3.152   3.660   4.644 -0.6065 -0.5486 -0.8838
 5123SOL    HW226829   3.130   3.611   4.786  2.0142  0.9766 -0.2014
 5124SOL     OW26830   2.636   3.007   5.080 -0.0495 -0.3457 -0.0718
 5124SOL    HW126831   2.565   2.945   5.097 -0.4662  0.1584  0.0080
 5124SOL    HW226832   2.710   2.946   5.078  0.5869  0.4495 -0.7973
 5125SOL     OW26833   2.253   0.117   6.279 -0.5434  0.0096 -0.2723
 5125SOL    HW126834   2.221   0.207   6.291  0.3349  0.0780  1.5438
 5125SOL    HW226835   2.279   0.129   6.187  1.1946 -1.6125  0.0329
 5126SOL     OW26836   0.077   2.348  14.337  0.5595 -0.1945 -0.2992
 5126SOL    HW126837   4.708   2.330  14.367  0.8637 -1.1063  0.0411
 5126SOL    HW226838   0.126   2.285  14.389  0.1117 -0.9614 -0.8063
 5127SOL     OW26839   1.004   3.249   0.537 -0.4854 -0.5015 -0.2051
 5127SOL    HW126840   1.086   3.250   0.487 -0.1064 -0.1568  0.4276
 5127SOL    HW226841   0.979   3.156   0.535  1.0492 -0.9592  1.6083
 5128SOL     OW26842   3.279   0.655   2.850 -0.0539  0.4725  0.2069
 5128SOL    HW126843   3.326   0.735   2.826 -1.4947  1.4537  0.6642
 5128SOL    HW226844   3.215   0.684   2.915 -0.3676  1.8303 -0.6958
 5129SOL     OW26845   2.696   0.150   3.689 -0.2623 -0.2038 -0.2144
 5129SOL    HW126846   2.784   0.175   3.663 -0.2636 -0.4281 -0.4364
 5129SOL    HW226847   2.689   0.057   3.666  0.7532 -0.2822 -0.1731
 5130SOL     OW26848   3.788   3.797   4.893 -0.6393  0.2522 -0.2150
 5130SOL    HW126849   3.854   3.786   4.962 -1.5918 -2.6586  0.2253
 5130SOL    HW226850   3.715   3.850   4.925 -0.8735  0.5135 -1.1802
 5131SOL     OW26851   3.914   1.191  15.632  0.1977  0.3505  0.3113
 5131SOL    HW126852   3.938   1.179  15.540  1.2650 -2.5145  0.9490
 5131SOL    HW226853   3.952   1.110  15.667 -1.9044 -0.7311  0.0963
 5132SOL     OW26854   0.615   0.617   2.867 -0.1101 -0.0890  0.5214
 5132SOL    HW126855   0.658   0.537   2.839 -0.9440  0.5569 -2.5707
 5132SOL    HW226856   0.534   0.636   2.819 -0.5146 -1.1589  0.7844
 5133SOL     OW26857   4.269   0.573   0.375 -0.2886  0.1522 -0.5338
 5133SOL    HW126858   4.253   0.648   0.317 -0.8278  0.2077 -0.3152
 5133SOL    HW226859   4.336   0.530   0.322  2.0058 -0.4081  2.8279
 5134SOL     OW26860   1.996   3.899   8.333 -0.3137  0.2767 -0.3753
 5134SOL    HW126861   1.953   3.982   8.313  0.2529  0.3184 -1.3986
 5134SOL    HW226862   2.082   3.919   8.297  0.2794 -1.7001 -0.0660
 5135SOL     OW26863   1.183   4.001   5.904 -0.5981 -0.3741  0.0242
 5135SOL    HW126864   1.278   4.008   5.894 -0.2166 -1.8975  2.6070
 5135SOL    HW226865   1.154   4.092   5.901 -0.1109 -0.2326 -0.3970
 5136SOL     OW26866   2.954   3.836   3.279  0.1480 -0.5341 -0.0009
 5136SOL    HW126867   2.920   3.776   3.345  0.3516 -1.0153 -0.3306
 5136SOL    HW226868   2.931   3.917   3.324 -0.6608 -0.4701 -0.5239
 5137SOL     OW26869   3.790   1.762   1.711 -0.3040  0.0568 -0.4728
 5137SOL    HW126870   3.785   1.668   1.729 -0.2420  0.1660  0.0867
 5137SOL    HW226871   3.791   1.763   1.615 -1.3123 -1.8369 -0.5096
 5138SOL     OW26872   2.390   3.958   5.439  0.0818 -0.0279 -0.0775
 5138SOL    HW126873   2.365   3.873   5.475  0.1033 -0.3637 -0.8568
 5138SOL    HW226874   2.366   3.936   5.349 -2.6321  1.7950  0.1943
 5139SOL     OW26875   0.912   4.149   4.326 -0.1482 -0.4414  0.0749
 5139SOL    HW126876   0.930   4.215   4.393  2.0436  1.1704 -2.0941
 5139SOL    HW226877   0.911   4.070   4.379  1.7681 -1.9948 -2.2414
 5140SOL     OW26878   4.118   4.251   1.654 -0.1192 -0.5352  0.0047
 5140SOL    HW126879   4.152   4.319   1.713  1.3830 -0.6843 -0.6966
 5140SOL    HW226880   4.198   4.208   1.623 -0.7743 -0.8919 -1.1813
 5141SOL     OW26881   4.620   4.285  14.358  0.0453 -0.2707  0.2484
 5141SOL    HW126882   4.635   4.219  14.427  0.3436  0.9854  1.3892
 5141SOL    HW226883   4.644   4.242  14.276  1.5201 -2.0327  1.6000
 5142SOL     OW26884   0.728   0.071   8.306 -0.3940  0.5157 -0.2655
 5142SOL    HW126885   0.814   0.113   8.299  0.3477 -1.3280 -2.2257
 5142SOL    HW226886   0.736   4.720   8.242  3.4727  1.1584 -0.5031
 5143SOL     OW26887   1.689   0.351   7.769 -0.5013 -0.0919  0.3976
 5143SOL    HW126888   1.671   0.444   7.756  1.3322  0.2521  0.2707
 5143SOL    HW226889   1.608   0.324   7.726 -1.3184  0.8004  1.3935
 5144SOL     OW26890   2.292   3.834   3.225  0.0345  0.1776 -0.3675
 5144SOL    HW126891   2.355   3.848   3.154 -0.4613  1.2151 -0.6031
 5144SOL    HW226892   2.315   3.747   3.259  1.6367 -0.0249 -1.9881
 5145SOL     OW26893   1.689   0.262   4.386  0.1747 -0.0054  0.3432
 5145SOL    HW126894   1.732   0.347   4.387 -1.3955  0.7792  1.9001
 5145SOL    HW226895   1.744   0.218   4.322  1.1481 -1.0868  1.9068
 5146SOL     OW26896   2.086   0.087  10.099  0.1799 -0.3487 -0.0008
 5146SOL    HW126897   2.158   0.126  10.149 -0.5215  1.3179 -0.2757
 5146SOL    HW226898   2.093   0.004  10.145 -0.6086 -0.6153 -0.3650
 5147SOL     OW26899   1.157   1.527   5.008 -0.2142  0.1576  0.1120
 5147SOL    HW126900   1.160   1.610   5.055 -0.3843  0.8087 -1.0333
 5147SOL    HW226901   1.145   1.466   5.081 -4.2259  0.3531 -0.3601
 5148SOL     OW26902   3.117   1.641   3.344 -0.1626  0.1200  0.0115
 5148SOL    HW126903   3.120   1.693   3.424 -1.0162  1.7481 -0.9987
 5148SOL    HW226904   3.025   1.617   3.353  0.8797 -2.6129  3.2367
 5149SOL     OW26905   0.500   2.168   3.346  0.3878 -0.3030  0.4063
 5149SOL    HW126906   0.513   2.099   3.280 -1.1265  0.5678 -0.7937
 5149SOL    HW226907   0.556   2.237   3.310  1.4557 -0.9961  0.7217
 5150SOL     OW26908   1.465   2.920  13.569  0.0182 -0.0804  0.4499
 5150SOL    HW126909   1.507   3.003  13.544 -0.9850  0.0214 -0.8950
 5150SOL    HW226910   1.513   2.870  13.503  0.1344  0.5512  0.0496
 5151SOL     OW26911   2.172   1.402  11.381 -0.2801  0.3459 -0.7866
 5151SOL    HW126912   2.205   1.374  11.295 -0.6541 -0.0477 -0.8068
 5151SOL    HW226913   2.248   1.437  11.427  0.9063 -2.2519 -0.7362
 5152SOL     OW26914   0.240   1.333   1.913 -0.4779  0.0826  0.9972
 5152SOL    HW126915   0.236   1.397   1.842  1.0476 -0.1680  0.6771
 5152SOL    HW226916   0.156   1.289   1.905  0.0311 -0.3211 -2.0487
 5153SOL     OW26917   1.454   3.501  14.851 -0.2966  0.0092 -0.5375
 5153SOL    HW126918   1.405   3.468  14.927  2.8850  0.2143  1.5956
 5153SOL    HW226919   1.545   3.480  14.872 -0.3395  1.9650  1.6066
 5154SOL     OW26920   4.089   2.129   5.452  0.5535  0.1702 -0.1509
 5154SOL    HW126921   4.040   2.132   5.534 -1.6684  2.0564 -1.5757
 5154SOL    HW226922   4.152   2.201   5.459  2.4334 -1.6050  1.1052
 5155SOL     OW26923   4.140   2.906   8.707  0.3326  0.0492  1.0488
 5155SOL    HW126924   4.158   2.959   8.629  0.3806  0.5189  1.3770
 5155SOL    HW226925   4.045   2.900   8.698  0.8387 -2.7883 -2.4654
 5156SOL     OW26926   2.453   0.224  10.158 -0.3327  0.2087 -0.2482
 5156SOL    HW126927   2.504   0.239  10.237 -1.3746  1.3325  0.2076
 5156SOL    HW226928   2.379   0.180  10.199 -1.3176  0.0481 -2.1979
 5157SOL     OW26929   4.425   2.948   8.091 -0.1302  0.0498 -0.9723
 5157SOL    HW126930   4.462   2.885   8.028 -1.1825  1.6815 -3.2050
 5157SOL    HW226931   4.331   2.950   8.071 -0.3065  2.5933  0.1655
 5158SOL     OW26932   2.226   0.657  11.663 -0.1464 -0.0425  0.3727
 5158SOL    HW126933   2.268   0.673  11.748  0.4111  1.4672 -0.1693
 5158SOL    HW226934   2.138   0.629  11.684 -0.7918  1.7444  0.0653
 5159SOL     OW26935   3.399   0.934  13.964  0.0794  0.5553  0.1356
 5159SOL    HW126936   3.323   0.946  13.907  0.2377  3.1333  0.4600
 5159SOL    HW226937   3.361   0.871  14.026  0.5374  0.3240  0.1851
 5160SOL     OW26938   2.604   3.405   2.993  0.0355 -0.5777  0.3184
 5160SOL    HW126939   2.630   3.314   2.978  0.5728 -0.0777 -1.8366
 5160SOL    HW226940   2.653   3.447   2.922 -1.5396  0.1216 -0.3464
 5161SOL     OW26941   2.052   0.281   7.875 -0.3545  0.2547 -0.1695
 5161SOL    HW126942   2.090   0.368   7.881 -1.5595  0.5934  2.5294
 5161SOL    HW226943   2.061   0.244   7.963  1.2296  0.0086 -0.4382
 5162SOL     OW26944   4.261   3.424   6.356 -0.8149  0.8658  0.1509
 5162SOL    HW126945   4.190   3.488   6.358 -0.0252  1.7824 -0.5554
 5162SOL    HW226946   4.282   3.416   6.263  0.9095  0.3194  0.5920
 5163SOL     OW26947   3.719   2.450   3.507 -0.2863 -0.7584  0.1011
 5163SOL    HW126948   3.637   2.448   3.557 -0.3027  2.5843  0.2061
 5163SOL    HW226949   3.775   2.442   3.584  0.0795 -0.9032 -0.1777
 5164SOL     OW26950   2.008   2.533   6.906 -0.0571 -0.4888  0.0696
 5164SOL    HW126951   1.983   2.624   6.893  0.3120 -0.4124 -0.1008
 5164SOL    HW226952   1.929   2.489   6.877 -0.9178  0.5987  0.7746
 5165SOL     OW26953   0.095   2.617  14.656  0.4497  0.3370  0.8796
 5165SOL    HW126954   0.068   2.666  14.578  0.4009 -2.2819 -0.7899
 5165SOL    HW226955   0.057   2.668  14.727  0.3935  2.6431 -0.7978
 5166SOL     OW26956   1.675   1.815   4.868 -0.4347  0.5692 -0.3914
 5166SOL    HW126957   1.605   1.815   4.933  2.8967  0.0391  3.1615
 5166SOL    HW226958   1.691   1.722   4.851  3.4870  0.9925  0.9496
 5167SOL     OW26959   4.587   3.926   3.655  0.3498 -0.4879  1.0294
 5167SOL    HW126960   4.498   3.904   3.628  0.3121  0.3441  0.4682
 5167SOL    HW226961   4.553   3.975   3.729 -0.6721 -0.1786  0.3577
 5168SOL     OW26962   1.660   2.426   8.227 -0.2069  0.2253  0.1493
 5168SOL    HW126963   1.605   2.394   8.299 -0.7202  1.1639  0.1707
 5168SOL    HW226964   1.685   2.513   8.256  0.7015 -0.4936  1.5490
 5169SOL     OW26965   3.000   1.299   0.672 -0.3266  0.7594 -0.4445
 5169SOL    HW126966   2.924   1.251   0.640  0.7756 -0.3351 -1.4189
 5169SOL    HW226967   2.954   1.338   0.745  0.3225 -0.0068  0.3757
 5170SOL     OW26968   3.836   0.384   3.560  0.1614 -0.2940 -0.3205
 5170SOL    HW126969   3.865   0.391   3.651 -2.0844  1.4239  0.2812
 5170SOL    HW226970   3.746   0.355   3.575  0.5443  0.0642  2.7549
 5171SOL     OW26971   1.144   4.279   2.912  0.2880  0.1359  0.2543
 5171SOL    HW126972   1.113   4.189   2.920 -2.0524  0.9089 -0.0844
 5171SOL    HW226973   1.176   4.273   2.822  2.3894 -0.4026  1.0385
 5172SOL     OW26974   1.302   0.110   3.553 -0.4050  0.0908 -0.5852
 5172SOL    HW126975   1.280   0.018   3.539 -1.2778  0.4400 -1.4792
 5172SOL    HW226976   1.240   0.140   3.620  3.0313  0.1052  2.5946
 5173SOL     OW26977   4.304   1.248   3.427 -0.1789 -0.1026  0.1391
 5173SOL    HW126978   4.250   1.321   3.455 -0.7467 -0.8970  1.0947
 5173SOL    HW226979   4.373   1.302   3.389 -1.3501 -0.0895 -1.9735
 5174SOL     OW26980   4.564   3.585  13.288  0.3968  0.2331  0.2235
 5174SOL    HW126981   4.600   3.515  13.233 -1.4490 -2.2370  2.1310
 5174SOL    HW226982   4.506   3.536  13.346  1.3266  0.3728  1.2744
 5175SOL     OW26983   3.733   2.616  14.365  0.5277  0.3997  0.1377
 5175SOL    HW126984   3.712   2.705  14.338  3.2479  0.7517 -0.8220
 5175SOL    HW226985   3.661   2.591  14.423  1.0573 -0.8857  0.2597
 5176SOL     OW26986   2.264   1.113  11.712 -0.2571  0.1237 -0.6450
 5176SOL    HW126987   2.332   1.094  11.777  0.9103  2.8236 -1.0787
 5176SOL    HW226988   2.314   1.134  11.633 -0.4107  2.1267 -0.2033
 5177SOL     OW26989   2.869   3.747   6.235 -0.1681  0.2382  0.2069
 5177SOL    HW126990   2.824   3.687   6.294  0.7766 -1.2579 -0.6015
 5177SOL    HW226991   2.948   3.701   6.208 -0.2305  0.7168 -0.7939
 5178SOL     OW26992   3.433   0.829   6.352  0.8909  0.0576 -0.5260
 5178SOL    HW126993   3.406   0.869   6.435  0.3286  0.8633 -1.0995
 5178SOL    HW226994   3.403   0.740   6.370  2.3271 -0.2190  0.5145
 5179SOL     OW26995   2.044   3.229  17.146 -0.2093 -0.2285 -0.3366
 5179SOL    HW126996   2.024   3.224  17.239  0.1746 -0.3960 -0.2623
 5179SOL    HW226997   2.112   3.163  17.130  1.8533  2.0445 -0.8794
 5180SOL     OW26998   3.580   2.807   8.629 -0.2098 -0.6182 -0.5193
 5180SOL    HW126999   3.530   2.743   8.578 -2.6802  0.4475  0.6027
 5180SOL    HW227000   3.541   2.800   8.716  1.5430 -0.9277  0.2594
 5181SOL     OW27001   3.397   1.443   4.703 -0.4516  0.1398 -0.1724
 5181SOL    HW127002   3.333   1.386   4.660 -1.5882  1.7898 -0.6712
 5181SOL    HW227003   3.399   1.405   4.791 -0.8680 -0.6235 -0.4881
 5182SOL     OW27004   3.030   2.201   7.657 -0.1052 -0.2691 -0.4675
 5182SOL    HW127005   3.022   2.261   7.732  1.1462  0.1229 -0.6419
 5182SOL    HW227006   2.998   2.118   7.691  1.5818 -0.6889  0.1311
 5183SOL     OW27007   1.031   1.990  11.402  0.6519  0.5081 -0.1880
 5183SOL    HW127008   0.985   1.939  11.336  0.8447 -1.9114  1.5498
 5183SOL    HW227009   1.116   2.009  11.364  0.4781 -0.2783 -0.9682
 5184SOL     OW27010   1.436   0.865  10.860  0.0671  0.0906  0.4126
 5184SOL    HW127011   1.463   0.776  10.836 -0.0987  0.3748 -0.8010
 5184SOL    HW227012   1.373   0.843  10.929 -1.0647  0.7596 -0.4151
 5185SOL     OW27013   4.686   1.000  15.040 -0.5624  0.2969  0.2382
 5185SOL    HW127014   4.710   1.089  15.068 -0.3394  0.8310 -1.6620
 5185SOL    HW227015   4.667   0.969  15.129 -0.3830 -0.9303 -0.1522
 5186SOL     OW27016   1.485   3.948   4.659  0.1510  0.3105 -0.4935
 5186SOL    HW127017   1.515   4.037   4.677 -1.3706  1.0901 -1.7810
 5186SOL    HW227018   1.529   3.941   4.575 -0.2636 -0.5066 -0.6369
 5187SOL     OW27019   4.050   2.041   7.589 -0.1185  0.0392 -0.1077
 5187SOL    HW127020   4.066   2.080   7.675 -1.3874  0.3918 -0.0185
 5187SOL    HW227021   4.094   2.106   7.534 -1.8273 -0.2252 -1.7893
 5188SOL     OW27022   3.396   4.452   3.535 -0.0356  0.0200  0.0458
 5188SOL    HW127023   3.367   4.540   3.513 -0.7623 -0.2368 -0.0121
 5188SOL    HW227024   3.361   4.439   3.623  0.4267  0.4933  0.2985
 5189SOL     OW27025   2.295   1.458   8.343  0.9058  0.4763  0.2677
 5189SOL    HW127026   2.370   1.455   8.402  0.3641  3.4068  1.1005
 5189SOL    HW227027   2.220   1.433   8.397  0.1953  1.7427 -0.1348
 5190SOL     OW27028   1.784   4.128   0.064  0.0659  0.7038  0.1774
 5190SOL    HW127029   1.789   4.113  17.654  0.9239 -0.0208  0.3397
 5190SOL    HW227030   1.782   4.040   0.100 -1.1475  1.9338  3.0808
 5191SOL     OW27031   3.860   1.735   5.174 -0.2689 -0.1234 -0.1922
 5191SOL    HW127032   3.802   1.811   5.177  2.9943  2.3067  0.5504
 5191SOL    HW227033   3.822   1.689   5.099  1.0626 -0.2970 -0.7625
 5192SOL     OW27034   2.086   3.535   6.173 -0.8564  0.1796  0.1750
 5192SOL    HW127035   1.992   3.522   6.160 -0.4712 -0.3828 -2.0670
 5192SOL    HW227036   2.089   3.603   6.241 -0.0898 -1.1697  1.4829
 5193SOL     OW27037   3.007   2.978   6.508 -0.2343  0.0152 -0.8453
 5193SOL    HW127038   3.055   2.949   6.586  0.3794 -0.8131 -1.5356
 5193SOL    HW227039   2.950   3.044   6.547  0.4392 -0.2336  0.5558
 5194SOL     OW27040   0.633   1.015   7.780 -0.1318 -0.1571 -0.2795
 5194SOL    HW127041   0.569   0.944   7.788 -1.7909  1.2506 -1.1283
 5194SOL    HW227042   0.648   1.019   7.686 -0.5575 -1.9282 -0.4386
 5195SOL     OW27043   1.654   0.544   5.322  0.1792  0.4230  0.3049
 5195SOL    HW127044   1.605   0.624   5.306 -0.1510  0.3616  1.0079
 5195SOL    HW227045   1.735   0.578   5.284 -1.5978  0.4691 -3.4341
 5196SOL     OW27046   1.328   1.397   2.491 -0.4688  0.0759 -0.2167
 5196SOL    HW127047   1.286   1.353   2.565 -1.2402  0.2648 -0.5352
 5196SOL    HW227048   1.330   1.487   2.522  1.0925  0.1161 -0.4178
 5197SOL     OW27049   2.016   3.540   6.901 -0.1749 -0.4189  0.2890
 5197SOL    HW127050   1.945   3.537   6.966 -0.6010  0.6876 -0.1346
 5197SOL    HW227051   2.042   3.448   6.896 -0.3925 -0.4357 -0.4472
 5198SOL     OW27052   1.961   1.409   9.166  0.1334  0.2665  0.3738
 5198SOL    HW127053   2.033   1.469   9.185  0.3024  0.3399 -0.5333
 5198SOL    HW227054   1.896   1.480   9.163  2.2071  2.1422 -0.7311
 5199SOL     OW27055   1.672   2.627  14.754 -0.3052 -0.3309 -0.1757
 5199SOL    HW127056   1.638   2.700  14.702  2.8670  0.7416 -0.7329
 5199SOL    HW227057   1.660   2.672  14.838  1.5973 -0.1501  0.0093
 5200SOL     OW27058   2.143   0.424   7.209 -0.5130 -0.5328 -0.0066
 5200SOL    HW127059   2.065   0.371   7.228 -0.3165 -0.5041  0.8874
 5200SOL    HW227060   2.171   0.456   7.295  0.2269  0.2393 -0.5306
 5201SOL     OW27061   3.440   1.798   8.544  0.3082 -0.2433 -0.9640
 5201SOL    HW127062   3.466   1.729   8.605  0.1568  0.7868  0.2636
 5201SOL    HW227063   3.519   1.823   8.497  0.1208 -0.4922 -1.4130
 5202SOL     OW27064   3.410   0.817  11.231  0.1056 -0.0299 -0.3392
 5202SOL    HW127065   3.462   0.891  11.262  1.3243  0.2769 -3.1074
 5202SOL    HW227066   3.345   0.863  11.178  0.2570  0.6135  0.0325
 5203SOL     OW27067   4.498   2.554  11.490  0.4306 -0.1944  0.4874
 5203SOL    HW127068   4.542   2.482  11.445 -1.1919 -0.0110 -1.4319
 5203SOL    HW227069   4.455   2.611  11.425  0.5607  1.5484  1.9089
 5204SOL     OW27070   2.175   0.690   4.960  0.6120  1.2556 -0.1742
 5204SOL    HW127071   2.207   0.708   5.049  0.4601 -1.4952  0.4381
 5204SOL    HW227072   2.083   0.707   4.976  0.8222 -0.5180  2.8717
 5205SOL     OW27073   3.554   1.369   9.170  0.2266 -0.5878 -0.0992
 5205SOL    HW127074   3.513   1.288   9.138  2.3045 -2.7790  2.7522
 5205SOL    HW227075   3.483   1.433   9.159  0.4333 -0.0834  1.6091
 5206SOL     OW27076   3.056   1.594  15.754 -1.0032  0.6638 -0.1430
 5206SOL    HW127077   3.066   1.669  15.695  1.4095 -0.2405 -0.8643
 5206SOL    HW227078   3.088   1.527  15.693  0.1823  1.2039 -0.1190
 5207SOL     OW27079   1.841   2.143   2.929  0.1973 -0.3539 -0.3273
 5207SOL    HW127080   1.890   2.134   2.847 -0.5816 -1.5767 -0.6417
 5207SOL    HW227081   1.813   2.054   2.947 -0.1853 -0.1421  0.1321
 5208SOL     OW27082   4.608   4.581   3.856 -0.0005  0.1840  0.5311
 5208SOL    HW127083   4.604   4.606   3.764  1.0657 -0.2440  0.3740
 5208SOL    HW227084   4.641   4.663   3.895  0.4950  0.2156  0.0446
 5209SOL     OW27085   4.250   4.105   2.980  0.2031 -0.6015 -0.6500
 5209SOL    HW127086   4.267   4.177   2.919  0.8015  1.0469  1.4920
 5209SOL    HW227087   4.160   4.079   2.958  0.1841  1.1410 -2.6477
 5210SOL     OW27088   1.782   3.523  12.180  0.1831  0.2198  0.0641
 5210SOL    HW127089   1.819   3.488  12.262 -2.8595  0.6128  1.6026
 5210SOL    HW227090   1.784   3.440  12.132  0.5207  0.9738 -1.2082
 5211SOL     OW27091   4.719   4.080  17.278  0.0752  0.4972  0.2465
 5211SOL    HW127092   4.654   4.025  17.323  1.9857 -0.8066  1.3828
 5211SOL    HW227093   0.080   4.053  17.320 -0.2399  0.1882  0.6655
 5212SOL     OW27094   1.484   4.051   7.584 -0.3925 -0.3231  0.3561
 5212SOL    HW127095   1.479   3.959   7.557  0.3172 -0.5051  0.8440
 5212SOL    HW227096   1.557   4.082   7.530 -0.3004  1.6263  1.6009
 5213SOL     OW27097   0.996   2.116   8.593  0.0423 -0.7087  0.4477
 5213SOL    HW127098   1.066   2.159   8.544 -1.8840  1.2335 -0.5750
 5213SOL    HW227099   1.036   2.123   8.680 -0.4104 -2.6778  0.8288
 5214SOL     OW27100   2.710   0.489  13.063 -0.0726 -0.4084 -0.0935
 5214SOL    HW127101   2.708   0.462  13.155  2.9214 -2.7108 -0.7144
 5214SOL    HW227102   2.695   0.583  13.060  1.8401 -0.1285 -0.4244
 5215SOL     OW27103   4.685   0.729   7.055 -0.2337  0.4444 -0.4015
 5215SOL    HW127104   0.007   0.643   7.063  0.9636  1.1649  0.9349
 5215SOL    HW227105   4.595   0.705   7.080  0.5142 -1.5528  0.4164
 5216SOL     OW27106   1.975   3.012  16.193 -0.0406  0.3800  0.4336
 5216SOL    HW127107   1.960   2.982  16.103  3.2244  0.5092 -0.1849
 5216SOL    HW227108   1.959   3.106  16.194 -0.6540  0.2738  0.4412
 5217SOL     OW27109   0.119   3.452   4.744 -0.3919 -0.0084 -0.0898
 5217SOL    HW127110   0.071   3.529   4.712 -1.2955 -1.9354 -3.3640
 5217SOL    HW227111   0.052   3.386   4.727  1.5189 -1.7100 -0.9155
 5218SOL     OW27112   2.961   0.633   3.196  0.0782 -0.0055  0.0515
 5218SOL    HW127113   2.886   0.679   3.159 -1.0866 -1.9855 -0.0583
 5218SOL    HW227114   2.948   0.548   3.153  1.5163 -0.7479  1.0856
 5219SOL     OW27115   0.884   1.766  11.271 -0.1658  0.4341 -0.9437
 5219SOL    HW127116   0.874   1.782  11.177 -1.5306  0.1875 -0.8388
 5219SOL    HW227117   0.826   1.690  11.284  1.0889 -0.2842  0.3901
 5220SOL     OW27118   3.849   3.382   4.859 -0.0547 -0.6997 -0.0915
 5220SOL    HW127119   3.913   3.318   4.826  0.7811 -0.6597  1.4351
 5220SOL    HW227120   3.768   3.333   4.853  0.3403 -1.0074 -2.7965
 5221SOL     OW27121   3.137   2.754   3.270 -0.0256  0.6736 -0.0104
 5221SOL    HW127122   3.071   2.720   3.331 -0.3227  2.5072  0.6922
 5221SOL    HW227123   3.181   2.678   3.232 -1.5566 -1.2963  2.1735
 5222SOL     OW27124   2.607   1.034   5.485  0.3710 -0.4093  0.4491
 5222SOL    HW127125   2.674   0.980   5.442  0.6099  0.8334 -0.7275
 5222SOL    HW227126   2.527   0.989   5.457  0.9038 -1.2266  0.2265
 5223SOL     OW27127   0.243   4.056   7.367  0.5039 -0.1514  0.1209
 5223SOL    HW127128   0.214   3.981   7.314 -1.3232 -0.3756  1.4451
 5223SOL    HW227129   0.180   4.123   7.340 -0.5546 -0.7963  0.9527
 5224SOL     OW27130   1.957   0.593   7.646  0.2533  0.3934  0.2838
 5224SOL    HW127131   2.004   0.569   7.726 -0.0498  1.9770  0.9366
 5224SOL    HW227132   1.871   0.622   7.677  0.6290 -0.3802  2.0962
 5225SOL     OW27133   1.025   1.578   3.579  0.0312 -0.0780  0.0002
 5225SOL    HW127134   0.951   1.588   3.520 -1.0893 -0.8084  1.2726
 5225SOL    HW227135   1.093   1.616   3.523 -0.2492 -0.6309 -0.7215
 5226SOL     OW27136   3.782   2.784   0.931 -0.1220 -0.2402 -0.2453
 5226SOL    HW127137   3.752   2.706   0.885  0.6200  0.6617 -2.3201
 5226SOL    HW227138   3.753   2.848   0.865  2.1383 -0.0958 -1.1035
 5227SOL     OW27139   0.410   2.080   7.118  0.2025  0.3335  0.0230
 5227SOL    HW127140   0.475   2.079   7.047  0.9133  1.8016  0.6511
 5227SOL    HW227141   0.334   2.110   7.068 -0.4765 -0.0211  0.8491
 5228SOL     OW27142   4.581   2.944   4.091  0.5708  0.3413 -0.0798
 5228SOL    HW127143   4.607   2.854   4.112 -1.8283 -0.2566  0.2547
 5228SOL    HW227144   4.589   2.985   4.177  1.4131  3.3878 -1.6114
 5229SOL     OW27145   0.207   2.859  12.299  0.9100  0.7057  0.1897
 5229SOL    HW127146   0.268   2.805  12.248 -1.0505 -0.1440 -1.2785
 5229SOL    HW227147   0.184   2.921  12.229  1.3342  0.7668  0.1034
 5230SOL     OW27148   4.669   1.609   6.299 -0.4388 -0.2313 -0.3824
 5230SOL    HW127149   0.034   1.575   6.324 -0.2083 -0.2476 -1.1976
 5230SOL    HW227150   4.607   1.537   6.314 -0.6072  0.3967  2.0059
 5231SOL     OW27151   3.557   0.178  14.839 -0.1490  0.3410  0.3693
 5231SOL    HW127152   3.513   0.095  14.860 -0.6989  0.2429 -1.2556
 5231SOL    HW227153   3.644   0.145  14.815 -0.4335  0.6882 -1.0704
 5232SOL     OW27154   1.157   3.032   6.981  0.9192  0.0434  0.6984
 5232SOL    HW127155   1.120   2.973   7.046 -0.4484 -0.3798 -0.4723
 5232SOL    HW227156   1.251   3.018   6.993  1.0551  0.3859  0.0447
 5233SOL     OW27157   1.177   1.350   2.244 -0.0287  0.2565 -0.0696
 5233SOL    HW127158   1.186   1.282   2.310  2.2256 -0.4595 -1.1437
 5233SOL    HW227159   1.241   1.320   2.180  0.2105  0.4794  0.0647
 5234SOL     OW27160   2.705   4.626   3.285  0.0994 -0.0359 -0.6207
 5234SOL    HW127161   2.792   4.662   3.268  0.1596 -1.3797 -3.0263
 5234SOL    HW227162   2.655   4.694   3.240  0.4527  2.3420  2.5388
 5235SOL     OW27163   0.715   0.885   4.280 -0.4309 -0.0468  0.3535
 5235SOL    HW127164   0.699   0.971   4.243 -1.2193 -0.8908 -1.2570
 5235SOL    HW227165   0.634   0.837   4.265 -0.7315  1.1947 -2.0247
 5236SOL     OW27166   3.827   1.269   3.283  0.1945 -0.2212 -0.0420
 5236SOL    HW127167   3.911   1.295   3.247  1.1285  0.0032  2.2724
 5236SOL    HW227168   3.860   1.224   3.361 -1.1342 -1.1579 -0.0079
 5237SOL     OW27169   3.650   1.105   6.090  0.1502 -0.3965 -0.2076
 5237SOL    HW127170   3.560   1.078   6.109  0.5947 -2.1891 -0.6349
 5237SOL    HW227171   3.709   1.048   6.139 -2.3842 -3.4427 -0.7245
 5238SOL     OW27172   1.088   2.483   0.825  0.6335  0.1408  0.2041
 5238SOL    HW127173   1.098   2.395   0.864 -1.3587 -0.3505 -0.4215
 5238SOL    HW227174   1.048   2.466   0.740  0.2723 -3.1468  1.0077
 5239SOL     OW27175   0.547   4.167  16.690 -0.1472 -0.0653 -0.5545
 5239SOL    HW127176   0.591   4.093  16.732 -0.3060 -0.8851 -1.8356
 5239SOL    HW227177   0.537   4.220  16.769  2.7860 -0.7895  0.2777
 5240SOL     OW27178   1.969   2.670   5.051  0.6862 -0.1265 -0.2993
 5240SOL    HW127179   2.026   2.696   5.123 -0.9338 -1.7939  1.5653
 5240SOL    HW227180   2.022   2.676   4.971  1.3038 -3.5654 -0.1181
 5241SOL     OW27181   2.228   2.192  10.970 -0.3955 -0.3955 -0.0603
 5241SOL    HW127182   2.299   2.249  11.000 -0.0195 -1.0173  0.2322
 5241SOL    HW227183   2.269   2.191  10.884 -1.4467  0.5394 -0.5727
 5242SOL     OW27184   1.500   2.153   1.858  0.3152 -0.2884 -0.1072
 5242SOL    HW127185   1.438   2.160   1.785 -1.9618 -0.9001  1.7554
 5242SOL    HW227186   1.455   2.223   1.906  0.7315 -1.5002  2.0335
 5243SOL     OW27187   0.610   3.666   2.836 -0.3406  0.3400 -0.7893
 5243SOL    HW127188   0.611   3.604   2.909 -0.0571  1.1829 -0.0881
 5243SOL    HW227189   0.538   3.721   2.865 -0.5238 -0.7852  0.9459
 5244SOL     OW27190   0.343   4.640   7.556 -0.3796  0.1591  0.6813
 5244SOL    HW127191   0.339   4.634   7.651 -3.7209 -1.2241  0.4459
 5244SOL    HW227192   0.438   4.634   7.547 -0.3954 -0.6422  1.0425
 5245SOL     OW27193   3.766   0.433  14.916 -0.3985  0.6854 -0.1165
 5245SOL    HW127194   3.713   0.403  14.990  0.2418 -1.4000 -0.5214
 5245SOL    HW227195   3.776   0.350  14.870 -0.0461  1.7027 -1.8786
 5246SOL     OW27196   4.695   1.854   7.742 -0.2321 -0.2789 -0.4633
 5246SOL    HW127197   0.034   1.796   7.694  2.0456  3.8933 -2.7022
 5246SOL    HW227198   4.678   1.796   7.816 -0.3109  0.5817  0.1879
 5247SOL     OW27199   1.219   2.718  15.153  0.4139  0.2588 -0.0969
 5247SOL    HW127200   1.168   2.769  15.216 -2.4905 -0.6496 -1.7141
 5247SOL    HW227201   1.233   2.637  15.201 -2.3109 -0.5138 -0.6325
 5248SOL     OW27202   3.347   4.419   3.806  0.1235 -0.0096 -0.6973
 5248SOL    HW127203   3.405   4.420   3.882 -0.6682 -1.6140 -0.0675
 5248SOL    HW227204   3.262   4.441   3.843  1.3044 -0.9612  2.5925
 5249SOL     OW27205   4.579   2.083   7.730 -0.7944 -0.1489  0.3256
 5249SOL    HW127206   4.596   2.123   7.645 -0.1476  2.2319  1.5498
 5249SOL    HW227207   4.640   2.009   7.731  0.0455  0.5490  0.6336
 5250SOL     OW27208   3.298   3.572   5.423  0.5329  0.3640  0.3008
 5250SOL    HW127209   3.344   3.579   5.339  1.3427 -1.9356  0.5790
 5250SOL    HW227210   3.335   3.488   5.448  3.5178  0.8299 -2.5003
 5251SOL     OW27211   2.682   3.780   4.597  0.2780  0.1100  0.2226
 5251SOL    HW127212   2.704   3.832   4.520 -0.6612 -0.2374 -0.2800
 5251SOL    HW227213   2.743   3.710   4.576 -0.0949 -0.9867  2.8543
 5252SOL     OW27214   1.516   4.499   4.026 -0.4869 -0.0399 -0.4760
 5252SOL    HW127215   1.467   4.544   3.957 -1.6319  0.2911  0.5499
 5252SOL    HW227216   1.604   4.533   4.009  0.4402 -1.0941  2.2355
 5253SOL     OW27217   3.325   2.312  13.173  0.1318  0.0005  0.4409
 5253SOL    HW127218   3.394   2.254  13.207 -0.5841 -1.1422 -0.0822
 5253SOL    HW227219   3.268   2.248  13.131 -0.6498  1.0636 -0.1329
 5254SOL     OW27220   2.802   3.952   4.399 -0.2477  0.4796 -0.3391
 5254SOL    HW127221   2.738   3.989   4.338 -1.5485  1.8180  1.8486
 5254SOL    HW227222   2.856   4.025   4.429  0.9536 -1.3094  1.8010
 5255SOL     OW27223   2.770   0.728  16.947  0.4927 -0.2083  0.4277
 5255SOL    HW127224   2.798   0.817  16.924 -3.5443  0.3258 -2.5918
 5255SOL    HW227225   2.756   0.701  16.856  1.0815 -0.1305  0.3189
 5256SOL     OW27226   4.095   2.209   3.001  0.0969  0.1208  0.2918
 5256SOL    HW127227   4.167   2.268   2.982 -0.7674  0.9199 -0.5152
 5256SOL    HW227228   4.032   2.262   3.050  0.1136  1.8693 -1.5951
 5257SOL     OW27229   4.531   1.222   7.635  0.1577  0.3779  0.4222
 5257SOL    HW127230   4.562   1.147   7.685  1.9449  0.8870  0.0806
 5257SOL    HW227231   4.514   1.175   7.554 -1.5939  0.1800  0.9006
 5258SOL     OW27232   0.590   3.038  16.729  0.3431 -0.3108  0.0682
 5258SOL    HW127233   0.547   2.958  16.760 -1.0197  0.9332  1.3337
 5258SOL    HW227234   0.664   3.029  16.669 -0.1709 -0.6067 -0.5164
 5259SOL     OW27235   4.538   1.252  14.723 -0.0347 -0.1813 -0.1549
 5259SOL    HW127236   4.578   1.319  14.667 -0.4998 -0.9285 -1.3955
 5259SOL    HW227237   4.473   1.311  14.760 -2.2690 -1.9473 -1.2149
 5260SOL     OW27238   0.435   0.368  16.288 -0.5946  0.1177 -0.3134
 5260SOL    HW127239   0.411   0.449  16.333  2.4257  1.9429 -1.9897
 5260SOL    HW227240   0.522   0.392  16.256 -0.2956 -1.1025 -0.4263
 5261SOL     OW27241   0.675   1.350  12.388  0.6079  0.0516  0.2611
 5261SOL    HW127242   0.753   1.378  12.340  1.3556 -1.2840  0.7112
 5261SOL    HW227243   0.670   1.426  12.446  1.1299  0.3669 -0.1108
 5262SOL     OW27244   4.261   3.685   3.195 -0.1262  0.4063  0.2812
 5262SOL    HW127245   4.169   3.710   3.182 -0.0745 -0.5013 -1.7159
 5262SOL    HW227246   4.291   3.686   3.104 -2.3171 -1.5920 -0.4670
 5263SOL     OW27247   3.021   4.331   4.974  0.5726  0.0838  0.3708
 5263SOL    HW127248   3.086   4.280   4.925  0.0053 -1.3533  1.1245
 5263SOL    HW227249   3.042   4.303   5.063 -0.5090 -0.1182  0.5584
 5264SOL     OW27250   2.686   3.524  15.597  0.2089 -0.3581  0.1309
 5264SOL    HW127251   2.764   3.528  15.542  1.3643 -0.1615  1.8039
 5264SOL    HW227252   2.699   3.447  15.651 -1.7638  0.6071  1.9842
 5265SOL     OW27253   3.562   0.745  11.011  0.2002  0.3286 -0.2141
 5265SOL    HW127254   3.507   0.782  10.942 -0.1518 -3.0834 -1.7929
 5265SOL    HW227255   3.502   0.753  11.084 -1.9916 -1.1470 -1.8550
 5266SOL     OW27256   2.256   0.857   5.652  0.3814 -0.4942  0.0015
 5266SOL    HW127257   2.276   0.864   5.558 -1.0557  1.2941 -0.1815
 5266SOL    HW227258   2.166   0.888   5.662  0.9913  0.9298  1.0549
 5267SOL     OW27259   0.730   2.442   9.314  0.0012  0.1611  0.1796
 5267SOL    HW127260   0.655   2.501   9.325 -0.3845 -0.7508  2.4933
 5267SOL    HW227261   0.685   2.371   9.270  1.2090  0.5310 -1.6343
 5268SOL     OW27262   3.010   1.619   4.788  0.0245 -0.0280  0.5975
 5268SOL    HW127263   2.960   1.543   4.819 -1.1743  0.0623 -1.0924
 5268SOL    HW227264   3.091   1.578   4.759 -0.5301  0.2886 -1.3753
 5269SOL     OW27265   4.017   4.343   7.913  0.0648  0.1652 -0.3147
 5269SOL    HW127266   4.007   4.284   7.987  3.9985  0.9174  0.8071
 5269SOL    HW227267   3.944   4.315   7.857 -0.2005  1.1103 -0.4503
 5270SOL     OW27268   4.709   1.578  16.964 -0.7072 -0.1344  0.2930
 5270SOL    HW127269   0.062   1.639  16.965  1.0001 -2.1831  0.7226
 5270SOL    HW227270   0.002   1.536  17.049  0.6139 -1.3297 -0.5117
 5271SOL     OW27271   2.332   0.484   5.867 -0.3504 -0.5594  0.1340
 5271SOL    HW127272   2.292   0.560   5.825  0.0889 -0.0416  0.6676
 5271SOL    HW227273   2.389   0.527   5.931  0.1624  0.0359 -0.7258
 5272SOL     OW27274   3.688   3.097  12.245 -0.1068  0.3891  0.0942
 5272SOL    HW127275   3.643   3.057  12.320  1.1705 -0.0672  0.6133
 5272SOL    HW227276   3.732   3.176  12.276  0.5700  0.6311 -1.4851
 5273SOL     OW27277   4.655   3.668  14.186 -0.2703  0.1736  0.4419
 5273SOL    HW127278   4.699   3.715  14.257 -2.6444 -0.6544  2.4235
 5273SOL    HW227279   0.006   3.636  14.131 -1.6163 -2.1382  0.0498
 5274SOL     OW27280   3.879   0.883   8.873 -0.1380 -1.0440 -0.4887
 5274SOL    HW127281   3.832   0.964   8.855 -0.5212 -0.8254  1.5797
 5274SOL    HW227282   3.945   0.897   8.805 -0.1122 -1.1104 -0.4780
 5275SOL     OW27283   1.495   3.760   9.436 -0.0480  1.1270 -0.4645
 5275SOL    HW127284   1.448   3.835   9.471  0.2250  1.1921 -0.2320
 5275SOL    HW227285   1.550   3.736   9.511 -0.2108 -0.4825 -0.8630
 5276SOL     OW27286   0.761   0.115   5.360  0.2140 -0.1298 -0.3587
 5276SOL    HW127287   0.808   0.097   5.441  0.1527  1.3237 -0.0031
 5276SOL    HW227288   0.672   0.083   5.378  0.6980 -2.1670 -1.6012
 5277SOL     OW27289   3.845   2.576   6.810  0.1110 -0.8061 -0.2391
 5277SOL    HW127290   3.811   2.487   6.811 -0.3014 -0.6828 -3.4530
 5277SOL    HW227291   3.939   2.561   6.804  0.5082  0.5036  2.8279
 5278SOL     OW27292   1.453   1.082   6.728 -0.4944  0.3875 -0.1208
 5278SOL    HW127293   1.480   1.061   6.638  1.6361  3.1484 -0.1081
 5278SOL    HW227294   1.533   1.079   6.780 -0.0942 -2.1825 -0.8442
 5279SOL     OW27295   2.084   3.424   3.519  0.0459 -0.1734 -0.7464
 5279SOL    HW127296   2.099   3.381   3.435 -1.1692 -0.4723 -0.8135
 5279SOL    HW227297   2.055   3.514   3.503  0.0946  0.2412  1.4829
 5280SOL     OW27298   4.352   4.011   4.497  0.2605  0.0075 -0.0771
 5280SOL    HW127299   4.440   4.036   4.469  0.0719  1.8065  0.9388
 5280SOL    HW227300   4.382   3.979   4.582  0.1843  0.1547  0.0049
 5281SOL     OW27301   0.542   1.085   7.526  0.2240  0.2253  0.4278
 5281SOL    HW127302   0.565   1.133   7.447  0.9852 -0.1690  0.4184
 5281SOL    HW227303   0.465   1.033   7.500 -0.2714  0.6661  0.9968
 5282SOL     OW27304   3.568   3.948   7.496  0.2298  0.3100  0.8606
 5282SOL    HW127305   3.640   3.905   7.450 -0.5697  1.0316 -1.0792
 5282SOL    HW227306   3.503   3.890   7.456  0.5641  0.4710  0.0695
 5283SOL     OW27307   1.906   1.163   4.069  0.1648  0.0978 -0.1384
 5283SOL    HW127308   1.891   1.133   3.979  2.3164 -0.5755 -0.2645
 5283SOL    HW227309   1.934   1.252   4.045 -0.5992  0.2626 -0.4150
 5284SOL     OW27310   3.880   2.201   4.788  0.0555  0.9160 -0.0188
 5284SOL    HW127311   3.919   2.185   4.702 -0.2005 -1.3464  0.2798
 5284SOL    HW227312   3.961   2.212   4.836  0.2353  0.6922 -0.2661
 5285SOL     OW27313   0.873   0.401   2.312  0.2637  0.3816 -0.0271
 5285SOL    HW127314   0.906   0.380   2.225  0.3086  0.6072 -0.0648
 5285SOL    HW227315   0.927   0.475   2.342  1.9104 -1.2493  1.0197
 5286SOL     OW27316   2.528   2.363   8.741 -0.1164  0.3427  0.0060
 5286SOL    HW127317   2.448   2.377   8.791 -0.7967 -0.5847 -0.8248
 5286SOL    HW227318   2.570   2.285   8.777  0.3192  1.2433  1.4337
 5287SOL     OW27319   0.931   1.244  11.914  0.2834  0.3833  0.5876
 5287SOL    HW127320   1.025   1.225  11.918 -0.1461 -1.6307  0.9362
 5287SOL    HW227321   0.903   1.182  11.981  1.8061 -0.2261  0.6691
 5288SOL     OW27322   4.569   3.724   6.725  0.3227  0.4777  0.0455
 5288SOL    HW127323   4.663   3.742   6.714  0.5242 -1.7709 -1.8436
 5288SOL    HW227324   4.553   3.673   6.646  1.5639  2.5848 -1.5746
 5289SOL     OW27325   4.638   0.601   4.992  0.6659 -0.1247  0.1124
 5289SOL    HW127326   4.693   0.590   5.070 -1.8082 -1.7821  1.6197
 5289SOL    HW227327   4.658   0.690   4.962  1.0752 -0.0643  0.5684
 5290SOL     OW27328   1.841   2.806  15.114  0.1677 -0.6980  0.3143
 5290SOL    HW127329   1.765   2.802  15.055  0.7432 -1.7647 -0.3637
 5290SOL    HW227330   1.871   2.715  15.120 -0.8332 -0.8854  2.2974
 5291SOL     OW27331   0.750   0.286   6.442 -0.6989 -0.7431  0.2660
 5291SOL    HW127332   0.683   0.226   6.476  0.4874 -1.8549  0.6163
 5291SOL    HW227333   0.806   0.218   6.406  0.0397  1.2188 -2.3063
 5292SOL     OW27334   1.467   0.063   9.141  0.4451  0.0153  0.1334
 5292SOL    HW127335   1.409   0.030   9.073 -1.4976  0.0753  1.7597
 5292SOL    HW227336   1.405   0.083   9.211  0.8145  0.1850  0.4104
 5293SOL     OW27337   3.453   3.063   3.601 -0.1813 -0.2409  0.2040
 5293SOL    HW127338   3.408   3.020   3.528  1.7432  0.2774 -1.2963
 5293SOL    HW227339   3.468   2.983   3.652  0.0730 -0.9939 -1.0532
 5294SOL     OW27340   1.060   3.261  13.875  0.3097  0.5231  0.2303
 5294SOL    HW127341   1.136   3.280  13.821 -1.1078  3.0363 -0.8867
 5294SOL    HW227342   1.087   3.284  13.964 -1.3540 -0.4250  0.9883
 5295SOL     OW27343   1.778   3.707   4.953 -0.2084 -0.5141  0.3463
 5295SOL    HW127344   1.785   3.801   4.941  0.0935 -0.6381 -0.5154
 5295SOL    HW227345   1.870   3.683   4.965 -0.1062  0.2703  1.0973
 5296SOL     OW27346   2.926   3.739   2.350 -0.5032  0.1054  0.4551
 5296SOL    HW127347   2.928   3.654   2.306  0.6270  0.5845 -0.4143
 5296SOL    HW227348   2.832   3.750   2.362 -0.8617 -1.0509 -1.2739
 5297SOL     OW27349   4.078   0.891   4.128  0.1115 -0.1661  0.2410
 5297SOL    HW127350   4.098   0.985   4.124  0.8411 -0.3501 -0.5733
 5297SOL    HW227351   4.109   0.865   4.041  1.2112 -0.6431  0.7754
 5298SOL     OW27352   0.168   2.042  11.120  0.0329 -0.3844  0.4238
 5298SOL    HW127353   0.229   2.079  11.184 -1.6808  2.4442  0.4274
 5298SOL    HW227354   0.226   2.010  11.051  1.9101  1.4047  1.1790
 5299SOL     OW27355   1.754   3.633   7.390  0.2419 -0.3937 -0.0644
 5299SOL    HW127356   1.678   3.654   7.335  0.4360  3.5799  1.1864
 5299SOL    HW227357   1.757   3.540   7.368  1.4112 -0.0072 -1.4683
 5300SOL     OW27358   2.588   3.609   3.889 -0.1574  0.6441  1.0030
 5300SOL    HW127359   2.544   3.668   3.950  1.8753  0.4004  2.7345
 5300SOL    HW227360   2.554   3.651   3.810  1.3534  1.1673  0.6211
 5301SOL     OW27361   1.427   0.631   7.756  0.4641 -0.0152  0.7937
 5301SOL    HW127362   1.386   0.608   7.672  2.3400 -0.0335 -0.1139
 5301SOL    HW227363   1.504   0.676   7.722 -0.0882  1.7823  1.9282
 5302SOL     OW27364   0.253   2.341   7.072 -0.8383 -0.4564 -0.0570
 5302SOL    HW127365   0.234   2.384   6.989  0.2045  0.9223  0.4360
 5302SOL    HW227366   0.199   2.382   7.139  2.1472  0.5326  1.7456
 5303SOL     OW27367   3.791   0.232   2.703 -0.5577 -0.6826 -0.0207
 5303SOL    HW127368   3.844   0.302   2.741 -0.6328 -1.4248  1.4473
 5303SOL    HW227369   3.703   0.267   2.716 -0.8053 -1.8848  1.5032
 5304SOL     OW27370   2.191   3.065   3.266 -0.1066  0.0501  0.5922
 5304SOL    HW127371   2.118   3.054   3.327 -0.9696 -0.4818 -0.5346
 5304SOL    HW227372   2.269   3.042   3.317  0.5450  1.5466  0.2677
 5305SOL     OW27373   3.149   2.651   8.287  0.1594  0.1741 -0.0106
 5305SOL    HW127374   3.111   2.583   8.343 -0.2744  0.3318 -0.1138
 5305SOL    HW227375   3.070   2.695   8.254 -0.3499 -0.2637  0.6240
 5306SOL     OW27376   1.833   4.423   6.977 -0.3259  0.1567 -0.0350
 5306SOL    HW127377   1.847   4.335   6.942 -2.8156 -0.3457  0.2510
 5306SOL    HW227378   1.858   4.475   6.900  0.0792 -1.3534 -0.9114
 5307SOL     OW27379   4.617   4.675  15.961  0.1262 -0.1068  0.2058
 5307SOL    HW127380   4.544   0.015  15.952 -0.4857 -0.9255 -0.3019
 5307SOL    HW227381   4.591   4.605  15.902  0.7170  1.0972 -1.4947
 5308SOL     OW27382   3.811   0.612   7.108  0.1267  0.1291  0.2822
 5308SOL    HW127383   3.752   0.584   7.038 -0.5540  0.5870  0.6684
 5308SOL    HW227384   3.899   0.598   7.075  0.9315  2.1626  1.5823
 5309SOL     OW27385   3.290   0.327   1.127 -0.1930  0.0049  0.6761
 5309SOL    HW127386   3.275   0.333   1.221  2.2003  0.9650  0.9768
 5309SOL    HW227387   3.267   0.415   1.097  0.1828 -0.1275  0.0078
 5310SOL     OW27388   3.237   1.215   7.226 -0.0234  0.1926  0.0051
 5310SOL    HW127389   3.330   1.194   7.218  0.7366  3.6279 -0.0057
 5310SOL    HW227390   3.238   1.310   7.214 -0.3986 -0.0497 -1.9688
 5311SOL     OW27391   3.279   0.534   7.895 -0.3139  0.7335 -0.5684
 5311SOL    HW127392   3.356   0.554   7.842  0.2259  2.0328  0.6961
 5311SOL    HW227393   3.236   0.479   7.830  0.9491  0.5332 -1.2295
 5312SOL     OW27394   2.925   4.498   9.004  0.2435  0.1589  0.3014
 5312SOL    HW127395   2.958   4.408   9.003  1.6876  0.6700  1.4714
 5312SOL    HW227396   2.955   4.527   9.091 -0.8294  3.0000 -0.2762
 5313SOL     OW27397   4.608   0.765  14.399  0.5394 -0.2404 -0.5782
 5313SOL    HW127398   4.582   0.852  14.369  0.2033 -0.4339 -0.8606
 5313SOL    HW227399   4.646   0.721  14.323  2.7203 -1.0803  1.0207
 5314SOL     OW27400   2.861   0.700   5.963  0.6695 -0.2646  0.4020
 5314SOL    HW127401   2.908   0.750   6.030 -1.2588 -0.9692  2.2847
 5314SOL    HW227402   2.907   0.616   5.961 -0.0768 -0.6636  0.0079
 5315SOL     OW27403   3.495   1.214  11.762 -0.5115 -0.1668  0.1723
 5315SOL    HW127404   3.480   1.176  11.849  2.7679 -1.0308  0.3814
 5315SOL    HW227405   3.564   1.277  11.782 -2.3569  1.9069 -0.0382
 5316SOL     OW27406   2.951   4.516   3.029 -0.6660  0.5826 -0.2580
 5316SOL    HW127407   3.033   4.475   3.000 -1.0971  0.3680 -1.1886
 5316SOL    HW227408   2.973   4.575   3.101 -1.5687 -0.9838  1.2988
 5317SOL     OW27409   2.605   2.268   5.008 -0.0852  0.3520 -0.5192
 5317SOL    HW127410   2.552   2.203   5.053 -0.0479  0.3710 -0.4473
 5317SOL    HW227411   2.588   2.241   4.918  0.1051 -1.7470  0.0944
 5318SOL     OW27412   3.973   1.869   6.061  0.4809 -0.3190 -0.1436
 5318SOL    HW127413   3.911   1.798   6.044 -0.4020  0.8256 -1.6928
 5318SOL    HW227414   4.031   1.853   5.986  0.0343 -0.5421 -0.4460
 5319SOL     OW27415   1.630   2.820  12.238  0.0720  0.4090 -0.3810
 5319SOL    HW127416   1.682   2.769  12.176  0.2053 -0.3249  0.3342
 5319SOL    HW227417   1.575   2.749  12.271  3.3121 -2.9621 -2.2081
 5320SOL     OW27418   3.087   3.058  15.718 -0.2952  0.0432  0.2024
 5320SOL    HW127419   3.029   3.022  15.651  2.3074 -0.5698 -1.7084
 5320SOL    HW227420   3.168   3.076  15.671  0.6675 -0.8580  1.5237
 5321SOL     OW27421   4.324   2.292   3.714  0.8047 -0.1364  0.8185
 5321SOL    HW127422   4.407   2.338   3.725  0.7911  0.0341  0.1802
 5321SOL    HW227423   4.299   2.323   3.627  1.7797  0.8822  0.9099
 5322SOL     OW27424   4.089   0.368  16.603 -0.1003  0.2851  0.0276
 5322SOL    HW127425   4.128   0.375  16.515  0.6210  3.4670  0.5725
 5322SOL    HW227426   4.085   0.458  16.636 -1.0686  0.5836 -0.8851
 5323SOL     OW27427   0.328   2.140   4.053  0.1513 -0.3740  0.4521
 5323SOL    HW127428   0.299   2.116   3.965  0.9135 -0.8775  0.3339
 5323SOL    HW227429   0.403   2.195   4.030 -0.3086  0.1402  0.1859
 5324SOL     OW27430   3.812   4.682   8.413 -0.6876 -0.5198  0.4265
 5324SOL    HW127431   3.815   4.716   8.503 -2.9279 -1.6774  0.9287
 5324SOL    HW227432   3.750   4.611   8.426  1.6366 -2.6332  0.0339
 5325SOL     OW27433   3.075   1.798   3.568  0.0828  0.1565  0.4954
 5325SOL    HW127434   2.993   1.792   3.617 -0.7525 -1.4325 -1.0772
 5325SOL    HW227435   3.137   1.841   3.627  3.6830 -2.2015 -1.5816
 5326SOL     OW27436   2.425   2.986   0.551  0.0809  0.1798 -0.5132
 5326SOL    HW127437   2.454   3.047   0.619  2.1534 -1.2366 -0.1186
 5326SOL    HW227438   2.330   2.984   0.561 -0.1195  2.3506 -2.0512
 5327SOL     OW27439   1.646   2.704   0.256 -0.1563  0.1904  0.3071
 5327SOL    HW127440   1.623   2.712   0.349  0.3478  1.1530  0.3492
 5327SOL    HW227441   1.734   2.741   0.265 -0.3072  0.4356  0.7822
 5328SOL     OW27442   4.078   3.587  12.055  0.5366 -0.0328 -0.1160
 5328SOL    HW127443   4.014   3.527  12.093 -1.1233  0.1449 -2.7083
 5328SOL    HW227444   4.163   3.552  12.081  1.3167  4.0591  2.8913
 5329SOL     OW27445   4.624   2.359   7.118  0.2429 -0.0223 -0.2458
 5329SOL    HW127446   4.627   2.269   7.084  1.8957 -0.1360  0.1820
 5329SOL    HW227447   4.563   2.402   7.058  1.7230  2.1321 -0.2016
 5330SOL     OW27448   3.373   2.801  13.354 -0.2705 -0.0021  0.4635
 5330SOL    HW127449   3.463   2.835  13.352  0.3570 -1.5700  1.7952
 5330SOL    HW227450   3.391   2.717  13.313 -0.7247 -0.8407  1.9576
 5331SOL     OW27451   2.378   0.587  12.481  0.3797 -0.6168  0.1815
 5331SOL    HW127452   2.378   0.503  12.436  0.0034  0.5577 -2.0153
 5331SOL    HW227453   2.467   0.577  12.516  0.7186  2.5593  0.2781
 5332SOL     OW27454   4.137   0.966   5.408  0.0300  0.0383 -0.5233
 5332SOL    HW127455   4.157   0.922   5.325  1.6084 -0.7085  0.2419
 5332SOL    HW227456   4.139   0.893   5.471  0.2090 -1.5409 -2.3581
 5333SOL     OW27457   1.271   2.359   7.511 -0.0731 -0.1506 -0.0799
 5333SOL    HW127458   1.274   2.307   7.591 -1.1605  1.4037  0.9490
 5333SOL    HW227459   1.355   2.331   7.472 -0.7085 -0.4415 -1.2504
 5334SOL     OW27460   2.523   1.974   0.517 -0.1094  0.8612 -0.0211
 5334SOL    HW127461   2.439   1.974   0.471  0.6029  0.1862 -1.3105
 5334SOL    HW227462   2.512   2.041   0.585 -1.2361 -0.9698  1.6069
 5335SOL     OW27463   1.296   1.828   7.805  0.0350  0.0236 -0.3741
 5335SOL    HW127464   1.314   1.738   7.832  0.2984  0.2995  0.3756
 5335SOL    HW227465   1.354   1.874   7.865  0.9451 -1.0845 -0.4063
 5336SOL     OW27466   2.572   3.287   8.178 -0.3435 -0.0180 -0.4771
 5336SOL    HW127467   2.551   3.375   8.212  0.8109 -0.4186  1.2900
 5336SOL    HW227468   2.484   3.263   8.149  0.0228 -1.2873 -0.5150
 5337SOL     OW27469   1.048   1.389   4.795 -0.5517 -0.1836  0.0387
 5337SOL    HW127470   1.115   1.428   4.851 -0.3416  1.8276 -1.6167
 5337SOL    HW227471   1.099   1.376   4.715 -0.0143  0.6630  0.2377
 5338SOL     OW27472   2.478   1.795  15.165 -0.1947  0.0839 -0.1181
 5338SOL    HW127473   2.524   1.718  15.134  1.4806  1.5042 -1.1514
 5338SOL    HW227474   2.507   1.862  15.104 -1.2977 -0.5103 -1.2811
 5339SOL     OW27475   0.496   2.590   6.116  0.4018 -0.0148 -0.1799
 5339SOL    HW127476   0.569   2.606   6.176  0.4164 -2.0614  0.3645
 5339SOL    HW227477   0.422   2.624   6.166 -0.2810 -1.3728 -0.2856
 5340SOL     OW27478   0.815   3.397   1.353  0.4062 -0.1238  0.5931
 5340SOL    HW127479   0.905   3.365   1.358  0.7193  0.7445  0.4855
 5340SOL    HW227480   0.795   3.419   1.444  0.4754 -0.0113  0.5806
 5341SOL     OW27481   2.200   3.162   4.762  0.0696  0.0487 -0.3776
 5341SOL    HW127482   2.138   3.212   4.709  0.5463  0.1271 -0.8607
 5341SOL    HW227483   2.276   3.162   4.704  0.8098 -3.1618  0.5766
 5342SOL     OW27484   1.680   1.242  12.947  0.2459 -0.0227 -0.1642
 5342SOL    HW127485   1.741   1.175  12.976 -2.6897 -2.7394 -0.3173
 5342SOL    HW227486   1.733   1.300  12.892  0.8600 -0.4316 -0.0016
 5343SOL     OW27487   4.030   0.049   7.692  0.0279  0.2300 -0.1626
 5343SOL    HW127488   3.976   0.057   7.771  0.5322  0.9971  0.1048
 5343SOL    HW227489   3.964   0.023   7.628 -0.5830  1.0083  0.1572
 5344SOL     OW27490   3.682   3.138   8.697  0.1302  0.3090  0.0115
 5344SOL    HW127491   3.652   3.183   8.618 -0.7577  1.0711  0.7845
 5344SOL    HW227492   3.773   3.124   8.672  0.2966  3.6323 -1.2207
 5345SOL     OW27493   0.053   4.020  12.256  0.2991 -0.0226 -0.9333
 5345SOL    HW127494   4.700   4.015  12.195 -0.1676 -2.6095 -0.1682
 5345SOL    HW227495   0.122   4.018  12.190  0.8679 -0.8931 -0.3088
 5346SOL     OW27496   1.436   1.871  11.873  0.5540 -0.2327  0.1252
 5346SOL    HW127497   1.344   1.850  11.861  0.6348 -0.7764  0.4783
 5346SOL    HW227498   1.444   1.896  11.781 -3.1430  3.3809  0.7842
 5347SOL     OW27499   3.405   2.746   2.316 -0.0321 -0.5103 -0.7976
 5347SOL    HW127500   3.410   2.761   2.221 -0.3458 -1.0475 -0.8977
 5347SOL    HW227501   3.475   2.808   2.339 -0.4342 -0.7817  1.1292
 5348SOL     OW27502   1.163   0.782   0.659  0.1624 -0.2651  0.8555
 5348SOL    HW127503   1.191   0.693   0.682 -0.6888 -0.8410 -0.2803
 5348SOL    HW227504   1.205   0.825   0.733  0.0605  0.2453  0.6158
 5349SOL     OW27505   4.686   2.624  12.760  0.2942 -0.2651 -0.4039
 5349SOL    HW127506   0.016   2.614  12.679  2.5045  1.0464  0.8327
 5349SOL    HW227507   0.005   2.700  12.801 -1.0745  0.1853  0.0907
 5350SOL     OW27508   2.812   3.180   7.537 -0.1607 -0.0155 -0.0723
 5350SOL    HW127509   2.821   3.099   7.588 -1.3335 -0.3639 -0.4119
 5350SOL    HW227510   2.857   3.244   7.592 -1.5364  1.6817 -0.9396
 5351SOL     OW27511   3.203   1.575   6.075 -0.0371 -0.0856  0.0681
 5351SOL    HW127512   3.241   1.597   5.990 -0.2639 -1.2000 -0.3178
 5351SOL    HW227513   3.112   1.601   6.057  0.2541  0.4346 -0.6768
 5352SOL     OW27514   1.362   1.505  14.667  0.3932 -0.1310 -0.1704
 5352SOL    HW127515   1.391   1.499  14.576  3.2514  0.6754  0.7030
 5352SOL    HW227516   1.383   1.415  14.691  1.2463  0.3899  1.0186
 5353SOL     OW27517   0.728   3.948   8.434  0.0216 -0.3629 -0.4236
 5353SOL    HW127518   0.666   3.887   8.474 -0.5929 -0.3795 -1.3939
 5353SOL    HW227519   0.776   3.876   8.392  2.3066 -0.3707  2.1517
 5354SOL     OW27520   3.688   0.485   5.750  0.8431 -0.3655  0.8658
 5354SOL    HW127521   3.687   0.562   5.807 -1.3574  0.6527 -0.5489
 5354SOL    HW227522   3.600   0.450   5.737 -0.5639  3.1464  0.8904
 5355SOL     OW27523   0.425   1.206  10.774  0.0493  0.2958  0.1360
 5355SOL    HW127524   0.384   1.179  10.856  0.1745  0.2117  0.1709
 5355SOL    HW227525   0.358   1.261  10.733  0.3369  0.8969  0.4755
 5356SOL     OW27526   1.000   2.520   3.966 -0.4239  0.0922 -0.4470
 5356SOL    HW127527   1.058   2.579   3.918 -3.5578  2.8224 -0.8892
 5356SOL    HW227528   0.988   2.452   3.900 -0.1894 -0.2754 -0.1072
 5357SOL     OW27529   0.296   3.127   2.071 -0.3530  0.3112 -0.2432
 5357SOL    HW127530   0.211   3.116   2.114 -2.1595 -1.8670 -4.3203
 5357SOL    HW227531   0.322   3.035   2.061  3.8032  1.5253 -0.5803
 5358SOL     OW27532   3.296   4.163  12.104 -0.2120 -0.4749 -0.1690
 5358SOL    HW127533   3.355   4.128  12.170 -1.6534 -1.2517  0.7121
 5358SOL    HW227534   3.277   4.244  12.150  1.0173 -0.7429  0.7866
 5359SOL     OW27535   4.533   1.020   5.615  0.6941  0.1825  0.7561
 5359SOL    HW127536   4.610   0.980   5.656 -2.0561 -1.7916  4.0114
 5359SOL    HW227537   4.454   0.976   5.648 -0.5772  2.0018  0.1432
 5360SOL     OW27538   0.034   2.710  11.034 -0.0101  0.1728 -0.2002
 5360SOL    HW127539   0.043   2.778  10.968  1.4606  0.0357 -0.1509
 5360SOL    HW227540   4.665   2.687  11.009  0.5318 -1.0034 -1.0711
 5361SOL     OW27541   4.626   1.205   8.045  1.0816  0.0413 -0.1738
 5361SOL    HW127542   4.587   1.166   7.967 -5.4671  3.1422  1.5667
 5361SOL    HW227543   4.720   1.193   8.030  0.8987 -0.9108 -0.5211
 5362SOL     OW27544   1.197   1.031   2.859  0.9056  0.0322  0.2836
 5362SOL    HW127545   1.154   1.081   2.928  0.6900  1.3800 -0.8243
 5362SOL    HW227546   1.269   1.091   2.842  1.7077 -1.6519 -2.4258
 5363SOL     OW27547   4.578   3.517   3.469  0.1372 -0.2616  0.5265
 5363SOL    HW127548   4.488   3.539   3.444  0.1926  0.4526  0.9283
 5363SOL    HW227549   4.582   3.534   3.564  0.2202 -0.7643  0.6109
 5364SOL     OW27550   2.839   4.068   0.264  0.2105  0.6016 -0.2490
 5364SOL    HW127551   2.855   4.015   0.342 -0.2727  0.9753  0.1006
 5364SOL    HW227552   2.893   4.143   0.289  1.4305  0.2181 -1.7023
 5365SOL     OW27553   2.606   3.159  12.398  0.2938  0.4376  0.6218
 5365SOL    HW127554   2.525   3.113  12.376  1.5681 -0.2697 -2.6890
 5365SOL    HW227555   2.656   3.128  12.323 -2.6822 -1.8335 -0.4186
 5366SOL     OW27556   1.909   1.054   3.824  0.5555 -0.8263  0.2264
 5366SOL    HW127557   1.836   1.045   3.762 -1.4975  2.3132  2.1575
 5366SOL    HW227558   1.955   0.971   3.820 -0.9399 -1.7505  2.4736
 5367SOL     OW27559   4.176   0.539   7.559  0.8274 -0.1343 -0.2341
 5367SOL    HW127560   4.103   0.478   7.552  0.9563 -0.6248  2.6199
 5367SOL    HW227561   4.144   0.586   7.636  1.4003  0.9759 -0.6710
 5368SOL     OW27562   2.071   0.819   8.816 -0.2330  0.2177 -0.1592
 5368SOL    HW127563   2.090   0.877   8.890 -0.0168  1.6676 -1.3568
 5368SOL    HW227564   1.988   0.855   8.785 -1.0346 -1.8502 -0.4234
 5369SOL     OW27565   3.116   3.662   6.039 -0.2933 -0.1786  0.4555
 5369SOL    HW127566   3.176   3.597   6.002  1.0701  0.7875  0.9823
 5369SOL    HW227567   3.166   3.743   6.038  1.5423 -1.3102  0.7794
 5370SOL     OW27568   4.371   1.055   3.693  0.1664  0.5732 -0.1275
 5370SOL    HW127569   4.384   1.149   3.679 -0.8823  0.7862  0.3712
 5370SOL    HW227570   4.445   1.044   3.753  2.0111  1.0310 -2.3098
 5371SOL     OW27571   3.124   0.790   3.798 -0.1754 -0.2306 -0.1829
 5371SOL    HW127572   3.102   0.797   3.891 -2.2927  0.5419 -0.7249
 5371SOL    HW227573   3.117   0.882   3.771 -0.5098 -0.6112 -1.3968
 5372SOL     OW27574   3.180   1.006   2.159 -0.3374  0.6116 -0.1204
 5372SOL    HW127575   3.274   1.016   2.144 -0.2466  0.7479  0.5521
 5372SOL    HW227576   3.150   1.096   2.145 -0.0767  1.0872  2.3608
 5373SOL     OW27577   1.321   1.953   3.970  0.4193 -0.8735 -0.2792
 5373SOL    HW127578   1.378   2.025   3.998 -0.1350  0.2651 -2.1399
 5373SOL    HW227579   1.240   1.996   3.995  0.2533 -2.1028  1.3391
 5374SOL     OW27580   0.369   3.473   9.093  0.0665  0.5054 -0.0523
 5374SOL    HW127581   0.301   3.467   9.160 -0.4108  0.7570 -0.5181
 5374SOL    HW227582   0.410   3.558   9.106 -0.8170  1.1681 -1.6878
 5375SOL     OW27583   1.855   0.462  13.790  0.0768  0.1225  0.1361
 5375SOL    HW127584   1.771   0.467  13.745 -0.3720  0.0145  0.9541
 5375SOL    HW227585   1.917   0.516  13.742  2.0779 -1.3254  1.1054
 5376SOL     OW27586   3.485   0.167  13.327 -0.0349  0.4616 -0.7296
 5376SOL    HW127587   3.439   0.172  13.411 -1.5890  0.3212 -1.5844
 5376SOL    HW227588   3.575   0.189  13.351 -0.4520 -0.1813  1.4560
 5377SOL     OW27589   1.571   1.050   6.486 -0.1158  0.0241  0.1668
 5377SOL    HW127590   1.542   0.988   6.419  1.2368 -0.5400  0.0956
 5377SOL    HW227591   1.657   1.014   6.511 -1.6102 -2.7986  1.2682
 5378SOL     OW27592   4.516   2.211   6.570  0.1158 -0.2957 -0.5816
 5378SOL    HW127593   4.491   2.288   6.519 -1.1547  1.4565  2.6467
 5378SOL    HW227594   4.609   2.194   6.555  0.9266  1.5859  2.1445
 5379SOL     OW27595   2.769   0.035  16.445 -0.2473  0.3984 -0.1679
 5379SOL    HW127596   2.755   4.685  16.382  1.2159  0.3165 -0.4140
 5379SOL    HW227597   2.787   4.715  16.530 -2.2566  1.2879  0.6660
 5380SOL     OW27598   3.100   1.255  11.412  0.6613  0.1128 -0.3620
 5380SOL    HW127599   3.189   1.263  11.378  0.8332  2.2898  0.6005
 5380SOL    HW227600   3.114   1.225  11.502 -2.5831  1.1113  0.4655
 5381SOL     OW27601   2.587   3.598   2.502  0.3740 -0.2835 -0.4475
 5381SOL    HW127602   2.573   3.577   2.410 -1.2861  1.0244 -0.4848
 5381SOL    HW227603   2.635   3.680   2.490  1.0685 -0.3147  2.0631
 5382SOL     OW27604   2.703   0.602   8.794  0.3764 -0.0911 -0.2507
 5382SOL    HW127605   2.694   0.686   8.840  2.5211  0.4268 -0.7577
 5382SOL    HW227606   2.684   0.626   8.703 -0.9306  0.4711  0.1630
 5383SOL     OW27607   2.760   1.501  10.353 -0.0828 -0.1681  0.0883
 5383SOL    HW127608   2.683   1.446  10.343 -2.2322  2.4209  2.4536
 5383SOL    HW227609   2.730   1.587  10.322  1.2007  1.0387  2.1339
 5384SOL     OW27610   3.871   4.403   3.836  0.1538 -0.3087 -0.1187
 5384SOL    HW127611   3.927   4.431   3.763  1.8853 -2.2401  0.4453
 5384SOL    HW227612   3.781   4.421   3.809 -0.2583 -1.5225  0.4327
 5385SOL     OW27613   1.403   4.075   2.902  0.0871 -0.3901 -0.1459
 5385SOL    HW127614   1.376   4.065   2.993  1.1071 -0.8184  0.1096
 5385SOL    HW227615   1.498   4.065   2.906  0.0967 -0.8488 -1.4593
 5386SOL     OW27616   2.886   1.136   4.007 -0.3790 -0.0110 -0.1532
 5386SOL    HW127617   2.920   1.126   3.918  0.0331 -1.1295  0.1337
 5386SOL    HW227618   2.806   1.186   3.989 -0.6960 -0.0874  1.0493
 5387SOL     OW27619   0.470   2.379  17.374 -0.1112 -0.6476  0.0118
 5387SOL    HW127620   0.545   2.325  17.402  0.5748  0.8389  1.0320
 5387SOL    HW227621   0.505   2.412  17.292 -0.2302 -1.0988 -0.2227
 5388SOL     OW27622   0.389   2.559   0.413  0.0437  0.1121 -0.5577
 5388SOL    HW127623   0.482   2.570   0.430 -0.5282  0.5577  2.2520
 5388SOL    HW227624   0.386   2.523   0.324  0.0995  0.3496 -0.6559
 5389SOL     OW27625   3.892   3.687   6.691 -0.2045 -0.1325  0.0453
 5389SOL    HW127626   3.984   3.692   6.663 -0.2384 -1.3976 -0.2743
 5389SOL    HW227627   3.875   3.782   6.693  3.0070  0.4307  0.4934
 5390SOL     OW27628   4.281   0.668   5.321  0.4213  0.6329 -0.0520
 5390SOL    HW127629   4.279   0.664   5.225 -1.3303 -0.9216  0.0580
 5390SOL    HW227630   4.340   0.743   5.333 -0.8458  1.1713  2.7303
 5391SOL     OW27631   0.328   3.507  17.088 -0.7493  0.4680  0.2622
 5391SOL    HW127632   0.385   3.431  17.077 -2.2646 -0.6108 -0.1628
 5391SOL    HW227633   0.335   3.524  17.182 -2.8256  0.6878  0.3976
 5392SOL     OW27634   1.021   1.101   7.938  0.1586  0.1286  0.2336
 5392SOL    HW127635   1.014   1.017   7.983 -0.7618  1.4004  2.4684
 5392SOL    HW227636   0.985   1.166   7.998  0.4246  1.9219 -1.5349
 5393SOL     OW27637   1.324   1.718   6.262  0.0389 -0.6292  0.2870
 5393SOL    HW127638   1.413   1.726   6.296  0.5522  1.4704 -1.5017
 5393SOL    HW227639   1.298   1.632   6.294 -4.7473  0.4885 -0.6427
 5394SOL     OW27640   3.018   1.124   7.941 -0.8916 -0.0376 -0.4960
 5394SOL    HW127641   2.962   1.059   7.982  2.3748 -0.9127  2.6011
 5394SOL    HW227642   3.104   1.087   7.961 -0.0745 -0.1006 -4.0574
 5395SOL     OW27643   0.487   4.305   1.518  0.2124 -0.2924  0.0382
 5395SOL    HW127644   0.528   4.348   1.593  0.9975 -2.0528  0.6242
 5395SOL    HW227645   0.522   4.216   1.528 -0.3347 -0.6152 -0.9372
 5396SOL     OW27646   4.088   3.797   1.487  0.5214  0.0699  0.0207
 5396SOL    HW127647   4.030   3.873   1.487 -0.5952 -0.7898  1.2072
 5396SOL    HW227648   4.174   3.830   1.512  0.2477  0.8026 -0.0227
 5397SOL     OW27649   1.936   0.214  10.742  0.0331  0.2510  0.4751
 5397SOL    HW127650   1.995   0.140  10.754  0.5538  0.3286 -1.5296
 5397SOL    HW227651   1.892   0.191  10.659 -0.4912 -1.5024  1.2313
 5398SOL     OW27652   0.784   0.651  17.249 -0.1097 -0.0738 -0.5021
 5398SOL    HW127653   0.852   0.713  17.276 -0.0764 -0.5003  0.4010
 5398SOL    HW227654   0.833   0.569  17.237 -3.9235 -2.4817  0.3962
 5399SOL     OW27655   3.594   1.014   5.835  0.3058 -0.0501  0.4325
 5399SOL    HW127656   3.550   1.087   5.791  2.3907  2.4304  2.4955
 5399SOL    HW227657   3.610   1.047   5.923  0.3916 -1.1265  0.8195
 5400SOL     OW27658   2.606   0.642  11.002  0.3124  0.2821 -0.1642
 5400SOL    HW127659   2.685   0.651  10.947 -1.1479  2.1143 -1.9527
 5400SOL    HW227660   2.637   0.569  11.056  0.3235 -0.0191 -0.5670
 5401SOL     OW27661   1.652   1.393  14.807  0.3260 -0.4155 -0.1724
 5401SOL    HW127662   1.605   1.476  14.816 -0.8368 -0.9555 -1.1248
 5401SOL    HW227663   1.698   1.409  14.724  0.8362  1.5341  0.4903
 5402SOL     OW27664   0.725   1.416   8.502 -0.0802  0.2433 -0.4698
 5402SOL    HW127665   0.692   1.435   8.590 -0.3385  0.0820 -0.5317
 5402SOL    HW227666   0.752   1.502   8.470 -2.7193  1.9253  1.9118
 5403SOL     OW27667   3.795   2.184   0.332  0.1978  0.4915  0.1045
 5403SOL    HW127668   3.821   2.263   0.284 -0.8662 -0.6923 -2.4016
 5403SOL    HW227669   3.879   2.145   0.355  0.7190  0.9174 -1.0938
 5404SOL     OW27670   0.401   2.438  12.599 -0.3262  0.5255 -0.1754
 5404SOL    HW127671   0.438   2.351  12.590  1.2564  1.0105  1.6106
 5404SOL    HW227672   0.473   2.498  12.617 -1.7102  1.3073  2.8740
 5405SOL     OW27673   1.497   0.355   8.867 -0.0849 -0.2113 -0.0072
 5405SOL    HW127674   1.414   0.315   8.894  0.8104 -2.0524 -0.0135
 5405SOL    HW227675   1.538   0.288   8.813 -0.2431 -0.0624 -0.3103
 5406SOL     OW27676   4.614   4.505   2.129  0.1825 -0.0547 -0.0575
 5406SOL    HW127677   4.586   4.590   2.095  0.8810  1.0626  2.1223
 5406SOL    HW227678   4.548   4.491   2.197  0.3616 -1.1150 -0.0948
 5407SOL     OW27679   0.910   3.289   0.128  0.5334  0.5250  0.1964
 5407SOL    HW127680   0.847   3.279   0.198 -1.3196  0.9302 -1.4237
 5407SOL    HW227681   0.944   3.200   0.127 -0.9722 -0.0630  1.6301
 5408SOL     OW27682   0.706   1.834   8.119  0.3366 -1.0749  0.1792
 5408SOL    HW127683   0.705   1.748   8.077 -2.4307 -0.8138 -0.3454
 5408SOL    HW227684   0.761   1.884   8.058 -0.2171 -0.0285  0.5338
 5409SOL     OW27685   1.166   3.692   0.612  0.1296 -0.0956  0.6391
 5409SOL    HW127686   1.210   3.611   0.585 -2.7199 -1.6757  0.7665
 5409SOL    HW227687   1.227   3.765   0.601 -0.4885  0.4686  0.9793
 5410SOL     OW27688   3.128   1.895  16.491 -0.7966 -0.1134 -0.7917
 5410SOL    HW127689   3.123   1.912  16.397  1.3791  0.4949 -0.7971
 5410SOL    HW227690   3.092   1.976  16.527 -0.3078  0.4767 -1.6274
 5411SOL     OW27691   2.883   3.537   4.561 -0.2778 -0.0612  0.2078
 5411SOL    HW127692   2.958   3.551   4.619  0.3857 -1.4390 -0.3057
 5411SOL    HW227693   2.820   3.493   4.618  1.9306 -2.2229  1.0073
 5412SOL     OW27694   3.087   3.567  15.297 -0.2366 -0.1654  0.1241
 5412SOL    HW127695   3.129   3.486  15.267 -1.4355 -1.0610  0.8559
 5412SOL    HW227696   3.151   3.631  15.268 -1.1637 -0.1787 -1.9259
 5413SOL     OW27697   0.690   1.577   3.507 -0.4980 -0.2088  0.6235
 5413SOL    HW127698   0.735   1.607   3.427 -1.5807 -0.9458 -0.2556
 5413SOL    HW227699   0.667   1.664   3.540 -0.2534  0.8098 -1.8211
 5414SOL     OW27700   0.477   3.155  13.014  0.7455  0.3633  0.7046
 5414SOL    HW127701   0.517   3.221  12.957  0.4222 -1.4580 -1.6346
 5414SOL    HW227702   0.485   3.072  12.967  0.7931  0.5982  0.2881
 5415SOL     OW27703   3.922   3.099   8.900  0.0320  0.3636  0.1029
 5415SOL    HW127704   3.913   3.140   8.814  0.3394 -2.8108 -1.4578
 5415SOL    HW227705   3.846   3.125   8.953 -0.0526 -0.5268  0.4239
 5416SOL     OW27706   0.149   3.709   7.804  0.3860 -0.6543 -0.1751
 5416SOL    HW127707   0.145   3.684   7.712  0.5352 -2.5583  0.3467
 5416SOL    HW227708   0.216   3.778   7.797  0.4564 -0.8273 -1.1287
 5417SOL     OW27709   4.286   1.988   6.728  0.1986 -0.3927  0.0758
 5417SOL    HW127710   4.196   1.961   6.706 -0.5509  0.4520  2.1022
 5417SOL    HW227711   4.264   2.067   6.779  1.7553  1.0705 -1.5536
 5418SOL     OW27712   3.526   1.394   7.929  0.5048 -0.0399  0.1171
 5418SOL    HW127713   3.495   1.421   7.842 -1.0339 -0.2273  0.6050
 5418SOL    HW227714   3.479   1.456   7.985 -2.5448 -0.3645 -2.0323
 5419SOL     OW27715   4.569   3.970   6.205  0.7628 -0.3467  0.0418
 5419SOL    HW127716   4.562   3.987   6.299 -1.4926 -1.2708  0.0427
 5419SOL    HW227717   4.498   4.031   6.188  0.8920  0.1654  1.3750
 5420SOL     OW27718   3.866   1.761  16.070 -0.0396  0.2212  0.2200
 5420SOL    HW127719   3.841   1.831  16.010  2.2990  1.2238  0.4368
 5420SOL    HW227720   3.841   1.800  16.154 -1.3688 -0.2571  0.0465
 5421SOL     OW27721   0.682   3.170   0.296  0.2320 -0.1622 -0.9954
 5421SOL    HW127722   0.688   3.085   0.251  0.5160 -0.2695 -0.7585
 5421SOL    HW227723   0.769   3.167   0.335 -0.4150 -0.0632  0.4581
 5422SOL     OW27724   3.371   3.716   7.867 -0.2108 -0.2165 -0.1278
 5422SOL    HW127725   3.427   3.780   7.823 -1.3451  1.6163  1.0852
 5422SOL    HW227726   3.437   3.669   7.917  0.4166  1.2147  0.3834
 5423SOL     OW27727   2.015   4.155  16.086  0.7701 -0.0967  0.3429
 5423SOL    HW127728   2.022   4.237  16.135 -0.5797  0.1404  0.1361
 5423SOL    HW227729   1.920   4.157  16.076  0.7294 -0.1841  0.7112
 5424SOL     OW27730   4.241   1.219   5.946 -0.0157 -0.3212 -0.0163
 5424SOL    HW127731   4.158   1.237   5.990  0.4324 -2.8964  1.8993
 5424SOL    HW227732   4.209   1.173   5.869  0.3450  0.4684 -0.6283
 5425SOL     OW27733   2.446   3.803   4.055 -0.7146  0.1122 -0.9134
 5425SOL    HW127734   2.443   3.890   4.017 -0.5630  1.2346  1.6601
 5425SOL    HW227735   2.471   3.822   4.145 -1.2248 -2.8141 -0.1300
 5426SOL     OW27736   3.746   3.607   4.718  0.3734  0.7477 -0.4336
 5426SOL    HW127737   3.793   3.539   4.767 -1.6717  0.2394  0.7928
 5426SOL    HW227738   3.737   3.679   4.780  1.6246  0.1499  0.4554
 5427SOL     OW27739   1.980   4.031   9.110 -0.2318 -0.5087 -0.1202
 5427SOL    HW127740   2.021   3.998   9.190 -0.7478 -0.7972  0.0288
 5427SOL    HW227741   1.984   4.126   9.122  1.5793 -0.5566 -0.4304
 5428SOL     OW27742   2.683   3.361  17.643 -0.4034 -0.0876 -0.0018
 5428SOL    HW127743   2.734   3.398  17.571  1.6521 -3.2924 -0.2041
 5428SOL    HW227744   2.683   3.269  17.616 -0.4792  0.1062 -0.6535
 5429SOL     OW27745   0.501   3.021  11.632  0.0096 -0.4753  0.1874
 5429SOL    HW127746   0.560   2.947  11.647  0.6231  0.0407  0.3222
 5429SOL    HW227747   0.411   2.989  11.641 -0.4974  0.5907 -1.2471
 5430SOL     OW27748   0.516   4.237   7.855 -0.7860 -0.5263 -0.2670
 5430SOL    HW127749   0.434   4.280   7.830  0.0571  1.8362  0.9473
 5430SOL    HW227750   0.527   4.284   7.938 -0.2444 -0.7446 -0.2145
 5431SOL     OW27751   3.222   4.394   2.352 -0.0003  0.3540 -0.0751
 5431SOL    HW127752   3.277   4.326   2.390  0.8185  1.3851  0.5988
 5431SOL    HW227753   3.247   4.476   2.395  2.2664 -0.3222 -0.1113
 5432SOL     OW27754   1.801   1.602   6.228 -0.3370 -0.5389 -0.1720
 5432SOL    HW127755   1.737   1.625   6.296  1.0171 -0.1717  0.9718
 5432SOL    HW227756   1.744   1.640   6.161 -1.2275  0.5853  1.2281
 5433SOL     OW27757   0.575   0.386  11.094 -0.4151 -0.2294  0.2809
 5433SOL    HW127758   0.539   0.321  11.155  1.2625 -2.6780 -1.2905
 5433SOL    HW227759   0.524   0.458  11.132  0.8582  0.2119  1.1494
 5434SOL     OW27760   0.716   1.748   9.501 -0.0491  0.0178  0.1896
 5434SOL    HW127761   0.786   1.752   9.566  1.8227  0.5485 -1.8948
 5434SOL    HW227762   0.679   1.834   9.524  0.2145 -0.4605  2.4434
 5435SOL     OW27763   2.427   3.753   4.676 -0.1733  0.2260  0.5996
 5435SOL    HW127764   2.522   3.743   4.664 -0.3851 -0.2750 -0.7147
 5435SOL    HW227765   2.411   3.819   4.742  1.2497 -0.4978  1.6767
 5436SOL     OW27766   0.385   2.530   9.654  0.0165  0.6119  0.2834
 5436SOL    HW127767   0.376   2.563   9.743  3.2688 -2.7051  1.8182
 5436SOL    HW227768   0.293   2.539   9.629 -1.0238 -0.3970  3.8249
 5437SOL     OW27769   2.171   0.307  16.327  0.2496  0.4724 -0.0351
 5437SOL    HW127770   2.118   0.237  16.287  1.4318 -0.1937 -0.4364
 5437SOL    HW227771   2.199   0.342  16.242 -0.4497  2.2317  0.4583
 5438SOL     OW27772   2.676   1.118   6.793  0.1751 -0.2782 -0.3592
 5438SOL    HW127773   2.586   1.150   6.803  0.1557 -0.8158  1.1738
 5438SOL    HW227774   2.697   1.172   6.717  0.3687 -2.0472 -1.5535
 5439SOL     OW27775   0.997   3.574   1.209  0.0308  0.1973  0.0425
 5439SOL    HW127776   1.015   3.484   1.236  1.4439  1.3676  2.9746
 5439SOL    HW227777   1.043   3.569   1.125 -0.5792  2.3233 -0.4325
 5440SOL     OW27778   2.257   0.870   6.274  0.4432  0.2553  0.0430
 5440SOL    HW127779   2.342   0.911   6.288  0.4361  0.4152 -0.3775
 5440SOL    HW227780   2.234   0.851   6.364  2.6163 -1.3668  0.2590
 5441SOL     OW27781   3.020   2.881   2.045 -0.4254 -0.1365 -0.5197
 5441SOL    HW127782   3.108   2.916   2.061  0.1021 -2.1917  1.0516
 5441SOL    HW227783   2.959   2.955   2.050 -0.3049 -0.1381  0.8761
 5442SOL     OW27784   1.160   0.363   2.957  0.1711  0.0666 -0.3878
 5442SOL    HW127785   1.140   0.456   2.951  0.8469  0.2135 -0.3104
 5442SOL    HW227786   1.211   0.344   2.878 -0.7042 -1.9298 -0.4908
 5443SOL     OW27787   1.331   2.377   5.351  0.3858  0.8593 -0.1834
 5443SOL    HW127788   1.422   2.406   5.347  0.7923 -0.2895  0.8218
 5443SOL    HW227789   1.297   2.466   5.353 -0.6655  0.5664 -3.7678
 5444SOL     OW27790   3.223   2.760  15.342 -0.1500 -0.0014 -0.4406
 5444SOL    HW127791   3.241   2.691  15.405  2.3185  1.0146 -0.0464
 5444SOL    HW227792   3.302   2.774  15.291  2.3367 -0.1593  3.3913
 5445SOL     OW27793   1.066   1.499   3.828 -0.0236  0.2168  0.0350
 5445SOL    HW127794   0.981   1.519   3.867 -0.6282 -0.2248 -1.0442
 5445SOL    HW227795   1.046   1.530   3.739  1.4099  1.7116  0.2412
 5446SOL     OW27796   1.809   2.648  17.560 -0.0929  0.2652 -0.4249
 5446SOL    HW127797   1.733   2.699  17.590  0.7373  1.4633 -0.3449
 5446SOL    HW227798   1.762   2.573  17.523 -0.9861 -0.0081  1.2261
 5447SOL     OW27799   4.367   2.188   0.273 -0.0289  0.3673  0.1067
 5447SOL    HW127800   4.435   2.253   0.289 -0.7376  1.7168 -2.3219
 5447SOL    HW227801   4.336   2.225   0.191  1.7038  1.2449 -0.1408
 5448SOL     OW27802   2.984   1.577  10.600 -0.3006 -0.4944 -0.6536
 5448SOL    HW127803   2.903   1.525  10.604 -1.7631  1.8223 -0.0314
 5448SOL    HW227804   2.948   1.659  10.634  1.7283 -0.4249  1.3459
 5449SOL     OW27805   0.954   0.611   3.619 -0.3727  0.4166 -0.5807
 5449SOL    HW127806   0.977   0.688   3.672  0.2683 -0.2693  0.1432
 5449SOL    HW227807   1.019   0.606   3.550  1.8939 -1.3500  1.6683
 5450SOL     OW27808   1.223   1.488  12.604 -0.1977  0.0138 -0.4087
 5450SOL    HW127809   1.176   1.411  12.571  0.6609  0.5928 -3.0285
 5450SOL    HW227810   1.167   1.525  12.672 -0.5110  0.2619 -0.7990
 5451SOL     OW27811   1.568   1.617   6.787 -0.0105  0.2580  0.7506
 5451SOL    HW127812   1.607   1.603   6.874  2.3734  0.5177 -0.2919
 5451SOL    HW227813   1.547   1.529   6.757 -0.2531  1.5037 -2.6792
 5452SOL     OW27814   0.617   2.923  12.318  0.1192 -0.1683  0.1832
 5452SOL    HW127815   0.675   2.957  12.385  3.3191 -0.3195 -2.5286
 5452SOL    HW227816   0.577   2.859  12.377 -0.9096  0.6935  0.4269
 5453SOL     OW27817   2.016   0.215  15.976  0.8408 -0.3691 -0.0453
 5453SOL    HW127818   2.096   0.163  15.986  0.9043 -0.2532  0.0380
 5453SOL    HW227819   2.038   0.284  15.913 -1.0713  0.5532  0.2902
 5454SOL     OW27820   2.950   2.288   4.887  0.2327  0.3295 -0.6439
 5454SOL    HW127821   2.996   2.372   4.889 -1.4354  1.2737 -1.8561
 5454SOL    HW227822   2.941   2.279   4.792  0.9595 -0.4062 -0.6371
 5455SOL     OW27823   4.294   3.914   1.790  0.2560 -0.6563  0.2440
 5455SOL    HW127824   4.327   3.882   1.706 -1.3385  0.3393 -0.7641
 5455SOL    HW227825   4.249   3.834   1.819 -0.3085 -0.5722 -0.4050
 5456SOL     OW27826   4.155   0.393   4.041 -0.1519  0.3729  0.0865
 5456SOL    HW127827   4.234   0.420   3.995  0.3070  1.0666  1.2884
 5456SOL    HW227828   4.156   0.460   4.109 -1.3563 -0.5191  0.9809
 5457SOL     OW27829   1.957   3.791   0.108 -0.2885 -0.0040  0.1089
 5457SOL    HW127830   1.973   3.698   0.097  0.1311  0.1326 -0.4375
 5457SOL    HW227831   1.948   3.817   0.016 -0.0958 -1.4425 -0.3029
 5458SOL     OW27832   4.437   0.679   9.796 -0.1677 -0.4579  0.1641
 5458SOL    HW127833   4.432   0.649   9.706 -1.5600  1.6275 -0.4562
 5458SOL    HW227834   4.447   0.596   9.843  2.2798 -0.4897 -0.4680
 5459SOL     OW27835   1.953   2.915  15.933 -0.9948 -0.4916 -0.0675
 5459SOL    HW127836   2.020   2.852  15.907 -0.3253  0.1898 -0.0015
 5459SOL    HW227837   1.876   2.858  15.936 -0.9253 -0.5095  1.1593
 5460SOL     OW27838   1.455   3.213   7.797 -0.3459  0.5146  0.0639
 5460SOL    HW127839   1.421   3.293   7.755 -0.7107  1.3424  1.8927
 5460SOL    HW227840   1.412   3.206   7.883  0.3177 -0.2393  0.3296
 5461SOL     OW27841   1.294   1.053   5.021  0.2060 -0.4652  0.5057
 5461SOL    HW127842   1.321   1.015   4.937 -1.3363  1.4106 -0.8190
 5461SOL    HW227843   1.200   1.053   5.002  0.7072  0.6610 -1.9043
 5462SOL     OW27844   2.392   1.315  15.493  0.9198 -0.0559 -0.0772
 5462SOL    HW127845   2.418   1.342  15.406 -1.4868  3.0793  0.1985
 5462SOL    HW227846   2.305   1.281  15.471  0.0693  1.6380  0.6708
 5463SOL     OW27847   0.920   1.124  14.838  0.5278 -0.0202 -0.1570
 5463SOL    HW127848   0.877   1.045  14.807  0.0499 -0.0669  0.6391
 5463SOL    HW227849   0.960   1.152  14.755  0.2785  0.5242 -0.0924
 5464SOL     OW27850   2.605   1.632   8.930  0.5554 -0.2667  0.6622
 5464SOL    HW127851   2.531   1.692   8.932 -1.1960 -2.4433  1.3214
 5464SOL    HW227852   2.559   1.550   8.948 -1.7711  0.4232 -2.2892
 5465SOL     OW27853   1.199   1.927   8.105  0.0959 -0.2783  0.0075
 5465SOL    HW127854   1.106   1.918   8.085  0.0839  0.4157 -0.2448
 5465SOL    HW227855   1.201   1.996   8.171  1.7813  1.0311 -1.3777
 5466SOL     OW27856   1.535   0.118   0.833  0.0744  0.4282 -0.6091
 5466SOL    HW127857   1.528   0.153   0.921 -0.1232 -0.9552 -0.0815
 5466SOL    HW227858   1.551   0.026   0.852  1.1344  0.8992  0.7139
 5467SOL     OW27859   4.012   0.271   4.880 -0.1696 -0.1922  0.3808
 5467SOL    HW127860   4.064   0.322   4.942  2.4055 -3.4654  0.9262
 5467SOL    HW227861   3.971   0.335   4.822  3.4799 -2.0365 -4.2065
 5468SOL     OW27862   3.064   0.989   5.820  0.5022 -0.0792 -0.2241
 5468SOL    HW127863   2.976   0.953   5.824  0.6259 -0.2972  0.4804
 5468SOL    HW227864   3.071   1.045   5.897  0.4558  0.3625 -0.5363
 5469SOL     OW27865   3.280   1.671   2.635  0.2598  0.2662  0.2523
 5469SOL    HW127866   3.270   1.739   2.702  1.0389  1.6351 -1.0293
 5469SOL    HW227867   3.191   1.636   2.629 -0.4561  2.0023  0.8724
 5470SOL     OW27868   1.775   1.759   6.566  0.6144  0.6412 -0.4500
 5470SOL    HW127869   1.721   1.692   6.524  2.8649 -0.9195 -0.8540
 5470SOL    HW227870   1.845   1.702   6.598 -0.8127 -1.1803 -0.5360
 5471SOL     OW27871   3.711   2.956  11.001  0.0279  0.4222 -0.2621
 5471SOL    HW127872   3.731   3.015  10.928  0.3045  1.6763  0.8141
 5471SOL    HW227873   3.654   3.010  11.056  0.5861 -1.9257  2.6455
 5472SOL     OW27874   2.793   1.737  15.842 -0.1550 -0.2271  0.1884
 5472SOL    HW127875   2.699   1.751  15.829  0.1346  0.6776 -0.9681
 5472SOL    HW227876   2.808   1.651  15.804 -2.5286 -1.4723  2.0604
 5473SOL     OW27877   0.225   3.141   2.513  0.8394 -0.1563  0.7260
 5473SOL    HW127878   0.173   3.211   2.554 -1.1097 -0.5165 -1.1579
 5473SOL    HW227879   0.292   3.195   2.472  0.8640  0.8550  2.0908
 5474SOL     OW27880   4.232   3.423   3.589  0.2931  0.3119 -0.4394
 5474SOL    HW127881   4.183   3.455   3.664 -1.8211  1.5636 -2.3453
 5474SOL    HW227882   4.248   3.503   3.538  0.0340  0.3361 -0.4848
 5475SOL     OW27883   4.555   3.134   8.261  0.1032  0.4469  0.4932
 5475SOL    HW127884   4.600   3.072   8.319  0.5782 -0.9857 -1.3890
 5475SOL    HW227885   4.506   3.070   8.210 -0.8462  0.7594  1.0245
 5476SOL     OW27886   1.417   3.199   0.231 -0.1329  0.0888  0.0257
 5476SOL    HW127887   1.344   3.247   0.269 -0.6294 -0.2612 -0.4794
 5476SOL    HW227888   1.441   3.234   0.145 -1.0737 -0.3227 -0.3995
 5477SOL     OW27889   1.748   2.631   8.600 -0.1726  0.3785  0.1460
 5477SOL    HW127890   1.836   2.593   8.601 -0.9340 -1.4234  0.8001
 5477SOL    HW227891   1.737   2.638   8.505  1.4874 -0.6094 -0.1100
 5478SOL     OW27892   1.959   3.414   7.709  0.6398 -0.0347 -0.0229
 5478SOL    HW127893   1.871   3.378   7.714  1.1887 -1.3438  0.1107
 5478SOL    HW227894   2.009   3.333   7.718  1.0129  0.6028  3.6441
 5479SOL     OW27895   3.376   1.315   9.705 -0.1698 -0.0799  0.1665
 5479SOL    HW127896   3.413   1.373   9.639 -4.6983 -1.7346 -3.8188
 5479SOL    HW227897   3.464   1.295   9.740  0.2883  2.3349  0.3932
 5480SOL     OW27898   0.008   2.382  13.373 -0.2535  0.1999  0.6013
 5480SOL    HW127899   0.003   2.477  13.360  0.9935  0.2260  0.3499
 5480SOL    HW227900   4.679   2.348  13.299 -1.8878  1.9330  0.9020
 5481SOL     OW27901   2.063   3.573  16.852 -0.3539 -0.3314 -0.1495
 5481SOL    HW127902   2.054   3.663  16.821 -1.4014  0.0587  1.2622
 5481SOL    HW227903   1.978   3.564  16.895  0.3673 -2.2253  0.8688
 5482SOL     OW27904   1.752   1.562   5.117  0.4114  0.0053 -0.1841
 5482SOL    HW127905   1.788   1.607   5.194  2.1308 -1.1519 -0.2889
 5482SOL    HW227906   1.804   1.595   5.044  0.6127  3.8409  1.6465
 5483SOL     OW27907   4.115   0.961   8.696 -0.2158 -0.5325 -0.3516
 5483SOL    HW127908   4.147   1.034   8.750  0.5174  0.4457 -2.0930
 5483SOL    HW227909   4.156   0.968   8.609 -0.6109  0.9312 -0.4194
 5484SOL     OW27910   0.468   2.018  14.543  0.3615 -0.3531 -1.1803
 5484SOL    HW127911   0.395   2.069  14.508 -0.0856 -0.7850 -0.8832
 5484SOL    HW227912   0.473   1.941  14.487 -0.2726 -0.1654 -1.4974
 5485SOL     OW27913   4.216   1.705  16.000  0.7169  0.0778 -0.6375
 5485SOL    HW127914   4.239   1.757  16.078  3.6711  1.7467 -2.6230
 5485SOL    HW227915   4.273   1.740  15.932  0.2745 -0.1339 -1.1200
 5486SOL     OW27916   1.491   1.373   6.656  0.2692  0.3549  0.4970
 5486SOL    HW127917   1.481   1.285   6.620  0.0077 -0.1569  1.8156
 5486SOL    HW227918   1.407   1.385   6.701  0.0138  0.8250 -0.1152
 5487SOL     OW27919   1.221   1.276   3.879  0.2269 -0.0311 -0.2460
 5487SOL    HW127920   1.169   1.348   3.842  0.7945  0.1300 -0.7264
 5487SOL    HW227921   1.246   1.316   3.962  0.0711 -1.0793  0.3040
 5488SOL     OW27922   4.261   1.884  15.177 -0.0685  0.4471 -0.3369
 5488SOL    HW127923   4.200   1.820  15.214  1.6281  0.2128  2.0506
 5488SOL    HW227924   4.244   1.971  15.214  0.4494  0.8402 -1.0143
 5489SOL     OW27925   4.020   2.188   2.061  0.1500  0.2510 -0.5892
 5489SOL    HW127926   4.046   2.261   2.118 -3.2555  1.0174 -0.0134
 5489SOL    HW227927   3.927   2.172   2.077  0.6920 -1.1768  1.0495
 5490SOL     OW27928   3.752   0.466  16.649 -0.2596 -0.1836  0.7272
 5490SOL    HW127929   3.760   0.560  16.633  0.6144 -0.4559 -0.4308
 5490SOL    HW227930   3.817   0.454  16.718 -0.4733  0.5588  1.0668
 5491SOL     OW27931   2.155   0.171   9.781 -0.0679 -0.1492  0.8449
 5491SOL    HW127932   2.202   0.091   9.806  1.6346 -0.1900 -2.4479
 5491SOL    HW227933   2.074   0.176   9.832  0.5550  0.0971  1.8080
 5492SOL     OW27934   3.783   3.330  12.359  0.5733  0.4315  0.2626
 5492SOL    HW127935   3.702   3.381  12.356 -0.6982 -1.5296  1.0035
 5492SOL    HW227936   3.825   3.337  12.445  0.2569  1.8799  0.2927
 5493SOL     OW27937   3.723   1.006   4.255 -0.2766  0.5847  0.2638
 5493SOL    HW127938   3.806   1.051   4.269  0.9281 -1.7418  0.5912
 5493SOL    HW227939   3.725   0.987   4.161 -2.1769 -2.1593  0.7777
 5494SOL     OW27940   4.419   0.541  12.081 -0.0846 -0.3277  0.1217
 5494SOL    HW127941   4.370   0.478  12.029 -0.8206  0.4277 -0.1010
 5494SOL    HW227942   4.385   0.532  12.170 -0.8036 -1.7994 -0.3103
 5495SOL     OW27943   3.964   2.616  17.154  0.4834  0.1840 -0.4080
 5495SOL    HW127944   3.984   2.531  17.115  0.4868  0.5233 -1.1403
 5495SOL    HW227945   3.872   2.601  17.175  1.1163 -2.2452  0.6112
 5496SOL     OW27946   3.904   2.449  12.347 -0.7452  0.3212 -0.2111
 5496SOL    HW127947   3.985   2.399  12.337 -0.1111  1.8471 -2.6256
 5496SOL    HW227948   3.896   2.444  12.442  2.3763  0.6167  0.0509
 5497SOL     OW27949   2.132   0.364   6.294 -0.3833 -0.1188 -0.2129
 5497SOL    HW127950   2.039   0.359   6.318 -0.5639 -2.5973 -1.4182
 5497SOL    HW227951   2.149   0.450   6.257 -0.2948  0.3535  0.9242
 5498SOL     OW27952   0.790   2.471   5.943 -0.5669  0.5019  0.2508
 5498SOL    HW127953   0.799   2.547   6.000 -0.8357 -0.5500  1.7048
 5498SOL    HW227954   0.864   2.489   5.885 -0.1077 -1.7305  0.1203
 5499SOL     OW27955   0.977   0.037   4.107  0.1780 -0.1598  0.2847
 5499SOL    HW127956   0.978   0.034   4.203 -0.1505 -1.7683  0.2366
 5499SOL    HW227957   0.896   4.712   4.082  0.7446 -0.9981 -0.0457
 5500SOL     OW27958   2.445   0.681   5.483 -0.5672 -0.3152  0.1159
 5500SOL    HW127959   2.356   0.659   5.511 -0.3367 -0.3275  0.8429
 5500SOL    HW227960   2.437   0.700   5.389  0.3737  1.7167  0.4334
 5501SOL     OW27961   0.975   0.914  16.515 -1.0035  0.3163  0.0512
 5501SOL    HW127962   1.056   0.912  16.463 -1.0074 -0.2599  0.0694
 5501SOL    HW227963   0.962   0.822  16.537 -0.4927  0.6477  1.7419
 5502SOL     OW27964   2.649   0.376  15.106  0.4443 -0.0652  0.7037
 5502SOL    HW127965   2.713   0.444  15.127  2.1925 -1.2675 -0.6824
 5502SOL    HW227966   2.706   0.304  15.080 -1.6759 -1.6946  0.5942
 5503SOL     OW27967   2.741   0.045   6.295  0.3193 -0.4337 -0.0515
 5503SOL    HW127968   2.731   0.134   6.263  0.6493 -0.3869 -0.0229
 5503SOL    HW227969   2.831   0.040   6.329 -0.5859  2.4968  2.7464
 5504SOL     OW27970   3.934   0.368   3.842 -0.2797 -0.2177  0.7679
 5504SOL    HW127971   4.005   0.360   3.905  0.0568 -3.2649  0.0163
 5504SOL    HW227972   3.875   0.431   3.883 -0.3676 -1.7850  3.0388
 5505SOL     OW27973   0.701   1.211  15.029  0.1161  0.0545  0.4841
 5505SOL    HW127974   0.624   1.186  14.978  0.6975  1.8693 -1.2534
 5505SOL    HW227975   0.773   1.177  14.977 -0.4421  0.9537 -0.8803
 5506SOL     OW27976   0.135   2.937  15.026 -0.2022 -0.4219  0.2928
 5506SOL    HW127977   0.199   2.978  14.968 -2.6988  0.6626 -1.7270
 5506SOL    HW227978   0.162   2.846  15.021 -1.6233 -1.0399  3.7741
 5507SOL     OW27979   1.617   2.434  10.456  0.8763 -0.1886  0.1863
 5507SOL    HW127980   1.553   2.415  10.524 -0.7183 -1.1932 -1.6119
 5507SOL    HW227981   1.694   2.392  10.493  0.2431 -1.5352 -0.0441
 5508SOL     OW27982   2.063   2.127   3.128 -0.0840 -0.2227  0.6014
 5508SOL    HW127983   2.001   2.199   3.116 -0.4364 -0.4012  1.3404
 5508SOL    HW227984   2.042   2.070   3.053  0.5033 -0.1600  0.3876
 5509SOL     OW27985   3.217   1.965   8.219  0.3698  0.3641  0.5369
 5509SOL    HW127986   3.208   1.872   8.240  1.2827 -0.2166 -1.7294
 5509SOL    HW227987   3.301   1.984   8.261  0.8965 -2.8003  0.9489
 5510SOL     OW27988   3.357   4.076   6.364  0.2753  0.2946 -0.1104
 5510SOL    HW127989   3.389   4.104   6.278 -0.2193  0.6894 -0.1625
 5510SOL    HW227990   3.298   4.149   6.384  0.2085  0.3049 -0.3482
 5511SOL     OW27991   2.740   2.340   9.122 -0.1636 -0.1105  0.2559
 5511SOL    HW127992   2.663   2.284   9.117 -0.7607  0.8775 -2.0230
 5511SOL    HW227993   2.769   2.319   9.211 -0.3973  1.4913  0.7255
 5512SOL     OW27994   3.068   3.272   4.862 -0.4000  0.1550  0.2266
 5512SOL    HW127995   3.073   3.181   4.833 -0.3989  0.2338 -0.0161
 5512SOL    HW227996   3.159   3.286   4.886  0.1908 -2.0228 -0.6821
 5513SOL     OW27997   1.001   1.994   5.981 -0.2266 -0.1465  0.3964
 5513SOL    HW127998   0.955   2.031   5.905 -1.8030 -0.1015  1.4002
 5513SOL    HW227999   1.089   2.032   5.967 -0.1011 -0.2337  0.9754
 5514SOL     OW28000   0.432   1.291  12.636 -0.8211 -0.0831  0.7040
 5514SOL    HW128001   0.516   1.246  12.628 -0.4862  0.2740  2.2384
 5514SOL    HW228002   0.376   1.215  12.621 -0.6301 -0.4492  1.8718
 5515SOL     OW28003   3.654   2.015  11.178  0.0339 -0.5052  0.0401
 5515SOL    HW128004   3.689   1.931  11.209  0.1834 -0.1898  0.7291
 5515SOL    HW228005   3.559   2.005  11.180  0.0425 -0.6526 -0.2216
 5516SOL     OW28006   3.635   1.027  15.868  0.3232 -0.1519 -0.0740
 5516SOL    HW128007   3.667   0.994  15.952 -1.0317  0.7293  0.7892
 5516SOL    HW228008   3.673   0.956  15.817  2.2036 -0.0685  1.1902
 5517SOL     OW28009   4.298   3.847   9.915 -0.0294  0.2416  0.8614
 5517SOL    HW128010   4.392   3.829   9.923 -0.5745 -0.8934  5.0640
 5517SOL    HW228011   4.259   3.791   9.982 -2.4176  0.6419 -0.2003
 5518SOL     OW28012   1.070   0.903  17.034 -0.3028  0.5268  0.6932
 5518SOL    HW128013   0.990   0.937  16.993 -0.6425  0.6689  1.4661
 5518SOL    HW228014   1.094   0.979  17.089 -1.9091  1.4090  0.1632
 5519SOL     OW28015   3.387   2.818  11.913 -0.1957  0.1929 -0.3607
 5519SOL    HW128016   3.478   2.801  11.936 -0.7680 -0.9279  1.0895
 5519SOL    HW228017   3.373   2.772  11.830  0.0224 -0.1884 -0.1852
 5520SOL     OW28018   4.224   4.682   3.844  0.4721  0.4848  0.2201
 5520SOL    HW128019   4.209   0.046   3.802 -0.5288  0.0766 -0.2514
 5520SOL    HW228020   4.256   4.626   3.773 -1.9714 -2.5515  1.4952
 5521SOL     OW28021   0.309   4.688   1.762 -0.5925 -0.0856 -0.2696
 5521SOL    HW128022   0.236   4.711   1.704 -2.3035 -0.7463  1.6125
 5521SOL    HW228023   0.379   4.715   1.702 -1.1354  1.5419 -0.1656
 5522SOL     OW28024   4.417   4.690   6.489 -0.0030  0.5142 -0.4938
 5522SOL    HW128025   4.501   4.675   6.446  0.1961  2.7873 -0.9071
 5522SOL    HW228026   4.425   0.029   6.563 -2.5793 -0.8145  0.8462
 5523SOL     OW28027   4.300   1.377  11.641 -0.2233 -0.1912  0.0400
 5523SOL    HW128028   4.345   1.334  11.568 -2.2559 -1.3981 -0.5017
 5523SOL    HW228029   4.296   1.471  11.621 -2.6010 -0.3788 -0.3382
 5524SOL     OW28030   2.521   1.189  16.771  0.2636  0.0968 -0.0101
 5524SOL    HW128031   2.594   1.137  16.807 -1.3540 -0.6050  2.2502
 5524SOL    HW228032   2.449   1.169  16.830  1.4299 -0.7606  1.1268
 5525SOL     OW28033   1.625   0.211  13.517  0.2300 -0.1710 -0.3493
 5525SOL    HW128034   1.600   0.303  13.525 -1.4797 -0.6240 -0.4953
 5525SOL    HW228035   1.720   0.219  13.518  0.2730 -1.0270  0.9428
 5526SOL     OW28036   1.467   1.094   1.247  0.3760  0.4183 -0.2937
 5526SOL    HW128037   1.559   1.081   1.224  0.6693  1.6150  0.2413
 5526SOL    HW228038   1.425   1.028   1.190  0.2719  0.0416  0.2171
 5527SOL     OW28039   0.878   2.277  12.452 -0.5600  0.3282 -0.5280
 5527SOL    HW128040   0.894   2.367  12.424  0.5905  0.5270  0.7798
 5527SOL    HW228041   0.906   2.269  12.543 -0.1755 -2.3105 -0.8732
 5528SOL     OW28042   4.492   2.496   3.188  0.3392 -0.0515  0.7115
 5528SOL    HW128043   4.473   2.471   3.098  0.3042  2.7963 -0.0842
 5528SOL    HW228044   4.575   2.543   3.177 -0.2135  1.2252  1.9451
 5529SOL     OW28045   1.448   0.110   0.449 -0.7365 -0.4423 -0.0024
 5529SOL    HW128046   1.442   0.014   0.447 -2.8082 -0.3457  1.4346
 5529SOL    HW228047   1.524   0.128   0.504 -2.1409  3.1910  0.7000
 5530SOL     OW28048   3.733   1.262   8.064 -0.1422 -0.2056  0.2141
 5530SOL    HW128049   3.674   1.330   8.030  1.1493  0.9273  0.2438
 5530SOL    HW228050   3.699   1.196   8.002  0.3920 -1.0902  0.8623
 5531SOL     OW28051   0.095   1.176  12.449 -0.5088 -0.4097 -0.4808
 5531SOL    HW128052   0.052   1.262  12.450 -1.1345 -0.7210 -0.6339
 5531SOL    HW228053   0.093   1.149  12.541  1.9116 -4.1607 -1.5726
 5532SOL     OW28054   1.752   4.170   6.876 -0.0013 -0.3486  0.2120
 5532SOL    HW128055   1.663   4.191   6.905  0.4747  1.3402  0.4272
 5532SOL    HW228056   1.735   4.102   6.810  0.6718  1.0228 -1.3701
 5533SOL     OW28057   2.776   4.481  13.069 -0.1953 -0.1767  0.7013
 5533SOL    HW128058   2.847   4.419  13.054 -1.1688 -1.0148 -0.3778
 5533SOL    HW228059   2.785   4.524  12.984 -0.7873  1.1188  1.2899
 5534SOL     OW28060   3.306   3.252  14.136  0.1213 -0.6736 -0.0726
 5534SOL    HW128061   3.350   3.292  14.210  0.1085 -0.2431 -0.2971
 5534SOL    HW228062   3.362   3.288  14.067  1.4228 -3.1710 -0.3016
 5535SOL     OW28063   0.571   2.854   6.240  0.4488  0.0893 -0.3793
 5535SOL    HW128064   0.566   2.885   6.331 -0.1476 -0.8787 -0.0863
 5535SOL    HW228065   0.599   2.765   6.261 -2.1492 -0.8014 -0.7354
 5536SOL     OW28066   3.190   0.252  11.737 -0.8462  0.3806  0.1240
 5536SOL    HW128067   3.178   0.208  11.821 -0.0678 -0.0306  0.0182
 5536SOL    HW228068   3.160   0.174  11.691  1.2508 -0.1146 -0.4076
 5537SOL     OW28069   3.114   0.923  11.214 -0.0554  0.5398  0.2768
 5537SOL    HW128070   3.067   0.890  11.290  0.8833  1.5471  1.2979
 5537SOL    HW228071   3.087   0.857  11.151 -0.0090  2.4462 -1.7482
 5538SOL     OW28072   2.869   1.945   2.653  0.0806 -0.0961 -0.5893
 5538SOL    HW128073   2.857   1.871   2.712 -0.4782  0.7932  0.4102
 5538SOL    HW228074   2.890   2.011   2.719  1.0769 -1.3147  0.3065
 5539SOL     OW28075   2.733   4.271   1.933 -0.2507 -0.1261  0.5639
 5539SOL    HW128076   2.794   4.200   1.952 -1.3329 -1.6859 -1.8513
 5539SOL    HW228077   2.775   4.339   1.986  1.0270  1.1824 -2.0976
 5540SOL     OW28078   4.601   1.592  16.714 -0.2533 -0.0682 -0.1328
 5540SOL    HW128079   4.578   1.684  16.709 -0.2266  0.0058  1.1915
 5540SOL    HW228080   4.634   1.597  16.803 -1.0289  0.1449  0.1461
 5541SOL     OW28081   2.830   3.516  14.099 -0.2582 -0.1197  0.0308
 5541SOL    HW128082   2.864   3.521  14.189 -1.4206 -0.9052  0.5058
 5541SOL    HW228083   2.822   3.421  14.090  0.9835 -0.0827 -1.4689
 5542SOL     OW28084   2.989   3.671  16.668  0.1513 -0.1801  0.0820
 5542SOL    HW128085   2.928   3.604  16.639  1.0734 -0.2671 -1.6291
 5542SOL    HW228086   2.931   3.743  16.692 -0.5104 -0.6853 -0.0146
 5543SOL     OW28087   2.253   3.371   8.351 -0.2854  0.3788 -0.3444
 5543SOL    HW128088   2.228   3.461   8.330 -1.9413 -0.2980 -1.2818
 5543SOL    HW228089   2.191   3.316   8.302  1.3303 -0.3893 -1.5054
 5544SOL     OW28090   1.977   1.224  10.282  0.3616 -0.4190  0.1535
 5544SOL    HW128091   2.015   1.201  10.197  1.6113  1.0832  0.3123
 5544SOL    HW228092   2.005   1.147  10.331  0.8267 -0.5111 -0.2637
 5545SOL     OW28093   4.515   1.691   5.471 -0.4321  0.1748 -0.6879
 5545SOL    HW128094   4.535   1.622   5.534 -0.0419  0.4994 -0.4468
 5545SOL    HW228095   4.458   1.748   5.524 -1.2063 -1.8078  0.6240
 5546SOL     OW28096   3.944   3.646   7.623  0.0672 -0.0262 -0.1268
 5546SOL    HW128097   3.914   3.627   7.712 -0.6318 -4.2014 -1.2326
 5546SOL    HW228098   3.879   3.708   7.589 -1.9556 -0.7595  2.4245
 5547SOL     OW28099   3.734   2.337   6.213 -0.0860 -0.5693 -0.0738
 5547SOL    HW128100   3.674   2.411   6.208 -0.4728 -0.7489  1.8929
 5547SOL    HW228101   3.693   2.276   6.152 -2.7732  0.3170  0.8782
 5548SOL     OW28102   0.239   2.561   6.580  0.1018  0.1200 -0.3734
 5548SOL    HW128103   0.154   2.542   6.620 -0.3128  2.3738 -0.2294
 5548SOL    HW228104   0.307   2.509   6.624 -1.5276 -0.1994  1.7314
 5549SOL     OW28105   2.315   1.610   4.605 -0.5377  0.0103 -0.3331
 5549SOL    HW128106   2.294   1.703   4.608  1.1861  0.4013 -0.3525
 5549SOL    HW228107   2.237   1.576   4.562  1.0950  0.3855 -3.5754
 5550SOL     OW28108   2.407   1.977  10.532  0.0268  0.0073  0.4617
 5550SOL    HW128109   2.502   1.968  10.535  0.1527  0.8185 -0.9138
 5550SOL    HW228110   2.413   1.982  10.437 -0.2704 -0.7348  0.4053
 5551SOL     OW28111   3.040   3.381  14.269  0.0594 -0.2947  0.0710
 5551SOL    HW128112   3.073   3.469  14.285 -0.7794  0.0357 -0.0064
 5551SOL    HW228113   3.051   3.327  14.347 -0.0594  0.0500  0.3220
 5552SOL     OW28114   3.292   3.147   6.673  0.2503 -0.0187  0.4956
 5552SOL    HW128115   3.339   3.201   6.737 -1.2341  1.5998  0.2095
 5552SOL    HW228116   3.319   3.060   6.703  1.0461  0.4883  1.2822
 5553SOL     OW28117   1.429   3.134   2.853 -0.1380  0.6456  0.0993
 5553SOL    HW128118   1.350   3.080   2.861  1.0637 -0.7216  2.6000
 5553SOL    HW228119   1.492   3.064   2.837  1.4817  2.2778 -0.6161
 5554SOL     OW28120   2.049   0.977   0.801  0.3865  0.1906  0.6496
 5554SOL    HW128121   1.988   1.044   0.833 -0.1084  0.4318 -0.8158
 5554SOL    HW228122   2.006   0.900   0.839  0.1995  0.6752  1.4217
 5555SOL     OW28123   0.396   3.931   2.642  0.6113 -0.1708 -0.1891
 5555SOL    HW128124   0.370   3.880   2.719  1.3130 -0.4429 -0.1328
 5555SOL    HW228125   0.378   3.864   2.577  2.0609 -0.0223 -0.7453
 5556SOL     OW28126   2.401   1.082   1.772  0.3421 -0.1658  0.3061
 5556SOL    HW128127   2.449   1.012   1.728  0.5655 -0.6151  1.2767
 5556SOL    HW228128   2.314   1.042   1.775  0.2849  0.0947  1.9800
 5557SOL     OW28129   2.596   4.029   3.481  0.1976 -0.1809  0.3499
 5557SOL    HW128130   2.574   4.014   3.573  1.2576  0.6040  0.7274
 5557SOL    HW228131   2.604   3.934   3.473 -0.7565 -0.2220 -0.2203
 5558SOL     OW28132   3.671   0.848   6.658 -0.1390 -0.1005  0.4358
 5558SOL    HW128133   3.654   0.895   6.576 -3.3278 -0.7069  0.7432
 5558SOL    HW228134   3.709   0.921   6.705  0.8170  1.3176 -2.5108
 5559SOL     OW28135   3.883   3.393  11.565  0.7326  0.0804  0.0217
 5559SOL    HW128136   3.945   3.462  11.543 -1.5086  2.1218  0.1389
 5559SOL    HW228137   3.807   3.444  11.593  1.0901  1.1577 -0.9596
 5560SOL     OW28138   2.147   0.214   8.130  0.0641 -0.1409  0.0415
 5560SOL    HW128139   2.122   0.292   8.180 -0.6286 -0.4662  0.2026
 5560SOL    HW228140   2.107   0.156   8.194 -0.6166 -0.6830 -0.8706
 5561SOL     OW28141   3.264   2.719   5.693 -0.1629  0.0075  0.2066
 5561SOL    HW128142   3.244   2.638   5.647  0.3910  0.2065 -0.3834
 5561SOL    HW228143   3.202   2.781   5.656 -1.9591 -1.5031  0.7100
 5562SOL     OW28144   3.148   3.110   5.656 -0.3216  0.0919  0.0977
 5562SOL    HW128145   3.216   3.104   5.723 -0.5878 -1.4549  0.2109
 5562SOL    HW228146   3.146   3.020   5.626  0.9237 -0.5311  1.8754
 5563SOL     OW28147   3.391   2.188   8.009  0.3958  0.5580  0.1058
 5563SOL    HW128148   3.309   2.213   8.051 -0.3590  1.5367 -1.9287
 5563SOL    HW228149   3.431   2.273   7.993  0.5263  0.4496 -0.1502
 5564SOL     OW28150   2.051   3.031   3.534 -0.1745 -0.8919 -0.4446
 5564SOL    HW128151   2.027   3.117   3.569 -0.7511 -1.1165 -0.2942
 5564SOL    HW228152   1.981   2.970   3.555  0.2663 -1.1510  0.2711
 5565SOL     OW28153   0.310   1.053   5.653  0.1837  0.0249 -0.7120
 5565SOL    HW128154   0.317   1.006   5.570  1.2163 -0.6381 -0.2626
 5565SOL    HW228155   0.395   1.034   5.693  0.0642 -0.9077 -0.8984
 5566SOL     OW28156   0.893   3.599   6.962 -0.3684  0.1660 -0.7004
 5566SOL    HW128157   0.890   3.682   7.011 -0.6861 -0.7542  0.8519
 5566SOL    HW228158   0.874   3.633   6.875  1.6764 -2.4860 -2.1371
 5567SOL     OW28159   2.548   0.495  14.158  0.1084  0.0135 -0.7031
 5567SOL    HW128160   2.538   0.400  14.157  0.6133 -0.0256 -2.0891
 5567SOL    HW228161   2.474   0.525  14.105 -2.4285  0.9781  3.3510
 5568SOL     OW28162   0.262   4.700   3.593 -0.3951 -0.3593  0.3289
 5568SOL    HW128163   0.309   0.060   3.573 -2.8799  0.5296 -1.9850
 5568SOL    HW228164   0.315   4.661   3.662 -2.2559 -2.4461  0.5773
 5569SOL     OW28165   3.374   2.658   8.516 -0.7080 -0.1477 -0.2191
 5569SOL    HW128166   3.308   2.635   8.450  0.5819  1.2218 -1.9758
 5569SOL    HW228167   3.317   2.629   8.587 -2.0098  0.1560 -1.1439
 5570SOL     OW28168   1.209   1.656  16.849 -0.0388 -0.2151  0.2425
 5570SOL    HW128169   1.128   1.689  16.812 -0.1525 -0.2451  0.4643
 5570SOL    HW228170   1.205   1.564  16.823 -2.5698 -0.6577  2.2484
 5571SOL     OW28171   3.842   2.989   2.204 -0.1171  0.3387 -0.3729
 5571SOL    HW128172   3.797   3.059   2.157 -2.6694 -1.4196 -0.5199
 5571SOL    HW228173   3.914   2.970   2.143 -0.3524  1.7363 -1.0782
 5572SOL     OW28174   3.169   0.436   8.498  0.1352 -0.1133 -0.3932
 5572SOL    HW128175   3.076   0.452   8.514 -0.4914 -1.6191 -2.5320
 5572SOL    HW228176   3.195   0.496   8.568  3.2299 -1.5083 -0.3236
 5573SOL     OW28177   2.227   0.609   6.179  0.8131  0.5151  0.0682
 5573SOL    HW128178   2.261   0.642   6.096  1.1153  0.6957  0.2635
 5573SOL    HW228179   2.240   0.691   6.227 -1.4906  0.2309  1.1540
 5574SOL     OW28180   1.541   0.144  17.029 -0.0792 -0.1877 -0.3688
 5574SOL    HW128181   1.605   0.118  17.095 -0.3311  2.1433  0.7883
 5574SOL    HW228182   1.556   0.075  16.964  2.8825 -1.4013  1.5972
 5575SOL     OW28183   3.407   1.987   4.632 -0.3136  0.3586 -0.1251
 5575SOL    HW128184   3.406   2.049   4.705  0.1000  1.6122 -1.1795
 5575SOL    HW228185   3.342   1.920   4.652  1.1239 -1.4942 -1.5898
 5576SOL     OW28186   1.784   4.412  17.496  0.1726 -0.4140 -0.4261
 5576SOL    HW128187   1.803   4.319  17.507 -0.6581 -0.6330 -0.7867
 5576SOL    HW228188   1.834   4.453  17.567  1.0169  0.9348 -1.8016
 5577SOL     OW28189   1.147   0.582   8.534 -0.4118 -0.0381 -0.6306
 5577SOL    HW128190   1.088   0.572   8.609 -1.5598  0.4704 -1.4839
 5577SOL    HW228191   1.213   0.514   8.550 -0.5268 -0.2420 -1.0276
 5578SOL     OW28192   1.186   3.999   5.245 -0.3495 -0.1241 -0.4736
 5578SOL    HW128193   1.095   4.026   5.255 -0.2019 -1.0177  3.2284
 5578SOL    HW228194   1.187   3.941   5.321 -1.3792  1.4461  0.7379
 5579SOL     OW28195   1.821   4.510   8.189  0.1129  0.4491 -0.1311
 5579SOL    HW128196   1.852   4.466   8.269  0.2991 -0.7498 -0.8464
 5579SOL    HW228197   1.740   4.545   8.224 -0.3691  1.0885 -1.8767
 5580SOL     OW28198   1.385   3.177   4.581  0.3890  0.1023 -0.1722
 5580SOL    HW128199   1.297   3.194   4.614 -0.3088  0.0926 -2.0085
 5580SOL    HW228200   1.362   3.098   4.533 -0.7846 -0.6919  1.7287
 5581SOL     OW28201   2.207   3.334  17.508  0.0515 -0.1109  0.0873
 5581SOL    HW128202   2.262   3.286  17.569 -0.0059 -0.8437 -0.4399
 5581SOL    HW228203   2.163   3.255  17.477 -1.8192  0.8104  0.3542
 5582SOL     OW28204   1.585   0.209   7.271 -0.0147 -0.3464 -0.2985
 5582SOL    HW128205   1.578   0.272   7.343  0.1229 -1.8674  1.0585
 5582SOL    HW228206   1.675   0.224   7.243  0.3711  0.9952  1.6488
 5583SOL     OW28207   1.371   2.356   2.029 -0.0283 -0.3396  0.1014
 5583SOL    HW128208   1.398   2.329   2.117 -1.1864  1.5056  1.0281
 5583SOL    HW228209   1.394   2.449   2.036  2.7002 -1.2430  3.2971
 5584SOL     OW28210   2.569   0.229   8.499  0.2212 -0.1376  0.4500
 5584SOL    HW128211   2.536   0.285   8.569 -0.5898  0.5849 -0.5043
 5584SOL    HW228212   2.647   0.277   8.472 -0.9286  1.0439 -0.7855
 5585SOL     OW28213   2.900   3.181   5.653 -0.3821 -0.1329  0.3352
 5585SOL    HW128214   2.853   3.099   5.662 -1.6445  0.3718 -1.6749
 5585SOL    HW228215   2.992   3.153   5.653 -0.1008  0.7685 -0.0926
 5586SOL     OW28216   4.572   2.256   4.086  0.2042 -0.4194 -0.0422
 5586SOL    HW128217   4.582   2.350   4.068 -1.0564 -0.2323  0.2536
 5586SOL    HW228218   4.616   2.253   4.172 -0.5908  0.4831  0.3928
 5587SOL     OW28219   3.112   1.776   9.254 -0.0047  0.0593 -0.4109
 5587SOL    HW128220   3.083   1.763   9.344  1.5442  0.7132  0.1700
 5587SOL    HW228221   3.028   1.795   9.211 -0.4224  2.3476  1.4579
 5588SOL     OW28222   1.177   2.973   0.390 -0.1007 -0.2117 -0.8028
 5588SOL    HW128223   1.089   2.991   0.356 -1.1575 -1.4744  1.2634
 5588SOL    HW228224   1.230   3.036   0.341  0.5280  0.8700  1.2630
 5589SOL     OW28225   4.101   1.023   3.665  0.6738  0.0191 -0.5488
 5589SOL    HW128226   4.195   1.035   3.665  0.6314  0.3461  0.4823
 5589SOL    HW228227   4.099   0.927   3.670 -0.2481  0.0360 -0.4891
 5590SOL     OW28228   1.053   4.114   4.091 -0.5870 -0.3092  0.1445
 5590SOL    HW128229   1.089   4.203   4.092 -0.1562 -0.4836  0.2812
 5590SOL    HW228230   1.014   4.106   4.178  1.1702 -0.0183  0.9702
 5591SOL     OW28231   3.615   0.999  12.960  0.1673  0.4499 -0.1000
 5591SOL    HW128232   3.590   0.953  12.879  0.1362  0.8277 -0.3027
 5591SOL    HW228233   3.545   0.988  13.023  0.7658 -0.7790  0.3625
 5592SOL     OW28234   2.114   1.312   2.890  0.5526  0.5621  0.3610
 5592SOL    HW128235   2.044   1.355   2.841  1.4742 -0.2170 -1.6308
 5592SOL    HW228236   2.162   1.279   2.814  2.0082  3.2464  0.0910
 5593SOL     OW28237   2.309   1.604   5.503 -0.1117  0.3554  0.3052
 5593SOL    HW128238   2.389   1.608   5.555 -0.1219 -0.0025  0.3493
 5593SOL    HW228239   2.257   1.546   5.559 -0.6775 -0.5975 -1.2160
 5594SOL     OW28240   1.643   0.481   8.399  0.6021 -0.1184  0.3610
 5594SOL    HW128241   1.712   0.483   8.333 -1.1760 -0.1723 -1.5096
 5594SOL    HW228242   1.680   0.551   8.451  0.9244 -1.4762  1.9677
 5595SOL     OW28243   0.579   2.319  14.412 -0.4861 -0.0589 -0.0750
 5595SOL    HW128244   0.590   2.306  14.506  1.2743 -1.7882 -0.5252
 5595SOL    HW228245   0.655   2.273  14.377  0.9377  0.8409  1.8494
 5596SOL     OW28246   4.119   2.131  13.035  0.1426 -0.0986 -0.0211
 5596SOL    HW128247   4.052   2.112  12.970  1.1614 -2.3143 -0.4305
 5596SOL    HW228248   4.188   2.156  12.973 -0.9671 -0.4310 -1.3773
 5597SOL     OW28249   2.097   1.106   8.243  0.0526 -0.4946 -0.0160
 5597SOL    HW128250   2.119   1.126   8.152 -0.8466 -0.4960 -0.2396
 5597SOL    HW228251   2.043   1.177   8.277  2.2442  1.8231 -1.4197
 5598SOL     OW28252   2.672   1.939  10.544  0.0179 -0.1710 -0.1537
 5598SOL    HW128253   2.693   1.863  10.599 -0.9331 -0.9480 -0.8838
 5598SOL    HW228254   2.763   1.956  10.521  0.8826 -0.9719  2.6295
 5599SOL     OW28255   0.886   2.941   8.303 -0.4688 -0.1384  0.3806
 5599SOL    HW128256   0.915   2.862   8.256  1.0644  0.5861  0.0920
 5599SOL    HW228257   0.816   2.955   8.239 -1.7148 -1.6055  1.4272
 5600SOL     OW28258   1.503   0.800   3.481 -0.2608  0.3609  0.8129
 5600SOL    HW128259   1.496   0.895   3.488 -1.5770  0.3741 -1.0106
 5600SOL    HW228260   1.469   0.792   3.393 -0.8807  0.4868  1.0439
 5601SOL     OW28261   3.290   1.816   3.085 -0.0750 -0.6758  0.0193
 5601SOL    HW128262   3.226   1.886   3.078  2.0711  1.2461 -0.1993
 5601SOL    HW228263   3.276   1.784   3.175  2.2476  1.9999  1.3304
 5602SOL     OW28264   1.704   3.948  13.069 -0.1475 -0.0519  0.1807
 5602SOL    HW128265   1.655   3.872  13.036  0.4453  0.3046 -1.5208
 5602SOL    HW228266   1.718   4.005  12.994  0.0209  0.5718  0.6867
 5603SOL     OW28267   1.229   0.142  10.283  0.2434  0.1966  0.1104
 5603SOL    HW128268   1.222   0.192  10.364 -0.4419 -0.2319  0.3153
 5603SOL    HW228269   1.212   0.056  10.322 -1.1508  0.8525  0.9450
 5604SOL     OW28270   2.682   2.462   3.601 -0.3387 -0.0423 -0.4916
 5604SOL    HW128271   2.755   2.521   3.581  0.4210 -1.3808 -1.6137
 5604SOL    HW228272   2.702   2.459   3.695 -1.2813 -1.4887 -0.3383
 5605SOL     OW28273   2.762   1.950   4.410 -0.1985 -0.1313  0.6331
 5605SOL    HW128274   2.680   1.982   4.373  0.2810  1.3631  0.8669
 5605SOL    HW228275   2.814   1.926   4.334  0.1383  1.7703  0.2678
 5606SOL     OW28276   0.416   2.141   8.759  0.1156 -0.6400 -0.8137
 5606SOL    HW128277   0.408   2.110   8.669  2.5202  2.2839 -2.0293
 5606SOL    HW228278   0.369   2.078   8.813 -0.4553 -0.9803 -1.7027
 5607SOL     OW28279   3.501   0.126   8.350  0.4485 -0.4034  0.3489
 5607SOL    HW128280   3.527   0.196   8.410 -1.0332  0.5257 -0.0810
 5607SOL    HW228281   3.432   0.084   8.402 -0.8011 -1.2593 -2.0127
 5608SOL     OW28282   3.897   3.106   4.797  0.0875  0.0788  0.2358
 5608SOL    HW128283   3.962   3.117   4.866  0.5057 -0.9185  0.0036
 5608SOL    HW228284   3.821   3.056   4.828  1.0347 -1.2841  0.3605
 5609SOL     OW28285   2.837   2.179   5.107 -0.7036 -0.2030  0.6388
 5609SOL    HW128286   2.750   2.213   5.084  0.2716  2.0943  0.3207
 5609SOL    HW228287   2.879   2.196   5.023 -1.6552  2.1950  0.6333
 5610SOL     OW28288   3.449   4.194   3.140 -0.0698  0.2601 -0.3701
 5610SOL    HW128289   3.465   4.287   3.122 -0.9822  0.0604 -2.1902
 5610SOL    HW228290   3.372   4.185   3.085 -1.1641 -1.4352  1.4241
 5611SOL     OW28291   1.557   4.551   5.414  0.8815  0.0566 -0.5723
 5611SOL    HW128292   1.481   4.514   5.458 -0.2130  1.6324 -1.1196
 5611SOL    HW228293   1.599   4.606   5.480 -0.3943  1.5592 -1.0082
 5612SOL     OW28294   4.542   0.160   7.200 -0.1660 -0.0251  0.1335
 5612SOL    HW128295   4.484   0.106   7.253  1.2501 -3.5200 -1.8738
 5612SOL    HW228296   4.603   0.096   7.163  0.7037  0.9383 -0.1042
 5613SOL     OW28297   0.121   1.622   5.266  0.3111  0.6285 -0.2564
 5613SOL    HW128298   0.095   1.660   5.350  2.1507 -0.9584  1.0127
 5613SOL    HW228299   0.078   1.537   5.263 -0.0644  0.7945  0.3213
 5614SOL     OW28300   1.121   1.464  11.382 -0.3030 -0.2520  0.2173
 5614SOL    HW128301   1.052   1.404  11.412 -0.6195 -0.5548 -1.1541
 5614SOL    HW228302   1.144   1.418  11.301  1.8212  0.7440  0.2627
 5615SOL     OW28303   4.634   0.291   2.174  0.2817  0.0113 -0.3968
 5615SOL    HW128304   4.553   0.341   2.176  0.0180 -0.4197 -0.3201
 5615SOL    HW228305   4.643   0.284   2.269 -2.9478 -1.0909 -0.1929
 5616SOL     OW28306   1.790   3.532  16.659 -0.1502  0.2978 -0.3791
 5616SOL    HW128307   1.795   3.548  16.753 -1.0684  0.9896 -0.4438
 5616SOL    HW228308   1.824   3.442  16.654  1.2432  0.8912 -1.6043
 5617SOL     OW28309   4.535   0.270   4.605 -0.0237  0.6602  0.5010
 5617SOL    HW128310   4.486   0.194   4.573 -1.4896  0.8362  2.3124
 5617SOL    HW228311   4.492   0.289   4.688  0.0334 -0.8361  0.8843
 5618SOL     OW28312   0.745   2.868   4.792 -0.1596  0.1889  0.1209
 5618SOL    HW128313   0.751   2.960   4.765 -1.8396  0.7212  1.5516
 5618SOL    HW228314   0.649   2.858   4.793 -0.2844  1.4141  0.3683
 5619SOL     OW28315   2.523   1.887   8.001  0.1423 -0.4254 -0.2315
 5619SOL    HW128316   2.550   1.815   7.944 -1.3076 -0.9718 -0.2154
 5619SOL    HW228317   2.574   1.959   7.966 -3.0212  0.8317 -2.2033
 5620SOL     OW28318   2.715   2.598   6.046  0.1199  0.7206  0.0818
 5620SOL    HW128319   2.701   2.568   5.956  0.8492  1.9014 -0.4249
 5620SOL    HW228320   2.699   2.692   6.037  3.0171  1.5256  3.5949
 5621SOL     OW28321   2.765   0.629   7.992  0.4511  0.2399 -0.2711
 5621SOL    HW128322   2.812   0.635   8.075  1.5691 -0.7158 -0.8348
 5621SOL    HW228323   2.726   0.716   7.987 -0.9053 -0.3587 -0.0831
 5622SOL     OW28324   4.069   3.719   6.049 -0.2773 -0.0865 -0.0678
 5622SOL    HW128325   3.984   3.677   6.063 -0.6897  0.3817 -1.1678
 5622SOL    HW228326   4.046   3.812   6.057  0.8237  0.2146 -0.3609
 5623SOL     OW28327   3.166   4.066   2.662  0.6821 -0.0624 -0.5933
 5623SOL    HW128328   3.173   3.992   2.722 -0.1786  0.2006 -0.1489
 5623SOL    HW228329   3.096   4.036   2.604  0.8132  0.8707 -1.2402
 5624SOL     OW28330   1.406   1.649   4.553 -0.0711  0.1964 -0.0637
 5624SOL    HW128331   1.337   1.714   4.563  0.3721  0.8475 -1.2572
 5624SOL    HW228332   1.374   1.584   4.615 -1.3858  0.4511 -0.4836
 5625SOL     OW28333   3.943   1.055   3.027  0.4391  0.2387  0.1313
 5625SOL    HW128334   3.859   1.099   3.036  0.7050  0.6972  0.3261
 5625SOL    HW228335   4.001   1.110   3.079  1.6075 -1.0770  0.2356
 5626SOL     OW28336   3.209   0.934  12.879  0.4108 -0.1599 -0.5799
 5626SOL    HW128337   3.152   1.005  12.850 -0.6943 -0.3213  1.1850
 5626SOL    HW228338   3.151   0.858  12.876 -1.1360  0.9871  0.5216
 5627SOL     OW28339   0.670   3.030  15.453  0.1303  0.4116 -0.0720
 5627SOL    HW128340   0.642   2.939  15.447 -0.1188  0.6007 -1.9510
 5627SOL    HW228341   0.639   3.062  15.368  1.0808 -0.2407 -0.6563
 5628SOL     OW28342   2.755   1.475   7.377  0.1095 -0.1847  0.2783
 5628SOL    HW128343   2.825   1.528   7.339 -1.2959  2.4412  1.3747
 5628SOL    HW228344   2.687   1.542   7.390  0.0971 -0.3002  0.7830
 5629SOL     OW28345   3.542   1.760   7.074 -0.5370  0.0531 -0.1365
 5629SOL    HW128346   3.456   1.798   7.055  0.6494  1.9327 -1.8231
 5629SOL    HW228347   3.520   1.746   7.166 -1.4868  0.1646 -0.3465
 5630SOL     OW28348   1.902   3.136   2.561  0.7264  0.0540  0.3317
 5630SOL    HW128349   1.852   3.095   2.491  0.8741 -1.3519  1.0486
 5630SOL    HW228350   1.979   3.172   2.518  1.8427 -1.8912  0.6842
 5631SOL     OW28351   3.356   1.980   6.852 -0.5494 -0.1286  0.1323
 5631SOL    HW128352   3.328   2.064   6.816  0.1543  0.2106  0.3671
 5631SOL    HW228353   3.397   1.930   6.781  0.5753  0.3280  0.4490
 5632SOL     OW28354   1.755   3.901   3.185  0.4108 -0.1807 -0.1189
 5632SOL    HW128355   1.698   3.826   3.202 -1.2940  1.5353  1.6673
 5632SOL    HW228356   1.841   3.858   3.182  0.6414  0.3022 -0.3594
 5633SOL     OW28357   0.397   0.404  14.339 -0.2589 -0.3287  0.2017
 5633SOL    HW128358   0.417   0.361  14.256  0.2609 -1.0379  0.6869
 5633SOL    HW228359   0.482   0.405  14.384 -0.9152  3.2748  1.3592
 5634SOL     OW28360   0.625   0.904   4.828 -0.4388  0.1348  0.3812
 5634SOL    HW128361   0.538   0.874   4.854 -1.0579  0.4870 -1.2718
 5634SOL    HW228362   0.618   0.942   4.740  1.0783  0.6392  0.4761
 5635SOL     OW28363   2.753   1.116  12.788 -0.1604 -0.4561 -0.5472
 5635SOL    HW128364   2.690   1.172  12.742  0.7191  1.3607  0.4820
 5635SOL    HW228365   2.689   1.049  12.815 -0.0620 -0.1020  0.5711
 5636SOL     OW28366   2.505   1.163  13.895  0.1309  0.4824  0.6539
 5636SOL    HW128367   2.410   1.168  13.909  0.1401  0.3618  0.7542
 5636SOL    HW228368   2.533   1.079  13.930 -2.6499 -0.8278 -0.2569
 5637SOL     OW28369   3.164   0.673  10.840  0.7213 -0.3955  0.1023
 5637SOL    HW128370   3.222   0.745  10.862  0.2557 -0.3778  1.3007
 5637SOL    HW228371   3.226   0.602  10.856  0.7860 -0.7309 -1.6905
 5638SOL     OW28372   4.685   2.883   1.405 -0.5125 -0.1793  0.4104
 5638SOL    HW128373   4.640   2.928   1.477 -1.5689  0.2837 -0.5482
 5638SOL    HW228374   4.688   2.951   1.338 -3.0098  0.4482  0.9523
 5639SOL     OW28375   0.055   3.954  15.063  0.1677  0.3466 -0.1578
 5639SOL    HW128376   0.100   3.909  15.134 -0.2054  1.2714  0.6549
 5639SOL    HW228377   0.040   3.884  14.999 -0.6341  0.8719 -0.5479
 5640SOL     OW28378   4.247   2.399   2.294  0.2850 -0.0519  0.0455
 5640SOL    HW128379   4.304   2.462   2.252 -0.9538  1.8231  1.1565
 5640SOL    HW228380   4.291   2.379   2.377 -1.8746 -3.0671  0.4858
 5641SOL     OW28381   1.698   1.500  13.275 -0.1686  0.4935  0.2009
 5641SOL    HW128382   1.686   1.432  13.342  1.7624  0.7281  0.7657
 5641SOL    HW228383   1.604   1.516  13.277 -0.7872 -3.3485  2.4429
 5642SOL     OW28384   2.578   0.509  16.728 -0.0331  0.1670 -0.0457
 5642SOL    HW128385   2.603   0.599  16.707  1.2109 -0.6377 -1.9612
 5642SOL    HW228386   2.647   0.464  16.681 -1.3785 -1.6623 -0.2816
 5643SOL     OW28387   1.520   3.496   0.139 -0.3108 -0.0550 -0.5794
 5643SOL    HW128388   1.531   3.531   0.227  0.5548 -1.2039 -0.2341
 5643SOL    HW228389   1.429   3.521   0.118 -0.1176 -0.1192 -1.5148
 5644SOL     OW28390   0.079   3.436  12.384 -0.7578 -0.3988  0.2662
 5644SOL    HW128391   0.021   3.361  12.398 -0.8981 -0.3139  0.1514
 5644SOL    HW228392   0.127   3.449  12.466  0.6119  0.9395 -0.7620
 5645SOL     OW28393   2.756   3.246   9.975  0.3289  0.1831  0.5832
 5645SOL    HW128394   2.788   3.321  10.025  2.0954 -0.6145  0.6320
 5645SOL    HW228395   2.673   3.281   9.942  0.1414 -1.2218 -0.4231
 5646SOL     OW28396   2.426   4.254  13.370 -0.6554 -0.2102 -0.6801
 5646SOL    HW128397   2.516   4.276  13.347 -0.8051  0.2346 -0.8249
 5646SOL    HW228398   2.386   4.220  13.290  0.0692 -0.5317 -0.9060
 5647SOL     OW28399   0.146   1.231  15.437 -0.1002  0.1154  0.0968
 5647SOL    HW128400   0.198   1.171  15.382 -0.9906 -1.8068  1.3538
 5647SOL    HW228401   0.157   1.318  15.399  4.3296 -0.2939  0.3426
 5648SOL     OW28402   3.214   0.622  14.732  0.1751 -0.6512  0.0292
 5648SOL    HW128403   3.222   0.717  14.732 -0.1061 -0.6293 -0.4119
 5648SOL    HW228404   3.288   0.588  14.782  0.2965  0.4310  0.5850
 5649SOL     OW28405   1.797   3.421   4.277  0.0876 -0.0075  0.0595
 5649SOL    HW128406   1.874   3.365   4.277  0.6462  0.7573  0.3402
 5649SOL    HW228407   1.779   3.424   4.371 -0.9645 -1.0124 -0.1040
 5650SOL     OW28408   3.091   1.733  14.309  0.0908 -0.5679  0.1881
 5650SOL    HW128409   2.998   1.743  14.326  0.2234 -0.5740  0.9088
 5650SOL    HW228410   3.106   1.654  14.361 -0.5029 -1.0628 -0.3940
 5651SOL     OW28411   0.391   2.754   5.509  0.0229 -0.5865  0.3473
 5651SOL    HW128412   0.374   2.719   5.422  2.3296  0.0161 -0.3523
 5651SOL    HW228413   0.391   2.850   5.504 -1.9600 -0.6305 -0.6412
 5652SOL     OW28414   4.240   3.293   4.885  0.0418  0.3481  0.0068
 5652SOL    HW128415   4.187   3.279   4.963 -2.6641  0.3024 -1.8250
 5652SOL    HW228416   4.301   3.360   4.915  0.3100 -0.3431  1.0071
 5653SOL     OW28417   1.527   1.738  12.888 -0.1508  0.5504  0.3037
 5653SOL    HW128418   1.556   1.739  12.979  0.4622  3.3128  0.0900
 5653SOL    HW228419   1.440   1.779  12.895 -0.6103 -0.6347  1.4543
 5654SOL     OW28420   1.274   3.976   8.067  0.2344 -0.3117  0.2116
 5654SOL    HW128421   1.230   4.007   8.147 -2.8907 -0.2557 -1.5341
 5654SOL    HW228422   1.243   3.885   8.071 -0.0333 -0.2715 -1.2769
 5655SOL     OW28423   0.929   4.370   4.485  0.0228  0.1238 -0.0948
 5655SOL    HW128424   0.935   4.357   4.580  1.6123  0.6151 -0.1278
 5655SOL    HW228425   0.836   4.386   4.472  0.0702  1.5363  1.4034
 5656SOL     OW28426   0.504   4.301   2.360  0.3716  0.2639  0.2210
 5656SOL    HW128427   0.493   4.391   2.390 -0.9299  0.5225 -0.9963
 5656SOL    HW228428   0.420   4.290   2.314  0.2217  0.0257  0.5491
 5657SOL     OW28429   0.632   4.131  11.306 -0.4325  0.1079 -0.5037
 5657SOL    HW128430   0.710   4.092  11.266 -0.2038 -1.4326  1.4519
 5657SOL    HW228431   0.675   4.191  11.367  0.9406  0.3411 -1.7105
 5658SOL     OW28432   2.377   1.457  15.238  0.3763  0.0243 -0.2081
 5658SOL    HW128433   2.438   1.479  15.168 -0.9749  0.4820 -1.2422
 5658SOL    HW228434   2.296   1.453  15.186  0.4702 -1.4248 -0.2509
 5659SOL     OW28435   2.585   0.667  12.663 -0.5729  0.4635  0.2798
 5659SOL    HW128436   2.546   0.594  12.711 -2.0452  0.9603 -0.1552
 5659SOL    HW228437   2.674   0.673  12.698 -0.9955  2.9862  0.9124
 5660SOL     OW28438   2.585   3.512   7.308  0.1467 -0.2629  0.4797
 5660SOL    HW128439   2.597   3.540   7.398 -0.2772 -0.0138  0.4579
 5660SOL    HW228440   2.628   3.427   7.301 -0.3558 -0.3519 -1.7183
 5661SOL     OW28441   1.729   3.260   3.803 -0.1185 -0.1648  0.3335
 5661SOL    HW128442   1.700   3.337   3.755  1.9090  2.0137  2.6054
 5661SOL    HW228443   1.821   3.258   3.779 -0.2802 -1.9958 -0.1842
 5662SOL     OW28444   3.710   2.365   6.867 -0.0299 -0.3628  0.6804
 5662SOL    HW128445   3.676   2.331   6.784 -1.4907  4.2898 -0.6312
 5662SOL    HW228446   3.673   2.304   6.931  0.7152  0.4960  1.9316
 5663SOL     OW28447   0.139   2.119   8.184  0.4338 -0.0805  0.2710
 5663SOL    HW128448   0.147   2.205   8.142 -1.2443 -0.5608 -1.0380
 5663SOL    HW228449   0.063   2.080   8.141  0.1213 -0.5235  1.2254
 5664SOL     OW28450   3.369   0.681   6.784 -0.1135  0.1905 -0.5861
 5664SOL    HW128451   3.391   0.774   6.787 -0.5862  0.2815  0.3534
 5664SOL    HW228452   3.292   0.670   6.840  1.1433  0.1795  1.1208
 5665SOL     OW28453   2.256   0.974   5.396  0.4282 -0.1741  0.2356
 5665SOL    HW128454   2.253   1.053   5.449  0.2507  0.2782 -0.4499
 5665SOL    HW228455   2.270   1.015   5.311 -1.0660  1.6698  0.8790
 5666SOL     OW28456   0.167   2.692   2.054 -0.0230  0.6475  0.5607
 5666SOL    HW128457   0.080   2.718   2.022 -0.4061 -0.1465  0.9622
 5666SOL    HW228458   0.144   2.661   2.142  0.7994 -1.0744  0.1651
 5667SOL     OW28459   3.661   4.546  12.176  0.5656 -0.2384 -0.2596
 5667SOL    HW128460   3.659   4.628  12.126 -0.8444  1.1873  2.0822
 5667SOL    HW228461   3.756   4.532  12.177  1.0986  3.4063  2.0406
 5668SOL     OW28462   0.620   2.955   9.273 -0.2367  0.6388  0.8291
 5668SOL    HW128463   0.576   2.871   9.286 -1.7318  1.3010  0.0441
 5668SOL    HW228464   0.676   2.935   9.198 -2.0336 -0.7359 -0.1678
 5669SOL     OW28465   0.744   1.698   4.852  0.9785 -0.1180  0.2221
 5669SOL    HW128466   0.793   1.780   4.864  1.9064 -0.6131 -0.2372
 5669SOL    HW228467   0.714   1.707   4.761 -1.9995 -0.8870  1.1160
 5670SOL     OW28468   2.194   4.442  10.313  0.2860  0.0724 -0.2048
 5670SOL    HW128469   2.219   4.352  10.335  2.6229  1.4871  2.9129
 5670SOL    HW228470   2.111   4.450  10.360  0.9986 -0.2268  1.1090
 5671SOL     OW28471   0.385   2.905   2.510 -0.5908 -0.1149  0.8394
 5671SOL    HW128472   0.323   2.978   2.503 -0.3001  0.0778  0.2364
 5671SOL    HW228473   0.448   2.949   2.566 -0.8623  3.3004 -1.4678
 5672SOL     OW28474   2.376   1.141   2.055 -0.1763  0.0143  0.4091
 5672SOL    HW128475   2.421   1.222   2.079 -0.0715  0.2174 -0.4704
 5672SOL    HW228476   2.405   1.127   1.965  0.5314 -0.6532  0.7431
 5673SOL     OW28477   2.112   0.218  13.681 -0.6139 -0.0250 -0.2620
 5673SOL    HW128478   2.131   0.235  13.773  2.3818  1.5812 -1.1730
 5673SOL    HW228479   2.079   0.128  13.679 -0.3877 -0.1582  1.5960
 5674SOL     OW28480   1.078   2.066   2.912  0.1173  0.2345 -0.8816
 5674SOL    HW128481   1.093   2.110   2.828 -0.8739  0.0901 -1.1433
 5674SOL    HW228482   1.084   2.134   2.979 -0.3652 -1.0363  0.4501
 5675SOL     OW28483   3.333   3.341   4.999  0.0433  0.5148  0.1582
 5675SOL    HW128484   3.288   3.317   5.080 -0.2378  0.5375  0.0087
 5675SOL    HW228485   3.386   3.418   5.021  0.9400 -0.6785  2.1292
 5676SOL     OW28486   0.584   0.849   0.869  0.2310  0.1385  0.1547
 5676SOL    HW128487   0.526   0.826   0.797 -1.9168 -1.7440  2.4605
 5676SOL    HW228488   0.669   0.871   0.831 -0.1266  0.3411 -0.5074
 5677SOL     OW28489   3.515   2.418   3.696  0.1775  0.6302  0.4532
 5677SOL    HW128490   3.529   2.410   3.790  1.6343 -1.8556  0.0454
 5677SOL    HW228491   3.488   2.330   3.669 -1.5954  1.3073  0.0450
 5678SOL     OW28492   4.207   3.620   0.519  0.1513 -0.1170 -0.5410
 5678SOL    HW128493   4.170   3.646   0.434 -2.2119 -0.6666  0.3252
 5678SOL    HW228494   4.179   3.528   0.519 -3.1405  0.8760 -0.1438
 5679SOL     OW28495   0.040   0.701   3.979 -0.0507  0.5382 -0.3834
 5679SOL    HW128496   0.095   0.623   3.993 -1.3233 -0.4351 -0.7782
 5679SOL    HW228497   0.104   0.767   3.955  0.1607  0.8066  0.9590
 5680SOL     OW28498   4.148   1.260   8.251  0.3398 -0.3392  0.1927
 5680SOL    HW128499   4.125   1.231   8.163 -1.7584 -0.9858  0.9551
 5680SOL    HW228500   4.061   1.279   8.286  0.7437 -0.3974  1.2412
 5681SOL     OW28501   3.861   1.322   6.408 -0.2485  0.2178 -0.1338
 5681SOL    HW128502   3.939   1.377   6.405  0.5948 -0.8855  0.9870
 5681SOL    HW228503   3.848   1.314   6.314 -0.0862 -1.0753 -0.0505
 5682SOL     OW28504   3.464   1.470   2.642  0.1518  0.3485 -0.4019
 5682SOL    HW128505   3.454   1.462   2.737 -0.6968 -0.4567 -0.5595
 5682SOL    HW228506   3.412   1.548   2.623 -1.1221  0.1352  2.2341
 5683SOL     OW28507   1.195   0.467   0.484  0.3224  0.8116 -0.0912
 5683SOL    HW128508   1.239   0.398   0.433 -2.0194 -0.4584 -0.3758
 5683SOL    HW228509   1.198   0.435   0.574 -0.2513 -1.2741 -0.8174
 5684SOL     OW28510   0.123   1.781   3.954  0.1928  0.2540 -0.0349
 5684SOL    HW128511   0.040   1.827   3.940  0.2348  0.2152 -0.4181
 5684SOL    HW228512   0.187   1.804   3.887  0.2195  0.1698 -0.0385
 5685SOL     OW28513   3.937   2.365  13.795 -0.1223 -0.2373 -0.2871
 5685SOL    HW128514   3.879   2.440  13.780 -0.6279 -0.8930 -1.6690
 5685SOL    HW228515   3.973   2.391  13.879  0.6016  0.0390 -0.6805
 5686SOL     OW28516   0.943   1.256  11.444  0.2059  0.2121 -0.3834
 5686SOL    HW128517   0.921   1.163  11.450  2.5632 -0.2685  0.4536
 5686SOL    HW228518   0.897   1.280  11.525 -2.1157  0.1245 -1.6529
 5687SOL     OW28519   2.174   2.764  10.565  0.1956 -0.1004 -0.2305
 5687SOL    HW128520   2.134   2.760  10.478 -0.2670  1.2779 -0.0827
 5687SOL    HW228521   2.100   2.739  10.619  0.6504  0.2609  0.5684
 5688SOL     OW28522   3.781   3.599   2.704 -0.0496 -0.4610 -0.7625
 5688SOL    HW128523   3.724   3.528   2.676 -0.8387 -1.1285  2.4994
 5688SOL    HW228524   3.845   3.599   2.633  0.0832 -0.6103 -0.6432
 5689SOL     OW28525   3.287   0.896  14.999  0.3260  0.0887  0.2920
 5689SOL    HW128526   3.302   0.897  14.904  1.1882  2.4648  0.4750
 5689SOL    HW228527   3.337   0.815  15.009 -0.1612 -0.3783 -0.9002
 5690SOL     OW28528   2.236   1.961   4.826  0.2972 -0.2263  0.0327
 5690SOL    HW128529   2.150   1.920   4.835  0.4771 -0.2290  1.8047
 5690SOL    HW228530   2.283   1.906   4.888 -1.3487 -0.8802  0.6807
 5691SOL     OW28531   2.248   2.107   4.132  0.1669 -0.0803  0.3592
 5691SOL    HW128532   2.297   2.187   4.113 -1.1487  0.4096 -1.0569
 5691SOL    HW228533   2.193   2.127   4.208 -0.2231 -1.1303  0.3581
 5692SOL     OW28534   0.668   2.352  11.477  0.2410  0.2727  0.4007
 5692SOL    HW128535   0.753   2.388  11.448  0.0848  1.7071  1.7598
 5692SOL    HW228536   0.692   2.273  11.525 -1.2318 -0.6466 -0.3913
 5693SOL     OW28537   1.019   0.073   3.229  1.1566 -0.3051  0.4851
 5693SOL    HW128538   0.975   4.719   3.270 -1.1730 -1.9410 -5.0181
 5693SOL    HW228539   0.960   0.106   3.161  1.3188  2.2767  1.5659
 5694SOL     OW28540   2.243   1.957   6.369  0.0509 -0.0025  0.0393
 5694SOL    HW128541   2.201   2.041   6.384 -0.7506  0.0069 -2.3642
 5694SOL    HW228542   2.238   1.921   6.458 -2.0082  0.1817 -0.0238
 5695SOL     OW28543   1.291   4.684   4.634 -0.1685 -0.0008  0.2346
 5695SOL    HW128544   1.201   4.708   4.657 -0.7795  0.4339 -2.6471
 5695SOL    HW228545   1.279   4.645   4.547  1.3099  0.8978 -0.3642
 5696SOL     OW28546   0.479   0.256  15.670  0.5225 -0.0887  0.2353
 5696SOL    HW128547   0.413   0.295  15.727  1.6420  1.4200  0.4932
 5696SOL    HW228548   0.420   0.187  15.641 -0.4966  1.1610 -0.6321
 5697SOL     OW28549   2.757   1.924   5.600 -0.1969  0.3199 -0.4302
 5697SOL    HW128550   2.840   1.920   5.647  0.8061  1.3910 -2.1539
 5697SOL    HW228551   2.767   2.002   5.546  4.0476  0.6046  0.8021
 5698SOL     OW28552   3.727   2.555   0.046 -0.0832  0.2578 -0.4876
 5698SOL    HW128553   3.739   2.649   0.062 -2.5975  0.2847  1.1824
 5698SOL    HW228554   3.635   2.557   0.020 -0.2889 -0.4201  0.1782
 5699SOL     OW28555   1.692   0.045   1.268  0.5805 -0.3033  0.4587
 5699SOL    HW128556   1.738   4.695   1.223 -1.6536 -1.4737  0.0133
 5699SOL    HW228557   1.605   0.051   1.226  1.4649 -0.3725 -1.3809
 5700SOL     OW28558   3.540   3.251   5.224 -0.4823 -0.1533 -0.4951
 5700SOL    HW128559   3.500   3.225   5.307  1.2988 -4.7095 -1.0791
 5700SOL    HW228560   3.603   3.315   5.256 -1.1279  0.8540 -1.2457
 5701SOL     OW28561   4.515   4.308   6.334 -0.3731 -0.6051  0.3460
 5701SOL    HW128562   4.434   4.267   6.303 -2.0191  2.6088  0.2823
 5701SOL    HW228563   4.567   4.238   6.373  0.3130 -0.3191 -0.0451
 5702SOL     OW28564   2.363   2.868   2.469 -0.0964 -0.3432  0.4848
 5702SOL    HW128565   2.392   2.778   2.479 -1.2684 -0.5930  1.6997
 5702SOL    HW228566   2.414   2.901   2.395  2.1369 -0.6024  1.9319
 5703SOL     OW28567   0.401   4.298  11.101 -0.3015  0.9938  0.0721
 5703SOL    HW128568   0.369   4.365  11.162 -0.7483  0.8546 -0.0050
 5703SOL    HW228569   0.485   4.340  11.084  0.4707  0.9087  3.5440
 5704SOL     OW28570   1.693   0.442   6.045 -0.0557  0.5142 -0.0925
 5704SOL    HW128571   1.631   0.500   6.088  0.7986  0.6180  0.9949
 5704SOL    HW228572   1.775   0.483   6.073 -1.1692  3.1593 -0.7348
 5705SOL     OW28573   1.903   0.566  16.298 -0.7494 -0.3927 -0.0120
 5705SOL    HW128574   1.977   0.596  16.246 -0.5799  2.3096  1.7802
 5705SOL    HW228575   1.874   0.494  16.243 -0.5251 -1.1970  0.9308
 5706SOL     OW28576   2.014   1.737   3.593 -0.1752 -0.5134  0.0107
 5706SOL    HW128577   2.066   1.817   3.604 -0.4055 -0.7741  2.9151
 5706SOL    HW228578   1.993   1.726   3.686  0.6571 -0.9805  0.1406
 5707SOL     OW28579   2.441   3.839  13.292 -0.1648 -0.2321  0.2400
 5707SOL    HW128580   2.458   3.752  13.256  3.7941  1.3640 -1.7930
 5707SOL    HW228581   2.421   3.813  13.382 -1.2134 -2.3123 -0.6123
 5708SOL     OW28582   4.250   0.275   3.205  0.1446 -0.0837 -0.3789
 5708SOL    HW128583   4.158   0.262   3.227  0.2619 -1.7679 -0.9071
 5708SOL    HW228584   4.260   0.201   3.145  0.9561  1.6699 -2.4108
 5709SOL     OW28585   3.234   2.214  12.602  0.1356 -0.4380  0.7490
 5709SOL    HW128586   3.300   2.196  12.668  0.6754  0.5809  0.4889
 5709SOL    HW228587   3.253   2.306  12.586 -0.3082 -0.1631  1.8313
 5710SOL     OW28588   2.576   1.847   5.148 -0.4565 -0.3992 -0.0960
 5710SOL    HW128589   2.609   1.773   5.199  1.5964  1.5375  1.3350
 5710SOL    HW228590   2.520   1.889   5.213  0.9486  2.8103 -0.9821
 5711SOL     OW28591   3.153   3.817   4.553 -0.3079 -0.0496  0.3006
 5711SOL    HW128592   3.122   3.901   4.584  1.7607  1.3271 -1.3652
 5711SOL    HW228593   3.119   3.826   4.465 -0.4589 -0.0432  0.3601
 5712SOL     OW28594   2.241   1.769   8.189 -0.4526 -0.5346 -0.2661
 5712SOL    HW128595   2.225   1.729   8.103  2.7853  0.2957 -1.2553
 5712SOL    HW228596   2.170   1.742   8.247 -0.3531 -1.8341 -0.7490
 5713SOL     OW28597   4.093   2.433   0.659 -0.5120 -0.3698 -0.4219
 5713SOL    HW128598   4.080   2.351   0.706 -1.3205 -0.0261 -0.0350
 5713SOL    HW228599   4.121   2.401   0.574 -0.1173 -2.5568  0.5494
 5714SOL     OW28600   4.417   2.114   2.176 -0.1081  0.0344  0.2785
 5714SOL    HW128601   4.329   2.089   2.146  0.1473 -0.4588 -0.0602
 5714SOL    HW228602   4.465   2.048   2.126 -0.5521  0.1295 -0.2808
 5715SOL     OW28603   0.199   3.026  10.918  0.4018 -0.1659  0.2846
 5715SOL    HW128604   0.118   2.991  10.883 -0.3597  1.4873  0.4067
 5715SOL    HW228605   0.259   3.002  10.848  0.8215 -2.6196  1.4828
 5716SOL     OW28606   2.280   1.281   4.622 -0.0630 -0.5991 -0.1091
 5716SOL    HW128607   2.265   1.229   4.543 -2.5201 -2.0094  1.2706
 5716SOL    HW228608   2.205   1.341   4.620  0.7586  0.3754 -1.5922
 5717SOL     OW28609   2.619   3.799   7.298  0.5858  0.4838  0.1841
 5717SOL    HW128610   2.524   3.793   7.290  0.4816  0.9207  1.1355
 5717SOL    HW228611   2.636   3.707   7.278  1.2415  0.4998  0.6748
 5718SOL     OW28612   3.496   4.016  13.698 -0.3410  0.1089  0.5728
 5718SOL    HW128613   3.537   4.095  13.732  0.2358 -0.2356  0.6729
 5718SOL    HW228614   3.569   3.956  13.714 -0.6965 -0.9377 -1.7201
 5719SOL     OW28615   4.564   1.513   4.445  0.0492 -0.5429 -0.2505
 5719SOL    HW128616   4.636   1.527   4.383 -0.7373  2.2648 -0.5389
 5719SOL    HW228617   4.529   1.599   4.467 -0.3301 -0.5410 -0.8710
 5720SOL     OW28618   2.483   3.406  12.941 -0.3386 -0.1833  0.1850
 5720SOL    HW128619   2.407   3.384  12.996 -2.5146 -0.0311 -2.7548
 5720SOL    HW228620   2.434   3.444  12.868 -1.2656 -1.5990  0.0719
 5721SOL     OW28621   3.464   3.324  14.334 -0.6523  0.7741 -0.0451
 5721SOL    HW128622   3.520   3.395  14.303  0.3919 -0.3736 -0.7752
 5721SOL    HW228623   3.452   3.346  14.426 -2.1917 -1.2428  0.2234
 5722SOL     OW28624   0.222   1.900   2.269 -0.4880  0.0264  0.2962
 5722SOL    HW128625   0.254   1.912   2.359  4.2178  0.9196 -1.4908
 5722SOL    HW228626   0.249   1.810   2.252 -0.0396  0.1959  0.1088
 5723SOL     OW28627   0.498   4.012   8.714 -0.3489 -0.2907 -0.1374
 5723SOL    HW128628   0.461   4.072   8.649  0.3414 -2.2752 -2.3708
 5723SOL    HW228629   0.544   3.950   8.659 -1.9631 -2.9020  1.4601
 5724SOL     OW28630   4.264   3.316   3.956 -0.0610  0.6067  0.0282
 5724SOL    HW128631   4.307   3.296   3.873  0.0625  1.1770 -0.0446
 5724SOL    HW228632   4.345   3.331   4.006 -0.8981  1.4311  1.1357
 5725SOL     OW28633   3.295   1.829  12.646 -0.2052  0.5310  0.2487
 5725SOL    HW128634   3.375   1.813  12.596 -1.1452 -0.4526 -0.9230
 5725SOL    HW228635   3.240   1.879  12.585 -1.0961 -0.1900  0.4593
 5726SOL     OW28636   4.719   3.686   4.670  0.0484 -0.1788 -0.1053
 5726SOL    HW128637   0.036   3.755   4.615  1.1316 -0.7090 -0.0431
 5726SOL    HW228638   4.660   3.648   4.606 -0.4062 -0.3041  0.3900
 5727SOL     OW28639   0.923   2.054   2.206 -0.4297 -0.4567 -0.2146
 5727SOL    HW128640   0.833   2.027   2.192 -1.0366  1.7938 -0.6657
 5727SOL    HW228641   0.905   2.142   2.238  1.3298  0.3876 -1.4969
 5728SOL     OW28642   1.527   1.445   3.909  0.4316 -0.4590  0.2213
 5728SOL    HW128643   1.437   1.478   3.912  1.2977  2.0954 -1.6954
 5728SOL    HW228644   1.560   1.503   3.840 -0.2012 -0.7082 -0.2940
 5729SOL     OW28645   2.915   0.474  15.829 -0.2786 -0.0134  0.3174
 5729SOL    HW128646   2.851   0.409  15.858  0.1659  0.2658  1.9032
 5729SOL    HW228647   2.875   0.558  15.851  0.9539  0.0396  2.3051
 5730SOL     OW28648   4.606   2.024   5.565 -0.0304 -0.0926  0.3675
 5730SOL    HW128649   4.637   2.040   5.654  0.7739  4.2854 -0.7065
 5730SOL    HW228650   4.524   1.978   5.582 -0.3393  0.0729 -0.6656
 5731SOL     OW28651   4.297   1.635   4.989 -0.5454 -0.0179  0.5271
 5731SOL    HW128652   4.308   1.562   5.051 -2.3685 -1.3318 -0.7247
 5731SOL    HW228653   4.323   1.709   5.044  1.0606 -0.6590  0.6267
 5732SOL     OW28654   0.355   1.773   3.289  0.3291 -0.5248 -0.1373
 5732SOL    HW128655   0.320   1.696   3.333  0.8996 -2.8396 -3.7413
 5732SOL    HW228656   0.277   1.817   3.256 -0.6294 -0.8016  1.7637
 5733SOL     OW28657   0.084   3.907   4.531 -0.2789 -0.4687  0.2451
 5733SOL    HW128658   0.013   3.959   4.493  1.2173  0.7141 -0.9274
 5733SOL    HW228659   0.106   3.964   4.605  0.6661 -1.2446  0.5480
 5734SOL     OW28660   2.456   4.164  17.330  0.2067 -0.3916 -0.1118
 5734SOL    HW128661   2.371   4.127  17.309 -0.3007  0.9323 -0.4299
 5734SOL    HW228662   2.440   4.258  17.343 -0.6368 -0.7773  1.6729
 5735SOL     OW28663   3.168   1.061   4.696  0.2082 -0.0659  0.1195
 5735SOL    HW128664   3.228   1.001   4.740 -0.3287 -1.1842 -0.6720
 5735SOL    HW228665   3.123   1.002   4.635 -1.5067 -0.2546  1.5581
 5736SOL     OW28666   0.164   1.259   5.714  0.3586 -0.5227  0.1939
 5736SOL    HW128667   0.138   1.257   5.621 -0.0667  0.3704  0.2981
 5736SOL    HW228668   0.241   1.203   5.703  0.7326 -0.6119  3.3893
 5737SOL     OW28669   3.403   3.378  16.725 -0.6945 -0.2707  0.0754
 5737SOL    HW128670   3.454   3.459  16.728 -1.0239  0.0221 -2.0995
 5737SOL    HW228671   3.318   3.416  16.701  0.6449  1.4988 -1.9015
 5738SOL     OW28672   0.542   4.316   7.324 -0.5625 -0.7008  0.2203
 5738SOL    HW128673   0.528   4.222   7.334 -1.5028 -0.6629 -0.7905
 5738SOL    HW228674   0.562   4.343   7.414  1.7333 -1.1868 -0.1451
 5739SOL     OW28675   3.170   2.216  17.080 -0.4133  0.3505  0.5185
 5739SOL    HW128676   3.230   2.268  17.133  0.2323  0.2675 -0.1341
 5739SOL    HW228677   3.129   2.168  17.152 -0.4756  3.2769  2.4740
 5740SOL     OW28678   3.151   3.297  13.863 -0.4632  0.2424  0.2856
 5740SOL    HW128679   3.160   3.233  13.933  3.1751  0.4347 -0.0246
 5740SOL    HW228680   3.136   3.242  13.786 -0.4134 -0.5485  0.8493
 5741SOL     OW28681   0.939   1.552   9.526  0.2357  0.1758 -0.0434
 5741SOL    HW128682   0.857   1.597   9.507  0.3449  0.5005  0.2503
 5741SOL    HW228683   0.990   1.571   9.447 -0.8267  1.5899 -0.3939
 5742SOL     OW28684   3.262   1.284  11.651  0.1376 -0.0474  0.3013
 5742SOL    HW128685   3.320   1.302  11.577 -0.4853 -0.2230 -0.2297
 5742SOL    HW228686   3.332   1.253  11.710 -1.0575 -3.3701 -0.0555
 5743SOL     OW28687   4.491   1.773   3.591 -0.0115 -0.3555  0.0701
 5743SOL    HW128688   4.579   1.747   3.562  0.9168  3.6533 -0.6811
 5743SOL    HW228689   4.503   1.866   3.607 -2.2357  0.1043 -0.9387
 5744SOL     OW28690   1.555   2.320   3.409 -0.8315 -0.4943 -0.2631
 5744SOL    HW128691   1.627   2.382   3.397 -0.8833 -0.3321  0.2745
 5744SOL    HW228692   1.595   2.255   3.351 -0.1230 -0.6247  0.3704
 5745SOL     OW28693   1.468   2.136   6.333 -0.4549 -0.2253 -0.1877
 5745SOL    HW128694   1.446   2.124   6.425 -1.3825 -0.2651 -0.4149
 5745SOL    HW228695   1.384   2.156   6.294 -0.9828  1.6260  1.9117
 5746SOL     OW28696   1.543   2.921   2.728 -0.2828 -0.1322  0.0990
 5746SOL    HW128697   1.628   2.878   2.739  0.9495  1.9754 -1.3662
 5746SOL    HW228698   1.534   2.951   2.638  0.8823 -2.2716 -0.7392
 5747SOL     OW28699   1.022   2.737  16.601  0.0935  0.1917 -0.8320
 5747SOL    HW128700   1.043   2.708  16.689  0.6384  2.2085 -0.2999
 5747SOL    HW228701   1.096   2.700  16.553 -0.5321 -1.4789 -0.5052
 5748SOL     OW28702   4.583   1.353   2.503  0.1511 -0.4055 -0.1352
 5748SOL    HW128703   4.520   1.354   2.431  2.4202 -1.1749 -2.1410
 5748SOL    HW228704   4.527   1.320   2.573 -2.6628  0.6964 -1.8853
 5749SOL     OW28705   0.065   3.108  13.672 -0.8297 -0.6954 -0.1885
 5749SOL    HW128706   4.703   3.084  13.713 -0.4780 -0.4266  0.6925
 5749SOL    HW228707   0.104   3.021  13.665 -2.0857 -1.3656  1.3526
 5750SOL     OW28708   3.455   0.183   9.717 -0.0971 -0.4933 -1.0066
 5750SOL    HW128709   3.372   0.227   9.695  0.1112  0.1674 -0.4733
 5750SOL    HW228710   3.454   0.172   9.812 -0.5325  1.0127 -0.8354
 5751SOL     OW28711   4.694   1.737   6.897 -0.4704  0.1746 -0.6031
 5751SOL    HW128712   0.019   1.694   6.825 -0.6579 -0.2467 -0.4737
 5751SOL    HW228713   4.676   1.666   6.959  2.9498  1.0259  1.3930
 5752SOL     OW28714   4.265   3.697   2.011 -0.1645  0.6452 -0.7121
 5752SOL    HW128715   4.176   3.662   2.021 -0.3961  1.4323 -0.0083
 5752SOL    HW228716   4.271   3.747   2.092 -0.9315 -2.1596  1.1068
 5753SOL     OW28717   2.462   2.239   2.089  0.0709  0.1769  0.2841
 5753SOL    HW128718   2.401   2.198   2.028  1.2262 -0.8403 -0.1992
 5753SOL    HW228719   2.543   2.237   2.037  0.0838  0.3920  0.2969
 5754SOL     OW28720   1.627   0.912  17.415  0.1583 -0.1083 -0.3762
 5754SOL    HW128721   1.616   0.866  17.498 -2.2126 -1.7644 -1.6309
 5754SOL    HW228722   1.710   0.881  17.380 -0.6670 -1.1001 -1.4416
 5755SOL     OW28723   3.972   1.800   9.923 -0.2486  0.2900 -0.6636
 5755SOL    HW128724   3.946   1.795  10.015 -1.0455 -1.4792 -0.9797
 5755SOL    HW228725   3.949   1.715   9.886  0.3012  0.0583 -0.4869
 5756SOL     OW28726   2.872   4.430   9.699 -0.2120 -0.0875 -0.0809
 5756SOL    HW128727   2.809   4.492   9.737  0.5043  0.9381 -0.5486
 5756SOL    HW228728   2.944   4.436   9.762  1.9700  2.7753 -2.8835
 5757SOL     OW28729   1.308   0.185   8.332 -0.0997 -0.2853  0.4554
 5757SOL    HW128730   1.352   0.265   8.304 -2.8694  1.5315  1.1918
 5757SOL    HW228731   1.228   0.200   8.281  0.8937 -1.2187 -1.3358
 5758SOL     OW28732   3.572   1.015   7.634 -0.1359  0.0250 -0.5888
 5758SOL    HW128733   3.602   0.931   7.601  0.1901  0.4416 -1.3471
 5758SOL    HW228734   3.630   1.069   7.580  0.9131 -1.0675 -0.5587
 5759SOL     OW28735   3.335   3.569   5.854 -0.0052  0.0526  0.4648
 5759SOL    HW128736   3.412   3.565   5.912  0.7138  2.4816 -0.2929
 5759SOL    HW228737   3.366   3.632   5.788 -0.8415 -1.2372 -1.1315
 5760SOL     OW28738   3.316   0.166  12.539  0.1950 -0.1895  0.1644
 5760SOL    HW128739   3.368   0.200  12.611  0.2127  0.1586 -0.0124
 5760SOL    HW228740   3.247   0.233  12.536 -1.3331 -1.8284 -1.4188
 5761SOL     OW28741   4.208   1.794  14.940 -0.7485 -0.0630  0.1749
 5761SOL    HW128742   4.219   1.827  15.030 -3.0269 -3.4732  1.6939
 5761SOL    HW228743   4.165   1.711  14.962 -1.5989 -0.2246 -2.0811
 5762SOL     OW28744   1.228   0.706   6.543  0.0067 -0.3146 -0.1143
 5762SOL    HW128745   1.188   0.792   6.531  0.3839 -0.0684  0.4156
 5762SOL    HW228746   1.320   0.728   6.534  0.1959 -1.2693 -0.5004
 5763SOL     OW28747   1.745   4.704   5.552  0.3179 -0.2636  0.7089
 5763SOL    HW128748   1.729   0.074   5.527 -0.8692 -1.2952 -2.2657
 5763SOL    HW228749   1.808   4.710   5.624  0.3190  0.1284  0.6739
 5764SOL     OW28750   0.932   4.543   9.182 -0.2606  0.4873 -0.1472
 5764SOL    HW128751   0.885   4.466   9.212  0.5751  0.0308  0.0137
 5764SOL    HW228752   1.018   4.515   9.214 -1.3435 -1.6414  0.9170
 5765SOL     OW28753   4.495   2.786   7.000 -0.3245 -0.1899  0.1804
 5765SOL    HW128754   4.411   2.822   7.028 -0.8280 -1.9768  0.9569
 5765SOL    HW228755   4.472   2.701   6.964 -0.8982 -0.1563  0.4693
 5766SOL     OW28756   3.243   2.140   4.212  0.4237  0.1072 -0.3825
 5766SOL    HW128757   3.293   2.217   4.183  2.6643 -1.3939 -0.5144
 5766SOL    HW228758   3.156   2.145   4.173 -0.6590  2.3363  2.2998
 5767SOL     OW28759   0.006   4.333  11.301 -0.4198 -0.9115 -0.3580
 5767SOL    HW128760   0.065   4.260  11.317  1.7234  0.8225 -0.4233
 5767SOL    HW228761   0.058   4.408  11.330  0.3778 -1.4542 -0.3937
 5768SOL     OW28762   2.293   4.056   3.923  0.5383 -0.6021  0.9504
 5768SOL    HW128763   2.364   4.120   3.915  0.3202 -0.4561  0.1489
 5768SOL    HW228764   2.238   4.087   3.850 -0.3861 -1.8457  1.1238
 5769SOL     OW28765   4.323   0.884   5.754  0.2558 -0.0776 -0.3653
 5769SOL    HW128766   4.348   0.921   5.839 -2.7481 -0.4362  0.6785
 5769SOL    HW228767   4.249   0.943   5.744 -0.0817 -0.2109  1.4036
 5770SOL     OW28768   3.666   4.441   6.364 -0.0137  0.2974  0.3188
 5770SOL    HW128769   3.575   4.450   6.336 -0.3818 -1.1196  1.0586
 5770SOL    HW228770   3.676   4.356   6.407  1.8290 -0.7284 -2.1151
 5771SOL     OW28771   3.454   3.827   6.453 -0.2897 -0.1124 -0.1114
 5771SOL    HW128772   3.540   3.827   6.411  0.2673  4.3961  0.9879
 5771SOL    HW228773   3.413   3.896   6.401 -0.5810  1.1353  1.7766
 5772SOL     OW28774   2.119   2.406   6.702  0.0053 -0.8495  0.4163
 5772SOL    HW128775   2.034   2.396   6.658  1.3072 -1.1185 -2.0514
 5772SOL    HW228776   2.090   2.459   6.776 -1.0537 -1.1641  0.2277
 5773SOL     OW28777   2.264   1.196   2.697  0.6319  0.1125  0.2018
 5773SOL    HW128778   2.281   1.201   2.603 -0.8511  0.1223 -0.0741
 5773SOL    HW228779   2.233   1.106   2.708 -1.9094  0.9565  0.0039
 5774SOL     OW28780   0.463   2.173   0.689  0.4081  0.2469  0.5257
 5774SOL    HW128781   0.391   2.225   0.652  2.0810  2.2094  0.0476
 5774SOL    HW228782   0.422   2.095   0.727 -1.8604  1.2491  0.1867
 5775SOL     OW28783   1.051   0.757   4.286 -0.4511 -0.5528  0.0219
 5775SOL    HW128784   1.018   0.844   4.310  1.3721 -0.0031  0.6212
 5775SOL    HW228785   0.978   0.699   4.307 -1.5242  0.2853 -1.4173
 5776SOL     OW28786   1.979   0.639  13.294  0.1494  0.2512  0.8499
 5776SOL    HW128787   2.062   0.593  13.278  0.4553  0.5021  1.7245
 5776SOL    HW228788   1.931   0.596  13.223  0.5825 -0.5092  1.0064
 5777SOL     OW28789   1.363   1.012   1.493 -0.2567  0.4480 -0.0359
 5777SOL    HW128790   1.391   1.063   1.417  0.9919 -0.2417 -0.0326
 5777SOL    HW228791   1.268   1.024   1.497 -0.6876 -4.3205  3.1467
 5778SOL     OW28792   1.831   0.227   5.353  0.1989 -0.3938 -0.1002
 5778SOL    HW128793   1.871   0.302   5.310  2.3143 -1.0276  0.7561
 5778SOL    HW228794   1.791   0.190   5.274 -1.1193  2.1836 -0.6526
 5779SOL     OW28795   4.016   0.241  15.219  0.6189 -0.0966  0.0296
 5779SOL    HW128796   4.039   0.148  15.211  0.6347 -0.2635  1.9702
 5779SOL    HW228797   4.068   0.267  15.295 -0.8843 -1.8778  1.6872
 5780SOL     OW28798   2.821   3.322  15.067 -0.4985  0.1755 -0.5985
 5780SOL    HW128799   2.801   3.406  15.107 -0.7934 -1.3600  2.4801
 5780SOL    HW228800   2.912   3.298  15.082 -0.6838  0.7092  1.3947
 5781SOL     OW28801   3.209   3.109  15.337  0.2356 -0.1511  0.2930
 5781SOL    HW128802   3.155   3.053  15.393  0.7387 -0.0159  0.9134
 5781SOL    HW228803   3.292   3.064  15.329  0.0911 -1.0037  3.6265
 5782SOL     OW28804   2.206   1.957  17.332  0.5660 -0.1360  0.3794
 5782SOL    HW128805   2.204   2.051  17.312  2.5535 -0.2273 -0.2831
 5782SOL    HW228806   2.191   1.926  17.242 -0.2457  0.6540  0.2441
 5783SOL     OW28807   3.589   3.946   6.961 -0.0852  0.4903 -0.1702
 5783SOL    HW128808   3.562   3.868   6.913  0.0648  0.3305  0.0010
 5783SOL    HW228809   3.510   3.994   6.984  0.5685  1.1848  0.6621
 5784SOL     OW28810   0.284   2.091   5.374 -0.0950 -0.7274  0.5535
 5784SOL    HW128811   0.374   2.122   5.384  0.3960 -1.4802 -1.4836
 5784SOL    HW228812   0.232   2.148   5.431 -0.9488 -1.9068  0.9693
 5785SOL     OW28813   1.228   2.334  11.472 -0.0130  0.1984  0.7348
 5785SOL    HW128814   1.242   2.360  11.381 -2.7753 -0.3147  0.1833
 5785SOL    HW228815   1.262   2.412  11.516  0.0697  1.0567 -0.8546
 5786SOL     OW28816   1.643   3.415   1.509  0.2318  0.3144 -0.6352
 5786SOL    HW128817   1.731   3.412   1.547  0.4825 -2.2743 -1.4767
 5786SOL    HW228818   1.585   3.383   1.578  1.5540  3.7330  2.0690
 5787SOL     OW28819   2.722   2.363  13.670  0.1481  0.4251 -0.0174
 5787SOL    HW128820   2.766   2.448  13.674 -0.4466  0.6916  0.7618
 5787SOL    HW228821   2.797   2.310  13.643  0.4099  1.4664 -1.3587
 5788SOL     OW28822   1.499   2.264   7.396  0.0015  0.0659 -0.3218
 5788SOL    HW128823   1.516   2.307   7.312  1.0626  1.1280  0.4478
 5788SOL    HW228824   1.481   2.176   7.362  2.1331 -0.5531  0.2008
 5789SOL     OW28825   2.251   2.807   7.144  0.0260  0.1096  0.2803
 5789SOL    HW128826   2.199   2.738   7.183 -0.4520 -0.4043 -1.2865
 5789SOL    HW228827   2.266   2.770   7.057 -0.6283 -1.4737  0.8519
 5790SOL     OW28828   3.360   3.052  10.063 -0.0655 -0.6887  0.4784
 5790SOL    HW128829   3.385   3.082   9.976 -0.5094  0.8762  0.8738
 5790SOL    HW228830   3.287   2.991  10.053 -1.4421  0.6060  2.4147
 5791SOL     OW28831   3.370   1.794  16.260  0.0623  0.2400  0.4233
 5791SOL    HW128832   3.452   1.797  16.209  0.3484  0.2624  0.8865
 5791SOL    HW228833   3.326   1.877  16.242  0.7853  0.3661 -0.7707
 5792SOL     OW28834   1.236   1.445  15.687  0.1446 -0.2712  0.5632
 5792SOL    HW128835   1.192   1.470  15.605  0.3644 -1.8027 -0.0118
 5792SOL    HW228836   1.213   1.353  15.701 -2.5019  0.1627 -0.8929
 5793SOL     OW28837   0.479   0.245  14.131  0.3168  0.1247  0.2536
 5793SOL    HW128838   0.468   0.209  14.043  1.1896  1.8520 -0.5532
 5793SOL    HW228839   0.546   0.193  14.175  2.5681  3.1119  0.3573
 5794SOL     OW28840   0.760   1.380   6.153  0.5003 -0.0215 -0.2747
 5794SOL    HW128841   0.758   1.475   6.141 -3.1318 -0.1037 -0.1470
 5794SOL    HW228842   0.833   1.349   6.099  1.5169  0.1159  1.0381
 5795SOL     OW28843   4.204   3.871   9.421 -0.0751  0.4698 -0.5490
 5795SOL    HW128844   4.278   3.895   9.476  1.5582  1.0702 -3.0143
 5795SOL    HW228845   4.251   3.864   9.338 -0.0567 -0.0482 -0.4981
 5796SOL     OW28846   1.708   1.593   0.040 -0.4031  0.0593 -0.1025
 5796SOL    HW128847   1.745   1.533  17.660 -2.1525 -1.7182  0.5637
 5796SOL    HW228848   1.766   1.668   0.050 -0.4656 -0.1088  1.5215
 5797SOL     OW28849   1.505   0.160  16.569  0.3122 -0.0927 -0.2974
 5797SOL    HW128850   1.591   0.198  16.552 -0.4648  2.0715  0.5723
 5797SOL    HW228851   1.471   0.196  16.652  1.4979 -0.0319  0.1594
 5798SOL     OW28852   0.950   3.054   6.386  0.3794  0.4393 -0.0482
 5798SOL    HW128853   1.022   3.113   6.363  2.6730 -3.0711 -1.8526
 5798SOL    HW228854   0.955   3.055   6.481  1.7670 -0.9723 -0.1004
 5799SOL     OW28855   1.940   4.624  15.116 -0.0909 -0.1163  0.3742
 5799SOL    HW128856   1.952   4.539  15.159  0.9892  0.4920  1.2706
 5799SOL    HW228857   1.846   4.627  15.133  0.1694  1.6290  1.5650
 5800SOL     OW28858   0.300   0.639   5.774  0.2754 -0.9070 -0.3170
 5800SOL    HW128859   0.378   0.681   5.811 -0.3180 -0.0416 -0.0341
 5800SOL    HW228860   0.248   0.624   5.853 -0.5788  2.3502 -0.2720
 5801SOL     OW28861   2.611   1.242  10.879 -0.2398  0.6646  0.4192
 5801SOL    HW128862   2.638   1.271  10.966  0.8404  1.3716 -0.1575
 5801SOL    HW228863   2.691   1.242  10.827 -0.6291 -2.3387 -0.2035
 5802SOL     OW28864   4.188   3.945  11.571  0.0756 -0.5296  0.1505
 5802SOL    HW128865   4.183   3.858  11.530 -0.7492 -0.0649 -0.7430
 5802SOL    HW228866   4.262   3.985  11.524 -0.0951 -0.7751 -0.3332
 5803SOL     OW28867   4.667   3.010   5.254 -0.2187 -0.6393 -0.4027
 5803SOL    HW128868   0.008   2.969   5.192  0.9684 -1.9317  1.6256
 5803SOL    HW228869   4.718   3.080   5.297 -0.3094 -1.2041  0.6269
 5804SOL     OW28870   0.145   1.905   6.395 -0.2215 -0.4056 -0.1954
 5804SOL    HW128871   0.066   1.878   6.443 -0.1889 -0.5113 -0.2003
 5804SOL    HW228872   0.207   1.864   6.456 -0.3460  0.6298  0.6236
 5805SOL     OW28873   1.678   0.247   9.826 -0.0978 -0.1711  0.2021
 5805SOL    HW128874   1.753   0.213   9.874  1.5970  1.0103 -1.6625
 5805SOL    HW228875   1.718   0.279   9.746 -1.1746  1.6855  0.4008
 5806SOL     OW28876   1.172   1.592   6.803 -1.0307  0.2042  0.2149
 5806SOL    HW128877   1.204   1.504   6.823 -4.2369 -0.8937  0.4544
 5806SOL    HW228878   1.136   1.607   6.890 -0.5474  0.3616  0.3923
 5807SOL     OW28879   1.910   3.091  15.143  0.2828 -0.1824 -0.2570
 5807SOL    HW128880   1.899   2.996  15.138  3.8460 -0.6613  0.9551
 5807SOL    HW228881   1.861   3.121  15.066  1.2856  0.8776 -0.4814
 5808SOL     OW28882   1.034   2.561   2.025  0.1643 -0.5544  0.0439
 5808SOL    HW128883   0.960   2.621   2.032  1.1133  0.3943  1.8122
 5808SOL    HW228884   1.102   2.621   2.053 -0.1715 -0.6264  1.0346
 5809SOL     OW28885   1.247   0.979   0.045  0.0665 -0.6556 -0.1473
 5809SOL    HW128886   1.251   1.071   0.023  1.1349 -0.0919  2.3576
 5809SOL    HW228887   1.321   0.970   0.105  0.7694 -0.7963 -1.0410
 5810SOL     OW28888   4.456   4.391  11.261 -0.0481 -0.4423  0.5519
 5810SOL    HW128889   4.540   4.348  11.277  0.2411  0.0146  0.2603
 5810SOL    HW228890   4.405   4.311  11.250 -2.4823  1.0365  1.0557
 5811SOL     OW28891   2.999   0.831   3.398  0.2396  0.0567  0.4625
 5811SOL    HW128892   2.934   0.824   3.468 -0.3050 -2.3092 -0.2718
 5811SOL    HW228893   2.968   0.752   3.353  0.6491  0.9696 -1.4141
 5812SOL     OW28894   4.634   2.016   4.380  0.3414  0.2288  0.2729
 5812SOL    HW128895   4.717   2.010   4.332  0.4248  1.2451  0.2864
 5812SOL    HW228896   4.666   2.037   4.468 -0.9494  1.2145  0.5064
 5813SOL     OW28897   3.264   2.921   4.368 -0.2857  0.3176 -0.0350
 5813SOL    HW128898   3.276   2.969   4.286 -0.6299 -0.1735 -0.3780
 5813SOL    HW228899   3.171   2.930   4.387  0.0640  1.4755  1.0858
 5814SOL     OW28900   1.545   1.842   1.313  0.3769  0.4240  0.0023
 5814SOL    HW128901   1.497   1.807   1.238 -2.1045  3.8926 -0.0224
 5814SOL    HW228902   1.536   1.766   1.369 -0.0677  1.3581  1.2037
 5815SOL     OW28903   2.291   0.605   0.195  0.1285 -0.1698 -0.6980
 5815SOL    HW128904   2.363   0.544   0.209 -0.7156 -1.1480 -0.6342
 5815SOL    HW228905   2.220   0.567   0.246  1.1122 -1.4518 -0.2894
 5816SOL     OW28906   4.590   0.040   2.058  0.2053 -0.0763 -0.4429
 5816SOL    HW128907   4.650   0.059   1.986  2.1388  0.8805  1.4295
 5816SOL    HW228908   4.600   0.122   2.108 -1.1560  0.4416 -0.9995
 5817SOL     OW28909   2.154   2.752  15.862 -0.0164 -0.1858 -0.3611
 5817SOL    HW128910   2.135   2.665  15.896 -0.2122  0.6101  1.5505
 5817SOL    HW228911   2.231   2.761  15.918 -1.5601  0.6894  1.6304
 5818SOL     OW28912   0.750   2.269  13.322 -0.2325 -0.5448  0.1432
 5818SOL    HW128913   0.759   2.364  13.322 -0.6554 -0.5123  1.4549
 5818SOL    HW228914   0.836   2.237  13.295 -1.2269 -0.2866 -3.4118
 5819SOL     OW28915   3.754   0.592   6.584  0.3519  0.6498  0.1750
 5819SOL    HW128916   3.677   0.558   6.539  0.8388 -1.4534  0.9302
 5819SOL    HW228917   3.722   0.676   6.617 -0.6637 -1.1336  3.7274
 5820SOL     OW28918   3.114   1.844  17.179  0.1648  0.1329  0.0578
 5820SOL    HW128919   3.140   1.879  17.094  0.1641 -0.8865 -0.3659
 5820SOL    HW228920   3.126   1.916  17.241  0.7072 -0.8543  1.1079
 5821SOL     OW28921   3.896   2.915   5.395 -0.2422 -0.3142 -0.1993
 5821SOL    HW128922   3.842   2.958   5.461  0.9353 -0.9247  1.1652
 5821SOL    HW228923   3.972   2.880   5.443  1.7318  1.7869 -1.7856
 5822SOL     OW28924   1.361   0.626   7.494  0.1308  0.6101 -0.1747
 5822SOL    HW128925   1.345   0.532   7.488  4.5905 -0.2695  1.8889
 5822SOL    HW228926   1.295   0.660   7.433 -1.5192  1.0351  1.8535
 5823SOL     OW28927   2.411   3.923   4.867 -0.4521 -0.5023  0.0220
 5823SOL    HW128928   2.328   3.950   4.906  0.2996  2.5531 -0.4632
 5823SOL    HW228929   2.475   3.933   4.938  0.0005 -0.2110 -0.4261
 5824SOL     OW28930   2.541   1.903   4.068  0.1400 -0.2747  0.5238
 5824SOL    HW128931   2.520   1.814   4.096  2.3291 -1.4554 -1.6002
 5824SOL    HW228932   2.524   1.945   4.153  0.7858  4.2911 -1.5690
 5825SOL     OW28933   3.832   0.803  10.025  0.1952  0.4927  0.2357
 5825SOL    HW128934   3.797   0.720  10.057  3.1990 -1.3154 -1.2197
 5825SOL    HW228935   3.761   0.831   9.967 -2.7755 -2.2559  2.5041
 5826SOL     OW28936   0.190   2.435   8.769 -0.4873 -0.0218 -0.2836
 5826SOL    HW128937   0.207   2.368   8.703  1.6626  1.5113 -1.2877
 5826SOL    HW228938   0.114   2.481   8.734 -0.0032  0.2782 -0.9255
 5827SOL     OW28939   0.951   4.035   7.619 -0.2625  0.1302 -0.1101
 5827SOL    HW128940   0.915   4.000   7.538  0.2567  0.7691 -0.6168
 5827SOL    HW228941   0.877   4.033   7.679  0.0377 -3.4954  0.1469
 5828SOL     OW28942   2.526   0.852   5.255 -0.9013 -0.0187 -0.7306
 5828SOL    HW128943   2.492   0.884   5.172 -0.2327  0.4371 -0.8264
 5828SOL    HW228944   2.618   0.835   5.237  0.0433  2.6949  1.5480
 5829SOL     OW28945   2.405   3.852  11.582  0.6106  0.1478 -0.2341
 5829SOL    HW128946   2.460   3.914  11.533 -1.0884  1.3322 -0.6332
 5829SOL    HW228947   2.319   3.892  11.592 -0.0081 -1.7290  1.8106
 5830SOL     OW28948   3.061   2.177  12.837  0.2886  0.2669  0.2736
 5830SOL    HW128949   3.116   2.191  12.759 -1.3772 -0.3061 -1.0110
 5830SOL    HW228950   2.991   2.239  12.816  2.0303  1.6575 -1.4135
 5831SOL     OW28951   1.221   1.406   1.804 -0.0632 -0.0943 -0.5954
 5831SOL    HW128952   1.242   1.375   1.716  1.4689  1.8052 -0.9004
 5831SOL    HW228953   1.302   1.396   1.853 -0.1074 -0.0909 -0.5207
 5832SOL     OW28954   0.668   2.407   3.221  0.6412  0.6870  0.0813
 5832SOL    HW128955   0.717   2.417   3.303 -0.8196  1.7927  0.8230
 5832SOL    HW228956   0.740   2.419   3.160  0.8989 -1.4005 -0.0242
 5833SOL     OW28957   2.399   1.609  14.552  0.3950 -0.2661 -0.1379
 5833SOL    HW128958   2.428   1.521  14.578  0.1681 -1.0499 -2.5162
 5833SOL    HW228959   2.378   1.649  14.636 -0.1284 -0.6562 -0.0827
 5834SOL     OW28960   2.996   1.745   6.002  0.7168  0.2887 -0.7050
 5834SOL    HW128961   2.901   1.733   6.011  0.3682  1.5418 -2.6083
 5834SOL    HW228962   2.998   1.784   5.914 -0.5971 -0.7528 -1.1951
 5835SOL     OW28963   0.436   2.490   3.051 -0.0830 -0.4162 -0.6820
 5835SOL    HW128964   0.522   2.488   3.093  0.0233 -1.1585 -0.9215
 5835SOL    HW228965   0.402   2.571   3.087  1.6767 -0.2273  0.5567
 5836SOL     OW28966   3.425   0.477  14.415 -0.1259  0.1174  0.2675
 5836SOL    HW128967   3.456   0.558  14.455 -4.5675  1.2048  1.5844
 5836SOL    HW228968   3.332   0.499  14.418 -0.1747  0.0299 -0.6215
 5837SOL     OW28969   0.425   2.914  12.592 -0.2715  0.1430  1.1034
 5837SOL    HW128970   0.509   2.900  12.636  0.7819 -0.0135 -0.9548
 5837SOL    HW228971   0.427   2.844  12.527  0.7468 -0.1076  1.3952
 5838SOL     OW28972   1.145   0.458   2.589  0.1345 -0.0769  0.1548
 5838SOL    HW128973   1.062   0.485   2.548  0.8904  0.8426 -0.7663
 5838SOL    HW228974   1.208   0.449   2.518 -1.1387 -1.3052 -0.8122
 5839SOL     OW28975   4.470   0.910  16.727 -0.8349  0.3248  0.2172
 5839SOL    HW128976   4.413   0.833  16.734 -0.0548 -0.2123  0.6817
 5839SOL    HW228977   4.544   0.889  16.670 -1.6193 -2.1666  0.0918
 5840SOL     OW28978   0.361   3.384   4.752 -0.3784  0.7049 -0.8882
 5840SOL    HW128979   0.388   3.344   4.835 -1.5026  2.2024  0.1759
 5840SOL    HW228980   0.268   3.404   4.759 -0.3876  1.1090 -2.1182
 5841SOL     OW28981   3.926   0.412   4.232  0.1757  0.0952 -0.5044
 5841SOL    HW128982   4.003   0.468   4.222 -1.6573  2.3491 -1.9696
 5841SOL    HW228983   3.973   0.330   4.250  1.2298  1.1478  1.4995
 5842SOL     OW28984   4.374   2.899   5.693 -0.0880 -0.4996  0.1189
 5842SOL    HW128985   4.442   2.932   5.752  1.2097  2.0016 -2.7983
 5842SOL    HW228986   4.299   2.952   5.718  0.3279 -0.0032  0.3011
 5843SOL     OW28987   0.566   1.285   8.182  0.6625  0.4815  0.1208
 5843SOL    HW128988   0.608   1.215   8.131 -1.4450  0.5223 -1.6841
 5843SOL    HW228989   0.564   1.248   8.270 -2.0883 -0.3687 -0.2939
 5844SOL     OW28990   1.545   2.686  13.134 -0.4032  0.2063 -0.0734
 5844SOL    HW128991   1.484   2.612  13.135  0.6369 -0.6389  0.4777
 5844SOL    HW228992   1.495   2.740  13.073 -0.2732 -1.1038 -1.3576
 5845SOL     OW28993   2.574   2.910   6.315  0.0503 -0.0949  0.4396
 5845SOL    HW128994   2.503   2.965   6.280  0.6991 -0.5684 -1.6053
 5845SOL    HW228995   2.570   2.911   6.410  0.3012 -1.4798  0.4600
 5846SOL     OW28996   3.717   2.584   9.686 -0.0677 -0.3427 -0.0238
 5846SOL    HW128997   3.668   2.542   9.616  0.4920 -1.0830  0.0334
 5846SOL    HW228998   3.777   2.513   9.708 -1.8312 -1.2768  1.7420
 5847SOL     OW28999   2.458   3.506   7.049  0.1019 -0.1119 -0.5867
 5847SOL    HW129000   2.553   3.510   7.060  0.1068  0.7742 -0.9370
 5847SOL    HW229001   2.440   3.428   7.101  0.4269  0.4432  0.3575
 5848SOL     OW29002   3.607   2.183   4.206 -0.1883 -0.2225 -0.4530
 5848SOL    HW129003   3.676   2.182   4.273 -0.3379 -1.1669 -0.3265
 5848SOL    HW229004   3.579   2.092   4.199  0.3896 -0.6108  2.3062
 5849SOL     OW29005   3.186   3.006   9.083  0.2408 -0.1527 -0.0005
 5849SOL    HW129006   3.173   3.072   9.151  0.1734  1.3616 -1.4959
 5849SOL    HW229007   3.140   2.936   9.130  0.7350 -0.0271  0.6664
 5850SOL     OW29008   3.035   1.285   9.647 -0.0361  0.0049  0.5116
 5850SOL    HW129009   3.032   1.240   9.563  3.3393  1.7920 -0.5565
 5850SOL    HW229010   3.127   1.307   9.659  0.4454 -2.3405  1.2002
 5851SOL     OW29011   0.842   1.040  11.636  0.4287  0.3947 -0.2727
 5851SOL    HW129012   0.871   1.104  11.702 -0.4745  1.3269 -0.7833
 5851SOL    HW229013   0.858   0.958  11.682  0.1447  0.6343  0.2570
 5852SOL     OW29014   2.015   3.608   5.022 -0.3247  0.1840 -0.1527
 5852SOL    HW129015   2.069   3.637   4.948  1.4067  0.3091  1.1736
 5852SOL    HW229016   2.006   3.513   5.015 -1.8005  0.2013  1.5305
 5853SOL     OW29017   0.125   0.675   2.817 -0.3454  0.6837 -0.2196
 5853SOL    HW129018   0.077   0.758   2.826 -1.8944 -0.0719 -1.4989
 5853SOL    HW229019   0.144   0.674   2.723 -2.2858  2.2011 -0.6200
 5854SOL     OW29020   4.238   4.280   3.688 -0.3277  0.2819 -0.6094
 5854SOL    HW129021   4.277   4.269   3.601  2.5459 -1.6116  0.9402
 5854SOL    HW229022   4.170   4.346   3.673 -0.1747  0.7473  0.7391
 5855SOL     OW29023   1.042   1.589   9.273  0.2588  0.1358  0.7199
 5855SOL    HW129024   1.006   1.535   9.203 -0.8079  0.6973  0.8409
 5855SOL    HW229025   1.127   1.552   9.298  1.2953  1.8789 -0.1553
 5856SOL     OW29026   1.329   4.510  11.388 -0.1780  0.5795  0.4310
 5856SOL    HW129027   1.308   4.602  11.372  1.0691  1.5264  4.2483
 5856SOL    HW229028   1.405   4.526  11.443  0.6414  1.2512 -0.9172
 5857SOL     OW29029   2.598   1.529  12.675  0.4329  0.2216 -0.2544
 5857SOL    HW129030   2.594   1.610  12.726  2.2431  0.4579 -0.4819
 5857SOL    HW229031   2.623   1.565  12.590  0.1821  2.9861  0.8471
 5858SOL     OW29032   2.397   2.010  12.108 -0.1833 -0.7829  0.0730
 5858SOL    HW129033   2.489   2.034  12.109 -0.8969  1.8069  2.4400
 5858SOL    HW229034   2.372   2.102  12.120  1.1259 -0.4478  0.1676
 5859SOL     OW29035   3.015   4.279   8.911 -0.0257  0.0208  0.3565
 5859SOL    HW129036   2.960   4.203   8.892 -1.7420  1.8144 -1.8894
 5859SOL    HW229037   3.044   4.302   8.822 -0.1903 -2.1784 -0.2550
 5860SOL     OW29038   0.128   4.260   3.980  0.1951 -0.4003  0.2312
 5860SOL    HW129039   0.049   4.264   3.926  1.0844  1.6357 -0.9300
 5860SOL    HW229040   0.185   4.263   3.903 -0.7929 -1.8927 -0.5700
 5861SOL     OW29041   0.305   4.049   1.750  0.0629  0.3593 -0.3737
 5861SOL    HW129042   0.326   4.104   1.826 -0.6138 -0.3055  0.3001
 5861SOL    HW229043   0.329   3.963   1.784 -5.0048 -0.5941  0.7828
 5862SOL     OW29044   2.573   0.591   7.467 -0.0951 -0.4044 -0.5122
 5862SOL    HW129045   2.545   0.670   7.513  1.6497  0.9293 -1.7645
 5862SOL    HW229046   2.656   0.621   7.430  0.3155 -0.9778 -0.0554
 5863SOL     OW29047   2.101   2.166   6.473  0.0827  0.1761  0.3226
 5863SOL    HW129048   2.063   2.251   6.448 -3.9259 -1.0343  2.2970
 5863SOL    HW229049   2.022   2.122   6.503  0.4619 -2.3638 -2.3864
 5864SOL     OW29050   3.899   4.700   3.745  0.3967  0.2635 -0.0188
 5864SOL    HW129051   3.975   0.037   3.758 -1.1675  2.4889 -0.7893
 5864SOL    HW229052   3.853   4.708   3.829 -1.5689 -0.7437 -1.0124
 5865SOL     OW29053   4.015   0.740  13.152 -0.1481 -0.2691  0.4845
 5865SOL    HW129054   3.962   0.660  13.160 -2.2060  1.1468  0.8094
 5865SOL    HW229055   3.968   0.791  13.218 -1.0341  0.9677 -1.0928
 5866SOL     OW29056   3.203   1.894   7.046  0.3861 -0.1351  0.0013
 5866SOL    HW129057   3.274   1.935   6.996  0.1604 -0.0922 -0.2858
 5866SOL    HW229058   3.156   1.852   6.974 -1.3382  0.4499  0.7993
 5867SOL     OW29059   4.337   3.116   1.430  0.1042  0.6446  0.4486
 5867SOL    HW129060   4.290   3.067   1.362 -1.5367 -0.1276  2.1620
 5867SOL    HW229061   4.412   3.141   1.376 -1.5051 -1.7145 -2.9049
 5868SOL     OW29062   0.132   0.565   1.655 -0.6528  0.2279 -0.3159
 5868SOL    HW129063   0.192   0.491   1.646 -2.9569 -1.5660 -1.1585
 5868SOL    HW229064   0.077   0.546   1.578  1.0000 -0.1328 -1.4070
 5869SOL     OW29065   4.365   2.826   4.614  0.6811  0.4400  0.5602
 5869SOL    HW129066   4.269   2.829   4.616  0.5888 -2.0717 -1.1497
 5869SOL    HW229067   4.373   2.733   4.631 -0.5290  0.2546  0.1207
 5870SOL     OW29068   0.417   3.096   7.045  0.5933  0.9084 -0.2855
 5870SOL    HW129069   0.364   3.154   6.989  0.2028  2.6459  1.8752
 5870SOL    HW229070   0.441   3.152   7.119  1.0985  1.4108 -0.8318
 5871SOL     OW29071   4.227   1.316   7.333  0.7347  0.1262  0.2840
 5871SOL    HW129072   4.151   1.350   7.381 -0.9911 -1.8702 -1.0725
 5871SOL    HW229073   4.193   1.326   7.244  0.9979 -1.6842 -0.0273
 5872SOL     OW29074   3.820   0.482  14.473  0.1695 -0.4599 -0.2290
 5872SOL    HW129075   3.768   0.481  14.553  0.5571 -1.3058  0.0113
 5872SOL    HW229076   3.909   0.472  14.506 -0.5239  2.2459  2.5080
 5873SOL     OW29077   3.779   3.798   7.437 -0.7128  0.1619 -0.0567
 5873SOL    HW129078   3.781   3.744   7.359 -0.9450  1.0172 -0.6552
 5873SOL    HW229079   3.860   3.845   7.418 -1.0833  0.8045 -0.0833
 5874SOL     OW29080   0.439   3.732  14.515 -0.0805 -0.1677 -0.2771
 5874SOL    HW129081   0.369   3.763  14.572  1.7216  1.7357  0.8973
 5874SOL    HW229082   0.503   3.697  14.578 -0.5925 -0.1478  0.2563
 5875SOL     OW29083   2.249   2.659   5.928 -0.2021  0.3096  0.1271
 5875SOL    HW129084   2.290   2.575   5.950 -1.1040 -0.3343 -0.7130
 5875SOL    HW229085   2.183   2.652   5.997 -0.5034  2.3292  0.0537
 5876SOL     OW29086   3.292   4.099  11.842 -0.0721  0.0985  0.3400
 5876SOL    HW129087   3.377   4.057  11.826  0.5899  1.6705 -0.2880
 5876SOL    HW229088   3.318   4.135  11.926  0.3127  0.4522  0.0676
 5877SOL     OW29089   2.512   0.292   0.563 -0.2001  0.2545 -0.2089
 5877SOL    HW129090   2.515   0.228   0.492 -0.0069  0.3190 -0.2599
 5877SOL    HW229091   2.552   0.239   0.631 -2.6937 -0.3348  0.7736
 5878SOL     OW29092   4.459   2.720   9.153 -0.6484  1.0649 -0.1069
 5878SOL    HW129093   4.546   2.702   9.118 -0.4863  1.3926  0.1245
 5878SOL    HW229094   4.445   2.811   9.125 -1.1572  0.2502 -2.4955
 5879SOL     OW29095   0.052   4.617  12.206 -0.5464 -0.0455  0.0460
 5879SOL    HW129096   0.116   4.658  12.264 -0.6251 -1.3101  1.0585
 5879SOL    HW229097   0.097   4.590  12.126  0.8906  0.5317  0.6585
 5880SOL     OW29098   4.050   2.148   8.984 -0.0012 -0.0589  0.2109
 5880SOL    HW129099   4.054   2.146   8.889  0.1707  2.3609  0.1484
 5880SOL    HW229100   3.962   2.180   9.002  0.7118  1.8464  0.3420
 5881SOL     OW29101   1.194   4.494   2.657 -0.0588  0.0701  0.4850
 5881SOL    HW129102   1.162   4.535   2.577 -1.6435 -0.4066  0.8694
 5881SOL    HW229103   1.233   4.411   2.629 -1.4209  0.0664 -1.4400
 5882SOL     OW29104   3.924   3.716  11.641 -0.6303  0.4948  0.3342
 5882SOL    HW129105   3.967   3.651  11.697 -1.9611 -0.9532 -0.3077
 5882SOL    HW229106   3.845   3.672  11.610  0.6221  0.1375 -2.3091
 5883SOL     OW29107   3.537   1.030   2.654 -0.3320 -0.0473 -0.2173
 5883SOL    HW129108   3.518   1.006   2.563 -0.3909  2.0365 -0.7425
 5883SOL    HW229109   3.622   1.069   2.635 -0.3721  1.3402  2.4090
 5884SOL     OW29110   4.445   3.509   7.695 -0.3514 -0.1838  0.2772
 5884SOL    HW129111   4.474   3.600   7.699  1.3460 -0.7772  1.5138
 5884SOL    HW229112   4.368   3.518   7.639 -0.1418 -0.0273  0.0156
 5885SOL     OW29113   0.059   1.517  12.630  0.2188  0.2301  0.3618
 5885SOL    HW129114   0.048   1.608  12.658 -2.6615  0.0139 -0.0618
 5885SOL    HW229115   4.705   1.467  12.661  0.7784  0.4365  2.0841
 5886SOL     OW29116   0.547   3.538   5.617  1.1126 -0.0134  0.5216
 5886SOL    HW129117   0.564   3.484   5.694 -1.7015 -1.6007  0.0405
 5886SOL    HW229118   0.516   3.479   5.548 -0.1770  1.6714 -0.3189
 5887SOL     OW29119   2.662   0.820  10.308 -0.4191  0.2927 -0.4615
 5887SOL    HW129120   2.612   0.867  10.375 -0.5240 -1.2036  0.5320
 5887SOL    HW229121   2.620   0.734  10.312 -0.6534  0.4247 -0.0346
 5888SOL     OW29122   2.412   4.136   2.813  0.2182  0.3614  0.0354
 5888SOL    HW129123   2.406   4.092   2.728 -0.4201  0.6997 -0.0904
 5888SOL    HW229124   2.502   4.168   2.804  0.9739 -1.1564  1.9896
 5889SOL     OW29125   0.957   0.305   4.295 -0.1023  0.1044 -0.4170
 5889SOL    HW129126   1.001   0.351   4.366 -0.6760  1.3631 -0.8758
 5889SOL    HW229127   0.865   0.328   4.308  0.1984  0.4956  0.9998
 5890SOL     OW29128   4.619   4.571  11.116 -0.0463 -0.3742 -0.1681
 5890SOL    HW129129   4.630   4.651  11.167 -0.1585  0.1490 -0.9616
 5890SOL    HW229130   4.563   4.521  11.176  1.9757 -1.5951  0.7027
 5891SOL     OW29131   3.240   2.295   5.321  0.2647  0.0712 -0.6670
 5891SOL    HW129132   3.267   2.256   5.238  1.1765  1.8030 -1.1833
 5891SOL    HW229133   3.188   2.223   5.357 -0.9250  1.0581 -0.3732
 5892SOL     OW29134   1.160   4.485  13.669 -0.0617  0.4196 -0.1577
 5892SOL    HW129135   1.211   4.510  13.746  0.2430  0.6423 -0.4269
 5892SOL    HW229136   1.073   4.480  13.708  0.1698  1.4782  0.4925
 5893SOL     OW29137   3.849   0.195   6.513 -0.1789 -0.6093 -0.2529
 5893SOL    HW129138   3.833   0.264   6.449 -0.0921 -0.1421  0.2210
 5893SOL    HW229139   3.919   0.236   6.564 -1.9619  0.8782  1.0203
 5894SOL     OW29140   3.642   0.087  12.081  0.1675  0.6713 -0.1067
 5894SOL    HW129141   3.601   0.147  12.018 -0.8940  0.0555  0.0055
 5894SOL    HW229142   3.604   0.112  12.165 -1.3092  2.7059 -1.3675
 5895SOL     OW29143   0.526   3.135  11.136 -0.0258  0.1113 -0.1933
 5895SOL    HW129144   0.491   3.047  11.122 -0.7281  0.5600 -1.3018
 5895SOL    HW229145   0.542   3.151  11.229 -0.4744  1.1547 -0.2858
 5896SOL     OW29146   0.226   3.660   8.202 -0.7987  0.1560  0.0008
 5896SOL    HW129147   0.255   3.577   8.163 -3.7708 -0.4609 -0.8971
 5896SOL    HW229148   0.254   3.645   8.292 -0.1599  0.6075 -0.1196
 5897SOL     OW29149   2.284   2.116   4.434 -1.1290 -0.3695 -0.2006
 5897SOL    HW129150   2.315   2.077   4.515  0.7161 -1.7966 -1.5871
 5897SOL    HW229151   2.268   2.205   4.464 -0.7348 -1.4401  3.1581
 5898SOL     OW29152   2.783   1.994  13.152 -0.3394  0.0942 -0.2228
 5898SOL    HW129153   2.746   2.042  13.226  0.1354 -0.6110  0.4772
 5898SOL    HW229154   2.801   2.066  13.092  1.4487 -0.7113 -0.6463
 5899SOL     OW29155   0.028   4.299  16.126 -0.2605  0.2133 -0.6766
 5899SOL    HW129156   0.058   4.265  16.041 -1.4302  1.1026 -1.4434
 5899SOL    HW229157   0.102   4.357  16.146  0.0391  1.2745 -4.7467
 5900SOL     OW29158   0.659   0.224  12.221  0.4105  0.0801  0.5272
 5900SOL    HW129159   0.684   0.152  12.163 -1.6579  0.8238 -1.2963
 5900SOL    HW229160   0.685   0.295  12.162 -0.1920  0.5335  0.8081
 5901SOL     OW29161   3.395   1.888   6.586  0.2861  0.1535  0.2909
 5901SOL    HW129162   3.458   1.935   6.532  0.4839  2.1239  2.2285
 5901SOL    HW229163   3.320   1.880   6.528  0.3782 -0.0623  0.2006
 5902SOL     OW29164   0.557   3.354   6.604 -0.8353  0.2671  0.3699
 5902SOL    HW129165   0.621   3.375   6.536 -0.2886 -0.1527  0.7529
 5902SOL    HW229166   0.609   3.302   6.665 -1.3752 -0.4516  0.2039
 5903SOL     OW29167   3.452   0.437   7.570 -0.4963 -0.0835 -0.2628
 5903SOL    HW129168   3.542   0.406   7.572  0.1446  1.7858 -0.5885
 5903SOL    HW229169   3.468   0.494   7.645  0.6670 -0.9967  0.1811
 5904SOL     OW29170   4.089   3.208   7.854 -0.5127  0.6861  0.1585
 5904SOL    HW129171   4.099   3.188   7.760 -0.9078 -0.4149  0.3479
 5904SOL    HW229172   4.097   3.302   7.843 -0.1461  0.7143  0.7076
 5905SOL     OW29173   2.764   2.078  15.278 -0.4611  0.0209 -0.4010
 5905SOL    HW129174   2.737   2.151  15.222 -0.4980 -1.0678 -1.8181
 5905SOL    HW229175   2.836   2.035  15.232  0.6328  2.5368 -1.0499
 5906SOL     OW29176   1.094   3.129   2.713  0.3533  0.5122  0.3109
 5906SOL    HW129177   1.095   3.199   2.778 -2.9404  0.6412  0.2135
 5906SOL    HW229178   1.062   3.181   2.640  1.4459  1.0843  0.2327
 5907SOL     OW29179   1.549   2.391   8.515 -0.9464  0.1781  0.4454
 5907SOL    HW129180   1.512   2.479   8.510  1.8506  1.2880 -0.7261
 5907SOL    HW229181   1.469   2.344   8.539 -1.1447  0.1200 -0.3088
 5908SOL     OW29182   4.463   0.739  14.651 -0.6067 -0.2759 -0.3339
 5908SOL    HW129183   4.500   0.820  14.688 -2.3191  0.1860  0.3879
 5908SOL    HW229184   4.508   0.716  14.570 -0.5341  1.3898 -0.7727
 5909SOL     OW29185   4.663   3.756   1.665  0.0242 -0.2437 -0.0323
 5909SOL    HW129186   4.584   3.782   1.618  0.1066  0.4189  0.2027
 5909SOL    HW229187   4.635   3.765   1.756 -1.6263  1.5176 -0.7416
 5910SOL     OW29188   3.326   2.720  10.266  0.4627  0.2217  0.9973
 5910SOL    HW129189   3.418   2.741  10.247  1.6168 -2.7864  3.1568
 5910SOL    HW229190   3.272   2.703  10.189  2.9380 -3.2174 -0.0021
 5911SOL     OW29191   0.057   1.837   2.886  0.2401 -0.0077  0.1996
 5911SOL    HW129192   0.063   1.764   2.823  2.4183 -0.4905  0.9667
 5911SOL    HW229193   4.704   1.876   2.839  0.8577  1.5083  0.5041
 5912SOL     OW29194   1.529   2.297   2.630 -0.1979  0.0580 -0.1105
 5912SOL    HW129195   1.512   2.355   2.704  1.5137 -1.0178  1.1137
 5912SOL    HW229196   1.476   2.332   2.559  0.1848 -0.5403 -0.6913
 5913SOL     OW29197   0.248   4.524   5.068 -0.2156  0.4619  0.0053
 5913SOL    HW129198   0.325   4.548   5.119 -0.8078  1.4937  0.4061
 5913SOL    HW229199   0.185   4.521   5.139 -1.3992 -2.8455 -1.2231
 5914SOL     OW29200   0.896   4.132   1.420 -0.0632 -0.0347  0.7310
 5914SOL    HW129201   0.906   4.037   1.412 -1.2525 -0.2241  1.4736
 5914SOL    HW229202   0.974   4.160   1.467 -0.7482 -0.2174  1.9719
 5915SOL     OW29203   1.599   1.644   8.276  0.0958  0.7506 -0.5291
 5915SOL    HW129204   1.514   1.686   8.264  0.1149  1.2530  1.1706
 5915SOL    HW229205   1.640   1.715   8.325  2.3966 -0.8193 -0.1712
 5916SOL     OW29206   3.187   0.723   2.380 -0.1568  0.0001 -0.5844
 5916SOL    HW129207   3.110   0.669   2.396 -0.3259  0.2289 -0.6204
 5916SOL    HW229208   3.166   0.797   2.438  1.3120 -0.0293 -0.0238
 5917SOL     OW29209   2.778   4.442   7.472  0.5804 -0.1452  0.5516
 5917SOL    HW129210   2.837   4.507   7.436 -4.0431  3.4310 -0.5087
 5917SOL    HW229211   2.700   4.458   7.418  0.1855 -0.8858  0.8895
 5918SOL     OW29212   0.136   3.336   7.054  0.7839  0.4664  0.1143
 5918SOL    HW129213   0.116   3.290   6.972  0.3600  2.5092 -0.9166
 5918SOL    HW229214   0.072   3.300   7.115 -0.6341  0.7653 -1.1860
 5919SOL     OW29215   0.805   1.573   5.082  0.1301 -0.1456 -0.1947
 5919SOL    HW129216   0.814   1.485   5.047  0.0169 -0.1026 -0.3327
 5919SOL    HW229217   0.790   1.625   5.003  1.0073 -0.3503 -0.4990
 5920SOL     OW29218   4.521   1.728  12.477 -0.1484 -0.1125  0.1820
 5920SOL    HW129219   4.445   1.696  12.526 -0.9747  0.1659 -0.9205
 5920SOL    HW229220   4.561   1.658  12.426 -0.5497 -1.0299  1.1222
 5921SOL     OW29221   3.927   3.307   8.314  0.1945 -0.3754 -0.1233
 5921SOL    HW129222   4.003   3.270   8.270 -0.1646  2.2230 -2.8734
 5921SOL    HW229223   3.918   3.387   8.263  2.7071  1.2786  2.0383
 5922SOL     OW29224   0.267   0.818   6.139  0.4714  0.2474 -0.0575
 5922SOL    HW129225   0.301   0.897   6.097 -2.4580  1.5534  0.0420
 5922SOL    HW229226   0.342   0.759   6.149 -0.9542 -1.7763 -1.2424
 5923SOL     OW29227   0.465   0.911   5.457  0.2925  0.1356  0.0734
 5923SOL    HW129228   0.512   0.840   5.501 -1.3699 -1.0193 -0.0012
 5923SOL    HW229229   0.524   0.985   5.448 -1.1151  1.3286  0.6680
 5924SOL     OW29230   2.179   3.575   3.994  0.2689  0.0776  0.2131
 5924SOL    HW129231   2.240   3.644   3.966 -0.9929  0.1876 -2.2437
 5924SOL    HW229232   2.196   3.564   4.088 -1.4242  2.2056  0.7591
 5925SOL     OW29233   1.173   1.082  14.977 -0.3863 -0.0440 -0.5898
 5925SOL    HW129234   1.080   1.069  14.958 -0.6644  0.6877  0.2493
 5925SOL    HW229235   1.185   1.177  14.976 -0.0542 -0.0432  2.5712
 5926SOL     OW29236   0.580   3.605   8.313  0.1780 -0.3000  0.4553
 5926SOL    HW129237   0.654   3.594   8.372  1.1283  0.8220 -0.5394
 5926SOL    HW229238   0.611   3.631   8.226  1.9000  0.2513  1.2440
 5927SOL     OW29239   2.514   2.352  17.375  0.5705 -0.6231  0.5473
 5927SOL    HW129240   2.498   2.271  17.328 -0.0641 -2.0685  3.2239
 5927SOL    HW229241   2.578   2.320  17.438 -0.4457 -1.2554  1.2685
 5928SOL     OW29242   4.408   0.139  17.017 -0.2937 -0.4076  0.5349
 5928SOL    HW129243   4.458   0.155  17.097  4.4348  1.3274 -2.7988
 5928SOL    HW229244   4.473   0.090  16.967  0.0262  0.3308  0.2209
 5929SOL     OW29245   2.619   1.242   2.321  0.1714  0.2194  0.8323
 5929SOL    HW129246   2.618   1.157   2.279 -0.7402  1.0778 -0.8831
 5929SOL    HW229247   2.710   1.269   2.308 -0.9084  3.8576  0.8781
 5930SOL     OW29248   1.114   3.231   4.833 -0.2905  0.4060  0.2156
 5930SOL    HW129249   1.141   3.299   4.895 -0.3486 -0.0074  0.6888
 5930SOL    HW229250   1.083   3.268   4.750  2.1193 -1.6389 -1.6142
 5931SOL     OW29251   1.032   0.570   2.819 -0.9084 -0.2936 -0.5015
 5931SOL    HW129252   1.077   0.537   2.741  0.9636  0.1086  0.3966
 5931SOL    HW229253   1.087   0.643   2.846 -1.2923 -0.6481  1.2483
 5932SOL     OW29254   3.314   1.194   6.263 -0.7144  0.2758  0.2497
 5932SOL    HW129255   3.331   1.118   6.207 -2.1896  0.2236 -0.1242
 5932SOL    HW229256   3.384   1.198   6.328 -1.7454 -0.8271  1.4363
 5933SOL     OW29257   1.425   4.702   4.991 -0.1686  0.3682 -0.6375
 5933SOL    HW129258   1.429   4.607   4.987  2.1063  0.4742 -0.6180
 5933SOL    HW229259   1.442   4.700   5.085 -0.2366 -0.4519 -0.6471
 5934SOL     OW29260   0.418   2.394   6.712 -0.1964 -0.5028 -0.1804
 5934SOL    HW129261   0.343   2.373   6.769  1.6714 -3.1746  1.2776
 5934SOL    HW229262   0.437   2.303   6.689  1.5283 -0.1319 -0.1969
 5935SOL     OW29263   2.266   0.106  10.305 -0.4789  0.0769 -0.4423
 5935SOL    HW129264   2.209   0.080  10.377 -0.6683 -0.2005 -0.6914
 5935SOL    HW229265   2.346   0.058  10.328 -2.5478 -2.4498  1.5316
 5936SOL     OW29266   4.275   0.669  11.748  0.2444  0.1425 -0.9843
 5936SOL    HW129267   4.330   0.745  11.733 -1.4380  1.4944 -0.2831
 5936SOL    HW229268   4.323   0.598  11.704 -0.5637 -1.4882  0.7477
 5937SOL     OW29269   2.441   0.784   9.982 -0.1429 -0.3947  0.3874
 5937SOL    HW129270   2.398   0.833  10.052  0.0706  0.9193 -0.3893
 5937SOL    HW229271   2.368   0.774   9.920 -0.5792 -3.0236  1.3517
 5938SOL     OW29272   3.090   0.779   3.010 -0.3419  0.1135 -0.7074
 5938SOL    HW129273   3.060   0.718   3.078  0.6146  0.4329 -0.0012
 5938SOL    HW229274   3.084   0.868   3.046 -1.1887  0.6911 -2.2697
 5939SOL     OW29275   3.466   3.570  17.142 -0.8899  0.1759  0.2126
 5939SOL    HW129276   3.385   3.533  17.177 -0.2585  1.0345  2.6049
 5939SOL    HW229277   3.439   3.662  17.144  0.7465  0.6588  0.3344
 5940SOL     OW29278   4.472   4.139   8.397  0.2471 -0.6672 -0.4365
 5940SOL    HW129279   4.546   4.083   8.420 -0.6413 -1.9973 -0.7621
 5940SOL    HW229280   4.473   4.213   8.457 -0.8700  0.2978 -1.6146
 5941SOL     OW29281   0.663   1.856   9.244  0.1807 -0.1289  0.3887
 5941SOL    HW129282   0.670   1.794   9.316  3.0801  2.1730  2.1183
 5941SOL    HW229283   0.753   1.858   9.211 -0.5641  2.5717 -1.5116
 5942SOL     OW29284   4.315   1.377   4.238  0.6845  0.0531 -0.5779
 5942SOL    HW129285   4.305   1.296   4.288  1.4037 -0.2842 -0.9799
 5942SOL    HW229286   4.353   1.440   4.300  2.4194 -0.5327 -1.0588
 5943SOL     OW29287   4.683   2.080   5.286 -0.1144 -0.1190 -0.4248
 5943SOL    HW129288   0.017   2.151   5.319  0.6362 -1.8147  1.9803
 5943SOL    HW229289   4.626   2.060   5.360 -0.6694  0.1427 -0.7810
 5944SOL     OW29290   4.329   1.999   4.006  0.5548  0.0794 -0.5001
 5944SOL    HW129291   4.299   1.934   4.069 -1.1883  0.1445 -1.2832
 5944SOL    HW229292   4.283   2.077   4.037  2.4674  0.4940  1.3170
 5945SOL     OW29293   3.552   2.436   9.879  0.1264 -0.5373 -0.2373
 5945SOL    HW129294   3.537   2.344   9.861 -1.9083 -0.1965 -0.2363
 5945SOL    HW229295   3.636   2.450   9.835  0.0977 -2.8099 -1.0066
 5946SOL     OW29296   0.104   1.433   4.910 -0.3797  0.2871 -0.3786
 5946SOL    HW129297   0.117   1.526   4.893 -0.0550  0.3030 -0.0428
 5946SOL    HW229298   0.076   1.402   4.824  1.1705 -0.4845 -0.6123
 5947SOL     OW29299   0.298   0.181   6.883  0.0114 -0.5917  0.6890
 5947SOL    HW129300   0.245   0.123   6.828  0.3661  0.9424 -1.2834
 5947SOL    HW229301   0.242   0.188   6.961 -2.2475 -2.2764 -0.7693
 5948SOL     OW29302   3.916   4.360   3.411 -0.4167  0.0854 -0.3273
 5948SOL    HW129303   3.912   4.421   3.337 -0.9384  1.3426  0.7546
 5948SOL    HW229304   3.832   4.315   3.409 -0.2898 -0.2202  1.2426
 5949SOL     OW29305   1.400   2.042   6.591 -0.4316 -0.2332 -0.5280
 5949SOL    HW129306   1.386   1.949   6.608  0.1675  0.2218  2.4713
 5949SOL    HW229307   1.354   2.090   6.660 -1.3147 -1.1494 -0.4874
 5950SOL     OW29308   2.613   0.928  13.945 -0.5974 -0.3518  0.4218
 5950SOL    HW129309   2.669   0.908  14.020  0.2625 -1.5684 -0.5386
 5950SOL    HW229310   2.639   0.856  13.887  1.9455  0.1245  0.9825
 5951SOL     OW29311   0.578   2.399   8.681 -0.1752 -0.2285 -0.2319
 5951SOL    HW129312   0.578   2.337   8.754  0.3928  1.0038  0.8155
 5951SOL    HW229313   0.628   2.346   8.619 -0.5651 -0.3107 -0.4775
 5952SOL     OW29314   4.300   4.142   6.386  0.5655 -0.2896  0.3103
 5952SOL    HW129315   4.233   4.210   6.394  2.0807  1.1913  0.4610
 5952SOL    HW229316   4.318   4.141   6.480 -0.4152  0.9820  0.5132
 5953SOL     OW29317   1.634   2.086   6.032  0.1009  0.2663 -0.1388
 5953SOL    HW129318   1.549   2.080   5.988  0.5185  0.2162 -0.9361
 5953SOL    HW229319   1.683   2.111   5.954  2.3178 -2.0455  0.5173
 5954SOL     OW29320   3.501   2.460  10.376 -0.0801  0.4163 -0.2445
 5954SOL    HW129321   3.539   2.439  10.291  3.0468 -0.3554  1.3364
 5954SOL    HW229322   3.529   2.379  10.419 -1.0471 -0.2763 -0.9364
 5955SOL     OW29323   1.366   1.662  11.462 -0.1464  0.0343  0.3899
 5955SOL    HW129324   1.371   1.645  11.368  0.1391 -1.4673  0.6882
 5955SOL    HW229325   1.448   1.624  11.494  0.1358  1.1403  1.0004
 5956SOL     OW29326   2.256   4.021   2.997 -0.7887 -0.1160  0.4176
 5956SOL    HW129327   2.306   4.056   3.070  0.0702  2.3237 -1.3473
 5956SOL    HW229328   2.308   4.062   2.928 -1.7777 -1.0445 -0.9183
 5957SOL     OW29329   1.755   1.820   3.965  0.2756 -1.0226  0.1945
 5957SOL    HW129330   1.826   1.866   3.919  0.8675 -1.0156  1.1086
 5957SOL    HW229331   1.719   1.781   3.885  0.8691  2.2921 -1.6921
 5958SOL     OW29332   0.120   1.092   6.268 -0.3764 -0.4999  0.0803
 5958SOL    HW129333   0.114   1.006   6.310  0.6482 -0.9300 -0.6421
 5958SOL    HW229334   0.092   1.055   6.185 -1.0166  1.9960 -0.8102
 5959SOL     OW29335   0.748   1.508   5.488  0.0539 -0.3159  0.4064
 5959SOL    HW129336   0.654   1.494   5.497 -0.6525  4.0264 -0.3074
 5959SOL    HW229337   0.753   1.589   5.438  1.7197  0.4456  1.7735
 5960SOL     OW29338   3.193   3.846   2.252 -0.4885  0.3309  0.0037
 5960SOL    HW129339   3.224   3.858   2.341 -0.0377  0.2865 -0.1486
 5960SOL    HW229340   3.097   3.848   2.259 -0.5571 -2.1640 -0.2208
 5961SOL     OW29341   3.456   3.791   5.737  0.1047  0.4002  0.3655
 5961SOL    HW129342   3.535   3.755   5.695 -0.3379  0.9224 -0.9079
 5961SOL    HW229343   3.497   3.835   5.812 -2.5072  2.5134  0.5284
 5962SOL     OW29344   3.770   3.610   7.204  0.1098  0.1662  0.5589
 5962SOL    HW129345   3.769   3.697   7.164 -1.7654 -0.0365  0.1691
 5962SOL    HW229346   3.831   3.570   7.142 -0.2941 -0.9499  0.8869
 5963SOL     OW29347   3.563   4.699  15.118  0.2022  0.1667  0.5944
 5963SOL    HW129348   3.591   4.650  15.041 -1.2604  1.0859 -0.5266
 5963SOL    HW229349   3.642   0.005  15.166 -0.8837  0.5422  2.1727
 5964SOL     OW29350   0.400   3.657  11.090 -0.8765  0.0081 -0.6522
 5964SOL    HW129351   0.335   3.590  11.072 -1.4792 -0.4723  3.2320
 5964SOL    HW229352   0.468   3.645  11.025  0.1579  1.1011  0.2127
 5965SOL     OW29353   0.377   4.535   0.718  0.3074 -0.3680  0.4198
 5965SOL    HW129354   0.460   4.493   0.697 -0.5547 -0.8364 -2.1714
 5965SOL    HW229355   0.319   4.472   0.674  0.7719 -1.4799  1.4277
 5966SOL     OW29356   1.113   2.116   8.824  0.5122 -0.9615 -0.3330
 5966SOL    HW129357   1.075   2.102   8.911  1.7126 -0.8893  0.1956
 5966SOL    HW229358   1.200   2.151   8.844  0.7349 -1.3504 -0.6359
 5967SOL     OW29359   0.688   0.418   3.804 -0.0953  0.3153 -0.1223
 5967SOL    HW129360   0.750   0.386   3.870 -2.4232 -0.2389  1.8038
 5967SOL    HW229361   0.742   0.381   3.734 -0.2903  0.7618 -0.5058
 5968SOL     OW29362   0.853   1.686   6.127 -0.0167 -0.3885  0.0141
 5968SOL    HW129363   0.768   1.657   6.161 -0.2491 -0.7278 -0.8500
 5968SOL    HW229364   0.822   1.772   6.101 -0.5197 -0.1505  1.4178
 5969SOL     OW29365   1.666   1.976   6.276 -0.0239 -0.7556 -0.4444
 5969SOL    HW129366   1.596   2.015   6.329  0.0356 -0.9291 -0.2346
 5969SOL    HW229367   1.649   2.015   6.191  0.9592  0.8100  0.0853
 5970SOL     OW29368   3.005   3.812   7.729  0.1923  0.6266  0.2563
 5970SOL    HW129369   2.951   3.851   7.661 -0.0785 -0.2248 -0.0194
 5970SOL    HW229370   3.016   3.728   7.684  2.2338  0.7262  0.5475
 5971SOL     OW29371   4.712   1.229   5.060  0.2080 -0.3282 -0.0591
 5971SOL    HW129372   0.038   1.310   5.039 -1.1625  0.3115 -0.6598
 5971SOL    HW229373   4.680   1.209   4.972  2.3389 -2.0219 -0.4403
 5972SOL     OW29374   0.837   2.671   5.372 -0.6284 -0.5933 -0.1600
 5972SOL    HW129375   0.879   2.717   5.300 -1.0937 -1.3097 -0.8983
 5972SOL    HW229376   0.749   2.670   5.335  0.1654  1.9747 -2.1136
 5973SOL     OW29377   2.060   0.863   3.355  0.1687 -0.5006 -0.5647
 5973SOL    HW129378   2.077   0.864   3.261  0.1003  0.0250 -0.5684
 5973SOL    HW229379   1.970   0.829   3.357  0.4357 -1.2573 -1.3844
 5974SOL     OW29380   2.793   2.946   3.339  0.2525  0.2850 -0.4572
 5974SOL    HW129381   2.799   2.851   3.347 -2.2380  0.1775 -0.0003
 5974SOL    HW229382   2.786   2.959   3.245 -0.2917  2.1434 -0.1608
 5975SOL     OW29383   1.299   1.897   8.638  0.0285  0.5512  0.2891
 5975SOL    HW129384   1.218   1.853   8.614 -0.6365  2.4529 -0.9668
 5975SOL    HW229385   1.308   1.858   8.725 -2.8102 -0.2360  0.2276
 5976SOL     OW29386   4.118   4.464   1.379  0.1819 -0.1733 -0.1951
 5976SOL    HW129387   4.184   4.469   1.448 -0.8872  0.1603  0.7976
 5976SOL    HW229388   4.068   4.544   1.392 -0.9314 -0.2782 -3.9689
 5977SOL     OW29389   0.253   3.493  15.273 -0.1335 -0.8311  0.2480
 5977SOL    HW129390   0.331   3.549  15.280  0.4406 -1.4756 -1.2228
 5977SOL    HW229391   0.193   3.560  15.308 -1.3833 -0.5983 -2.3731
 5978SOL     OW29392   0.317   1.483   2.399 -0.0644  0.2540  0.0904
 5978SOL    HW129393   0.279   1.398   2.379  2.4280 -0.3278 -2.1430
 5978SOL    HW229394   0.291   1.497   2.491 -2.3824  1.3193 -0.7257
 5979SOL     OW29395   3.659   4.676   4.432  0.3865  0.0115  0.5509
 5979SOL    HW129396   3.592   4.699   4.368  2.6018  0.8318 -1.5051
 5979SOL    HW229397   3.686   4.587   4.410  2.4418  0.3500  1.6630
 5980SOL     OW29398   1.835   1.815   7.314 -0.4524  0.0668  0.1359
 5980SOL    HW129399   1.928   1.833   7.327 -0.8393  0.9229  1.8385
 5980SOL    HW229400   1.796   1.885   7.367  2.0595  0.6751  1.1594
 5981SOL     OW29401   4.294   1.085  14.562 -0.2770  0.0407  0.2233
 5981SOL    HW129402   4.370   1.079  14.619  0.5872  0.7373 -0.8596
 5981SOL    HW229403   4.334   1.040  14.487 -0.3003  2.8857 -1.5039
 5982SOL     OW29404   3.665   2.504   1.251  0.5710 -0.5267  0.1728
 5982SOL    HW129405   3.646   2.506   1.158 -0.3168  0.9547  0.3845
 5982SOL    HW229406   3.599   2.440   1.281  0.1543 -1.0731 -1.9162
 5983SOL     OW29407   0.793   2.910   8.683  0.1054  0.4677 -0.0463
 5983SOL    HW129408   0.741   2.976   8.638 -1.5113  1.6239  3.5233
 5983SOL    HW229409   0.779   2.946   8.770  1.0325  2.3580 -0.6908
 5984SOL     OW29410   4.395   3.256  13.739  0.1505  0.4385 -0.1250
 5984SOL    HW129411   4.374   3.172  13.779 -1.3654  1.6875  1.7293
 5984SOL    HW229412   4.444   3.290  13.814  0.4078 -1.3526  0.5209
 5985SOL     OW29413   0.942   0.975   9.954  0.4450 -0.6744 -0.1038
 5985SOL    HW129414   1.025   1.022   9.965  0.9150 -1.5363  0.0783
 5985SOL    HW229415   0.975   0.890   9.984 -0.0779 -1.4631 -1.7877
 5986SOL     OW29416   4.232   3.222   0.904  0.2270 -0.1252  0.3395
 5986SOL    HW129417   4.248   3.201   0.812 -0.9835 -0.3368  0.1856
 5986SOL    HW229418   4.237   3.318   0.906  0.7584 -0.1364 -0.6278
 5987SOL     OW29419   2.567   1.753   6.803  0.4918 -0.1802  0.0006
 5987SOL    HW129420   2.627   1.817   6.842  1.0839  0.5448 -2.1381
 5987SOL    HW229421   2.493   1.814   6.807 -1.4492 -2.4829 -1.0945
 5988SOL     OW29422   4.200   0.199   6.232  0.2145  0.5687 -0.5362
 5988SOL    HW129423   4.106   0.189   6.222  0.2552 -0.8234  0.5298
 5988SOL    HW229424   4.220   0.274   6.175  1.2316 -0.5770 -1.7007
 5989SOL     OW29425   4.341   2.237   6.199  0.1944  0.8493 -0.7142
 5989SOL    HW129426   4.409   2.180   6.163 -0.6434 -0.5697 -0.0305
 5989SOL    HW229427   4.328   2.196   6.284  1.7439  0.3215 -0.7241
 5990SOL     OW29428   0.487   4.317   1.829 -0.0992  0.3685  0.0898
 5990SOL    HW129429   0.525   4.259   1.895  1.5725 -0.0798 -1.2638
 5990SOL    HW229430   0.436   4.376   1.885  1.4113  0.5475  1.2570
 5991SOL     OW29431   3.603   0.896   8.251  0.0393  0.4835 -0.0523
 5991SOL    HW129432   3.626   0.887   8.158 -1.3614  0.2624 -0.3793
 5991SOL    HW229433   3.510   0.874   8.248  0.2794 -0.3844 -0.9031
 5992SOL     OW29434   4.656   1.743  10.818  0.3970 -0.3180 -0.4640
 5992SOL    HW129435   4.597   1.793  10.761  0.6053  0.4376 -0.0121
 5992SOL    HW229436   4.669   1.817  10.877 -0.4230 -0.2328 -0.3824
 5993SOL     OW29437   2.231   1.747   4.334 -0.0399 -0.3447  0.5681
 5993SOL    HW129438   2.193   1.779   4.252  1.7313  1.3188  0.4329
 5993SOL    HW229439   2.167   1.784   4.394 -0.9717 -1.2641  0.1646
 5994SOL     OW29440   2.386   2.351   9.141 -0.3215  0.1932 -0.2085
 5994SOL    HW129441   2.428   2.434   9.118 -2.3906  0.9236 -1.3699
 5994SOL    HW229442   2.457   2.287   9.140  0.9742  1.6211  0.5755
 5995SOL     OW29443   2.800   1.877   7.251 -0.3531  0.0454  0.5438
 5995SOL    HW129444   2.730   1.812   7.255  0.0393 -0.3860  0.5344
 5995SOL    HW229445   2.770   1.956   7.206 -0.7242  0.1082  0.9112
 5996SOL     OW29446   1.294   0.367   7.468 -0.7849 -0.1386 -0.4311
 5996SOL    HW129447   1.278   0.274   7.485  3.2394 -1.0160 -1.4970
 5996SOL    HW229448   1.232   0.380   7.395 -0.1645  2.7680 -0.4166
 5997SOL     OW29449   1.712   1.535  11.126  0.2905  0.0757  0.0120
 5997SOL    HW129450   1.669   1.576  11.051 -2.4417 -1.0654  0.9427
 5997SOL    HW229451   1.649   1.530  11.198  0.6429 -0.8493  0.2510
 5998SOL     OW29452   0.578   0.993   2.816 -0.1580 -0.1811 -0.8298
 5998SOL    HW129453   0.591   1.023   2.726 -1.1149  0.4766 -0.7562
 5998SOL    HW229454   0.493   0.954   2.798 -1.0220  0.4311  1.7920
 5999SOL     OW29455   4.446   1.743  11.136 -0.1387  0.0985 -0.0814
 5999SOL    HW129456   4.519   1.682  11.146 -0.3547 -0.4410 -1.6812
 5999SOL    HW229457   4.464   1.802  11.209 -2.6087  0.4476  0.2495
 6000SOL     OW29458   3.753   2.052   3.934 -0.0033 -0.4184  0.3281
 6000SOL    HW129459   3.823   1.993   3.962  0.3004 -0.3643 -0.3161
 6000SOL    HW229460   3.691   2.043   4.006  0.7540  2.0975  1.2767
 6001SOL     OW29461   2.538   2.114  17.194 -0.1036  0.4931 -0.0372
 6001SOL    HW129462   2.604   2.044  17.200 -0.9412 -0.1404  1.6814
 6001SOL    HW229463   2.504   2.105  17.105 -1.4286 -1.4748  0.6665
 6002SOL     OW29464   2.159   2.360  10.709  0.3025  0.4520 -0.1774
 6002SOL    HW129465   2.248   2.393  10.691  0.5758 -0.4868 -0.5767
 6002SOL    HW229466   2.143   2.319  10.623  1.1237  0.4061 -0.3146
 6003SOL     OW29467   2.729   1.685   3.867  0.1608 -0.2400  0.2432
 6003SOL    HW129468   2.779   1.616   3.911 -0.7016 -0.5997  0.6711
 6003SOL    HW229469   2.649   1.678   3.919 -1.5761  1.0824 -2.2445
 6004SOL     OW29470   3.761   4.695   7.550 -0.3249 -0.8246 -0.7641
 6004SOL    HW129471   3.736   4.605   7.531  1.3569 -1.2379 -1.0515
 6004SOL    HW229472   3.698   4.720   7.617 -0.3966  0.3698 -1.2675
 6005SOL     OW29473   4.059   1.342   4.456  0.2778  0.7752  0.0932
 6005SOL    HW129474   4.124   1.272   4.460  0.6760  1.0703 -1.1427
 6005SOL    HW229475   4.017   1.334   4.542 -0.6656  1.2390 -0.3241
 6006SOL     OW29476   2.017   4.536   8.659 -0.6027  0.3534  0.9437
 6006SOL    HW129477   2.109   4.541   8.683 -0.4929  2.1361  0.1637
 6006SOL    HW229478   2.029   4.588   8.579  0.0061 -1.3056 -0.0285
 6007SOL     OW29479   2.203   2.494  11.019  0.3767  0.3447 -1.0094
 6007SOL    HW129480   2.139   2.555  11.056 -0.3159 -1.0297  0.0717
 6007SOL    HW229481   2.270   2.557  10.993  0.2195  0.5215 -0.9821
 6008SOL     OW29482   0.819   2.072   0.923 -0.0984 -0.1804 -0.4525
 6008SOL    HW129483   0.775   2.036   0.846 -0.2921 -2.5362  0.7512
 6008SOL    HW229484   0.765   2.146   0.952 -0.2770 -1.0433  1.3905
 6009SOL     OW29485   0.983   3.321   6.666 -0.3117 -0.2726 -0.2844
 6009SOL    HW129486   0.957   3.303   6.756 -0.3023  0.7755 -0.0820
 6009SOL    HW229487   1.075   3.342   6.684  0.3027 -1.2214 -2.2021
 6010SOL     OW29488   3.162   1.207   8.450 -0.1667 -0.5290  0.0492
 6010SOL    HW129489   3.169   1.226   8.543  0.3309  1.3435 -0.3600
 6010SOL    HW229490   3.070   1.232   8.435  0.2750  0.6118 -0.7739
 6011SOL     OW29491   0.792   3.835   3.517  0.3671 -0.3416  0.1676
 6011SOL    HW129492   0.868   3.884   3.486  0.7758 -1.5874 -0.8420
 6011SOL    HW229493   0.799   3.849   3.611  1.9382  0.0528 -0.0095
 6012SOL     OW29494   0.362   1.914   4.692  0.1175 -0.1675  0.4806
 6012SOL    HW129495   0.347   1.822   4.710  1.7843 -0.1078  2.1022
 6012SOL    HW229496   0.390   1.937   4.781  0.8336  0.8821 -0.0100
 6013SOL     OW29497   2.912   0.383   2.508  0.4380 -0.7864  0.2494
 6013SOL    HW129498   2.978   0.448   2.534  0.0510 -0.0305 -0.6802
 6013SOL    HW229499   2.863   0.427   2.438  0.3481 -0.3398  0.5946
 6014SOL     OW29500   2.735   0.705  13.816  0.1440 -0.1355 -0.0521
 6014SOL    HW129501   2.681   0.626  13.809  0.7619 -0.4153 -1.5703
 6014SOL    HW229502   2.782   0.686  13.898  1.8719  1.5960 -0.6684
 6015SOL     OW29503   2.081   2.242   9.401 -0.1639 -0.2026  0.2725
 6015SOL    HW129504   2.034   2.325   9.411  0.5198  0.2759 -0.4042
 6015SOL    HW229505   2.005   2.194   9.368 -1.0742  0.1840  1.8214
 6016SOL     OW29506   2.064   0.811   2.443  0.2599  0.7174  0.5921
 6016SOL    HW129507   2.111   0.736   2.406  0.9736  1.8680 -0.8413
 6016SOL    HW229508   1.988   0.762   2.473 -0.1137  0.6738 -0.4219
 6017SOL     OW29509   1.831   0.277   0.222 -0.0329 -0.3518  0.6151
 6017SOL    HW129510   1.741   0.270   0.191 -0.6339  0.9716  2.0964
 6017SOL    HW229511   1.874   0.259   0.138  1.0590 -1.7220  1.4555
 6018SOL     OW29512   0.134   1.148   5.991  0.0565  0.4235  0.6007
 6018SOL    HW129513   0.128   1.170   5.898  1.6435 -0.7629  0.2158
 6018SOL    HW229514   0.226   1.125   6.008 -0.3852 -2.0956 -0.5319
 6019SOL     OW29515   0.340   2.485  10.065 -0.1676 -0.3453  0.0905
 6019SOL    HW129516   0.418   2.443  10.031  0.5433  0.4311  0.7712
 6019SOL    HW229517   0.340   2.564  10.010  0.3705  0.4592  1.2405
 6020SOL     OW29518   1.818   0.865   8.684  0.5812 -0.0567  0.1580
 6020SOL    HW129519   1.744   0.900   8.635  0.9074 -0.9686 -0.9625
 6020SOL    HW229520   1.798   0.772   8.685 -0.7922  0.2364  0.0940
 6021SOL     OW29521   0.484   2.654   3.397 -0.6323  0.0549  0.9672
 6021SOL    HW129522   0.546   2.711   3.351 -1.1264 -0.7745 -0.7271
 6021SOL    HW229523   0.428   2.723   3.433  2.3304  3.5269 -0.9839
 6022SOL     OW29524   1.402   4.422   5.000 -0.9051 -0.3186  0.3897
 6022SOL    HW129525   1.415   4.336   4.960 -1.2174  0.1402 -0.6893
 6022SOL    HW229526   1.424   4.402   5.091 -1.9912 -0.3448  0.6392
 6023SOL     OW29527   3.358   0.467  10.914  0.4815 -0.4328  0.2497
 6023SOL    HW129528   3.345   0.374  10.899 -0.5883 -0.3527  0.6638
 6023SOL    HW229529   3.414   0.471  10.991 -0.2166 -2.5525  0.8473
 6024SOL     OW29530   1.914   2.621   5.426 -0.0485  0.2452  0.2633
 6024SOL    HW129531   1.945   2.567   5.499  0.2078  1.8819  1.3661
 6024SOL    HW229532   1.949   2.706   5.451  0.6879 -0.6786  2.4403
 6025SOL     OW29533   0.792   0.818   2.937  0.7243 -0.1476 -0.5192
 6025SOL    HW129534   0.723   0.876   2.903 -0.3653 -1.0034  0.2201
 6025SOL    HW229535   0.750   0.732   2.936  0.9270 -0.2691  2.0798
 6026SOL     OW29536   2.407   4.658   7.579  0.2430 -1.0460  0.6436
 6026SOL    HW129537   2.459   4.579   7.596  0.5064 -1.0401 -0.1399
 6026SOL    HW229538   2.362   4.626   7.501 -2.4426  1.4757  1.1598
 6027SOL     OW29539   0.456   4.619   2.829  0.1693 -0.5290 -0.1081
 6027SOL    HW129540   0.506   4.539   2.814  1.1371 -0.2340  1.5230
 6027SOL    HW229541   0.379   4.607   2.774  0.6760  0.5322 -1.0588
 6028SOL     OW29542   3.862   2.776   2.881 -0.8795 -0.1121  0.2446
 6028SOL    HW129543   3.868   2.800   2.974 -1.3931  0.1772  0.2021
 6028SOL    HW229544   3.862   2.681   2.888  0.6653  0.0675  2.8381
 6029SOL     OW29545   3.415   1.450   6.204 -0.5944  0.5963 -0.0037
 6029SOL    HW129546   3.342   1.494   6.160 -0.8460  0.6381  0.4617
 6029SOL    HW229547   3.360   1.372   6.213 -1.9121  1.2510 -2.3343
 6030SOL     OW29548   0.638   1.999   5.133  0.8025 -0.0480  0.3333
 6030SOL    HW129549   0.704   1.941   5.171  0.4482 -0.0197  0.9865
 6030SOL    HW229550   0.689   2.081   5.131 -0.8532  1.0123  1.4970
 6031SOL     OW29551   4.537   1.686  17.419  0.2942  0.1049 -0.0823
 6031SOL    HW129552   4.545   1.681  17.514 -1.2285  0.0642  0.0417
 6031SOL    HW229553   4.448   1.655  17.405 -0.7472  1.2985  3.9145
 6032SOL     OW29554   4.398   4.151   1.676  0.4122 -0.4014  0.3723
 6032SOL    HW129555   4.361   4.074   1.721 -0.6967  0.4657  0.9647
 6032SOL    HW229556   4.417   4.203   1.755  0.7732  0.5690 -0.3594
 6033SOL     OW29557   0.557   4.117  16.412 -0.1514  0.1700  0.0961
 6033SOL    HW129558   0.561   4.145  16.504 -3.2886 -0.0045  0.2746
 6033SOL    HW229559   0.467   4.144  16.393  0.8887  2.3711 -1.7075
 6034SOL     OW29560   3.698   2.260   8.496  0.4509 -0.4087 -0.0398
 6034SOL    HW129561   3.704   2.221   8.584  0.1462 -3.7029 -1.4875
 6034SOL    HW229562   3.776   2.314   8.491 -0.1204  0.4645  0.4049
 6035SOL     OW29563   1.937   0.577   6.436  0.0820 -0.4078  0.3812
 6035SOL    HW129564   1.846   0.571   6.466 -0.4590 -3.7328 -1.9672
 6035SOL    HW229565   1.973   0.650   6.486 -0.5759  0.4888 -0.4537
 6036SOL     OW29566   2.596   0.665   6.689 -0.0542 -0.9604  0.1904
 6036SOL    HW129567   2.644   0.589   6.720  2.5325  0.6822  0.2309
 6036SOL    HW229568   2.555   0.626   6.612 -0.7120 -1.5535  0.8491
 6037SOL     OW29569   0.739   3.404  13.189  0.6407 -0.0039 -0.0093
 6037SOL    HW129570   0.665   3.420  13.130  0.1443 -0.7690  0.4173
 6037SOL    HW229571   0.703   3.447  13.267  0.5857 -1.8949  0.9967
 6038SOL     OW29572   0.068   3.050   0.909  0.3925  0.5469  0.0625
 6038SOL    HW129573   0.126   3.125   0.902 -0.3670  1.0160 -1.1861
 6038SOL    HW229574   0.105   3.023   0.993  1.9609  0.3701 -0.6834
 6039SOL     OW29575   2.807   2.335  16.564 -0.0803 -0.4508  0.5345
 6039SOL    HW129576   2.813   2.379  16.480  1.8488  0.4999  1.1743
 6039SOL    HW229577   2.853   2.254  16.539 -0.1845 -0.5971  0.8112
 6040SOL     OW29578   4.078   3.306  15.263 -0.0129  0.0770 -0.0270
 6040SOL    HW129579   4.102   3.359  15.340 -0.1184 -0.2725  0.2477
 6040SOL    HW229580   4.012   3.359  15.218 -1.3130 -1.0445  0.5746
 6041SOL     OW29581   2.135   3.309   5.810  0.0240 -0.4507 -0.3165
 6041SOL    HW129582   2.059   3.279   5.860 -1.4121  2.8378 -0.5336
 6041SOL    HW229583   2.156   3.386   5.864  1.5699 -0.3976 -0.9916
 6042SOL     OW29584   1.771   1.229  14.506 -0.7178  0.2494  0.3519
 6042SOL    HW129585   1.825   1.171  14.559 -2.3833 -1.5240  0.1261
 6042SOL    HW229586   1.810   1.205  14.422  1.4714  1.2072  1.1163
 6043SOL     OW29587   4.688   1.343   6.094  0.2765  0.0951 -0.5600
 6043SOL    HW129588   4.604   1.376   6.125 -0.4395 -1.1608 -1.1547
 6043SOL    HW229589   4.670   1.249   6.086 -0.5071  0.1163  1.1180
 6044SOL     OW29590   0.578   3.158  11.405  0.0177  0.4045  0.1346
 6044SOL    HW129591   0.654   3.204  11.441 -1.3985  0.9796  2.4076
 6044SOL    HW229592   0.555   3.119  11.489 -0.3833 -0.1745 -0.2446
 6045SOL     OW29593   1.527   3.516  11.368 -0.1914 -0.2162 -0.1129
 6045SOL    HW129594   1.467   3.579  11.328  0.2174  1.0759  1.3538
 6045SOL    HW229595   1.502   3.432  11.329  1.1654 -0.5383 -0.2972
 6046SOL     OW29596   3.969   2.056   1.678 -0.1397 -0.0720 -0.2732
 6046SOL    HW129597   3.928   2.069   1.593  2.1804  0.9502 -1.2483
 6046SOL    HW229598   3.968   2.145   1.714 -0.0866 -0.6240  1.0855
 6047SOL     OW29599   2.228   2.565  16.286 -0.4053 -0.5417 -0.1562
 6047SOL    HW129600   2.321   2.564  16.308 -0.3239  0.6173 -0.4791
 6047SOL    HW229601   2.184   2.614  16.356 -1.0849 -0.4358 -0.6587
 6048SOL     OW29602   1.867   4.690  15.912 -0.6294  0.0094 -0.1706
 6048SOL    HW129603   1.918   0.050  15.910 -2.3167  1.1067  1.5705
 6048SOL    HW229604   1.781   4.716  15.880 -0.5864  2.1835  1.5090
 6049SOL     OW29605   1.860   3.099  14.582 -0.3356 -0.2032 -0.0272
 6049SOL    HW129606   1.850   3.191  14.609 -0.3880 -0.1174 -0.3322
 6049SOL    HW229607   1.769   3.070  14.586 -0.5757  0.2307 -2.4547
 6050SOL     OW29608   0.320   2.025   9.392  0.2839 -0.5035  0.6004
 6050SOL    HW129609   0.296   2.034   9.300 -0.5285  0.4907  0.9115
 6050SOL    HW229610   0.268   1.946   9.410 -1.8635  0.2555 -2.2282
 6051SOL     OW29611   2.214   1.445  12.003  0.1061 -0.9362  0.2428
 6051SOL    HW129612   2.186   1.446  11.911  0.6888 -0.8103  0.0619
 6051SOL    HW229613   2.179   1.531  12.027 -2.1951 -1.6382 -0.6922
 6052SOL     OW29614   1.165   0.791  17.566 -0.4585  0.3870 -0.1350
 6052SOL    HW129615   1.252   0.755  17.551 -0.2195  0.1385  1.8638
 6052SOL    HW229616   1.185   0.871  17.615  0.4470 -0.7568  1.3637
 6053SOL     OW29617   2.246   4.441   0.556 -0.4884 -0.3736 -0.1397
 6053SOL    HW129618   2.197   4.435   0.475 -0.1100  1.9932 -0.5411
 6053SOL    HW229619   2.299   4.363   0.542 -0.7952 -0.4877 -0.6520
 6054SOL     OW29620   2.680   2.931  16.711  0.4745  0.1906  1.0027
 6054SOL    HW129621   2.620   2.857  16.698 -0.8360  1.4398  0.0252
 6054SOL    HW229622   2.699   2.957  16.621 -1.7591 -1.6512  0.0147
 6055SOL     OW29623   1.569   0.655  10.704  0.6252  0.3457  0.3075
 6055SOL    HW129624   1.497   0.607  10.664 -0.2389  0.2508  1.9609
 6055SOL    HW229625   1.611   0.581  10.748 -0.0486  1.5910  3.0421
 6056SOL     OW29626   1.786   1.587   0.455  0.0584  0.5681 -0.1010
 6056SOL    HW129627   1.871   1.621   0.431  0.0508  0.5926 -0.0932
 6056SOL    HW229628   1.809   1.505   0.499  2.3183  1.6000  0.6078
 6057SOL     OW29629   3.429   3.333   6.342  0.1587  0.6134 -0.0779
 6057SOL    HW129630   3.493   3.364   6.406  2.3240 -2.1815 -0.8379
 6057SOL    HW229631   3.345   3.376   6.356 -0.8612 -1.3025 -0.3698
 6058SOL     OW29632   1.667   3.743   1.107 -0.7290 -0.3441  0.2678
 6058SOL    HW129633   1.700   3.668   1.157 -0.8896 -1.4246 -1.2387
 6058SOL    HW229634   1.736   3.807   1.125  0.2288 -0.9717 -1.2207
 6059SOL     OW29635   0.491   2.657   8.533 -0.0489 -0.4482 -0.4834
 6059SOL    HW129636   0.510   2.587   8.596 -1.3171  0.0693  0.4782
 6059SOL    HW229637   0.416   2.623   8.485 -0.5359  0.3049 -0.2569
 6060SOL     OW29638   0.111   3.068   5.519  0.5342  0.1396  0.4065
 6060SOL    HW129639   0.112   3.040   5.610  0.5204 -0.2397  0.2902
 6060SOL    HW229640   0.199   3.041   5.492  0.4247  2.1757 -2.0258
 6061SOL     OW29641   2.351   2.971   6.557 -0.3240  0.5048  0.2282
 6061SOL    HW129642   2.444   2.963   6.579 -0.8420  1.7440  2.9094
 6061SOL    HW229643   2.316   2.882   6.551  1.0017 -0.0124  0.0645
 6062SOL     OW29644   3.288   2.740   4.810 -0.0165 -0.3914  0.5105
 6062SOL    HW129645   3.360   2.781   4.762 -1.1221 -1.1725 -1.8220
 6062SOL    HW229646   3.321   2.767   4.895  0.5043  0.1818  0.1283
 6063SOL     OW29647   3.402   0.362   4.238  0.3012 -0.3596 -0.8917
 6063SOL    HW129648   3.404   0.426   4.309  3.0779 -0.2469 -1.0837
 6063SOL    HW229649   3.494   0.355   4.212 -0.1797 -2.3813 -2.0969
 6064SOL     OW29650   1.301   1.116   2.382  0.2813  0.6514  0.0051
 6064SOL    HW129651   1.239   1.129   2.455 -0.0422 -0.6022 -0.0473
 6064SOL    HW229652   1.263   1.034   2.351 -0.1067  0.1425  1.8342
 6065SOL     OW29653   1.278   3.349  13.751  0.4487  0.2847 -0.4737
 6065SOL    HW129654   1.289   3.418  13.685 -2.0733 -0.0547 -1.2262
 6065SOL    HW229655   1.333   3.273  13.734  0.5322  0.0046  1.0640
 6066SOL     OW29656   1.163   4.131   1.816 -0.4043  0.6174  0.4148
 6066SOL    HW129657   1.227   4.065   1.842 -2.4184 -0.6386  2.1068
 6066SOL    HW229658   1.149   4.187   1.892 -2.0251 -1.7600  1.8563
 6067SOL     OW29659   3.710   4.020   3.454  0.4716 -0.3073  0.1651
 6067SOL    HW129660   3.646   4.006   3.384  0.4961 -0.3070  0.1426
 6067SOL    HW229661   3.768   4.081   3.407  0.9515 -1.0928 -0.2619
 6068SOL     OW29662   0.747   1.448  15.148  0.4532  0.4696  0.2831
 6068SOL    HW129663   0.677   1.504  15.114 -1.7787 -0.3176  3.5878
 6068SOL    HW229664   0.719   1.360  15.123 -0.1642  0.5129  0.8285
 6069SOL     OW29665   3.298   2.381  10.542 -0.1957 -0.4761 -0.2566
 6069SOL    HW129666   3.368   2.333  10.496  2.2384 -0.0625  2.9996
 6069SOL    HW229667   3.309   2.366  10.636 -0.2705  4.0094  0.4586
 6070SOL     OW29668   4.240   3.841  14.949 -0.1735 -0.1055 -0.1996
 6070SOL    HW129669   4.219   3.914  15.007  0.1469 -0.8030  0.7898
 6070SOL    HW229670   4.167   3.783  14.968 -0.9153  1.8437  2.7635
 6071SOL     OW29671   1.506   1.112   5.196 -0.0683 -0.0390  1.0421
 6071SOL    HW129672   1.433   1.102   5.135  1.2245  1.6119 -0.7925
 6071SOL    HW229673   1.481   1.198   5.229 -1.3977  0.1229 -0.4179
 6072SOL     OW29674   2.425   3.172   4.586  0.3360  0.5208  0.1141
 6072SOL    HW129675   2.409   3.241   4.521 -2.3539 -0.7024 -0.4982
 6072SOL    HW229676   2.480   3.111   4.537  0.0725 -0.1014  0.6031
 6073SOL     OW29677   4.371   4.603   7.484  0.4788  0.4160 -0.2366
 6073SOL    HW129678   4.280   4.607   7.453  0.2666  0.0642  0.3486
 6073SOL    HW229679   4.403   4.538   7.423 -3.3831 -0.4766 -1.3102
 6074SOL     OW29680   3.557   3.023   6.799  0.4234  0.0743 -0.4400
 6074SOL    HW129681   3.650   3.006   6.811  0.1981 -0.9568 -0.1160
 6074SOL    HW229682   3.553   3.111   6.762  0.1559  1.6737  3.4732
 6075SOL     OW29683   0.996   3.139   8.129 -0.2999  0.3722 -0.0536
 6075SOL    HW129684   1.044   3.058   8.113 -0.0841  0.7154 -1.0730
 6075SOL    HW229685   0.959   3.106   8.212  1.0711 -0.5298  0.2101
 6076SOL     OW29686   1.060   1.421   0.132 -0.0758 -0.0643 -0.6047
 6076SOL    HW129687   1.132   1.481   0.111 -0.7730  0.3805 -1.7309
 6076SOL    HW229688   0.993   1.474   0.174 -0.4014  1.1636 -2.6741
 6077SOL     OW29689   1.626   2.838  15.982  0.3430  0.1735  0.3124
 6077SOL    HW129690   1.614   2.849  16.077 -1.9383  0.4789  0.0092
 6077SOL    HW229691   1.549   2.884  15.947  2.1911  1.6695 -1.7333
 6078SOL     OW29692   3.413   0.142  16.209 -0.2649  0.1580 -0.5099
 6078SOL    HW129693   3.353   0.216  16.203 -0.2043  0.3452  1.1915
 6078SOL    HW229694   3.390   0.089  16.132 -0.2943 -0.2788 -0.2049
 6079SOL     OW29695   0.465   3.738   3.338  0.1987  0.1121 -0.0191
 6079SOL    HW129696   0.439   3.829   3.327  1.2506  0.5791  1.2800
 6079SOL    HW229697   0.416   3.700   3.266 -0.1243 -1.2137  0.9025
 6080SOL     OW29698   3.912   4.064  11.557 -0.1859  0.4032 -0.1698
 6080SOL    HW129699   3.973   4.137  11.543 -1.1138  1.2827  0.3404
 6080SOL    HW229700   3.922   3.998  11.489 -0.7031  1.6213 -1.4388
 6081SOL     OW29701   1.883   4.525   0.026  0.0942 -0.2041 -0.0116
 6081SOL    HW129702   1.967   4.563  17.685 -0.7668  1.1827 -0.7623
 6081SOL    HW229703   1.907   4.450   0.079  1.1896  0.0658 -0.1366
 6082SOL     OW29704   1.423   4.690   1.137 -0.0929 -0.5156 -0.1211
 6082SOL    HW129705   1.370   4.648   1.068 -1.5667  0.7837  0.2357
 6082SOL    HW229706   1.363   0.033   1.175  0.6080 -0.2630  0.5506
 6083SOL     OW29707   1.998   4.460   6.006 -0.6153  0.2062 -0.1756
 6083SOL    HW129708   2.064   4.526   5.985 -0.1013 -0.7039 -1.4043
 6083SOL    HW229709   1.985   4.421   5.920 -0.1805 -1.8869  0.7132
 6084SOL     OW29710   2.234   0.474   5.217  0.2999  0.1446  0.0558
 6084SOL    HW129711   2.279   0.559   5.219 -0.1868  0.3940  0.4754
 6084SOL    HW229712   2.288   0.430   5.151  1.3721  1.8242 -0.1923
 6085SOL     OW29713   0.457   3.343   0.304 -0.3106 -0.7447 -0.5713
 6085SOL    HW129714   0.522   3.272   0.312  0.5288 -0.1216 -1.8881
 6085SOL    HW229715   0.491   3.404   0.239  1.3345  0.8163  1.7505
 6086SOL     OW29716   3.991   0.240   3.357  0.5564 -0.3313  0.2261
 6086SOL    HW129717   3.963   0.279   3.440  0.4674  1.3398 -0.5945
 6086SOL    HW229718   3.940   0.160   3.366  0.4606 -0.4471 -1.3216
 6087SOL     OW29719   0.752   2.225  13.663 -0.8014 -0.3497  0.2944
 6087SOL    HW129720   0.724   2.147  13.614  0.2800 -0.5227 -0.0507
 6087SOL    HW229721   0.670   2.275  13.664  0.2863  1.5306 -3.2983
 6088SOL     OW29722   3.798   4.496   1.192  0.5626 -0.1482  0.3538
 6088SOL    HW129723   3.802   4.581   1.234  1.7127  0.0757 -0.2135
 6088SOL    HW229724   3.799   4.431   1.262  3.8264  1.4758  1.7876
 6089SOL     OW29725   0.495   2.082   3.603  0.5025 -0.2413  0.1921
 6089SOL    HW129726   0.502   2.126   3.518 -0.1633  0.5051  0.5202
 6089SOL    HW229727   0.453   2.158   3.644  1.8021  1.2066 -1.1424
 6090SOL     OW29728   4.143   1.969  10.824  0.1334  0.0063 -0.3983
 6090SOL    HW129729   4.148   2.012  10.739 -1.2839  0.3730 -0.3081
 6090SOL    HW229730   4.071   2.014  10.870 -0.1645 -1.8310  0.9456
 6091SOL     OW29731   3.946   0.238  15.660 -0.0457  0.5628  0.2279
 6091SOL    HW129732   4.003   0.192  15.721  1.0268  0.5133 -0.8178
 6091SOL    HW229733   3.875   0.178  15.640  0.9919 -0.9940  1.2124
 6092SOL     OW29734   0.720   1.140   8.022  0.3408  0.5634  0.2933
 6092SOL    HW129735   0.681   1.101   7.945 -0.0539  0.5887  0.4806
 6092SOL    HW229736   0.788   1.076   8.045  1.4791  2.1891  1.4636
 6093SOL     OW29737   3.067   4.645   5.801 -0.0706 -0.4138 -0.3268
 6093SOL    HW129738   2.986   4.621   5.756 -0.4091 -0.1940  0.1808
 6093SOL    HW229739   3.104   4.703   5.734  0.9811 -0.4557  0.2141
 6094SOL     OW29740   2.753   3.956   7.849  0.3799 -0.1797  0.1225
 6094SOL    HW129741   2.767   3.866   7.820  0.0046 -0.5068  0.9691
 6094SOL    HW229742   2.819   3.972   7.916 -0.1211  0.7314  0.3990
 6095SOL     OW29743   1.112   2.532   6.693 -0.6012  0.1228  0.1325
 6095SOL    HW129744   1.175   2.561   6.627 -0.7714  1.0617  0.3840
 6095SOL    HW229745   1.111   2.444   6.655 -1.8890  0.1311  0.1500
 6096SOL     OW29746   4.674   3.262   3.365  0.4534  0.2578  0.4324
 6096SOL    HW129747   4.586   3.237   3.393  0.9573 -1.5337  0.4316
 6096SOL    HW229748   4.699   3.338   3.417 -0.9059 -0.7522  2.5353
 6097SOL     OW29749   2.068   3.596  11.004 -0.2959 -0.6775 -0.2372
 6097SOL    HW129750   2.153   3.555  10.989  0.5554  0.0478  2.6300
 6097SOL    HW229751   2.048   3.551  11.087 -0.9770  2.7908  1.4853
 6098SOL     OW29752   4.707   2.882   8.210  0.2246 -0.2102  0.9877
 6098SOL    HW129753   0.068   2.865   8.258  1.2818 -0.2101 -0.8416
 6098SOL    HW229754   4.644   2.872   8.282 -1.3860  2.3114 -0.1076
 6099SOL     OW29755   2.070   3.618   2.842 -0.2877 -0.0483  0.1834
 6099SOL    HW129756   2.002   3.565   2.799  1.2029 -2.1266  0.3886
 6099SOL    HW229757   2.140   3.554   2.827 -0.8874 -0.0072 -2.8579
 6100SOL     OW29758   3.570   4.545   8.557  0.2028 -0.0308 -0.4512
 6100SOL    HW129759   3.496   4.605   8.561  1.2058  1.3299 -2.5363
 6100SOL    HW229760   3.517   4.471   8.587 -0.2012 -0.4510 -2.1877
 6101SOL     OW29761   2.543   1.154  15.163 -0.1055 -0.4880 -0.5498
 6101SOL    HW129762   2.609   1.191  15.222  0.0926  0.0255 -1.1001
 6101SOL    HW229763   2.473   1.217  15.175  2.3728  2.0353  0.5435
 6102SOL     OW29764   3.556   1.496  15.865  0.1066 -0.8119  0.4605
 6102SOL    HW129765   3.609   1.429  15.821  2.0362  2.1458 -1.7377
 6102SOL    HW229766   3.567   1.565  15.800 -0.9499  0.2364  1.4005
 6103SOL     OW29767   1.452   0.158   8.681 -0.5118 -0.1296 -0.0520
 6103SOL    HW129768   1.409   0.073   8.671  2.4413 -1.5113 -0.9571
 6103SOL    HW229769   1.523   0.160   8.617  0.1351 -0.8184  0.6390
 6104SOL     OW29770   2.568   4.472   7.320  0.0870  0.1891  0.4633
 6104SOL    HW129771   2.575   4.563   7.291 -0.3238  0.7286  2.0306
 6104SOL    HW229772   2.619   4.423   7.256 -0.0327  1.5694 -0.7010
 6105SOL     OW29773   4.442   0.990   3.100  0.0567  0.0102 -0.1785
 6105SOL    HW129774   4.367   1.047   3.083  0.4832  1.0598  1.3854
 6105SOL    HW229775   4.399   0.920   3.149 -0.7039  1.3545  1.0977
 6106SOL     OW29776   4.166   1.200   3.130  0.2974  0.5419  0.4525
 6106SOL    HW129777   4.160   1.167   3.220  0.9764 -0.8952 -0.0259
 6106SOL    HW229778   4.118   1.283   3.130 -1.5371 -0.5119  0.9176
 6107SOL     OW29779   4.397   2.491   2.934 -0.5629 -0.6998 -0.4995
 6107SOL    HW129780   4.308   2.521   2.955 -0.0805  1.2831 -1.2574
 6107SOL    HW229781   4.429   2.559   2.874 -2.0532 -0.7869 -1.4220
 6108SOL     OW29782   3.290   1.712   8.313  0.3909  0.1709  0.5447
 6108SOL    HW129783   3.343   1.704   8.392  1.9391 -1.0653 -0.5994
 6108SOL    HW229784   3.341   1.664   8.247 -2.3111 -3.1571  0.8363
 6109SOL     OW29785   1.518   0.499  16.597 -0.0708  0.0157  0.0926
 6109SOL    HW129786   1.474   0.434  16.542 -0.9948 -1.5147  2.5903
 6109SOL    HW229787   1.497   0.456  16.680 -1.2947  0.8077  0.1930
 6110SOL     OW29788   2.161   1.916   3.296 -0.3996 -0.1316 -0.6448
 6110SOL    HW129789   2.177   1.965   3.377  1.1758  0.9216 -1.5831
 6110SOL    HW229790   2.145   1.992   3.239  0.6271  1.0548  0.6307
 6111SOL     OW29791   2.827   1.642   1.807  0.0604 -0.1002  0.7324
 6111SOL    HW129792   2.840   1.602   1.721 -0.5535  1.2703  0.0085
 6111SOL    HW229793   2.732   1.634   1.818  0.0863  0.7367  1.5794
 6112SOL     OW29794   1.454   0.987   8.054 -0.5787 -0.2223  0.3193
 6112SOL    HW129795   1.435   1.078   8.032  0.5418 -0.5428 -1.9925
 6112SOL    HW229796   1.377   0.975   8.110 -0.8788 -0.0074 -0.0465
 6113SOL     OW29797   4.199   2.326   0.982 -0.0349  0.2380  0.4454
 6113SOL    HW129798   4.190   2.356   1.073 -0.0057  1.9314 -0.1226
 6113SOL    HW229799   4.105   2.333   0.964  0.4707 -0.0613 -2.2830
 6114SOL     OW29800   1.115   3.002  13.808 -0.0624  0.3591 -0.1711
 6114SOL    HW129801   1.080   3.089  13.794  2.0013  1.4126  1.1726
 6114SOL    HW229802   1.170   3.012  13.886  0.5054  0.9468 -0.6407
 6115SOL     OW29803   1.552   3.600   5.079 -0.3469 -0.3988  0.7447
 6115SOL    HW129804   1.579   3.567   5.165  1.2557  0.4713  0.5818
 6115SOL    HW229805   1.633   3.641   5.049 -0.8506 -0.9619 -1.3476
 6116SOL     OW29806   1.028   2.702   4.321  0.2481  0.1830  0.2369
 6116SOL    HW129807   1.014   2.774   4.260  1.7006  0.8327  0.6730
 6116SOL    HW229808   1.012   2.624   4.268 -3.5221  0.5412  0.8706
 6117SOL     OW29809   0.489   3.474   2.695  0.2349 -0.3125 -0.1531
 6117SOL    HW129810   0.422   3.535   2.666 -0.0384 -0.7045 -0.3488
 6117SOL    HW229811   0.554   3.532   2.735  0.7424 -1.3388  0.5085
 6118SOL     OW29812   4.084   0.179   3.680  0.0971 -0.2603  0.4596
 6118SOL    HW129813   4.165   0.220   3.651 -0.1035 -1.1658 -1.3978
 6118SOL    HW229814   4.044   0.250   3.730 -1.4030  0.7365 -2.1866
 6119SOL     OW29815   3.861   4.040   2.255 -0.1078 -0.1947  0.3922
 6119SOL    HW129816   3.792   4.021   2.190  0.3197  1.6325 -0.5995
 6119SOL    HW229817   3.910   3.958   2.252 -0.4333 -0.3200 -2.1014
 6120SOL     OW29818   0.835   1.360   6.965 -0.5766 -0.9788 -0.4001
 6120SOL    HW129819   0.900   1.292   6.984 -0.7964 -0.6050  1.6981
 6120SOL    HW229820   0.779   1.349   7.041 -0.1627  0.6029  0.1345
 6121SOL     OW29821   2.106   1.841   6.628  0.2675 -0.1952  0.2149
 6121SOL    HW129822   2.062   1.757   6.616  0.1482 -0.2434  0.9865
 6121SOL    HW229823   2.054   1.904   6.578  0.6854 -0.8091 -1.0198
 6122SOL     OW29824   4.391   0.950   2.592  0.1266 -0.0996  0.5846
 6122SOL    HW129825   4.473   0.994   2.614  0.7313 -0.5068 -0.8016
 6122SOL    HW229826   4.324   0.970   2.656  1.2337  2.3662  0.9404
 6123SOL     OW29827   0.776   3.143   3.243  0.2930 -0.4369 -0.1482
 6123SOL    HW129828   0.794   3.099   3.326  1.0897 -0.2500 -0.2234
 6123SOL    HW229829   0.701   3.094   3.210  1.2102 -0.4914 -2.1265
 6124SOL     OW29830   0.954   0.795   9.650  0.3703  0.5510 -0.1857
 6124SOL    HW129831   0.904   0.869   9.614 -0.3380 -0.4793 -1.3026
 6124SOL    HW229832   0.917   0.792   9.739  1.7499  2.3345  0.4438
 6125SOL     OW29833   1.705   0.037   0.565 -0.0229 -0.6499 -0.2120
 6125SOL    HW129834   1.798   0.059   0.556 -1.1674  3.3509 -2.1985
 6125SOL    HW229835   1.695   0.056   0.659 -0.6182  2.7114 -0.9718
 6126SOL     OW29836   1.889   0.125   3.799  0.5691  0.0474  0.0472
 6126SOL    HW129837   1.964   0.094   3.747  0.8639  1.8579 -0.6227
 6126SOL    HW229838   1.888   0.221   3.794 -3.5310 -0.1370 -2.6300
 6127SOL     OW29839   4.269   4.285   7.037 -0.6800  0.1671  0.4566
 6127SOL    HW129840   4.193   4.285   6.979 -1.0978  0.7481  0.9933
 6127SOL    HW229841   4.339   4.253   6.981  0.6519  0.2549  2.1006
 6128SOL     OW29842   3.598   4.716   8.854  0.1826  0.2379  0.2483
 6128SOL    HW129843   3.584   4.623   8.870 -1.8638  0.7366  1.3538
 6128SOL    HW229844   3.693   4.720   8.865  0.1812 -0.7693  0.5689
 6129SOL     OW29845   1.262   3.365   6.746 -0.4840 -0.3323  0.1914
 6129SOL    HW129846   1.327   3.341   6.680 -0.1459 -3.6674  1.7573
 6129SOL    HW229847   1.306   3.341   6.828  0.3300  0.3060 -0.0611
 6130SOL     OW29848   1.948   4.354   6.257 -0.0821 -0.3358 -0.4748
 6130SOL    HW129849   1.989   4.276   6.221  0.9344 -0.1609  0.2986
 6130SOL    HW229850   1.963   4.410   6.181 -0.5049  0.1402 -0.2064
 6131SOL     OW29851   2.668   4.394  11.458 -0.2036  0.4075  0.2178
 6131SOL    HW129852   2.663   4.414  11.365 -2.0397  0.8272  0.4082
 6131SOL    HW229853   2.690   4.301  11.453  0.2179  0.4749  0.8023
 6132SOL     OW29854   1.930   1.419   4.019 -0.1106  0.4807 -0.3107
 6132SOL    HW129855   1.952   1.464   3.937  1.4101 -0.3807 -0.3943
 6132SOL    HW229856   1.894   1.483   4.079  1.3820  1.5682 -0.5727
 6133SOL     OW29857   3.958   3.121  15.476 -0.7368  0.0603 -0.3274
 6133SOL    HW129858   3.958   3.208  15.516 -1.9318  0.5712 -1.4288
 6133SOL    HW229859   4.014   3.126  15.399 -3.2212  0.0465 -2.1520
 6134SOL     OW29860   3.555   4.472   8.970  0.2771  0.0307 -0.4494
 6134SOL    HW129861   3.499   4.429   8.904  1.4097  0.0581 -1.4251
 6134SOL    HW229862   3.618   4.410   9.006  1.4610 -0.4672 -3.3473
 6135SOL     OW29863   0.704   4.072   7.137  0.2414 -0.1308  0.2260
 6135SOL    HW129864   0.652   4.011   7.085 -0.6173 -0.1426  1.0905
 6135SOL    HW229865   0.684   4.048   7.227 -0.5473  1.0784  0.3689
 6136SOL     OW29866   2.181   0.782   9.876  0.1062 -0.6532  0.5456
 6136SOL    HW129867   2.169   0.689   9.857  1.9278 -0.3171 -2.3249
 6136SOL    HW229868   2.119   0.793   9.947 -0.5864 -0.3693 -0.1027
 6137SOL     OW29869   3.956   3.722  10.651 -0.0210  0.6030 -0.2393
 6137SOL    HW129870   4.029   3.763  10.698  0.4948 -0.9923  0.3515
 6137SOL    HW229871   3.942   3.648  10.710 -0.9104  0.5665 -0.4968
 6138SOL     OW29872   2.044   2.566   7.952 -0.0525  0.0880  0.3372
 6138SOL    HW129873   2.102   2.576   7.876  0.0602  1.2688  0.5763
 6138SOL    HW229874   2.022   2.473   7.958  1.0353 -0.1520  0.6422
 6139SOL     OW29875   4.078   1.428   7.522 -0.1798  0.2888 -0.2158
 6139SOL    HW129876   4.155   1.391   7.564 -1.4210 -1.0988  0.8174
 6139SOL    HW229877   4.107   1.518   7.507  2.2404 -0.4373  0.0850
 6140SOL     OW29878   4.141   0.642   4.574 -0.0352 -0.1228 -0.0950
 6140SOL    HW129879   4.066   0.619   4.628  1.2491 -4.2582 -0.0745
 6140SOL    HW229880   4.109   0.671   4.489  0.9506 -1.4968 -0.9314
 6141SOL     OW29881   3.085   1.549   4.185 -0.0955 -0.7081 -0.1604
 6141SOL    HW129882   3.178   1.524   4.180 -0.0514 -1.1044  2.3962
 6141SOL    HW229883   3.055   1.481   4.245 -0.9920  0.0735  0.2809
 6142SOL     OW29884   1.294   2.243   4.383  0.0399  0.5791  0.0664
 6142SOL    HW129885   1.214   2.276   4.423 -0.8998 -0.7168 -0.7417
 6142SOL    HW229886   1.313   2.164   4.434 -1.3699 -1.1728 -2.1217
 6143SOL     OW29887   2.413   4.501   7.847  0.1261 -0.1057 -0.4048
 6143SOL    HW129888   2.476   4.533   7.782  0.0607  0.5413 -0.1505
 6143SOL    HW229889   2.425   4.407   7.839  1.2406 -0.0763  0.9751
 6144SOL     OW29890   2.711   1.528   4.368 -0.0864 -0.2821  0.3880
 6144SOL    HW129891   2.617   1.534   4.384 -0.4827 -1.1247 -1.6293
 6144SOL    HW229892   2.745   1.606   4.411 -0.0111 -0.7816  1.2530
 6145SOL     OW29893   4.084   1.670   4.847 -0.3707  0.3411  0.6807
 6145SOL    HW129894   4.033   1.599   4.884 -0.2112  0.4141  1.0373
 6145SOL    HW229895   4.156   1.658   4.909  0.9114 -2.7586 -1.3903
 6146SOL     OW29896   1.815   0.692   9.023  0.4732  0.1602  0.3409
 6146SOL    HW129897   1.734   0.680   8.974 -0.2874 -0.1459  1.6727
 6146SOL    HW229898   1.812   0.780   9.062 -1.1686 -0.0298  0.6537
 6147SOL     OW29899   4.085   1.243   5.086  0.0127 -0.1097  0.2809
 6147SOL    HW129900   4.125   1.242   4.999  1.4560 -0.4900  0.9466
 6147SOL    HW229901   3.995   1.236   5.055 -0.8105 -0.3500  2.7799
 6148SOL     OW29902   3.693   0.860   6.239 -0.2396 -0.1929  0.0996
 6148SOL    HW129903   3.609   0.863   6.285 -0.4774  2.5357 -0.5413
 6148SOL    HW229904   3.755   0.857   6.312  0.5476  1.1583 -0.5244
 6149SOL     OW29905   4.711   2.408   1.930 -0.4561 -0.4276  0.0490
 6149SOL    HW129906   0.035   2.391   2.013 -0.9253  1.3419  0.6742
 6149SOL    HW229907   4.625   2.416   1.969 -1.7103 -0.8936 -2.5962
 6150SOL     OW29908   0.317   0.512   6.678  0.0759 -0.2588 -0.2355
 6150SOL    HW129909   0.225   0.537   6.668  0.3869  0.8810 -0.2435
 6150SOL    HW229910   0.310   0.416   6.675  3.7760 -0.4835 -1.1248
 6151SOL     OW29911   4.034   2.801   4.957 -0.3843 -0.2775 -0.6654
 6151SOL    HW129912   3.954   2.782   5.006 -1.7958  2.0842 -2.0748
 6151SOL    HW229913   4.000   2.791   4.868 -0.1846 -1.4162 -0.6138
 6152SOL     OW29914   3.642   2.000   2.677 -0.3208 -0.5696 -0.0744
 6152SOL    HW129915   3.602   1.948   2.747  0.5695 -0.1334  0.7685
 6152SOL    HW229916   3.569   2.004   2.616  0.2010 -0.9601 -0.7255
 6153SOL     OW29917   2.237   0.116   0.442  0.1396 -0.0020 -0.4946
 6153SOL    HW129918   2.247   0.048   0.510  2.0743  1.6791  0.9086
 6153SOL    HW229919   2.191   0.062   0.378 -0.2565 -0.8569  0.5024
 6154SOL     OW29920   0.152   1.699   8.508  0.4623  0.2767  0.1150
 6154SOL    HW129921   0.236   1.672   8.470 -0.4516  0.1515 -1.8063
 6154SOL    HW229922   0.095   1.653   8.447  1.5191 -0.1656 -0.5381
 6155SOL     OW29923   0.772   2.702   3.651 -1.1321 -0.4476 -0.0287
 6155SOL    HW129924   0.797   2.783   3.695 -0.5628  0.8113 -2.7071
 6155SOL    HW229925   0.859   2.663   3.659 -0.5273  0.4335 -2.5677
 6156SOL     OW29926   1.510   3.678   1.375  0.1274  0.2569  0.1355
 6156SOL    HW129927   1.532   3.681   1.282 -0.7756  0.3243 -0.0750
 6156SOL    HW229928   1.536   3.589   1.400 -0.8616 -0.2822 -0.7424
 6157SOL     OW29929   3.173   4.157   3.058  0.2885  0.2901  0.1533
 6157SOL    HW129930   3.095   4.150   3.003  1.4758  0.8392 -1.6001
 6157SOL    HW229931   3.136   4.206   3.132 -2.8414  0.6978 -1.6852
 6158SOL     OW29932   1.037   0.482   5.295  0.1830  0.5105  0.1571
 6158SOL    HW129933   1.078   0.529   5.223 -0.8214  0.8890 -0.1600
 6158SOL    HW229934   0.988   0.416   5.246  0.3017 -0.4625  1.3316
 6159SOL     OW29935   3.280   1.423   5.336 -0.0931 -0.6065 -0.3634
 6159SOL    HW129936   3.202   1.379   5.302 -1.0561  0.8921 -0.1130
 6159SOL    HW229937   3.260   1.514   5.311 -0.6746 -0.2288  1.4339
 6160SOL     OW29938   2.245   3.071   1.765  0.2107  0.1274 -0.7040
 6160SOL    HW129939   2.157   3.042   1.740  0.8480 -0.1339 -2.6096
 6160SOL    HW229940   2.284   2.986   1.785  0.4391  0.7894  1.7671
 6161SOL     OW29941   2.423   2.242  10.407 -0.2441  0.1133  0.4999
 6161SOL    HW129942   2.445   2.157  10.368  1.9405  0.3915  1.1590
 6161SOL    HW229943   2.510   2.280  10.417 -0.0014 -0.5433  0.9205
 6162SOL     OW29944   2.436   1.568   4.344  0.3095  0.0146  0.0078
 6162SOL    HW129945   2.423   1.540   4.435 -1.5162 -1.0072 -0.5577
 6162SOL    HW229946   2.378   1.644   4.339 -0.1036 -0.1637  2.2953
 6163SOL     OW29947   2.825   0.486   7.757  0.3384 -0.4834  0.8285
 6163SOL    HW129948   2.794   0.501   7.846  0.5839 -0.2437  0.8752
 6163SOL    HW229949   2.825   0.577   7.726 -1.7085  0.6368  4.1418
 6164SOL     OW29950   3.471   0.894   4.369 -0.1698 -0.4200  0.4107
 6164SOL    HW129951   3.394   0.948   4.387  1.6417  2.5842 -0.8435
 6164SOL    HW229952   3.533   0.966   4.358  2.2013 -2.5146  0.2936
 6165SOL     OW29953   0.796   3.973  15.324 -0.9387  0.0642  0.7920
 6165SOL    HW129954   0.713   4.018  15.311 -0.1103  1.8410  1.6971
 6165SOL    HW229955   0.809   3.942  15.234 -0.2008 -2.5965  1.8277
 6166SOL     OW29956   2.529   2.714   7.258 -0.2265  0.1411 -0.2917
 6166SOL    HW129957   2.461   2.756   7.204 -0.6220 -0.3086 -0.1403
 6166SOL    HW229958   2.577   2.788   7.296 -0.0523  0.8967 -1.9922
 6167SOL     OW29959   2.220   1.446   4.955 -0.4404 -0.4002 -0.4933
 6167SOL    HW129960   2.163   1.501   5.010 -0.3482 -2.0087  1.2098
 6167SOL    HW229961   2.280   1.512   4.922  0.2972 -1.2455 -0.8307
 6168SOL     OW29962   3.791   4.580   4.823  0.4466  0.1603 -0.1533
 6168SOL    HW129963   3.820   4.664   4.858  1.3308 -0.8174  1.5041
 6168SOL    HW229964   3.867   4.522   4.815  0.3551  0.0557 -0.2632
 6169SOL     OW29965   3.225   3.954  13.791 -0.0527 -0.3906 -0.4825
 6169SOL    HW129966   3.200   4.045  13.778 -1.7818 -0.7353  0.4415
 6169SOL    HW229967   3.319   3.967  13.784 -0.1867  0.8325  0.0636
 6170SOL     OW29968   2.876   4.559  15.131  0.2284  0.1143 -0.1302
 6170SOL    HW129969   2.861   4.552  15.225 -3.7372  0.8428 -0.7254
 6170SOL    HW229970   2.955   4.504  15.132  0.0588 -0.1443 -1.9239
 6171SOL     OW29971   2.128   4.333  16.470  0.5839 -0.1748  0.0326
 6171SOL    HW129972   2.106   4.245  16.442 -0.4696 -0.3002  1.2365
 6171SOL    HW229973   2.089   4.375  16.394 -0.4767 -1.2939 -0.0374
 6172SOL     OW29974   0.277   1.942   8.865 -0.1421 -0.0381 -0.5741
 6172SOL    HW129975   0.193   1.943   8.819 -2.0005 -0.5062  2.7889
 6172SOL    HW229976   0.263   1.883   8.939  1.1562  0.2116 -0.1323
 6173SOL     OW29977   2.530   3.294  15.380 -0.3151 -0.2100  0.3290
 6173SOL    HW129978   2.511   3.338  15.463  0.6492  3.0099 -1.1498
 6173SOL    HW229979   2.444   3.310  15.340 -0.2258  1.0639  0.6582
 6174SOL     OW29980   3.090   4.411   8.232  0.2083 -0.4934 -0.0081
 6174SOL    HW129981   3.059   4.337   8.285 -0.0531  0.4372  1.1086
 6174SOL    HW229982   3.184   4.395   8.232  0.1078 -1.0885 -0.5662
 6175SOL     OW29983   0.166   0.310   3.129 -0.0853  0.1100 -0.3564
 6175SOL    HW129984   0.188   0.340   3.041 -1.5621  3.0748  0.3139
 6175SOL    HW229985   0.165   0.215   3.118 -0.2071  0.0336  0.3807
 6176SOL     OW29986   2.352   4.661   8.562  0.2876  0.7573  0.3830
 6176SOL    HW129987   2.385   4.714   8.489  0.3321  0.3104  0.0760
 6176SOL    HW229988   2.402   4.581   8.545  0.6177  0.8774  0.7874
 6177SOL     OW29989   1.427   4.038  13.537 -0.1527  0.3017  0.3085
 6177SOL    HW129990   1.379   4.117  13.563  1.6909  1.1760  1.0203
 6177SOL    HW229991   1.366   3.989  13.481 -1.1137 -2.8377  4.0732
 6178SOL     OW29992   3.555   0.343   2.775 -0.0077 -0.4696  0.2900
 6178SOL    HW129993   3.470   0.334   2.820  0.9914  0.2161  2.3146
 6178SOL    HW229994   3.593   0.425   2.805 -0.5382 -0.4181  0.8368
 6179SOL     OW29995   1.690   3.656  10.367  0.2951  0.1579 -0.1447
 6179SOL    HW129996   1.599   3.653  10.398 -0.1968  0.1064 -1.5974
 6179SOL    HW229997   1.738   3.605  10.432  1.2754 -1.0141 -1.7959
 6180SOL     OW29998   0.045   3.846  14.363 -0.6213 -0.0738  1.0121
 6180SOL    HW129999   0.016   3.924  14.411 -1.4085  0.1998  0.1043
 6180SOL    HW230000   0.135   3.862  14.336 -1.0670 -0.5112 -0.7238
 6181SOL     OW30001   2.975   0.657   5.269 -0.1662  0.0678  0.0848
 6181SOL    HW130002   3.062   0.691   5.247  0.2635 -1.9023 -1.2389
 6181SOL    HW230003   2.970   0.666   5.364 -3.0044  3.0182 -0.3499
 6182SOL     OW30004   1.177   1.581  10.230  0.4600  0.0930  0.3969
 6182SOL    HW130005   1.194   1.541  10.316 -0.2736 -0.5835  0.2321
 6182SOL    HW230006   1.149   1.501  10.184  1.6743  0.4299 -0.9159
 6183SOL     OW30007   3.002   1.598   2.663  0.6595  0.2588  0.1794
 6183SOL    HW130008   2.998   1.513   2.707  0.5871 -0.4099 -1.1227
 6183SOL    HW230009   2.938   1.648   2.715  2.0973  1.5847  0.6802
 6184SOL     OW30010   2.376   0.188   2.183 -0.5506  0.0026 -0.0070
 6184SOL    HW130011   2.355   0.164   2.093 -1.0121  0.9199 -0.1461
 6184SOL    HW230012   2.448   0.250   2.171  0.6252 -1.4646 -0.5549
 6185SOL     OW30013   0.516   1.634   2.770  0.0381 -0.4218  0.3776
 6185SOL    HW130014   0.434   1.683   2.783  0.4372  0.5182 -0.6474
 6185SOL    HW230015   0.484   1.545   2.783  1.0999 -0.7995  0.3739
 6186SOL     OW30016   3.963   3.297   2.290 -0.0909 -0.1187  0.5694
 6186SOL    HW130017   4.001   3.363   2.233 -0.9772  0.5657  0.7629
 6186SOL    HW230018   3.978   3.216   2.242  1.8542  1.3676 -1.3508
 6187SOL     OW30019   3.011   2.318   9.109 -0.3208 -0.5663 -0.1781
 6187SOL    HW130020   2.916   2.327   9.112 -0.2241  0.1791  0.3924
 6187SOL    HW230021   3.040   2.375   9.180 -0.9031 -1.9814  1.1989
 6188SOL     OW30022   0.838   3.904   7.366 -0.5726  0.1250  0.1983
 6188SOL    HW130023   0.784   3.846   7.313  1.1285 -0.6955 -0.6154
 6188SOL    HW230024   0.915   3.848   7.365 -0.1240  0.7846 -1.4425
 6189SOL     OW30025   2.935   1.865   1.503 -0.0720  0.0153  0.5183
 6189SOL    HW130026   2.886   1.947   1.497  0.4007  0.1298 -1.6988
 6189SOL    HW230027   2.983   1.890   1.582  1.0880  2.8469 -1.0886
 6190SOL     OW30028   2.362   3.818  15.881 -0.0515  0.1654  0.0084
 6190SOL    HW130029   2.371   3.730  15.920 -2.6083  0.3227  0.9837
 6190SOL    HW230030   2.299   3.853  15.944  0.0322 -2.6162  1.6809
 6191SOL     OW30031   0.175   1.927  16.671 -0.1025  0.1399  0.0058
 6191SOL    HW130032   0.235   1.917  16.597  2.9314  0.3054  2.4565
 6191SOL    HW230033   0.090   1.891  16.645  0.0884  0.1468 -0.6279
 6192SOL     OW30034   4.339   0.781   3.199  0.4976 -0.6750  0.1551
 6192SOL    HW130035   4.360   0.773   3.292  2.4381 -1.2814 -0.3285
 6192SOL    HW230036   4.344   0.687   3.177 -0.4993 -0.3481 -1.4767
 6193SOL     OW30037   0.286   0.309   4.896  0.4024 -0.7350 -0.3412
 6193SOL    HW130038   0.196   0.285   4.872  0.1784  1.1389 -1.3823
 6193SOL    HW230039   0.304   0.229   4.946 -0.0814 -1.4013 -1.2445
 6194SOL     OW30040   1.942   0.858   4.977 -0.2788 -0.0331  0.2425
 6194SOL    HW130041   1.865   0.803   4.989  1.9710 -3.2622 -0.2784
 6194SOL    HW230042   1.919   0.925   4.913  0.3904 -0.0738 -0.0403
 6195SOL     OW30043   0.956   4.627  13.310 -0.2095 -0.1665 -0.1064
 6195SOL    HW130044   0.975   4.534  13.327 -0.8542  0.1550  2.5003
 6195SOL    HW230045   0.963   4.629  13.215 -1.9850  0.8880 -0.2117
 6196SOL     OW30046   3.031   1.336   5.194 -0.2004  0.1344  0.2150
 6196SOL    HW130047   2.941   1.332   5.228 -0.2184 -1.4254  0.0088
 6196SOL    HW230048   3.029   1.428   5.167 -0.3049  0.3634  1.0103
 6197SOL     OW30049   1.777   4.638   8.897 -0.3422  0.3367  0.0926
 6197SOL    HW130050   1.732   4.561   8.930  0.1148  0.4693  1.0206
 6197SOL    HW230051   1.735   4.648   8.811 -1.8851  0.7766  0.8999
 6198SOL     OW30052   2.572   4.646   4.288 -0.2515  0.4641  0.2682
 6198SOL    HW130053   2.562   4.679   4.199 -1.5636  0.8151  0.5420
 6198SOL    HW230054   2.596   0.009   4.328 -0.4745  0.0915  1.1909
 6199SOL     OW30055   2.778   2.197   6.697 -0.2368 -0.1668  0.0228
 6199SOL    HW130056   2.846   2.130   6.689 -0.8740 -0.5742 -1.8748
 6199SOL    HW230057   2.775   2.208   6.602 -0.1771  2.2313  0.2916
 6200SOL     OW30058   1.472   1.098  11.985  0.3247  0.8787  0.2726
 6200SOL    HW130059   1.511   1.124  11.902  1.4227 -1.9676 -0.1207
 6200SOL    HW230060   1.470   1.002  11.976  0.4685  1.1217 -2.3798
 6201SOL     OW30061   1.691   1.278  15.671 -0.2502  0.1670 -0.1068
 6201SOL    HW130062   1.724   1.313  15.588  1.0041 -0.8215 -0.0294
 6201SOL    HW230063   1.731   1.332  15.739 -0.9043  0.6866 -0.1370
 6202SOL     OW30064   0.453   3.775   7.353 -0.2524  0.0487 -0.1405
 6202SOL    HW130065   0.484   3.694   7.313 -0.7273 -0.5341  0.6747
 6202SOL    HW230066   0.470   3.755   7.444 -0.9829  0.6248  0.1280
 6203SOL     OW30067   2.746   2.120   0.107 -0.1291 -0.5605  0.5729
 6203SOL    HW130068   2.668   2.123   0.162  0.3764  0.8851  1.2191
 6203SOL    HW230069   2.810   2.078   0.165  1.1840 -1.3966 -1.4627
 6204SOL     OW30070   0.216   4.257   8.601  0.0091 -0.6512  0.0416
 6204SOL    HW130071   0.301   4.225   8.571 -0.3949 -0.4395 -1.3381
 6204SOL    HW230072   0.210   4.238   8.695  1.3679 -1.0703  0.0534
 6205SOL     OW30073   2.533   2.132   3.592 -0.3573  0.2321 -0.1396
 6205SOL    HW130074   2.488   2.122   3.676 -1.0718  1.8132 -0.3327
 6205SOL    HW230075   2.624   2.150   3.616 -1.0057  1.6027  1.2867
 6206SOL     OW30076   3.502   3.501   6.559  0.0470  0.5484  0.4478
 6206SOL    HW130077   3.519   3.585   6.516 -0.7515 -0.1170 -1.1643
 6206SOL    HW230078   3.407   3.496   6.549 -0.3307  1.2268  3.6687
 6207SOL     OW30079   4.138   0.905   7.293  0.2371 -0.1679  0.0125
 6207SOL    HW130080   4.208   0.944   7.240 -0.5670 -1.2529 -1.8407
 6207SOL    HW230081   4.153   0.812   7.281 -3.0524 -0.6514 -0.3094
 6208SOL     OW30082   1.654   0.382  15.205  0.3760 -0.1286 -0.4589
 6208SOL    HW130083   1.595   0.342  15.141 -0.1037  0.3561 -0.3225
 6208SOL    HW230084   1.594   0.437  15.256  0.1119  0.7257 -1.7175
 6209SOL     OW30085   2.269   1.681  16.043  0.0142 -0.6464  0.1037
 6209SOL    HW130086   2.278   1.712  15.953 -1.7856  0.4003  0.2753
 6209SOL    HW230087   2.355   1.704  16.076 -0.3685  0.5438  0.2778
 6210SOL     OW30088   2.396   1.433   0.956 -0.0978 -0.4282  0.1259
 6210SOL    HW130089   2.379   1.407   0.865 -0.6136 -2.1140  0.7114
 6210SOL    HW230090   2.340   1.371   1.003  0.8472 -1.4181 -0.0678
 6211SOL     OW30091   0.182   2.503   3.733 -0.1072 -0.3732  0.3208
 6211SOL    HW130092   0.096   2.506   3.773 -0.6734  3.0839 -1.0976
 6211SOL    HW230093   0.191   2.596   3.713  1.8529 -0.7306 -0.5000
 6212SOL     OW30094   1.445   1.318  16.943  0.8785 -0.7421 -0.3418
 6212SOL    HW130095   1.461   1.409  16.970 -0.5900 -0.5309 -0.1501
 6212SOL    HW230096   1.508   1.269  16.996  0.8069  0.1847  0.6040
 6213SOL     OW30097   0.821   1.254   5.160  0.0087  0.8146 -0.0560
 6213SOL    HW130098   0.804   1.253   5.066 -0.3461 -1.5966  0.0520
 6213SOL    HW230099   0.733   1.288   5.180 -0.4473 -0.7304  0.5824
 6214SOL     OW30100   2.986   3.133  10.442 -0.0201 -0.5614  0.5292
 6214SOL    HW130101   2.999   3.045  10.407  0.3321  0.0536 -0.8878
 6214SOL    HW230102   3.064   3.134  10.498  0.8769  2.1614 -0.7958
 6215SOL     OW30103   0.041   0.336   3.555  0.8472 -0.4320  0.1708
 6215SOL    HW130104   0.114   0.346   3.495  0.1197 -1.9910 -0.9688
 6215SOL    HW230105   0.090   0.296   3.627  1.8295 -0.3006 -0.4354
 6216SOL     OW30106   4.443   1.738   4.542 -0.1751 -0.0323  0.3589
 6216SOL    HW130107   4.358   1.695   4.558 -1.2620  2.5994  1.6736
 6216SOL    HW230108   4.480   1.737   4.631  0.4297 -3.5060  0.0834
 6217SOL     OW30109   2.919   1.512   3.682 -0.2482  0.0016  0.4011
 6217SOL    HW130110   2.881   1.573   3.745  1.1843  2.8042 -1.4138
 6217SOL    HW230111   2.856   1.516   3.610 -1.1617 -2.7306  1.0649
 6218SOL     OW30112   0.980   3.526  16.614 -0.5681  0.6506  0.1230
 6218SOL    HW130113   0.932   3.562  16.688  1.6812  2.0003  0.9259
 6218SOL    HW230114   1.069   3.542  16.644 -1.0601 -0.5715  2.2502
 6219SOL     OW30115   2.876   1.381  10.951 -0.3224  0.2075 -0.0924
 6219SOL    HW130116   2.890   1.315  11.018  3.3097  0.5163 -0.5046
 6219SOL    HW230117   2.963   1.412  10.925 -0.3635  0.3971 -0.0059
 6220SOL     OW30118   4.604   0.890   2.906  0.4263 -0.2298 -0.3433
 6220SOL    HW130119   4.631   0.956   2.843  0.4560  0.3069  0.2259
 6220SOL    HW230120   4.539   0.939   2.956  1.3219 -0.8268  1.4367
 6221SOL     OW30121   4.056   4.375   5.467  0.4404 -0.5337 -0.2155
 6221SOL    HW130122   4.048   4.418   5.381 -0.0909 -1.4507 -0.6309
 6221SOL    HW230123   4.089   4.441   5.527 -2.1412 -0.0390  0.6724
 6222SOL     OW30124   3.643   1.293  17.224 -0.0977  0.0918 -0.2671
 6222SOL    HW130125   3.599   1.288  17.139  0.4509 -0.6324 -0.5160
 6222SOL    HW230126   3.664   1.201  17.243 -2.1157  0.0891  1.8176
 6223SOL     OW30127   2.661   3.156   2.913 -0.0241  0.0575  0.0121
 6223SOL    HW130128   2.590   3.117   2.863 -0.3171  1.5422 -0.7355
 6223SOL    HW230129   2.726   3.158   2.842 -1.3525  1.5301 -1.1663
 6224SOL     OW30130   0.587   3.716  14.749 -0.5841 -0.2317 -0.0135
 6224SOL    HW130131   0.615   3.808  14.749  2.1629 -1.0521 -0.5618
 6224SOL    HW230132   0.589   3.684  14.840  1.8399 -1.7589 -0.6055
 6225SOL     OW30133   1.204   1.072   6.805  0.2071  0.5721 -0.0069
 6225SOL    HW130134   1.160   0.988   6.820 -2.4970  2.0420  0.2823
 6225SOL    HW230135   1.292   1.048   6.776 -0.7945 -1.5913 -1.2657
 6226SOL     OW30136   0.381   3.057  10.467 -0.2309  0.0072  0.6762
 6226SOL    HW130137   0.329   3.112  10.408  0.6295 -0.2277 -0.2889
 6226SOL    HW230138   0.448   3.125  10.478 -1.5695  1.2573  1.1037
 6227SOL     OW30139   2.181   2.835   4.820  0.4308  0.0971  0.2185
 6227SOL    HW130140   2.269   2.833   4.783  0.3263  1.9018 -0.1203
 6227SOL    HW230141   2.171   2.930   4.818 -1.4909  0.0109  5.2842
 6228SOL     OW30142   0.356   4.590   6.238 -0.2678  0.1907  0.5105
 6228SOL    HW130143   0.375   4.565   6.328  2.1304 -1.3184 -0.4179
 6228SOL    HW230144   0.264   4.569   6.220 -0.2284  0.0612  0.4558
 6229SOL     OW30145   1.727   3.557  16.403 -0.3506  0.6005 -0.4602
 6229SOL    HW130146   1.811   3.600  16.384  0.7368 -1.0209  0.7125
 6229SOL    HW230147   1.755   3.537  16.492 -0.4866 -1.8630 -0.9692
 6230SOL     OW30148   0.509   2.420   8.177  0.2225 -0.4527  0.0921
 6230SOL    HW130149   0.511   2.407   8.272  0.5831  1.0272  0.2873
 6230SOL    HW230150   0.509   2.327   8.151  0.1659 -0.8362  1.4705
 6231SOL     OW30151   1.057   0.020   4.707  0.2385  0.0602  0.2679
 6231SOL    HW130152   1.079   0.104   4.747  2.6649 -0.9549  1.0755
 6231SOL    HW230153   1.083   4.683   4.779 -1.1139  1.6207  2.0055
 6232SOL     OW30154   0.543   4.650  11.188  0.0775 -0.0555  0.5097
 6232SOL    HW130155   0.573   4.573  11.140 -1.4522 -0.0847 -0.4260
 6232SOL    HW230156   0.625   4.698  11.198  0.1052 -0.2879  1.4008
 6233SOL     OW30157   3.812   2.675   7.073 -0.2373 -0.5970  0.5589
 6233SOL    HW130158   3.788   2.764   7.049  0.4428 -1.1988 -2.4556
 6233SOL    HW230159   3.828   2.645   6.983  0.0930  0.2848  0.3250
 6234SOL     OW30160   2.882   0.927  16.704  0.2816  0.1564 -0.3659
 6234SOL    HW130161   2.961   0.875  16.688 -1.4915 -2.9328  1.0315
 6234SOL    HW230162   2.918   1.015  16.716  0.8102  0.1258 -1.7258
 6235SOL     OW30163   0.322   1.900   7.676  0.3621 -0.1152 -0.2242
 6235SOL    HW130164   0.258   1.840   7.638  0.3594  1.2974 -2.4236
 6235SOL    HW230165   0.382   1.911   7.603 -0.8614  1.8760 -0.9311
 6236SOL     OW30166   1.030   2.004   1.067  0.6543  0.1846  0.4679
 6236SOL    HW130167   1.003   1.917   1.096  1.6363 -0.4947 -0.6586
 6236SOL    HW230168   0.955   2.033   1.016 -0.3365 -0.8136  1.3694
 6237SOL     OW30169   0.597   1.369   6.545  0.1977  0.3336 -0.0443
 6237SOL    HW130170   0.610   1.303   6.477 -1.9738 -1.1224  0.9506
 6237SOL    HW230171   0.606   1.308   6.618 -2.0880  1.4758  1.1972
 6238SOL     OW30172   2.642   1.551   5.431  0.5915 -0.4436 -0.0781
 6238SOL    HW130173   2.737   1.563   5.436  0.6097 -0.6958  0.1618
 6238SOL    HW230174   2.605   1.600   5.505  0.6538  2.0530 -1.7020
 6239SOL     OW30175   2.166   3.379  10.212  0.4225 -0.1039 -0.7429
 6239SOL    HW130176   2.186   3.334  10.294 -1.8976 -0.2544 -0.2817
 6239SOL    HW230177   2.112   3.450  10.244  0.0606 -1.0946  0.8312
 6240SOL     OW30178   4.145   4.172   8.746  0.2305  0.2976 -0.0129
 6240SOL    HW130179   4.230   4.136   8.773  1.1609  2.9780  0.5845
 6240SOL    HW230180   4.125   4.101   8.685 -3.6586  1.4209 -0.0078
 6241SOL     OW30181   0.018   4.257   3.294  0.2103  0.0518 -0.2465
 6241SOL    HW130182   4.680   4.325   3.262  0.8352 -0.0505 -1.5703
 6241SOL    HW230183   4.700   4.177   3.258 -0.1510  0.0545  0.1240
 6242SOL     OW30184   1.277   1.578   0.915  0.1796 -0.2782 -0.0344
 6242SOL    HW130185   1.226   1.587   0.834  1.2693 -1.4434 -0.8549
 6242SOL    HW230186   1.292   1.670   0.937  0.5567 -0.5619  0.9077
 6243SOL     OW30187   1.861   0.407  10.908  0.7514 -0.0392 -0.2059
 6243SOL    HW130188   1.936   0.467  10.902 -2.0434  3.4824  0.6417
 6243SOL    HW230189   1.884   0.344  10.839  2.1680 -0.0188  0.2338
 6244SOL     OW30190   0.301   4.472  15.907 -0.0069 -0.5072  0.2714
 6244SOL    HW130191   0.372   4.477  15.843 -0.4580  0.9115 -0.1374
 6244SOL    HW230192   0.267   4.561  15.918 -1.6437 -0.8356 -2.0312
 6245SOL     OW30193   3.930   1.554   4.070 -0.3669  0.0035  0.4192
 6245SOL    HW130194   3.904   1.465   4.092  0.1817 -0.3436 -0.3454
 6245SOL    HW230195   3.987   1.578   4.143  0.7545 -3.4023  0.6638
 6246SOL     OW30196   2.083   3.009   4.459 -0.2941  0.6293 -0.4398
 6246SOL    HW130197   2.169   3.051   4.459 -0.7255  1.5314 -0.1527
 6246SOL    HW230198   2.099   2.944   4.391 -0.2697 -0.1543  0.3115
 6247SOL     OW30199   4.289   1.487   8.128  0.0953 -0.4934  0.1497
 6247SOL    HW130200   4.225   1.418   8.148  1.0168 -0.7622  2.2332
 6247SOL    HW230201   4.222   1.552   8.107  0.0466 -0.4593  0.4057
 6248SOL     OW30202   2.918   1.782   9.777  0.0734  0.0933 -0.1773
 6248SOL    HW130203   2.969   1.753   9.853  2.1731 -1.6151 -2.2326
 6248SOL    HW230204   2.958   1.728   9.709 -0.9600 -1.5124  0.4798
 6249SOL     OW30205   0.620   2.446   2.767  0.2701  0.3874 -0.3204
 6249SOL    HW130206   0.566   2.518   2.799  0.6558 -0.1422  1.5527
 6249SOL    HW230207   0.574   2.379   2.818  0.4747 -0.0335 -0.6855
 6250SOL     OW30208   1.651   3.423   2.399 -0.4853 -0.1267 -0.4962
 6250SOL    HW130209   1.634   3.461   2.313 -1.3176 -1.9375 -1.1296
 6250SOL    HW230210   1.645   3.503   2.451  0.8987 -2.3553  3.0468
 6251SOL     OW30211   2.867   2.613  13.779 -0.1346 -0.0925 -0.0765
 6251SOL    HW130212   2.801   2.644  13.718  0.6464  1.2407 -0.2419
 6251SOL    HW230213   2.815   2.599  13.859  0.4335 -2.6802 -0.1511
 6252SOL     OW30214   0.214   3.253   0.909 -0.1590  0.3327  0.1492
 6252SOL    HW130215   0.194   3.310   0.983 -2.2298 -0.3085  0.0851
 6252SOL    HW230216   0.287   3.293   0.863 -1.1632  3.6664  1.4688
 6253SOL     OW30217   3.634   2.936   3.228 -1.0617  0.0110 -0.1164
 6253SOL    HW130218   3.700   2.916   3.294 -1.6270 -1.6669 -0.0521
 6253SOL    HW230219   3.573   2.863   3.241 -2.0312  0.7796 -0.3084
 6254SOL     OW30220   0.556   2.291   2.195 -0.6265  0.3477 -0.0757
 6254SOL    HW130221   0.492   2.357   2.220  2.0499  2.2378  1.8687
 6254SOL    HW230222   0.508   2.213   2.223 -0.9158  0.1046 -1.2694
 6255SOL     OW30223   4.560   3.052   7.734  0.1821 -0.0660 -0.3760
 6255SOL    HW130224   4.514   3.036   7.652 -0.8293 -3.6069  0.8724
 6255SOL    HW230225   4.556   3.148   7.739 -2.9055 -0.1843 -0.4291
 6256SOL     OW30226   0.022   2.478  16.566 -0.3406  0.0126 -0.6070
 6256SOL    HW130227   0.068   2.395  16.553  0.0041  0.2276 -0.7496
 6256SOL    HW230228   4.659   2.450  16.605 -0.7999 -0.0650 -1.6495
 6257SOL     OW30229   0.770   3.678   0.997  0.1496 -0.0984  0.1798
 6257SOL    HW130230   0.747   3.685   0.905  2.8758 -1.9149 -0.6232
 6257SOL    HW230231   0.832   3.751   1.004 -1.3490  1.3181 -1.3696
 6258SOL     OW30232   1.197   4.623   3.072 -0.1183  0.0831 -0.0945
 6258SOL    HW130233   1.232   4.667   3.149 -0.9585 -0.1962  0.4488
 6258SOL    HW230234   1.105   4.628   3.096  0.1538 -1.5134  1.2649
 6259SOL     OW30235   2.478   4.079   7.415 -0.4345  0.3629  0.0313
 6259SOL    HW130236   2.405   4.031   7.452 -0.8987 -0.3109 -1.7745
 6259SOL    HW230237   2.435   4.164   7.411  0.2666  0.5922 -2.5907
 6260SOL     OW30238   1.415   1.222   8.552  0.4715  0.0298 -0.2044
 6260SOL    HW130239   1.435   1.192   8.463  1.0141  1.4075 -0.5615
 6260SOL    HW230240   1.332   1.268   8.541  0.6106  0.3559  0.1067
 6261SOL     OW30241   3.795   2.665   7.356 -0.4926 -0.4745 -0.5781
 6261SOL    HW130242   3.815   2.665   7.263  0.2493 -1.6869 -0.4200
 6261SOL    HW230243   3.700   2.667   7.340 -0.4592  3.6524 -0.2568
 6262SOL     OW30244   1.218   3.415   8.414  0.2605  0.1157 -0.1247
 6262SOL    HW130245   1.228   3.335   8.465  0.1600 -0.5457 -1.1450
 6262SOL    HW230246   1.308   3.444   8.400  0.3455 -0.2295 -0.3037
 6263SOL     OW30247   0.338   0.600   7.934  0.0045 -0.0861 -0.3500
 6263SOL    HW130248   0.291   0.676   7.898 -1.0921 -0.0792  1.1075
 6263SOL    HW230249   0.406   0.638   7.989  1.8862 -1.4846 -1.7164
 6264SOL     OW30250   0.682   4.321   5.163 -0.2919 -0.5961  0.1430
 6264SOL    HW130251   0.679   4.317   5.259  1.2582  2.3470  0.3150
 6264SOL    HW230252   0.609   4.379   5.142  0.3557  0.1821  0.0474
 6265SOL     OW30253   3.611   3.602  10.805  0.0366 -0.1247 -0.2796
 6265SOL    HW130254   3.591   3.635  10.718  0.6487  4.4036  1.2629
 6265SOL    HW230255   3.695   3.557  10.791 -0.4353 -0.4242 -2.0240
 6266SOL     OW30256   0.865   2.651  15.322  0.5339 -0.4467 -0.4407
 6266SOL    HW130257   0.789   2.706  15.301 -0.7056 -1.4728  1.3207
 6266SOL    HW230258   0.928   2.723  15.316 -0.8647  0.7281 -0.9856
 6267SOL     OW30259   2.747   1.744  10.749  0.3231 -0.5797 -0.5359
 6267SOL    HW130260   2.752   1.795  10.830 -1.6970 -2.8908  1.0679
 6267SOL    HW230261   2.662   1.700  10.758 -0.8554  1.3938 -1.9552
 6268SOL     OW30262   0.927   2.972   5.980  1.1896  0.5149  0.3952
 6268SOL    HW130263   0.933   3.055   5.933 -1.7923  0.3884 -0.1674
 6268SOL    HW230264   0.862   3.007   6.041  0.2186 -0.2515 -0.2059
 6269SOL     OW30265   1.274   0.714   4.436  0.7193 -0.2905  0.4791
 6269SOL    HW130266   1.205   0.728   4.371  1.6321  0.6127 -0.2911
 6269SOL    HW230267   1.222   0.720   4.516  0.0123 -0.6638  0.0492
 6270SOL     OW30268   4.021   4.186   1.354  0.0852 -0.2062 -0.1917
 6270SOL    HW130269   4.116   4.189   1.356  0.0446  0.8098  0.1012
 6270SOL    HW230270   3.997   4.266   1.401  1.4470 -0.3922  0.8076
 6271SOL     OW30271   3.847   0.016   4.033 -0.1307 -0.6004 -0.3916
 6271SOL    HW130272   3.892   0.080   4.089 -1.1094 -2.5997  2.6550
 6271SOL    HW230273   3.764   0.059   4.011  0.4182  0.5574 -0.2210
 6272SOL     OW30274   0.142   4.265   2.469 -0.1416 -0.0838 -0.3671
 6272SOL    HW130275   0.076   4.334   2.480 -0.6173 -0.9015  1.9693
 6272SOL    HW230276   0.181   4.299   2.389  1.3784 -1.0501 -0.0376
 6273SOL     OW30277   2.790   4.341   8.394 -0.4141  0.1150 -0.2874
 6273SOL    HW130278   2.782   4.250   8.421 -2.8381  0.5444  0.4418
 6273SOL    HW230279   2.848   4.372   8.464  0.2989 -0.1102 -0.7756
 6274SOL     OW30280   4.290   4.294   8.188  0.4669 -0.2156 -0.2902
 6274SOL    HW130281   4.373   4.262   8.224 -1.2766 -2.8034  1.4772
 6274SOL    HW230282   4.304   4.388   8.190  0.1431 -0.1701 -0.0649
 6275SOL     OW30283   3.329   2.261   3.171  0.4848  0.5070 -0.6512
 6275SOL    HW130284   3.262   2.218   3.224 -1.2019  2.2248 -1.3727
 6275SOL    HW230285   3.404   2.255   3.230  0.4922 -0.5201 -0.7656
 6276SOL     OW30286   1.431   3.792   1.647 -0.1663 -0.4807 -0.4998
 6276SOL    HW130287   1.470   3.755   1.568  0.0136 -2.8958  0.7368
 6276SOL    HW230288   1.511   3.802   1.698 -0.1796 -0.5174 -0.4713
 6277SOL     OW30289   0.843   2.789   2.096  0.0775 -0.3686 -0.0316
 6277SOL    HW130290   0.864   2.863   2.039 -0.9935 -0.4230 -0.4935
 6277SOL    HW230291   0.781   2.748   2.035 -0.6850 -1.1651  1.2835
 6278SOL     OW30292   2.078   0.642   8.405  0.3825  0.0555  0.4594
 6278SOL    HW130293   2.133   0.691   8.344 -0.6166 -0.4889 -0.8752
 6278SOL    HW230294   1.990   0.657   8.371  0.2581  1.5767  1.4376
 6279SOL     OW30295   0.014   1.817   3.402 -0.0707 -0.1312  0.7397
 6279SOL    HW130296   0.067   1.858   3.333 -1.0231 -0.4189 -0.1657
 6279SOL    HW230297   4.701   1.896   3.444 -0.8601  0.7090 -1.4627
 6280SOL     OW30298   0.956   0.261  10.681  0.0271  0.2281  0.3395
 6280SOL    HW130299   0.904   0.232  10.606 -1.3762 -0.3361  1.5313
 6280SOL    HW230300   0.898   0.251  10.757  0.0577 -0.9892  0.1971
 6281SOL     OW30301   2.507   0.183  13.025  0.2834  0.0156 -0.1773
 6281SOL    HW130302   2.475   0.240  13.095  0.4720 -0.5400  0.3572
 6281SOL    HW230303   2.462   0.104  13.054 -0.5223  1.0259  1.3466
 6282SOL     OW30304   1.724   4.320   3.288 -0.5990  0.5665 -0.2478
 6282SOL    HW130305   1.754   4.255   3.225 -0.7414  0.2993 -0.0404
 6282SOL    HW230306   1.773   4.395   3.254 -1.4671  0.9657 -0.6078
 6283SOL     OW30307   3.810   0.927   1.400 -0.1441 -0.0179  0.4990
 6283SOL    HW130308   3.726   0.889   1.376  1.5232 -0.5526 -4.4161
 6283SOL    HW230309   3.851   0.850   1.441  0.2545  0.4612  0.9907
 6284SOL     OW30310   4.144   0.757   0.236 -0.3225 -0.4701  0.3109
 6284SOL    HW130311   4.052   0.734   0.228 -0.2575 -0.5204 -0.2760
 6284SOL    HW230312   4.160   0.838   0.188  0.0912 -1.4305 -1.1743
 6285SOL     OW30313   2.413   1.287   7.725  0.2258 -0.0026 -0.2738
 6285SOL    HW130314   2.454   1.317   7.643  0.6384  3.2357  1.1355
 6285SOL    HW230315   2.444   1.352   7.787  0.8557 -1.7986  1.2994
 6286SOL     OW30316   3.537   2.980   6.201  0.4335  0.0655 -0.2239
 6286SOL    HW130317   3.554   3.031   6.280 -4.5294 -2.2914  2.4110
 6286SOL    HW230318   3.625   2.972   6.165  0.9324 -1.6350  1.3359
 6287SOL     OW30319   4.682   4.303  11.005 -0.1811  0.7301  0.0108
 6287SOL    HW130320   4.696   4.352  11.086  2.3151  0.1355 -0.0655
 6287SOL    HW230321   4.707   4.369  10.941  1.0790  1.2664  1.0542
 6288SOL     OW30322   0.353   0.414  12.096  0.2028 -0.4872  0.4228
 6288SOL    HW130323   0.279   0.427  12.155  1.1304  0.7102  1.3192
 6288SOL    HW230324   0.381   0.322  12.103  0.6877 -0.4060 -0.3370
 6289SOL     OW30325   3.206   2.721   0.943 -0.4049  0.2788  0.1905
 6289SOL    HW130326   3.161   2.736   0.861  0.8233  0.0043 -0.5378
 6289SOL    HW230327   3.137   2.698   1.006  0.6917 -3.3573  0.0469
 6290SOL     OW30328   3.044   2.104   5.449  0.1262  0.0729 -0.6406
 6290SOL    HW130329   3.037   2.018   5.408  1.1304  0.2261 -1.1090
 6290SOL    HW230330   2.955   2.135   5.432 -0.4496 -1.7468 -0.9327
 6291SOL     OW30331   3.462   3.197  13.770  0.3805  0.2381 -0.2694
 6291SOL    HW130332   3.485   3.250  13.846 -2.0595  1.6828 -0.5130
 6291SOL    HW230333   3.470   3.111  13.811  1.3236 -0.3057 -1.6083
 6292SOL     OW30334   3.565   3.701   1.776 -0.4923 -0.0236 -0.2892
 6292SOL    HW130335   3.579   3.613   1.740  0.6485  0.5909 -1.3503
 6292SOL    HW230336   3.594   3.758   1.705 -0.9923  0.9762  0.3231
 6293SOL     OW30337   3.884   1.579  12.292  0.5944 -0.2057 -0.2259
 6293SOL    HW130338   3.917   1.498  12.331  0.8157 -0.1070 -0.2081
 6293SOL    HW230339   3.951   1.642  12.266 -0.6914  0.9590 -0.7299
 6294SOL     OW30340   0.190   2.685  15.046  0.3630  0.0955  0.0402
 6294SOL    HW130341   0.235   2.644  15.121 -0.5634 -2.7989 -0.9719
 6294SOL    HW230342   0.164   2.606  14.998  1.7817 -0.5607  0.3297
 6295SOL     OW30343   2.393   2.002   7.623  0.4518  0.3524 -0.3002
 6295SOL    HW130344   2.383   2.080   7.568 -1.8094 -0.6975 -1.3932
 6295SOL    HW230345   2.471   2.032   7.670 -0.8239  0.1368  1.9255
 6296SOL     OW30346   4.002   3.326   1.963  0.2026  0.2221 -0.1967
 6296SOL    HW130347   4.093   3.329   1.932  0.4853  1.2016  0.7449
 6296SOL    HW230348   3.983   3.420   1.961  1.4297  0.4231 -1.9107
 6297SOL     OW30349   1.279   4.574  10.034 -0.6002 -0.1981  0.0749
 6297SOL    HW130350   1.253   4.574   9.942  2.0289  0.3650 -0.6731
 6297SOL    HW230351   1.347   4.641  10.042  0.0457 -0.9507  0.9475
 6298SOL     OW30352   0.081   3.075  10.113  0.2967 -0.0371  0.0946
 6298SOL    HW130353   0.030   3.116  10.044  1.4718  0.4822 -0.4652
 6298SOL    HW230354   0.016   3.056  10.181 -1.7767 -0.0140 -1.8971
 6299SOL     OW30355   2.403   2.732  12.479 -0.0815 -0.6150 -0.6909
 6299SOL    HW130356   2.454   2.662  12.520  2.1729  1.0437 -0.7023
 6299SOL    HW230357   2.474   2.779  12.437 -0.6102  1.0482  0.2573
 6300SOL     OW30358   0.121   2.682   4.468  0.3408  0.1364  0.6485
 6300SOL    HW130359   0.174   2.658   4.391  1.7062  0.7574  1.3893
 6300SOL    HW230360   0.184   2.724   4.527 -0.1690 -0.0943  1.3612
 6301SOL     OW30361   2.633   2.952   6.561 -0.6939 -0.0111 -0.1639
 6301SOL    HW130362   2.686   3.028   6.585  0.5073 -0.9127 -0.0063
 6301SOL    HW230363   2.678   2.883   6.610  0.8354 -0.9332 -2.8940
 6302SOL     OW30364   3.232   0.845  14.317 -0.3856 -0.0490  0.0812
 6302SOL    HW130365   3.189   0.921  14.278  0.8504  0.7174  0.2399
 6302SOL    HW230366   3.253   0.795  14.238 -0.3080  2.7751 -1.6770
 6303SOL     OW30367   2.079   4.062   2.584 -0.3914 -0.0768  0.0176
 6303SOL    HW130368   2.172   4.042   2.592 -0.4302  0.2400  1.2755
 6303SOL    HW230369   2.051   4.045   2.674  1.9373 -0.6036  0.6473
 6304SOL     OW30370   2.032   2.791   4.293  0.0897 -0.0210 -0.4374
 6304SOL    HW130371   1.940   2.799   4.268  0.8923 -0.6943 -3.6053
 6304SOL    HW230372   2.045   2.710   4.243 -1.5196 -2.0104  2.3901
 6305SOL     OW30373   0.535   3.039   3.166  0.1105 -0.6803 -0.3179
 6305SOL    HW130374   0.462   2.987   3.201  0.9186  0.0782  2.4879
 6305SOL    HW230375   0.499   3.127   3.170  2.0357  0.0278  1.1721
 6306SOL     OW30376   1.479   4.169   8.694 -0.4823  0.1143  0.0441
 6306SOL    HW130377   1.402   4.176   8.751 -0.1268 -1.9287  0.7983
 6306SOL    HW230378   1.519   4.255   8.686 -1.4701  0.8622  3.2500
 6307SOL     OW30379   1.433   1.492   5.937  0.9848  0.2455  0.6287
 6307SOL    HW130380   1.486   1.489   5.857  0.2645 -0.2277  0.1721
 6307SOL    HW230381   1.469   1.418   5.986 -0.7176 -0.0399  1.4472
 6308SOL     OW30382   2.400   2.800  14.280  0.0329 -0.1537 -0.5966
 6308SOL    HW130383   2.345   2.791  14.203  0.3165 -1.8853 -0.5899
 6308SOL    HW230384   2.478   2.841  14.242 -0.0699 -0.7834 -1.4706
 6309SOL     OW30385   2.197   4.701   3.148 -0.0641 -0.2570  0.4592
 6309SOL    HW130386   2.168   0.053   3.202  1.3627  2.2943 -2.1664
 6309SOL    HW230387   2.290   4.703   3.170 -0.5700  1.4769  2.3667
 6310SOL     OW30388   2.904   1.247   3.701 -0.1078  0.3905  0.0508
 6310SOL    HW130389   2.997   1.266   3.687  0.2235  1.0006  3.0728
 6310SOL    HW230390   2.864   1.332   3.679 -2.9371 -0.4890  1.8122
 6311SOL     OW30391   4.199   1.269  11.862 -0.0183  0.2116  0.1299
 6311SOL    HW130392   4.265   1.322  11.907  0.7313 -1.0467  0.4972
 6311SOL    HW230393   4.225   1.288  11.771  0.9610 -0.3735  0.2935
 6312SOL     OW30394   3.930   3.866  11.386 -0.5867 -0.6024  0.1705
 6312SOL    HW130395   3.968   3.817  11.313 -0.4252  0.5587 -0.5213
 6312SOL    HW230396   3.886   3.798  11.436 -2.1379 -0.1796 -0.6250
 6313SOL     OW30397   0.498   0.689  13.167 -0.1992  0.2259 -0.9325
 6313SOL    HW130398   0.591   0.670  13.164 -0.1103  0.6200 -0.7012
 6313SOL    HW230399   0.479   0.658  13.256  0.5155 -0.4533 -1.0252
 6314SOL     OW30400   1.446   1.794   0.660  0.8676  0.0660 -0.1895
 6314SOL    HW130401   1.376   1.830   0.714 -0.1834 -4.2788  1.3563
 6314SOL    HW230402   1.515   1.861   0.657 -0.1482  0.9733 -3.1569
 6315SOL     OW30403   0.020   4.266  13.669  0.3836  0.2230  0.1835
 6315SOL    HW130404   0.037   4.176  13.641 -1.6930 -0.0409 -0.1988
 6315SOL    HW230405   4.656   4.260  13.714  1.2991 -1.5005  1.6731
 6316SOL     OW30406   4.556   0.734   7.383  0.1495 -0.2440 -0.5002
 6316SOL    HW130407   4.531   0.669   7.449 -1.2721 -0.8571 -1.6423
 6316SOL    HW230408   4.651   0.732   7.375  0.3814  1.0764  1.8573
 6317SOL     OW30409   2.085   4.534  16.050  0.3231  0.3482  0.2201
 6317SOL    HW130410   2.020   4.563  15.986  1.0956  2.1982  0.2687
 6317SOL    HW230411   2.158   4.595  16.047  1.0065 -0.5680 -1.6752
 6318SOL     OW30412   3.054   2.739   6.389  0.6204  0.0659 -0.4218
 6318SOL    HW130413   2.975   2.703   6.428  0.4923 -0.4712 -1.1885
 6318SOL    HW230414   3.050   2.834   6.401 -2.0093 -0.4545  2.7536
 6319SOL     OW30415   3.567   4.650   9.177 -0.7330 -0.0343 -0.3666
 6319SOL    HW130416   3.579   4.586   9.107 -0.3151 -0.7018  0.3133
 6319SOL    HW230417   3.487   4.698   9.157 -0.1147  1.0056 -0.3629
 6320SOL     OW30418   1.106   1.622   0.729  0.1405  0.2617 -0.9170
 6320SOL    HW130419   1.042   1.662   0.789  1.2255 -0.1491  0.5060
 6320SOL    HW230420   1.109   1.686   0.657  0.8091  1.7708  0.4387
 6321SOL     OW30421   3.708   3.882   4.382 -0.1355 -0.1906 -0.3591
 6321SOL    HW130422   3.735   3.866   4.292  1.5945 -0.4316  0.1857
 6321SOL    HW230423   3.768   3.952   4.410 -0.0390  0.4092 -2.0559
 6322SOL     OW30424   3.042   1.129  12.751  0.4913 -0.6848  0.0742
 6322SOL    HW130425   2.949   1.117  12.730  0.3913 -0.5499  0.4460
 6322SOL    HW230426   3.067   1.209  12.704  0.9236 -1.3958 -0.9089
 6323SOL     OW30427   3.585   0.268   7.324  0.1007 -0.5468  0.1285
 6323SOL    HW130428   3.624   0.192   7.369  0.7948 -2.1011 -3.0481
 6323SOL    HW230429   3.643   0.266   7.247 -0.9639 -0.8391 -0.6614
 6324SOL     OW30430   3.073   2.162   8.418  0.5036  0.4142  0.1198
 6324SOL    HW130431   3.077   2.188   8.510 -0.8624 -0.7713  0.5236
 6324SOL    HW230432   3.137   2.091   8.421 -0.6836 -0.8015 -4.4450
 6325SOL     OW30433   2.499   1.536  10.791  0.1578  0.5163  0.3781
 6325SOL    HW130434   2.573   1.477  10.774 -0.9464 -0.4688 -1.0324
 6325SOL    HW230435   2.500   1.533  10.887  2.4553  2.9491  0.4258
 6326SOL     OW30436   1.411   3.313   3.564 -0.0010 -0.1734  0.0419
 6326SOL    HW130437   1.362   3.273   3.492 -1.6974  1.6940  0.1717
 6326SOL    HW230438   1.489   3.257   3.562 -0.7538 -1.2399  0.1265
 6327SOL     OW30439   3.432   3.365   7.865 -0.1388 -0.1812  0.5200
 6327SOL    HW130440   3.512   3.313   7.878  0.5751  1.5919  3.1398
 6327SOL    HW230441   3.459   3.454   7.886 -2.2398  1.0523 -2.0860
 6328SOL     OW30442   0.903   1.438   8.726  0.6244 -0.0160  0.4508
 6328SOL    HW130443   0.909   1.359   8.779 -1.6496  0.8463  2.0094
 6328SOL    HW230444   0.809   1.451   8.738  0.8542  0.3179  1.9590
 6329SOL     OW30445   4.126   2.152   9.680 -0.6225  0.3863  0.4810
 6329SOL    HW130446   4.043   2.116   9.710 -0.8759  3.1479  2.9995
 6329SOL    HW230447   4.183   2.120   9.751  0.9345  1.3882 -0.3243
 6330SOL     OW30448   4.399   2.565   7.889  0.3450 -0.1612  0.0487
 6330SOL    HW130449   4.412   2.528   7.977  0.6486  0.1631  0.1385
 6330SOL    HW230450   4.429   2.655   7.895  0.4250 -0.2321  0.6862
 6331SOL     OW30451   3.819   4.310   6.168 -0.3655 -0.0547 -0.1210
 6331SOL    HW130452   3.832   4.398   6.133 -1.1868  0.5143  1.0121
 6331SOL    HW230453   3.753   4.328   6.234  1.4200  1.1592  1.3467
 6332SOL     OW30454   3.904   3.663   2.118  0.0918  0.6913  0.1089
 6332SOL    HW130455   3.816   3.655   2.083  0.8250 -1.2187 -1.2777
 6332SOL    HW230456   3.941   3.730   2.061  1.2053  0.8067  0.9661
 6333SOL     OW30457   2.681   1.726   1.378 -0.5030 -0.4131 -0.4763
 6333SOL    HW130458   2.725   1.805   1.410 -2.3542  0.7532 -0.8003
 6333SOL    HW230459   2.651   1.678   1.455 -0.9369  0.0958 -0.3307
 6334SOL     OW30460   4.213   2.149   4.401  0.3546  0.1691 -0.1126
 6334SOL    HW130461   4.243   2.058   4.410 -1.0666  0.0535  3.5904
 6334SOL    HW230462   4.215   2.169   4.308  1.6627  2.3118  0.3753
 6335SOL     OW30463   3.414   1.953   3.817  0.9216  0.1133  0.9709
 6335SOL    HW130464   3.318   1.952   3.811  0.9786  0.1820 -0.0033
 6335SOL    HW230465   3.440   1.884   3.756 -3.1473 -0.8623  0.3063
 6336SOL     OW30466   2.379   0.748   7.187  0.2454 -0.5189 -0.4047
 6336SOL    HW130467   2.405   0.738   7.095 -1.7588  0.9930 -1.1479
 6336SOL    HW230468   2.395   0.841   7.200  1.4197 -0.9027  0.9204
 6337SOL     OW30469   4.207   2.365   5.445  0.2665 -0.1015 -0.1837
 6337SOL    HW130470   4.221   2.454   5.477  0.8952 -0.6574  1.0835
 6337SOL    HW230471   4.278   2.358   5.382  0.7697 -1.0884  0.4884
 6338SOL     OW30472   3.262   0.432   5.090  0.2885 -0.3816  0.0654
 6338SOL    HW130473   3.322   0.371   5.047  0.8355 -1.5545  2.4987
 6338SOL    HW230474   3.220   0.382   5.160  2.6275 -0.5294  1.3508
 6339SOL     OW30475   1.463   4.681   2.629 -0.0826  0.0017  0.7760
 6339SOL    HW130476   1.481   4.593   2.595 -0.2913  0.4320 -0.4474
 6339SOL    HW230477   1.403   4.660   2.700 -0.6810 -1.0708 -0.0536
 6340SOL     OW30478   4.513   3.420  17.553  0.3841  0.0959 -0.4100
 6340SOL    HW130479   4.561   3.381  17.626  0.7781  0.5147 -0.4497
 6340SOL    HW230480   4.495   3.511  17.577  0.1845  0.2539 -1.1530
 6341SOL     OW30481   0.460   3.764  16.734  0.6641  0.3021  0.5697
 6341SOL    HW130482   0.456   3.822  16.658  1.4450 -1.3198 -0.7164
 6341SOL    HW230483   0.497   3.820  16.802  0.4394  0.8391  0.2457
 6342SOL     OW30484   4.102   3.501   8.759 -0.0387  0.2471 -0.1718
 6342SOL    HW130485   4.119   3.420   8.807  0.9190  1.2494  1.1877
 6342SOL    HW230486   4.069   3.465   8.677  0.8266  0.1295 -0.4728
 6343SOL     OW30487   0.349   2.476   8.989 -0.4943  0.3404  0.0432
 6343SOL    HW130488   0.312   2.473   8.900 -1.6601 -0.0087  0.5425
 6343SOL    HW230489   0.308   2.549   9.035 -1.6045  0.7276 -1.5397
 6344SOL     OW30490   1.926   1.433   2.697  0.1538 -0.4794 -0.3086
 6344SOL    HW130491   1.893   1.347   2.671 -3.7753  0.7148  0.7482
 6344SOL    HW230492   1.987   1.440   2.624  0.6211  0.7433  0.2033
 6345SOL     OW30493   3.554   1.769   3.536  0.0810 -0.2146 -0.2672
 6345SOL    HW130494   3.624   1.787   3.598 -0.2932  2.1442 -0.5236
 6345SOL    HW230495   3.564   1.675   3.523 -2.3003 -0.2714 -1.6983
 6346SOL     OW30496   4.260   1.438  16.179  0.7139  0.8016 -0.4309
 6346SOL    HW130497   4.305   1.475  16.255  1.6448 -0.8840 -0.1686
 6346SOL    HW230498   4.233   1.521  16.139 -1.2292  0.2155 -0.3573
 6347SOL     OW30499   1.927   1.338   0.536  0.0622 -0.0405 -0.7535
 6347SOL    HW130500   1.974   1.293   0.466  1.7770 -0.6783  0.8351
 6347SOL    HW230501   1.862   1.273   0.563 -0.7625  1.9958  2.2214
 6348SOL     OW30502   0.781   3.441   3.522  0.0461 -0.1794  0.0501
 6348SOL    HW130503   0.707   3.502   3.526  1.0196  1.0456 -1.2745
 6348SOL    HW230504   0.788   3.437   3.427  0.4128 -1.6722  0.1385
 6349SOL     OW30505   4.178   4.067   2.027 -0.1759 -0.1289 -0.1773
 6349SOL    HW130506   4.191   4.027   1.940 -1.3596  0.7965 -0.7884
 6349SOL    HW230507   4.257   4.116   2.046 -0.4835  0.3654 -0.1598
 6350SOL     OW30508   1.421   4.437   8.847 -0.1381 -0.4320 -0.0978
 6350SOL    HW130509   1.464   4.462   8.765  0.3184  0.9252  0.5588
 6350SOL    HW230510   1.493   4.416   8.907  0.3774 -2.0877 -1.2772
 6351SOL     OW30511   1.429   2.927  13.013 -0.0409 -0.1410 -0.4042
 6351SOL    HW130512   1.346   2.929  12.967  0.0305  0.7883 -0.5064
 6351SOL    HW230513   1.484   2.929  12.935  1.5041  2.6652  0.7260
 6352SOL     OW30514   2.853   1.363   1.890 -0.1549  0.0973  0.5128
 6352SOL    HW130515   2.843   1.287   1.948 -2.9102  1.4404  1.8110
 6352SOL    HW230516   2.764   1.399   1.888 -0.3168 -0.3604 -0.9908
 6353SOL     OW30517   1.698   4.427   0.693 -0.1455 -0.2180 -0.0527
 6353SOL    HW130518   1.780   4.476   0.700 -0.9733  1.4759 -2.3968
 6353SOL    HW230519   1.732   4.351   0.741  0.8696 -0.9191 -1.8506
 6354SOL     OW30520   3.305   2.083   9.347 -0.4355  0.0456  0.0024
 6354SOL    HW130521   3.252   2.121   9.417  0.4783  2.2261 -0.4896
 6354SOL    HW230522   3.380   2.038   9.387 -0.8820 -0.4969  0.2370
 6355SOL     OW30523   2.128   2.564   0.831  0.3358 -0.9905 -0.5622
 6355SOL    HW130524   2.044   2.548   0.874  0.2234  1.1950  0.0124
 6355SOL    HW230525   2.104   2.634   0.771 -1.1259 -1.6170 -0.7236
 6356SOL     OW30526   4.508   0.729  17.164  0.4812  0.1641 -0.1526
 6356SOL    HW130527   4.425   0.770  17.138  0.6992  0.3683 -0.5205
 6356SOL    HW230528   4.479   0.638  17.160 -2.2364  1.0564 -0.6835
 6357SOL     OW30529   2.208   4.628   6.883 -0.2290 -0.2403  0.3529
 6357SOL    HW130530   2.236   4.537   6.888  1.3668  0.2280 -0.1153
 6357SOL    HW230531   2.254   4.655   6.803 -2.8340 -0.7654 -1.3464
 6358SOL     OW30532   2.385   4.455   5.184 -0.2875  0.5028  0.0609
 6358SOL    HW130533   2.455   4.496   5.132 -0.7672 -0.3148 -1.2452
 6358SOL    HW230534   2.382   4.364   5.154  2.3684  0.5406 -0.2997
 6359SOL     OW30535   2.792   2.838   7.074  0.0702 -0.2624  0.3371
 6359SOL    HW130536   2.778   2.828   7.168 -1.9666 -0.6344 -0.0049
 6359SOL    HW230537   2.827   2.926   7.056 -2.3018  0.6267  0.0310
 6360SOL     OW30538   1.447   2.643   7.807  0.2314  1.1301  0.1352
 6360SOL    HW130539   1.478   2.733   7.800 -0.6123  1.4250  0.1158
 6360SOL    HW230540   1.445   2.624   7.901 -0.8019 -1.5947 -0.4388
 6361SOL     OW30541   0.503   3.038   6.794  0.4197  0.2466  0.2638
 6361SOL    HW130542   0.479   3.044   6.887 -2.4185  0.7102 -0.5138
 6361SOL    HW230543   0.452   2.960   6.772  3.2866 -2.3685  2.8274
 6362SOL     OW30544   2.275   4.282   8.076  0.1070 -0.5154 -0.4919
 6362SOL    HW130545   2.201   4.341   8.062  0.1984 -0.5358 -1.0511
 6362SOL    HW230546   2.329   4.329   8.012 -1.3282 -0.6449 -1.7931
 6363SOL     OW30547   4.485   0.170   3.720 -0.1406  0.0449 -0.4415
 6363SOL    HW130548   4.537   0.168   3.800 -0.0615 -1.5112 -0.5388
 6363SOL    HW230549   4.517   0.092   3.675 -0.2187  0.2497 -0.8574
 6364SOL     OW30550   3.552   1.381   7.407  0.1762 -0.0071 -0.1734
 6364SOL    HW130551   3.586   1.292   7.400  0.0817 -0.0713  0.1902
 6364SOL    HW230552   3.625   1.431   7.445  0.5742 -1.2891  0.7465
 6365SOL     OW30553   2.279   2.835   7.947 -0.3103  0.1270  0.3267
 6365SOL    HW130554   2.224   2.790   7.884 -1.1578  0.3861  0.8853
 6365SOL    HW230555   2.219   2.884   8.003  2.0819  0.8183  2.3271
 6366SOL     OW30556   2.753   4.255  15.526  0.1697  0.2247 -0.2763
 6366SOL    HW130557   2.730   4.200  15.601 -0.9919  0.5296 -0.4189
 6366SOL    HW230558   2.824   4.306  15.566 -0.8418  0.1681  1.6104
 6367SOL     OW30559   3.840   3.695  12.948  0.5855 -0.0938  0.0085
 6367SOL    HW130560   3.750   3.723  12.936  0.6994  0.1737 -0.2156
 6367SOL    HW230561   3.869   3.720  12.860 -0.1995 -2.2736 -0.8586
 6368SOL     OW30562   0.863   4.054   6.781  0.3225  0.8263  0.2519
 6368SOL    HW130563   0.821   3.973   6.751  0.1737  1.6936 -1.8829
 6368SOL    HW230564   0.920   4.084   6.711  0.1918  1.6232  0.4948
 6369SOL     OW30565   3.598   3.733  11.868 -0.0726 -0.4277 -0.1141
 6369SOL    HW130566   3.637   3.700  11.787  3.3938  1.8810  0.6419
 6369SOL    HW230567   3.643   3.683  11.937 -0.7495 -1.0458 -0.1204
 6370SOL     OW30568   2.601   1.043  10.000  0.2115 -0.1490 -0.2470
 6370SOL    HW130569   2.631   1.005   9.918  1.1552 -1.5929  0.7729
 6370SOL    HW230570   2.549   0.971  10.035  0.0982  0.0911  0.0843
 6371SOL     OW30571   3.423   2.892   4.625 -0.0080 -0.4217  0.9119
 6371SOL    HW130572   3.363   2.934   4.562  0.5303  0.6514  1.1053
 6371SOL    HW230573   3.506   2.925   4.591 -0.7057  0.1463 -0.2690
 6372SOL     OW30574   2.842   0.259   6.133 -0.8159 -0.4612 -0.3116
 6372SOL    HW130575   2.913   0.279   6.073 -0.4295 -0.8075  0.0306
 6372SOL    HW230576   2.772   0.228   6.075 -0.2484  0.7239 -1.6158
 6373SOL     OW30577   3.310   2.713   6.490 -0.4797  0.0960 -0.7621
 6373SOL    HW130578   3.318   2.802   6.522 -0.0882 -0.0969 -0.3196
 6373SOL    HW230579   3.227   2.726   6.445 -2.3090 -2.3281  1.9275
 6374SOL     OW30580   1.301   1.452  11.660 -0.3293  0.2818 -0.5411
 6374SOL    HW130581   1.284   1.522  11.596 -0.1018  0.5917 -0.2584
 6374SOL    HW230582   1.251   1.478  11.737 -0.5749  0.0082 -0.6087
 6375SOL     OW30583   1.328   2.521  10.560  0.5472 -0.5017 -0.1151
 6375SOL    HW130584   1.238   2.523  10.591  0.6527  3.1394  0.0416
 6375SOL    HW230585   1.346   2.428  10.550  1.3020 -0.0621 -2.9034
 6376SOL     OW30586   1.759   1.132   3.278  0.3499 -0.9754  0.0940
 6376SOL    HW130587   1.846   1.106   3.248 -0.0108 -1.8120 -0.2187
 6376SOL    HW230588   1.720   1.046   3.294 -0.2312 -0.9088 -0.9529
 6377SOL     OW30589   3.083   1.186   6.009  0.4944  0.9400  0.4153
 6377SOL    HW130590   3.000   1.203   6.053  0.9866 -0.1670  1.7786
 6377SOL    HW230591   3.142   1.222   6.074 -0.2230  3.7585 -0.4753
 6378SOL     OW30592   1.400   0.338   9.703  0.5294 -0.2211 -0.4241
 6378SOL    HW130593   1.391   0.419   9.752  0.1462 -0.4299 -0.1563
 6378SOL    HW230594   1.478   0.316   9.755  0.3544  1.0780  0.3815
 6379SOL     OW30595   1.133   2.416   9.619 -0.1642  0.3139  0.1318
 6379SOL    HW130596   1.039   2.424   9.602 -0.0218 -1.3484 -1.4246
 6379SOL    HW230597   1.157   2.509   9.619 -2.4321  0.8922 -0.3923
 6380SOL     OW30598   3.732   1.517   9.510  0.3316  0.2768  0.1178
 6380SOL    HW130599   3.751   1.535   9.418 -0.6991  0.4474 -0.0622
 6380SOL    HW230600   3.776   1.433   9.519  1.5750  0.9458  0.2740
 6381SOL     OW30601   1.956   0.145   0.633  0.0967 -0.2283 -0.4636
 6381SOL    HW130602   2.017   0.072   0.620 -0.2888 -0.9279  1.7973
 6381SOL    HW230603   1.999   0.196   0.702  0.5188 -0.6766 -0.3945
 6382SOL     OW30604   3.992   2.197   7.334  0.1673  0.0087  0.3836
 6382SOL    HW130605   4.026   2.278   7.297 -2.0496  1.3875  1.3789
 6382SOL    HW230606   3.899   2.213   7.347  0.5262  2.8744 -0.7122
 6383SOL     OW30607   3.846   2.685  13.290  0.5407  0.1032 -0.0968
 6383SOL    HW130608   3.934   2.709  13.319  0.5064 -0.5541  0.5526
 6383SOL    HW230609   3.832   2.602  13.337 -0.1876 -0.3363 -1.0958
 6384SOL     OW30610   2.717   4.253   8.906 -0.7094  0.4149 -0.1477
 6384SOL    HW130611   2.623   4.266   8.911 -1.3210 -3.0349 -2.7547
 6384SOL    HW230612   2.759   4.331   8.941  0.1432  1.3121 -3.1841
 6385SOL     OW30613   2.783   3.224  15.388  0.7742 -0.2275  0.7084
 6385SOL    HW130614   2.695   3.263  15.386  0.8262 -0.2279 -1.6041
 6385SOL    HW230615   2.834   3.291  15.434  1.5431 -0.8457  0.7576
 6386SOL     OW30616   1.359   2.620   8.714  0.1995  0.3227  0.2074
 6386SOL    HW130617   1.316   2.700   8.744 -1.9027 -1.1283  1.1082
 6386SOL    HW230618   1.290   2.554   8.728 -1.2433  1.8176  0.1723
 6387SOL     OW30619   3.469   3.289   9.429 -0.8445  0.6732 -0.0973
 6387SOL    HW130620   3.524   3.359   9.463  1.8365 -1.0862 -0.8017
 6387SOL    HW230621   3.476   3.298   9.334  2.3452 -1.0747 -0.0245
 6388SOL     OW30622   4.716   1.384   8.745  0.1311  0.0066 -0.0931
 6388SOL    HW130623   0.063   1.338   8.796 -0.4996  3.8050  4.1443
 6388SOL    HW230624   0.027   1.371   8.656 -0.0977 -0.3436 -0.1220
 6389SOL     OW30625   0.636   0.682   7.075  0.7053  0.1445 -1.3325
 6389SOL    HW130626   0.609   0.590   7.068 -3.8523  1.3139  0.5208
 6389SOL    HW230627   0.624   0.710   6.984 -1.9450  1.1056 -0.6702
 6390SOL     OW30628   1.898   3.452   2.710  0.5130  0.3379 -0.2288
 6390SOL    HW130629   1.940   3.446   2.624  3.0819  2.3062  0.9055
 6390SOL    HW230630   1.820   3.398   2.695  0.4906  0.0609  0.8789
 6391SOL     OW30631   3.014   3.394   5.433 -0.0960  0.0426  0.1843
 6391SOL    HW130632   3.042   3.336   5.503 -1.5579  0.9677  1.5713
 6391SOL    HW230633   2.955   3.446   5.489  1.2048  2.8621 -1.0426
 6392SOL     OW30634   1.586   0.184   3.667 -0.1353  0.0088 -0.0736
 6392SOL    HW130635   1.614   0.107   3.716 -1.6213  0.4235  1.4180
 6392SOL    HW230636   1.494   0.162   3.655  0.0331 -0.4250 -0.5866
 6393SOL     OW30637   4.508   1.597   5.755 -0.7745  0.7215  0.1632
 6393SOL    HW130638   4.560   1.666   5.795  0.5448 -0.3079  0.2458
 6393SOL    HW230639   4.570   1.530   5.785 -2.4754 -0.9510 -0.1063
 6394SOL     OW30640   1.155   2.236  11.839 -0.0671 -0.0763 -0.0564
 6394SOL    HW130641   1.116   2.177  11.774 -0.1060  1.3105 -1.3126
 6394SOL    HW230642   1.245   2.238  11.805 -0.5264 -0.5058 -1.2870
 6395SOL     OW30643   3.828   2.908   4.369  0.1728  0.2713 -0.1383
 6395SOL    HW130644   3.914   2.870   4.349 -0.2515  0.1014 -1.5929
 6395SOL    HW230645   3.768   2.835   4.382 -0.1256  0.0703 -2.6638
 6396SOL     OW30646   3.985   3.644   3.126  0.0452 -0.3339  0.5636
 6396SOL    HW130647   3.899   3.646   3.168  0.2800  2.5680  0.8894
 6396SOL    HW230648   3.990   3.550   3.110  1.5611 -0.1761  0.1309
 6397SOL     OW30649   4.440   3.381  15.916  0.5953 -0.4059 -0.1954
 6397SOL    HW130650   4.446   3.309  15.980 -0.3216  0.6157  1.0412
 6397SOL    HW230651   4.533   3.402  15.919  0.6985 -0.6460 -1.7062
 6398SOL     OW30652   4.697   2.685  11.606 -0.1828  0.6141 -0.3932
 6398SOL    HW130653   4.664   2.724  11.687  1.3866 -0.6209  0.8312
 6398SOL    HW230654   4.618   2.654  11.562  0.0868 -0.7445  0.0989
 6399SOL     OW30655   4.597   2.233   1.742 -0.4332 -0.0421 -0.2200
 6399SOL    HW130656   4.640   2.288   1.807  0.6603 -0.8013 -0.2956
 6399SOL    HW230657   4.681   2.196   1.716 -1.0372 -2.1977  0.9302
 6400SOL     OW30658   3.803   1.921  11.747  0.1733 -0.1120  0.0776
 6400SOL    HW130659   3.728   1.895  11.801 -0.0129 -0.0217 -0.1345
 6400SOL    HW230660   3.770   1.906  11.658 -0.7937 -3.0676  0.9492
 6401SOL     OW30661   0.568   4.047  11.621  0.5411  0.3732 -0.0937
 6401SOL    HW130662   0.639   4.020  11.563  2.6806  1.0951  2.2157
 6401SOL    HW230663   0.490   4.028  11.568 -1.0380 -0.2482  2.4268
 6402SOL     OW30664   0.339   2.873   1.342  0.0753  0.0326 -0.2884
 6402SOL    HW130665   0.370   2.792   1.301  0.7820  1.2021 -2.0376
 6402SOL    HW230666   0.342   2.852   1.435  1.0181  1.5318  0.0038
 6403SOL     OW30667   1.677   0.641   0.236  0.5053 -0.3217 -0.5081
 6403SOL    HW130668   1.754   0.692   0.260 -0.6925  1.0578  0.3960
 6403SOL    HW230669   1.644   0.614   0.321  0.3154 -0.8392 -0.7452
 6404SOL     OW30670   0.894   3.276   3.902  0.1383 -0.0346  0.1810
 6404SOL    HW130671   0.923   3.368   3.901  2.9154 -0.9329 -1.1718
 6404SOL    HW230672   0.951   3.240   3.970  0.7835 -0.1641 -0.4248
 6405SOL     OW30673   3.683   0.451   9.761 -0.1561 -0.3903  0.2943
 6405SOL    HW130674   3.663   0.402   9.681  0.9384  3.3024 -2.2332
 6405SOL    HW230675   3.609   0.430   9.818 -1.2333  0.5928 -0.7407
 6406SOL     OW30676   3.586   1.937  16.786 -0.3277 -0.1545 -0.2169
 6406SOL    HW130677   3.508   1.906  16.741 -0.6214 -0.6129  0.6042
 6406SOL    HW230678   3.542   1.984  16.858 -1.0379  0.6399 -1.1672
 6407SOL     OW30679   3.757   3.394   6.240  0.3834 -0.5775  0.5829
 6407SOL    HW130680   3.771   3.481   6.276 -2.3342  0.2173 -0.2941
 6407SOL    HW230681   3.798   3.347   6.312  1.0853  0.1664  0.6598
 6408SOL     OW30682   1.529   2.089   5.561 -0.6329 -0.1676 -0.8286
 6408SOL    HW130683   1.500   2.003   5.531  0.0204 -0.7837  0.3112
 6408SOL    HW230684   1.454   2.139   5.528 -0.5894  1.0880  0.9991
 6409SOL     OW30685   2.434   0.976   3.126 -0.2362 -0.6821  0.1561
 6409SOL    HW130686   2.345   0.946   3.110 -0.4709 -0.5305  1.2288
 6409SOL    HW230687   2.485   0.915   3.072  3.6873  0.6999  2.2966
 6410SOL     OW30688   3.923   3.308   3.778 -0.9036 -0.1039  0.3423
 6410SOL    HW130689   3.844   3.271   3.738 -1.5211 -0.8406  2.2211
 6410SOL    HW230690   3.904   3.284   3.869 -0.7241 -1.0406  0.1267
 6411SOL     OW30691   0.019   1.565   6.678 -0.6528 -0.0735 -0.1709
 6411SOL    HW130692   4.648   1.538   6.667 -0.3983 -0.6519 -0.9019
 6411SOL    HW230693   0.048   1.587   6.589 -1.0868 -0.9476 -0.5238
 6412SOL     OW30694   2.890   3.717   3.749 -0.1585 -0.1551 -0.5948
 6412SOL    HW130695   2.972   3.675   3.720  0.6261  1.2252 -0.3618
 6412SOL    HW230696   2.841   3.648   3.794  1.9653 -0.9579  0.5149
 6413SOL     OW30697   2.105   1.875   1.897 -0.5125  0.2831  0.8038
 6413SOL    HW130698   2.075   1.787   1.918 -0.1800 -0.3599 -1.4320
 6413SOL    HW230699   2.132   1.899   1.986  1.0629 -1.1834  0.7025
 6414SOL     OW30700   2.480   0.733  11.833 -0.3431 -0.0674  0.0792
 6414SOL    HW130701   2.531   0.784  11.896  2.5439 -1.5124 -1.0526
 6414SOL    HW230702   2.488   0.790  11.756 -0.3569 -0.2571 -0.0627
 6415SOL     OW30703   4.061   3.172   5.924 -0.5642 -0.6677  0.2344
 6415SOL    HW130704   3.967   3.151   5.922 -0.5844 -0.6016  0.5009
 6415SOL    HW230705   4.094   3.117   5.995 -0.9983 -1.9814 -0.5840
 6416SOL     OW30706   2.947   4.669   8.054 -0.4761  0.4307 -0.2422
 6416SOL    HW130707   2.985   4.659   8.141  0.4453 -1.2922 -0.8469
 6416SOL    HW230708   3.012   4.640   7.990 -2.3958  0.0050 -2.0140
 6417SOL     OW30709   1.673   2.283   7.091  0.0667  0.2441  0.3003
 6417SOL    HW130710   1.748   2.306   7.146 -0.6273 -0.4285  1.5343
 6417SOL    HW230711   1.677   2.189   7.074  1.0056  0.0274  1.6715
 6418SOL     OW30712   3.023   2.243   3.882  0.1645  0.1760 -0.6234
 6418SOL    HW130713   3.094   2.181   3.890 -2.2222 -2.6014 -0.9013
 6418SOL    HW230714   3.004   2.260   3.974  2.1617  1.4773 -0.4535
 6419SOL     OW30715   1.737   2.663   5.233  0.6032  0.1072 -0.0849
 6419SOL    HW130716   1.816   2.675   5.180  1.8007 -0.1127  1.6493
 6419SOL    HW230717   1.772   2.632   5.317  0.6619 -0.3329 -0.2688
 6420SOL     OW30718   1.499   3.167   6.460 -0.2382 -0.1055  0.1500
 6420SOL    HW130719   1.592   3.144   6.466 -0.0593  0.4115 -0.6103
 6420SOL    HW230720   1.493   3.256   6.493 -0.2677 -0.8450  2.1034
 6421SOL     OW30721   3.820   1.538   9.847 -0.6617 -0.1942  0.1141
 6421SOL    HW130722   3.736   1.506   9.814 -0.0271 -1.1341 -0.5781
 6421SOL    HW230723   3.852   1.576   9.765 -3.3163 -0.0334 -0.8508
 6422SOL     OW30724   0.478   3.762   3.943  0.4690 -0.1162  0.0335
 6422SOL    HW130725   0.461   3.800   4.029  0.3784  0.3718 -0.2047
 6422SOL    HW230726   0.394   3.783   3.903 -0.0321 -0.5779  0.8455
 6423SOL     OW30727   2.357   0.361  13.581  0.1598 -0.0045  0.2642
 6423SOL    HW130728   2.278   0.307  13.576  1.4977 -1.9727  0.6080
 6423SOL    HW230729   2.325   0.402  13.661 -1.4186 -0.0856 -0.3286
 6424SOL     OW30730   2.079   4.509   8.071 -0.2770  0.4646 -0.5035
 6424SOL    HW130731   1.986   4.519   8.095 -1.0204 -3.0162 -1.9273
 6424SOL    HW230732   2.089   4.584   8.013  2.1720 -0.7020 -1.5759
 6425SOL     OW30733   2.335   2.443  13.472  0.0266  0.0043  0.1089
 6425SOL    HW130734   2.410   2.425  13.416 -0.5612 -1.9326 -0.0565
 6425SOL    HW230735   2.281   2.498  13.414  0.9599 -0.0320 -0.7910
 6426SOL     OW30736   3.879   3.957   6.690 -0.2086 -0.1348  0.0580
 6426SOL    HW130737   3.885   4.005   6.607 -0.3557  0.8269  0.6119
 6426SOL    HW230738   3.836   4.020   6.747  0.5668  1.2653 -0.8962
 6427SOL     OW30739   1.991   0.044  13.209 -0.4703  0.9391 -0.1573
 6427SOL    HW130740   1.900   0.020  13.224 -1.1182  4.3244  1.3830
 6427SOL    HW230741   2.046   0.012  13.280  0.1542  0.7722 -0.7168
 6428SOL     OW30742   0.556   1.299  10.536  0.9723  0.1716  0.5966
 6428SOL    HW130743   0.524   1.256  10.615  0.0547 -0.1159  0.0690
 6428SOL    HW230744   0.529   1.388  10.555  3.2268  1.1522 -0.6626
 6429SOL     OW30745   3.063   2.000   4.648  0.1998  0.2690 -0.8988
 6429SOL    HW130746   3.024   2.087   4.638 -0.2823  0.3360  1.5904
 6429SOL    HW230747   3.103   1.999   4.560  0.3531 -1.4660 -0.8088
 6430SOL     OW30748   3.288   1.675   5.200 -0.5956  0.3545  0.6166
 6430SOL    HW130749   3.323   1.669   5.112 -0.5285  0.1142  0.6623
 6430SOL    HW230750   3.290   1.767   5.228  1.1885 -0.0736  1.9032
 6431SOL     OW30751   3.535   3.311   1.222 -0.0274 -0.5028 -0.3689
 6431SOL    HW130752   3.523   3.227   1.265  2.4413 -0.1013  1.1083
 6431SOL    HW230753   3.445   3.339   1.210  0.2969  0.4429 -0.6113
 6432SOL     OW30754   0.731   0.856  14.458 -0.2636 -0.0160 -0.2152
 6432SOL    HW130755   0.649   0.827  14.498 -0.6708 -1.9546 -2.4080
 6432SOL    HW230756   0.735   0.812  14.373 -2.6503 -0.0820 -0.2878
 6433SOL     OW30757   0.131   3.040   8.035 -0.7306 -0.0961 -0.4113
 6433SOL    HW130758   0.074   3.042   7.958  2.6915  0.0583 -2.9316
 6433SOL    HW230759   0.074   2.982   8.087  1.5793 -1.5016  0.5467
 6434SOL     OW30760   3.124   0.290   5.562 -0.2511 -0.2274  0.3596
 6434SOL    HW130761   3.125   0.194   5.558 -2.1231 -0.1025 -2.5833
 6434SOL    HW230762   3.209   0.307   5.604 -0.0158  0.7777 -0.5132
 6435SOL     OW30763   3.929   2.843   1.867  0.1877 -0.3364  0.0425
 6435SOL    HW130764   3.884   2.822   1.785  1.1889  1.2066 -0.9007
 6435SOL    HW230765   3.963   2.928   1.840  0.3543  0.1932  1.9186
 6436SOL     OW30766   2.930   2.584  10.053 -0.1705  0.4047 -0.0271
 6436SOL    HW130767   2.904   2.638   9.978 -2.6859  1.3065  1.5052
 6436SOL    HW230768   2.857   2.523  10.065 -0.4942  0.7888 -0.0313
 6437SOL     OW30769   1.363   2.411   6.488  0.3055 -0.2764  0.1051
 6437SOL    HW130770   1.317   2.434   6.407 -1.0797 -1.6294  0.5144
 6437SOL    HW230771   1.286   2.372   6.530 -0.4482  1.7419  0.6141
 6438SOL     OW30772   1.752   0.615   4.097  0.0727  0.8175  0.2166
 6438SOL    HW130773   1.813   0.626   4.024 -0.3066  2.3362  0.1444
 6438SOL    HW230774   1.673   0.586   4.053  0.0908  0.9269  0.1141
 6439SOL     OW30775   1.453   3.677  13.687  0.3225  0.2922  0.3770
 6439SOL    HW130776   1.436   3.607  13.624  0.9431 -0.1954  0.7490
 6439SOL    HW230777   1.394   3.660  13.761 -0.9923 -2.6243 -1.3182
 6440SOL     OW30778   1.939   4.567   6.775  0.3080  0.5478  0.1214
 6440SOL    HW130779   1.947   4.514   6.696 -1.8353 -1.2466  1.0901
 6440SOL    HW230780   2.026   4.588   6.806 -0.3731  0.3513  2.1603
 6441SOL     OW30781   0.176   4.216  15.916 -0.1795  0.1312 -0.0327
 6441SOL    HW130782   0.219   4.295  15.883  3.5209 -1.6664  0.4902
 6441SOL    HW230783   0.248   4.171  15.960 -0.7766  1.4900  2.2838
 6442SOL     OW30784   0.772   3.239   7.990 -0.8026 -0.7180  0.3812
 6442SOL    HW130785   0.844   3.216   8.050  0.0452  1.5370  0.2229
 6442SOL    HW230786   0.706   3.204   8.049 -0.3133 -1.2271  0.6290
 6443SOL     OW30787   0.336   0.889   3.159 -0.4276  0.0391 -0.0837
 6443SOL    HW130788   0.310   0.797   3.164  0.9844 -0.4451 -1.6584
 6443SOL    HW230789   0.337   0.912   3.252  1.4122 -4.5008  0.9931
 6444SOL     OW30790   1.916   3.800   8.942 -0.2609 -0.0212  0.2525
 6444SOL    HW130791   1.880   3.739   9.007 -1.4064 -0.6236 -0.9562
 6444SOL    HW230792   1.950   3.874   8.992 -1.0773  0.0879  0.6349
 6445SOL     OW30793   4.441   1.049   3.981 -0.1403  0.4825  0.5169
 6445SOL    HW130794   4.492   1.125   3.956  2.9833 -2.1069 -1.0108
 6445SOL    HW230795   4.444   1.064   4.075 -0.9297  2.2688  0.2480
 6446SOL     OW30796   4.124   2.989   4.208 -0.7106  0.5297  0.2706
 6446SOL    HW130797   4.136   2.910   4.261 -0.0478  1.3326  1.3361
 6446SOL    HW230798   4.209   3.032   4.221 -0.6482  0.9632 -1.6838
 6447SOL     OW30799   0.113   2.448   5.080  0.0378  0.7092 -0.8989
 6447SOL    HW130800   0.051   2.400   5.026 -0.0330 -1.8997  1.5287
 6447SOL    HW230801   0.191   2.403   5.047 -1.1907 -0.7089 -1.8236
 6448SOL     OW30802   2.448   4.429   3.309 -0.1858 -0.2474 -0.2026
 6448SOL    HW130803   2.484   4.411   3.222  0.8033 -0.2747  0.2154
 6448SOL    HW230804   2.436   4.337   3.332  1.1055 -0.4555 -0.3360
 6449SOL     OW30805   3.792   2.326   8.051 -0.0967  0.1915 -0.2121
 6449SOL    HW130806   3.709   2.351   8.092  0.6362  0.2560  1.2251
 6449SOL    HW230807   3.767   2.317   7.959 -0.8209 -0.3405  0.0357
 6450SOL     OW30808   1.807   0.367   6.846 -0.7574 -0.4238  0.0305
 6450SOL    HW130809   1.714   0.350   6.864 -0.1335 -2.9930  0.6827
 6450SOL    HW230810   1.855   0.286   6.860  2.2520  1.6712  1.9036
 6451SOL     OW30811   3.883   4.034   8.972 -0.4836  0.4285  0.3044
 6451SOL    HW130812   3.901   4.128   8.976 -1.2408  0.5737  0.2335
 6451SOL    HW230813   3.957   3.999   9.021 -2.0676  0.8112  2.9601
 6452SOL     OW30814   0.871   0.820   8.524 -0.0842  0.1590 -0.0567
 6452SOL    HW130815   0.845   0.739   8.480  0.4551  0.5353 -1.0571
 6452SOL    HW230816   0.943   0.779   8.573  1.4674  0.2794 -2.2378
 6453SOL     OW30817   3.009   2.077   1.744  0.0399  0.6732  0.1526
 6453SOL    HW130818   2.977   2.022   1.815  1.0668 -0.6092 -0.3934
 6453SOL    HW230819   3.096   2.099   1.778 -0.7333  0.4240  2.2798
 6454SOL     OW30820   3.984   3.098   7.219 -0.7310 -0.1129 -0.1461
 6454SOL    HW130821   4.007   3.042   7.293  1.6632  0.1703 -0.6675
 6454SOL    HW230822   3.960   3.176   7.268 -0.6557 -1.2707  1.6976
 6455SOL     OW30823   0.322   0.244   1.331  0.1746  0.2011  0.4370
 6455SOL    HW130824   0.309   0.248   1.236  1.7602  0.6150  0.2350
 6455SOL    HW230825   0.282   0.158   1.344  1.1865 -0.3580 -0.1034
 6456SOL     OW30826   4.273   2.792  17.370 -0.0520  0.2927  0.0324
 6456SOL    HW130827   4.340   2.860  17.366  0.9120 -0.5921  1.0306
 6456SOL    HW230828   4.220   2.818  17.295  1.3227 -1.8189 -1.6541
 6457SOL     OW30829   4.106   4.118   5.270 -0.0839  0.1309 -0.1079
 6457SOL    HW130830   4.072   4.184   5.331 -2.2339  0.5415 -1.7355
 6457SOL    HW230831   4.182   4.078   5.311 -1.3353 -0.8383  1.2949
 6458SOL     OW30832   3.547   2.465   5.697  0.4211 -1.0341  0.3559
 6458SOL    HW130833   3.587   2.401   5.756 -1.2396  0.1310  2.7701
 6458SOL    HW230834   3.521   2.420   5.617  0.2106 -0.3822  0.0593
 6459SOL     OW30835   1.244   2.702   5.063  0.2591 -0.1845 -0.4198
 6459SOL    HW130836   1.182   2.767   5.029  0.7203  0.4872  0.0258
 6459SOL    HW230837   1.251   2.720   5.156  0.7500 -0.6048 -0.3764
 6460SOL     OW30838   0.740   0.767   7.904  0.3658  0.3749  0.7141
 6460SOL    HW130839   0.747   0.725   7.818 -1.8716  0.0070  0.7246
 6460SOL    HW230840   0.751   0.861   7.891  1.8503  0.1577  0.4036
 6461SOL     OW30841   3.525   4.112   8.716  0.1581  0.3703 -0.1424
 6461SOL    HW130842   3.487   4.052   8.653  2.2461 -0.4495 -0.5998
 6461SOL    HW230843   3.615   4.080   8.714  0.5827  1.4176  1.8087
 6462SOL     OW30844   2.426   1.105   1.196 -0.3489  0.5442 -0.3546
 6462SOL    HW130845   2.429   1.137   1.105 -0.3663 -1.6352 -1.1132
 6462SOL    HW230846   2.517   1.083   1.215 -0.4490  1.0037  0.6457
 6463SOL     OW30847   1.220   2.310   1.297  0.5028 -0.1104  0.1315
 6463SOL    HW130848   1.137   2.272   1.328  0.7025 -1.1151 -0.5599
 6463SOL    HW230849   1.270   2.233   1.272  1.3945  0.5950 -0.2336
 6464SOL     OW30850   0.024   3.367  11.609 -0.3313 -0.4894  0.2505
 6464SOL    HW130851   0.007   3.293  11.551  0.3613 -1.2111  0.9796
 6464SOL    HW230852   0.039   3.441  11.549  0.1468 -1.6492 -1.0653
 6465SOL     OW30853   0.510   1.652   7.879 -0.0987  0.5661  0.6460
 6465SOL    HW130854   0.574   1.602   7.928 -0.0712 -0.5059 -0.4893
 6465SOL    HW230855   0.550   1.737   7.859  0.9487 -0.1920 -0.4843
 6466SOL     OW30856   3.847   2.537   0.805 -0.1347 -0.0854 -0.2507
 6466SOL    HW130857   3.873   2.509   0.718 -0.0392  1.9226 -0.8675
 6466SOL    HW230858   3.894   2.480   0.865 -1.3087 -1.9028 -1.0841
 6467SOL     OW30859   4.408   1.667   7.589  0.3091  0.1956  0.4102
 6467SOL    HW130860   4.446   1.743   7.632  1.5656  0.1523 -0.6288
 6467SOL    HW230861   4.313   1.683   7.587  0.3900  0.5868 -0.5654
 6468SOL     OW30862   4.487   3.644   2.567  0.2959 -0.3206  0.1848
 6468SOL    HW130863   4.418   3.672   2.627  1.7327 -0.4627  1.8942
 6468SOL    HW230864   4.523   3.561   2.595  1.4473  0.0342 -0.2410
 6469SOL     OW30865   2.136   2.951   6.172  0.2268 -0.7663  0.0927
 6469SOL    HW130866   2.123   3.027   6.115 -1.3734 -2.0091 -1.1924
 6469SOL    HW230867   2.230   2.937   6.183  0.4639 -1.9776 -3.5467
 6470SOL     OW30868   1.796   2.301  16.021 -0.4594  0.1895  0.1812
 6470SOL    HW130869   1.868   2.296  16.084 -0.9240 -0.9024  0.6135
 6470SOL    HW230870   1.775   2.393  16.004 -1.7426 -0.4492 -1.6346
 6471SOL     OW30871   4.042   0.708   2.564 -0.0457  0.1819  1.3159
 6471SOL    HW130872   4.091   0.707   2.646  2.3960 -0.9691 -0.1208
 6471SOL    HW230873   4.016   0.616   2.557  1.0367 -0.0534  0.1054
 6472SOL     OW30874   1.561   0.351  13.955  0.0161 -0.0836  0.3889
 6472SOL    HW130875   1.505   0.365  13.879 -0.4322  0.8099  0.8743
 6472SOL    HW230876   1.504   0.307  14.018 -1.8765 -0.6151 -1.6806
 6473SOL     OW30877   3.098   0.258   3.155 -0.2162  0.7033  0.5262
 6473SOL    HW130878   3.125   0.349   3.169  0.2698  0.5996  0.2697
 6473SOL    HW230879   3.177   0.208   3.133 -0.0477  1.7865 -1.3781
 6474SOL     OW30880   3.015   3.607  13.911  0.2025 -0.2585 -0.1925
 6474SOL    HW130881   2.959   3.570  13.980 -0.1684  0.5473 -0.0582
 6474SOL    HW230882   3.087   3.544  13.912  0.5473  0.1333 -1.7342
 6475SOL     OW30883   2.252   4.082   5.639 -0.0036 -0.0901 -0.0501
 6475SOL    HW130884   2.307   4.044   5.571 -1.1267  0.3224 -1.1815
 6475SOL    HW230885   2.172   4.092   5.588  0.4579  0.4163 -0.6701
 6476SOL     OW30886   2.717   3.556   6.364 -0.4398 -0.0137  0.5426
 6476SOL    HW130887   2.743   3.468   6.339  2.8079  1.6707 -1.8435
 6476SOL    HW230888   2.667   3.533   6.443 -0.1741 -0.9255  0.4455
 6477SOL     OW30889   4.271   3.033  11.236 -0.1499 -0.0733 -0.4573
 6477SOL    HW130890   4.262   2.997  11.324  2.5680 -0.7390 -0.4526
 6477SOL    HW230891   4.184   3.068  11.215 -0.3824  0.1031  0.8361
 6478SOL     OW30892   2.588   3.831   6.146 -0.0251 -0.2913 -0.1467
 6478SOL    HW130893   2.670   3.804   6.187  0.5980  0.6728 -0.7453
 6478SOL    HW230894   2.526   3.794   6.209  0.6321  0.5148  0.9753
 6479SOL     OW30895   4.337   4.246   5.608  0.4679 -0.2763 -0.2235
 6479SOL    HW130896   4.267   4.277   5.550 -1.2706 -2.0514  0.9199
 6479SOL    HW230897   4.344   4.153   5.584  0.4751 -0.4670  0.5313
 6480SOL     OW30898   3.412   2.284   5.979  0.3605 -0.6953 -0.1135
 6480SOL    HW130899   3.426   2.212   6.041  0.4063 -1.0095 -0.4889
 6480SOL    HW230900   3.499   2.289   5.940 -0.0273  1.5371 -0.6424
 6481SOL     OW30901   3.352   1.644  16.012 -0.3866 -0.1832 -1.1855
 6481SOL    HW130902   3.403   1.692  16.077 -1.4514 -0.6175 -0.0399
 6481SOL    HW230903   3.422   1.609  15.956 -0.7965  0.8706 -2.3630
 6482SOL     OW30904   2.372   1.816   5.836 -0.0473  0.2484  0.0103
 6482SOL    HW130905   2.298   1.851   5.886 -0.1607  0.8009 -0.5415
 6482SOL    HW230906   2.435   1.889   5.841 -0.0104  0.0661  2.2176
 6483SOL     OW30907   4.540   2.341  11.350  0.0686  0.4923 -0.3408
 6483SOL    HW130908   4.509   2.274  11.289 -0.7014 -0.9316  1.6287
 6483SOL    HW230909   4.625   2.303  11.374 -0.0104 -0.8090 -2.0750
 6484SOL     OW30910   3.339   2.018   2.490 -0.7224 -0.4166 -0.0199
 6484SOL    HW130911   3.275   2.049   2.554  0.4901  0.1819  0.8961
 6484SOL    HW230912   3.336   2.086   2.422  0.2954 -0.5807 -0.2267
 6485SOL     OW30913   1.572   4.300   0.177  0.0705  0.0962 -0.4495
 6485SOL    HW130914   1.620   4.250   0.112  2.1047 -0.6980  1.6698
 6485SOL    HW230915   1.643   4.343   0.226  0.1062  0.3919 -0.7579
 6486SOL     OW30916   2.105   1.472   4.493 -0.2250 -0.0850  0.0001
 6486SOL    HW130917   2.096   1.423   4.412  1.7245  0.5625 -0.5894
 6486SOL    HW230918   2.029   1.531   4.487 -1.7582 -2.1371 -0.8355
 6487SOL     OW30919   0.108   1.691   3.615  0.2584 -0.2749 -0.3075
 6487SOL    HW130920   0.074   1.732   3.535 -0.0463 -0.7738 -0.4333
 6487SOL    HW230921   0.169   1.756   3.651  0.5493 -1.9334  2.2015
 6488SOL     OW30922   3.941   0.077   7.263  0.1629  0.0898 -0.1021
 6488SOL    HW130923   4.025   0.063   7.306  0.2549 -0.4014 -0.4531
 6488SOL    HW230924   3.947   0.172   7.251 -1.1991 -0.2045 -2.9846
 6489SOL     OW30925   0.829   3.034   2.911  0.1226 -0.3993 -0.0263
 6489SOL    HW130926   0.810   2.972   2.840  0.7074 -0.1171 -0.4318
 6489SOL    HW230927   0.778   3.110   2.881 -0.5439  0.3597  3.0940
 6490SOL     OW30928   1.130   0.104   2.032  0.7164  0.3096  0.0004
 6490SOL    HW130929   1.135   0.113   2.127 -0.6680 -0.0118  0.0936
 6490SOL    HW230930   1.081   0.183   2.009 -0.0232  0.2014  1.2186
 6491SOL     OW30931   1.181   1.342   5.647  0.0455  0.5370  0.0465
 6491SOL    HW130932   1.109   1.317   5.705 -0.8526 -0.1272 -1.3528
 6491SOL    HW230933   1.126   1.377   5.578  1.5049 -2.4641 -2.6472
 6492SOL     OW30934   1.223   4.410   8.676  0.5558 -0.0444  0.4380
 6492SOL    HW130935   1.272   4.425   8.756  0.0146 -2.3067  1.2170
 6492SOL    HW230936   1.141   4.370   8.706 -0.0515 -0.2829 -1.4799
 6493SOL     OW30937   4.413   4.297   7.630 -0.0778 -0.5470 -0.1495
 6493SOL    HW130938   4.409   4.275   7.723  1.5736  1.0126  0.3005
 6493SOL    HW230939   4.320   4.316   7.614 -0.6941 -2.5867  1.0982
 6494SOL     OW30940   2.641   3.435  12.452  0.2388  0.1066  0.4513
 6494SOL    HW130941   2.632   3.429  12.547  0.9840  0.1092  0.5286
 6494SOL    HW230942   2.662   3.344  12.430 -0.3541  0.2302 -0.6017
 6495SOL     OW30943   0.818   1.724   3.768  0.1943 -0.5696  0.6430
 6495SOL    HW130944   0.727   1.751   3.753  0.4070 -0.2940 -0.1386
 6495SOL    HW230945   0.868   1.749   3.690 -2.7195 -2.2634 -1.7556
 6496SOL     OW30946   2.586   1.587  11.524  0.1195 -0.1766  0.4810
 6496SOL    HW130947   2.650   1.554  11.587 -0.0209 -0.7925  0.3043
 6496SOL    HW230948   2.641   1.657  11.489  0.9809 -0.8127  0.5782
 6497SOL     OW30949   2.122   3.612  17.466  0.4985 -0.1494 -0.0212
 6497SOL    HW130950   2.107   3.604  17.371  0.1055  0.3011  0.0052
 6497SOL    HW230951   2.109   3.524  17.501 -1.0171  0.1702  0.1971
 6498SOL     OW30952   2.886   1.520   9.673  0.1632  0.5099 -0.3462
 6498SOL    HW130953   2.829   1.511   9.750  1.5378 -2.6862  0.2785
 6498SOL    HW230954   2.941   1.442   9.678 -1.5837 -0.7083 -0.0877
 6499SOL     OW30955   1.077   4.074   3.122  0.2610  0.5102 -0.1883
 6499SOL    HW130956   1.062   4.033   3.037 -0.9052 -0.1396  0.3338
 6499SOL    HW230957   1.171   4.090   3.112  0.0697  1.1708 -0.8496
 6500SOL     OW30958   3.090   1.524  14.489  0.4271  0.2880 -0.0725
 6500SOL    HW130959   3.134   1.440  14.502 -2.0244 -0.8259  0.8301
 6500SOL    HW230960   3.035   1.538  14.566  0.0595  0.6322 -0.3952
 6501SOL     OW30961   2.172   0.229   3.279  0.1025 -0.8635  0.8987
 6501SOL    HW130962   2.236   0.282   3.326  1.3443 -0.5913 -1.0620
 6501SOL    HW230963   2.087   0.272   3.290 -0.4783 -1.4549 -1.1819
 6502SOL     OW30964   1.144   0.522  16.566 -0.3124  0.1141 -0.2593
 6502SOL    HW130965   1.220   0.569  16.601  0.3956 -1.3811  0.2075
 6502SOL    HW230966   1.072   0.574  16.602 -0.7670 -0.3106 -0.5457
 6503SOL     OW30967   2.209   0.394   0.422 -0.4805  0.3226 -0.0172
 6503SOL    HW130968   2.113   0.399   0.418 -0.8521 -5.9844  1.6382
 6503SOL    HW230969   2.209   0.300   0.409 -0.9408  0.1602  1.1247
 6504SOL     OW30970   0.751   1.763   8.752  0.2415 -0.4275 -0.1722
 6504SOL    HW130971   0.676   1.765   8.812  0.4453  0.6990  0.0497
 6504SOL    HW230972   0.725   1.837   8.698 -1.3761 -0.9367 -0.0891
 6505SOL     OW30973   2.015   2.657   8.246 -0.1362 -0.3784  0.1512
 6505SOL    HW130974   1.992   2.704   8.166  1.0100 -1.0103 -0.5467
 6505SOL    HW230975   2.102   2.690   8.269 -0.3559  0.1897  0.1657
 6506SOL     OW30976   2.780   3.303   3.407 -0.2989 -0.0519  0.7168
 6506SOL    HW130977   2.858   3.315   3.352  0.0266 -0.2677  1.1335
 6506SOL    HW230978   2.754   3.218   3.371  1.2153 -0.8559  1.5285
 6507SOL     OW30979   3.213   3.355   4.425  0.1533 -0.1497 -0.0763
 6507SOL    HW130980   3.163   3.428   4.388  0.8357 -0.7052 -2.1035
 6507SOL    HW230981   3.274   3.336   4.353  1.8065  1.3078  0.9347
 6508SOL     OW30982   3.292   1.697   1.389  0.0671 -0.3744  0.0861
 6508SOL    HW130983   3.295   1.680   1.483 -2.4989 -0.7317  0.0993
 6508SOL    HW230984   3.202   1.673   1.369  0.6028 -0.9957 -1.6293
 6509SOL     OW30985   2.921   4.054   5.028  0.3289 -0.2932  0.0496
 6509SOL    HW130986   2.848   4.113   5.009 -0.6008 -0.6911  2.4357
 6509SOL    HW230987   2.937   4.088   5.116 -1.3944 -0.0860  0.2824
 6510SOL     OW30988   2.388   0.241   6.808 -0.0959 -0.6203  0.3227
 6510SOL    HW130989   2.308   0.294   6.804  0.1989 -0.1824  0.1047
 6510SOL    HW230990   2.393   0.217   6.715  1.8253  1.3836 -0.1177
 6511SOL     OW30991   1.470   2.738  10.424 -0.2346  0.5891 -0.0864
 6511SOL    HW130992   1.386   2.773  10.393 -0.4880  0.8427  0.8788
 6511SOL    HW230993   1.447   2.655  10.465 -0.6736  0.9020  0.3074
 6512SOL     OW30994   0.047   3.935   1.326  0.2835  0.1739 -0.2099
 6512SOL    HW130995   0.092   3.990   1.263 -1.0085  2.3090  0.7232
 6512SOL    HW230996   0.064   3.973   1.413 -0.2562 -0.4574  0.1746
 6513SOL     OW30997   0.107   4.663  13.301 -0.2449 -0.3080  0.1273
 6513SOL    HW130998   0.116   4.598  13.371  2.4408  0.5974  0.6170
 6513SOL    HW230999   0.173   4.638  13.237 -0.2893  2.2715 -0.8991
 6514SOL     OW31000   3.164   2.773   7.104  0.1134 -0.1983 -0.3234
 6514SOL    HW131001   3.191   2.726   7.183 -0.0990  0.1234 -0.0588
 6514SOL    HW231002   3.239   2.831   7.090  0.3054 -1.0051 -2.5881
 6515SOL     OW31003   4.633   3.878   2.244  0.4564  0.1604  0.3551
 6515SOL    HW131004   4.554   3.856   2.196  0.2921 -0.2576  0.8191
 6515SOL    HW231005   4.619   3.969   2.271  0.8390 -0.4811  2.6649
 6516SOL     OW31006   0.303   3.124  17.141 -0.1173 -0.0949  0.2569
 6516SOL    HW131007   0.211   3.141  17.164 -0.1942 -1.2925  0.8304
 6516SOL    HW231008   0.304   3.152  17.049 -1.4942 -3.2638 -0.7319
 6517SOL     OW31009   2.425   0.840   0.255 -0.0154  0.3901  0.1171
 6517SOL    HW131010   2.372   0.768   0.221  1.5941 -0.1288 -1.3037
 6517SOL    HW231011   2.499   0.794   0.295  0.3371  2.3367  1.6952
 6518SOL     OW31012   2.058   2.501   2.813  0.2507  0.0590 -0.4918
 6518SOL    HW131013   2.054   2.525   2.906 -0.5529 -2.5115  0.1285
 6518SOL    HW231014   2.090   2.579   2.767 -0.0722  0.8463  0.6134
 6519SOL     OW31015   1.905   4.621   9.222 -0.2566  0.0013  0.4486
 6519SOL    HW131016   1.925   4.655   9.134 -0.5391  2.5445  1.3596
 6519SOL    HW231017   1.874   4.535   9.196 -0.3157  0.5933 -1.5032
 6520SOL     OW31018   0.853   4.211  14.862 -0.1472 -0.0163 -0.2932
 6520SOL    HW131019   0.949   4.214  14.868 -0.1837  0.8611 -0.0778
 6520SOL    HW231020   0.844   4.267  14.784  1.0205 -1.4826 -1.4875
 6521SOL     OW31021   0.204   1.777   9.391 -0.0500 -0.2025  0.1356
 6521SOL    HW131022   0.109   1.767   9.390 -0.2463  1.3768  3.2061
 6521SOL    HW231023   0.231   1.690   9.422 -3.7122 -0.9847  1.0742
 6522SOL     OW31024   0.840   0.529  16.869  0.7419 -0.0552 -0.2775
 6522SOL    HW131025   0.897   0.487  16.805  1.4784 -0.6828  0.7765
 6522SOL    HW231026   0.907   0.563  16.929  1.2201 -2.1614  0.3748
 6523SOL     OW31027   2.354   4.092   6.648 -0.1868 -0.4879 -0.1804
 6523SOL    HW131028   2.285   4.093   6.714 -1.0549 -0.9205 -1.0713
 6523SOL    HW231029   2.336   4.174   6.602 -3.0805  0.0432  1.8875
 6524SOL     OW31030   2.698   4.685   8.223  0.2727  0.0360  0.5564
 6524SOL    HW131031   2.758   4.693   8.148 -1.4776  0.7559 -0.7722
 6524SOL    HW231032   2.664   4.597   8.207  0.9282 -0.0097 -0.5984
 6525SOL     OW31033   0.248   0.352   1.565 -0.6085  0.6185 -0.6165
 6525SOL    HW131034   0.170   0.349   1.510 -0.5037 -0.2873 -0.7289
 6525SOL    HW231035   0.320   0.331   1.505  0.0163 -1.2767  0.7585
 6526SOL     OW31036   1.623   3.932   9.035 -0.2914  0.4673  0.3574
 6526SOL    HW131037   1.681   3.863   9.066  1.1237  0.4885 -2.2615
 6526SOL    HW231038   1.657   3.939   8.946 -2.7142 -1.6535 -0.7350
 6527SOL     OW31039   0.942   3.548   5.341 -0.2262  0.1242 -0.0731
 6527SOL    HW131040   0.892   3.559   5.422  0.1453  1.3025  0.0008
 6527SOL    HW231041   0.898   3.616   5.289  1.4659  1.1275 -0.2062
 6528SOL     OW31042   3.039   0.362   5.949 -0.2327  0.4527  0.1852
 6528SOL    HW131043   3.122   0.320   5.925  0.0399  0.9588  0.2614
 6528SOL    HW231044   3.077   0.436   5.996 -0.3288  2.2370 -2.5640
 6529SOL     OW31045   2.447   3.059   8.692 -0.0701 -0.2099 -0.2682
 6529SOL    HW131046   2.541   3.045   8.702  0.0240  0.5201 -0.1286
 6529SOL    HW231047   2.452   3.155   8.688  0.5208 -0.3745 -3.3200
 6530SOL     OW31048   0.594   2.926   4.322  0.3891  0.1609 -0.2003
 6530SOL    HW131049   0.605   3.006   4.270 -1.3478  0.9285  0.6236
 6530SOL    HW231050   0.525   2.953   4.382  0.5244  0.9261 -0.3800
 6531SOL     OW31051   3.253   1.094  10.482  0.2491 -0.4532  0.0700
 6531SOL    HW131052   3.289   1.173  10.441 -0.7157 -0.0664 -0.0533
 6531SOL    HW231053   3.273   1.030  10.414 -1.3178 -1.4818  0.5641
 6532SOL     OW31054   3.403   2.486   1.729  0.0056 -0.3136  0.9591
 6532SOL    HW131055   3.327   2.530   1.768 -0.1928 -0.3789  0.6432
 6532SOL    HW231056   3.464   2.515   1.797 -1.1689  1.2580  1.3468
 6533SOL     OW31057   3.309   0.359   2.895  0.8088  0.4756  0.2670
 6533SOL    HW131058   3.298   0.450   2.870 -2.0880  0.0595  0.0268
 6533SOL    HW231059   3.263   0.350   2.979 -2.7735  0.2992 -1.7318
 6534SOL     OW31060   1.091   1.863  10.086 -0.1652 -0.3169  0.4808
 6534SOL    HW131061   1.177   1.820  10.082  0.4112  0.9270 -0.6056
 6534SOL    HW231062   1.106   1.950  10.047 -1.3810  0.2373  1.2534
 6535SOL     OW31063   0.506   3.300  15.000 -0.8924 -0.2664 -0.1749
 6535SOL    HW131064   0.578   3.351  15.037 -2.3686  1.5224  0.2598
 6535SOL    HW231065   0.499   3.334  14.911 -0.6085  1.1104  0.3171
 6536SOL     OW31066   0.946   3.591   7.820  0.0761  0.3431  0.8844
 6536SOL    HW131067   0.861   3.599   7.778 -0.0024  0.7540  1.1202
 6536SOL    HW231068   0.930   3.619   7.910 -0.7134  2.0538  0.2153
 6537SOL     OW31069   3.621   3.597   0.819  0.4041  0.1965  0.0905
 6537SOL    HW131070   3.603   3.508   0.849  1.0766 -0.7325 -2.2104
 6537SOL    HW231071   3.536   3.623   0.784  0.7311  0.5158 -0.4776
 6538SOL     OW31072   3.404   0.645  15.000 -0.2340  0.2878 -0.0380
 6538SOL    HW131073   3.435   0.622  15.087 -1.2716  2.0352  0.7868
 6538SOL    HW231074   3.417   0.563  14.952  0.6955  2.3485 -3.3226
 6539SOL     OW31075   1.828   1.888   0.358  0.2169 -0.5383 -0.1601
 6539SOL    HW131076   1.769   1.933   0.296  0.3641  0.2224  0.2494
 6539SOL    HW231077   1.767   1.825   0.395 -1.9384  1.0593 -0.9273
 6540SOL     OW31078   1.891   0.898   3.018 -0.6005 -0.1612 -0.1264
 6540SOL    HW131079   1.935   0.974   3.057  1.3771  0.0116 -2.7180
 6540SOL    HW231080   1.860   0.852   3.096 -2.7582 -0.9100 -1.4018
 6541SOL     OW31081   0.589   0.979   5.192 -0.1107 -0.7360  0.1484
 6541SOL    HW131082   0.500   0.945   5.176 -1.1212  3.1528 -2.5945
 6541SOL    HW231083   0.635   0.902   5.226  0.8579 -0.0153  0.4542
 6542SOL     OW31084   1.197   1.787   0.443 -0.5472  0.2317  0.0406
 6542SOL    HW131085   1.124   1.726   0.431  0.0073  0.0844 -2.5376
 6542SOL    HW231086   1.266   1.726   0.470 -0.8625 -0.7560 -1.3990
 6543SOL     OW31087   1.578   0.098   3.215 -0.3004  0.0810 -0.3820
 6543SOL    HW131088   1.556   0.110   3.122  1.1764 -1.7419 -0.9539
 6543SOL    HW231089   1.666   0.061   3.220 -0.1101  0.3754 -1.4181
 6544SOL     OW31090   1.451   4.326   0.601 -0.4594  0.3711 -0.5110
 6544SOL    HW131091   1.422   4.371   0.521  1.1150  0.7094 -0.8857
 6544SOL    HW231092   1.534   4.363   0.629 -0.1007 -0.9049  0.1003
 6545SOL     OW31093   2.079   1.085   7.176  0.4336  0.2312 -0.3307
 6545SOL    HW131094   2.058   0.996   7.149  2.8985 -0.8815  1.3591
 6545SOL    HW231095   2.101   1.123   7.091  1.4414  1.1755  0.3445
 6546SOL     OW31096   1.383   3.492   7.592 -0.0696 -0.9869 -0.6968
 6546SOL    HW131097   1.339   3.543   7.660  0.4310 -1.6009  0.0821
 6546SOL    HW231098   1.325   3.500   7.516 -0.1592  1.2108 -0.4153
 6547SOL     OW31099   0.331   3.328   6.779  0.8146 -0.3144 -0.6330
 6547SOL    HW131100   0.413   3.325   6.730  1.6318 -0.1020  0.7035
 6547SOL    HW231101   0.280   3.391   6.729  3.4307  0.2567 -2.5995
 6548SOL     OW31102   3.765   4.447   7.417  0.0585 -0.0517  0.4067
 6548SOL    HW131103   3.762   4.522   7.357 -1.5630 -0.3234  0.1382
 6548SOL    HW231104   3.674   4.421   7.401  0.0134  0.0034  0.5774
 6549SOL     OW31105   0.110   0.826   6.353 -0.3255  0.8783 -0.1041
 6549SOL    HW131106   0.176   0.815   6.284 -2.3134 -2.1694 -1.5117
 6549SOL    HW231107   0.048   0.755   6.341 -0.4627  1.1193 -0.8361
 6550SOL     OW31108   4.546   3.480   0.842 -0.0506 -0.1943  0.0830
 6550SOL    HW131109   4.516   3.516   0.759 -0.5269  0.9994  0.7675
 6550SOL    HW231110   4.459   3.456   0.873  0.1710  0.3466  1.1485
 6551SOL     OW31111   0.159   2.984  11.333 -0.5857 -0.2443 -0.8421
 6551SOL    HW131112   0.168   3.078  11.349  1.1760 -0.9451  2.3228
 6551SOL    HW231113   0.064   2.977  11.337 -0.6377  1.1127  0.4146
 6552SOL     OW31114   4.137   4.651   8.473 -0.2781 -0.0445  0.3807
 6552SOL    HW131115   4.124   0.003   8.533 -0.6391  0.0369  0.2012
 6552SOL    HW231116   4.139   4.581   8.539  1.8419  0.6439  1.0441
 6553SOL     OW31117   1.544   1.803   2.989 -0.0759 -0.5643  0.2255
 6553SOL    HW131118   1.510   1.810   2.899 -1.7453 -4.2119  0.5478
 6553SOL    HW231119   1.480   1.848   3.045 -0.9199  0.3495 -1.4621
 6554SOL     OW31120   0.217   1.065   8.186 -0.2067 -0.3790  0.0465
 6554SOL    HW131121   0.139   1.046   8.239 -1.8899  0.6842 -2.0427
 6554SOL    HW231122   0.198   1.149   8.144 -0.7703 -0.6239 -0.1991
 6555SOL     OW31123   4.239   1.777  10.101  0.2443  0.2699  0.0249
 6555SOL    HW131124   4.320   1.772  10.050 -2.4554 -0.0538 -4.2417
 6555SOL    HW231125   4.277   1.831  10.170 -1.6146  1.7422 -0.1082
 6556SOL     OW31126   4.222   2.903   7.155 -0.0263 -0.0349 -0.2169
 6556SOL    HW131127   4.252   2.993   7.166  0.7205 -0.6711  2.8691
 6556SOL    HW231128   4.226   2.871   7.245 -1.5344  0.3948  0.0015
 6557SOL     OW31129   0.394   0.159  15.999  0.4447 -0.5519 -0.0867
 6557SOL    HW131130   0.365   0.217  15.929 -2.0892  1.0315  2.2631
 6557SOL    HW231131   0.307   0.124  16.018  0.2753 -0.3843 -0.5476
 6558SOL     OW31132   2.555   3.209   1.433  0.6254  0.4894  0.2162
 6558SOL    HW131133   2.585   3.147   1.367  1.5743 -0.6846  1.7423
 6558SOL    HW231134   2.627   3.217   1.496  0.6412  0.3239  0.2206
 6559SOL     OW31135   3.595   0.353   4.604  0.2327 -0.6864 -0.1251
 6559SOL    HW131136   3.674   0.397   4.571  0.0546  0.1362  0.5454
 6559SOL    HW231137   3.619   0.269   4.643 -0.8871 -0.7707  0.3569
 6560SOL     OW31138   3.601   0.492   1.899  0.0441  0.0628  0.2173
 6560SOL    HW131139   3.542   0.508   1.972 -1.2046  0.9934 -0.9995
 6560SOL    HW231140   3.541   0.444   1.841 -2.1338  3.1008 -0.0236
 6561SOL     OW31141   0.598   4.038   0.646 -0.5102  0.1754  0.1989
 6561SOL    HW131142   0.603   4.018   0.552  0.4322  1.3498  0.0072
 6561SOL    HW231143   0.679   4.086   0.661  0.0120 -0.6029 -0.1383
 6562SOL     OW31144   2.462   2.095   8.469  0.4389  0.0351 -0.6268
 6562SOL    HW131145   2.437   2.027   8.407 -0.5260 -0.5172  0.3857
 6562SOL    HW231146   2.384   2.149   8.481  1.6578  1.4879  0.7452
 6563SOL     OW31147   0.387   3.021   5.484  0.3664  0.1610 -0.3030
 6563SOL    HW131148   0.373   3.013   5.390 -1.3735  0.6232 -0.0827
 6563SOL    HW231149   0.476   2.991   5.504 -1.1538 -2.5726  2.2959
 6564SOL     OW31150   0.250   2.946   0.256 -0.2915 -0.4309 -0.1378
 6564SOL    HW131151   0.286   2.901   0.180  0.7600 -0.0938  0.1576
 6564SOL    HW231152   0.233   3.037   0.233 -0.8163 -0.7120 -0.8369
 6565SOL     OW31153   2.795   2.241   3.413 -0.3441  0.1249  0.2171
 6565SOL    HW131154   2.885   2.213   3.427  0.1158  1.4999 -0.0091
 6565SOL    HW231155   2.773   2.284   3.496 -1.5115  0.4635 -0.2637
 6566SOL     OW31156   0.932   0.759   7.338  0.3228 -0.0883 -0.2003
 6566SOL    HW131157   0.915   0.826   7.404 -1.6992  1.4739 -2.2942
 6566SOL    HW231158   0.903   0.681   7.385  0.3646 -0.8853 -1.5006
 6567SOL     OW31159   4.099   1.096   9.850 -0.6817  0.2953  0.6584
 6567SOL    HW131160   4.191   1.072   9.841  0.0446  2.4826  2.3343
 6567SOL    HW231161   4.060   1.063   9.769  1.0356 -0.4861  0.1552
 6568SOL     OW31162   4.174   2.369   7.131 -0.6196 -0.3960 -0.1808
 6568SOL    HW131163   4.197   2.460   7.149  1.0084 -0.5970 -1.2780
 6568SOL    HW231164   4.078   2.371   7.126 -0.5694  2.0000  0.0066
 6569SOL     OW31165   2.486   4.328   9.734 -0.6354  0.5133  0.3556
 6569SOL    HW131166   2.517   4.406   9.779 -1.0638 -0.2244  1.9373
 6569SOL    HW231167   2.463   4.360   9.647  2.0467 -0.6476 -0.7495
 6570SOL     OW31168   4.580   3.374   5.150  0.1308 -0.0993 -0.0802
 6570SOL    HW131169   4.576   3.314   5.224  1.1209 -1.6442 -1.2736
 6570SOL    HW231170   4.576   3.457   5.198  0.8666 -0.4840  0.6356
 6571SOL     OW31171   2.574   4.003  17.572  0.5480 -0.2893  0.2113
 6571SOL    HW131172   2.621   3.925  17.543 -0.9352 -1.8076  1.9158
 6571SOL    HW231173   2.540   4.035  17.489  0.1354 -0.7767  0.1932
 6572SOL     OW31174   0.247   4.515   4.149  0.7727  0.2076 -0.6578
 6572SOL    HW131175   0.315   4.500   4.084 -1.2233 -1.8810 -2.2757
 6572SOL    HW231176   0.191   4.441   4.125 -0.1144  0.5229  0.4123
 6573SOL     OW31177   1.080   1.887   6.230 -0.3685 -0.2044  0.2085
 6573SOL    HW131178   1.059   1.894   6.137 -1.8640 -2.3016  0.4009
 6573SOL    HW231179   1.144   1.816   6.229  0.9667  0.9871  0.7551
 6574SOL     OW31180   0.157   4.474   4.541  0.3705  0.0188  0.3988
 6574SOL    HW131181   0.179   4.389   4.502  1.3618 -0.2561  1.5645
 6574SOL    HW231182   0.164   4.448   4.632  1.2272 -0.2254  0.2638
 6575SOL     OW31183   4.409   2.565   1.262  0.5832  0.1566  0.2699
 6575SOL    HW131184   4.314   2.559   1.257  0.4404  2.7188 -0.1573
 6575SOL    HW231185   4.419   2.622   1.186 -1.4339  0.3470  0.1590
 6576SOL     OW31186   0.671   0.328  14.492 -0.2706  0.6194 -0.0529
 6576SOL    HW131187   0.631   0.246  14.462  0.3338  0.0478  0.6941
 6576SOL    HW231188   0.688   0.307  14.583 -1.4188 -0.1822 -0.0252
 6577SOL     OW31189   2.641   2.450  15.176 -0.1363 -0.7687  0.2376
 6577SOL    HW131190   2.675   2.367  15.144  0.8848 -0.4935  0.5737
 6577SOL    HW231191   2.632   2.495  15.092 -0.4655 -2.1183 -0.4318
 6578SOL     OW31192   3.722   2.225   7.308 -0.0698 -0.1645  0.3711
 6578SOL    HW131193   3.670   2.195   7.382  1.1898 -2.6277  0.2848
 6578SOL    HW231194   3.682   2.190   7.228  0.9455 -1.7885  0.5649
 6579SOL     OW31195   1.077   4.162   6.631 -0.0429  0.3451  0.2084
 6579SOL    HW131196   1.104   4.159   6.539  1.2583  0.9734  0.5713
 6579SOL    HW231197   1.110   4.080   6.667 -0.0507  0.3661  0.2627
 6580SOL     OW31198   4.015   2.495   2.027 -0.1139  0.8026 -0.1816
 6580SOL    HW131199   4.089   2.449   1.988  1.0710  0.2977  2.6555
 6580SOL    HW231200   4.053   2.492   2.115 -1.2324  2.4593  0.3727
 6581SOL     OW31201   1.619   1.367   8.837  0.2168 -0.4257 -0.1596
 6581SOL    HW131202   1.651   1.280   8.816  0.9894 -1.0297  3.4186
 6581SOL    HW231203   1.610   1.361   8.933 -0.7086 -2.5065 -0.3761
 6582SOL     OW31204   0.183   1.455   6.352  0.0416 -0.0295 -0.1669
 6582SOL    HW131205   0.265   1.476   6.397 -1.2908  3.0404  0.8631
 6582SOL    HW231206   0.215   1.452   6.262  2.6614  2.4603  0.6829
 6583SOL     OW31207   3.373   0.544   5.401 -0.3144  0.3976  0.2859
 6583SOL    HW131208   3.322   0.624   5.413  0.6292  1.0152  0.2356
 6583SOL    HW231209   3.314   0.500   5.341 -0.0686  1.0677 -0.4374
 6584SOL     OW31210   0.433   2.132   9.028  0.1866 -0.1595  0.2756
 6584SOL    HW131211   0.440   2.174   8.942 -0.4195 -0.3711  0.1250
 6584SOL    HW231212   0.340   2.112   9.039  0.3982  0.1541  2.6269
 6585SOL     OW31213   4.642   1.894  15.442  0.2429  1.0949 -0.1642
 6585SOL    HW131214   4.590   1.974  15.446 -1.6811 -0.3632  3.1647
 6585SOL    HW231215   4.569   1.832  15.444  2.0430 -0.9711  1.5267
 6586SOL     OW31216   2.340   2.412   5.934  0.2191 -0.8327  0.4530
 6586SOL    HW131217   2.305   2.376   6.015 -0.1733 -2.3942 -0.3941
 6586SOL    HW231218   2.432   2.389   5.943  0.6325  1.0617  0.9146
 6587SOL     OW31219   0.560   2.850   5.892  0.3916  0.1356  0.1161
 6587SOL    HW131220   0.555   2.775   5.833  4.1801 -0.1173  0.0791
 6587SOL    HW231221   0.618   2.817   5.961  2.0850  1.3547 -0.7043
 6588SOL     OW31222   4.661   3.418   0.102  0.0282  0.1811 -0.3071
 6588SOL    HW131223   4.718   3.348   0.133 -0.4762  0.5506  1.4496
 6588SOL    HW231224   4.673   3.489   0.165  0.4762 -1.9867  2.0585
 6589SOL     OW31225   1.752   2.667   8.331 -0.1390 -0.5046 -0.1813
 6589SOL    HW131226   1.724   2.741   8.276 -0.9505 -0.6774  0.0023
 6589SOL    HW231227   1.847   2.673   8.321 -0.0330 -0.1736  1.1355
 6590SOL     OW31228   2.842   0.409  16.914 -0.2546 -0.1553  0.3152
 6590SOL    HW131229   2.870   0.320  16.934 -1.7489 -0.8025 -0.4533
 6590SOL    HW231230   2.746   0.411  16.920 -0.1097  0.3438  2.2361
 6591SOL     OW31231   0.779   2.059   7.587 -0.1498  0.2211 -0.2505
 6591SOL    HW131232   0.818   2.133   7.541  1.7313 -1.0262 -0.6782
 6591SOL    HW231233   0.855   2.033   7.641 -0.0357  0.7992 -0.1363
 6592SOL     OW31234   2.787   2.174   3.742 -0.3184  0.0594  0.1474
 6592SOL    HW131235   2.882   2.177   3.750 -0.2081  0.0710 -1.2678
 6592SOL    HW231236   2.771   2.260   3.780  0.2913  0.5390 -0.6968
 6593SOL     OW31237   3.687   3.490   4.244 -0.9099 -0.2774  0.0742
 6593SOL    HW131238   3.752   3.518   4.308 -1.0435  0.8299 -0.2574
 6593SOL    HW231239   3.752   3.452   4.185 -0.6800  2.0454 -1.1969
 6594SOL     OW31240   0.374   3.549  11.386  0.7416 -0.2615 -0.6312
 6594SOL    HW131241   0.345   3.635  11.415 -0.0640 -0.9596  0.6628
 6594SOL    HW231242   0.419   3.575  11.306  1.3080  2.2955  0.5397
 6595SOL     OW31243   3.985   3.394   8.551 -0.1140 -0.4208  0.4559
 6595SOL    HW131244   3.974   3.350   8.467 -0.5594  0.4699  0.0489
 6595SOL    HW231245   3.917   3.462   8.556  1.2926  0.9102  1.5957
 6596SOL     OW31246   3.814   1.792   0.254  0.1212  0.8431 -0.0711
 6596SOL    HW131247   3.871   1.860   0.291 -0.9322  0.8023  1.5871
 6596SOL    HW231248   3.805   1.822   0.163 -0.0980 -1.3726 -0.7840
 6597SOL     OW31249   0.588   0.552   5.250  0.2836 -0.4027 -0.2099
 6597SOL    HW131250   0.625   0.492   5.185  0.3056 -0.1836 -0.4012
 6597SOL    HW231251   0.626   0.635   5.222 -1.3991  0.2488 -0.5976
 6598SOL     OW31252   4.001   2.076  16.158 -0.1605 -0.1832  0.3521
 6598SOL    HW131253   3.941   2.101  16.088  0.1310 -1.9969 -0.5531
 6598SOL    HW231254   3.951   2.004  16.197 -3.1831  1.0986 -1.1664
 6599SOL     OW31255   4.045   2.547   7.366 -0.0908  0.1845 -0.2808
 6599SOL    HW131256   3.962   2.592   7.348  0.0790  0.9716  0.9044
 6599SOL    HW231257   4.102   2.579   7.296  1.0375 -1.9569 -0.3276
 6600SOL     OW31258   1.192   0.456   9.509 -0.0962 -0.6111 -0.4719
 6600SOL    HW131259   1.283   0.433   9.525 -0.3716  0.2221  2.2696
 6600SOL    HW231260   1.158   0.458   9.598  0.5015  0.4286 -0.2667
 6601SOL     OW31261   2.806   0.902   3.108  0.1040 -0.2882 -0.8995
 6601SOL    HW131262   2.809   0.987   3.153  2.2072 -0.7667 -0.1191
 6601SOL    HW231263   2.738   0.928   3.046 -0.4891 -0.6473 -0.3944
 6602SOL     OW31264   0.364   3.346   9.544  0.2553 -0.4838  0.1107
 6602SOL    HW131265   0.423   3.327   9.618  2.2113  1.2382 -1.0140
 6602SOL    HW231266   0.287   3.382   9.587  2.0084  3.6243 -0.2233
 6603SOL     OW31267   2.205   3.472  13.773  0.8006  0.4219  0.0939
 6603SOL    HW131268   2.252   3.539  13.822 -0.5478  1.0075  0.5878
 6603SOL    HW231269   2.135   3.525  13.734 -0.6098 -2.4081 -1.2694
 6604SOL     OW31270   0.561   1.139   5.772 -0.1033 -0.5212  0.3774
 6604SOL    HW131271   0.585   1.149   5.680 -3.1919 -0.7060 -0.4564
 6604SOL    HW231272   0.647   1.116   5.806 -1.0774 -1.7101  2.0659
 6605SOL     OW31273   0.265   0.380   6.199  0.1736 -0.2723 -0.7775
 6605SOL    HW131274   0.318   0.441   6.250  1.2906  0.0685 -2.3653
 6605SOL    HW231275   0.317   0.300   6.203  2.9840  1.5611 -0.4293
 6606SOL     OW31276   1.996   4.267   2.025 -0.5051 -0.2924 -0.3643
 6606SOL    HW131277   1.904   4.286   2.004 -0.7657 -1.8487 -0.6116
 6606SOL    HW231278   2.007   4.196   1.962 -0.2640  0.1183 -0.7821
 6607SOL     OW31279   4.485   2.653  10.979 -0.3118 -0.4774 -0.2007
 6607SOL    HW131280   4.405   2.700  10.956 -0.1649  0.1352  0.5230
 6607SOL    HW231281   4.463   2.561  10.963  2.3889 -1.4968  1.7973
 6608SOL     OW31282   0.905   3.541   3.223  0.4943  0.2115 -0.2176
 6608SOL    HW131283   0.961   3.606   3.265  0.3199 -0.7464  1.4703
 6608SOL    HW231284   0.862   3.597   3.157 -0.2348 -0.4208 -0.2683
 6609SOL     OW31285   4.041   2.892  16.238  0.3298  0.8487 -0.0316
 6609SOL    HW131286   3.993   2.816  16.273 -0.3061  2.9900  3.8032
 6609SOL    HW231287   3.972   2.941  16.194  0.6664  1.3429 -0.0122
 6610SOL     OW31288   0.534   2.483   7.083 -0.3700  0.2090  0.3527
 6610SOL    HW131289   0.453   2.432   7.084 -1.0636  1.3582  2.4610
 6610SOL    HW231290   0.544   2.503   6.990  1.1236  2.6381  1.0511
 6611SOL     OW31291   0.083   0.672  17.087  0.7056 -0.6100  0.8527
 6611SOL    HW131292   0.174   0.667  17.116  1.1208 -0.7921 -0.4639
 6611SOL    HW231293   0.039   0.611  17.146 -0.2914 -0.4786  0.2480
 6612SOL     OW31294   1.788   1.090   8.095 -0.1455  1.0026  0.2717
 6612SOL    HW131295   1.811   1.165   8.151  0.0493  2.8401 -2.2615
 6612SOL    HW231296   1.726   1.040   8.147  0.2261 -1.3856 -1.6295
 6613SOL     OW31297   0.357   1.205   6.313  0.3366  0.6540  0.1558
 6613SOL    HW131298   0.263   1.193   6.304  0.2797  0.1879  1.3512
 6613SOL    HW231299   0.383   1.248   6.231  1.2922 -1.6570 -0.7605
 6614SOL     OW31300   2.803   4.266   1.610 -0.1431 -1.1313  0.3743
 6614SOL    HW131301   2.849   4.341   1.571 -2.1784 -0.5060 -0.8378
 6614SOL    HW231302   2.799   4.287   1.703  0.4398 -0.7429  0.3066
 6615SOL     OW31303   1.440   4.201   8.297  0.1654  0.8279  0.2636
 6615SOL    HW131304   1.360   4.246   8.323 -0.1485 -0.3431  1.3200
 6615SOL    HW231305   1.417   4.116   8.258  0.9741  0.2931  0.9598
 6616SOL     OW31306   4.255   2.796   3.023 -0.0508 -0.0082  0.5884
 6616SOL    HW131307   4.308   2.784   2.944  1.2769 -0.3600  1.5282
 6616SOL    HW231308   4.212   2.711   3.039 -0.2988 -0.4005 -2.1920
 6617SOL     OW31309   3.115   3.749   7.987 -0.1869  0.0433  0.6270
 6617SOL    HW131310   3.209   3.745   7.970 -0.6167  0.9711 -1.9933
 6617SOL    HW231311   3.070   3.777   7.907  1.8465 -1.7586 -1.1046
 6618SOL     OW31312   1.802   0.504  15.912 -0.2686 -0.5328 -0.2023
 6618SOL    HW131313   1.868   0.566  15.944  1.3823 -1.4687 -1.7298
 6618SOL    HW231314   1.842   0.499  15.825 -1.6710 -0.1578 -0.8698
 6619SOL     OW31315   2.541   1.754   7.100  0.2252 -0.4695  0.1785
 6619SOL    HW131316   2.482   1.690   7.060  1.3653  0.2924 -2.6848
 6619SOL    HW231317   2.553   1.819   7.031  1.1608 -1.6659 -0.7861
 6620SOL     OW31318   3.410   2.146  12.822 -0.3413 -0.2586  0.3414
 6620SOL    HW131319   3.394   2.077  12.887  3.3435 -0.5777  0.9504
 6620SOL    HW231320   3.485   2.104  12.779 -0.0372  0.9400 -0.2933
 6621SOL     OW31321   1.015   4.653   3.787  0.0875 -0.2075 -0.1351
 6621SOL    HW131322   0.922   4.653   3.807 -0.2569 -0.5573 -1.7103
 6621SOL    HW231323   1.025   0.025   3.765 -1.2180 -0.0820 -0.2116
 6622SOL     OW31324   0.496   2.787   1.798 -0.5477  0.6918  0.5467
 6622SOL    HW131325   0.538   2.835   1.726  1.1617  1.1847  1.8584
 6622SOL    HW231326   0.574   2.738   1.825 -0.1656  1.2870  0.5174
 6623SOL     OW31327   3.765   3.138   0.857  0.1310 -0.1843  0.7269
 6623SOL    HW131328   3.699   3.100   0.915  2.9128 -1.1166  3.3027
 6623SOL    HW231329   3.842   3.080   0.861 -0.2762 -0.8246 -0.8073
 6624SOL     OW31330   2.126   4.447   3.085 -0.2151 -0.0360  0.1157
 6624SOL    HW131331   2.186   4.436   3.011 -0.7401 -0.5809 -0.2259
 6624SOL    HW231332   2.144   4.537   3.111  0.7135 -0.1334 -0.1884
 6625SOL     OW31333   4.315   1.983  14.721  0.0679 -0.2732  0.4567
 6625SOL    HW131334   4.260   1.958  14.647  1.7730 -0.5276 -0.7312
 6625SOL    HW231335   4.289   1.921  14.789 -2.2447 -0.3679 -0.5312
 6626SOL     OW31336   1.453   1.060   3.023  0.6971 -0.0680  0.2028
 6626SOL    HW131337   1.520   1.101   2.968  0.0178  1.4258  0.4997
 6626SOL    HW231338   1.428   0.989   2.964  0.7114  0.4813 -0.4683
 6627SOL     OW31339   4.384   4.357   5.335 -0.2398  0.3929  0.0732
 6627SOL    HW131340   4.463   4.350   5.388  0.4086 -0.4725 -1.0119
 6627SOL    HW231341   4.364   4.450   5.341  2.0541  0.9101 -0.5183
 6628SOL     OW31342   4.282   2.754   6.293 -0.2778  0.2378 -0.2846
 6628SOL    HW131343   4.290   2.756   6.198  0.8703 -0.3411 -0.1933
 6628SOL    HW231344   4.368   2.790   6.315 -0.6984  0.6751  0.6890
 6629SOL     OW31345   2.350   2.626  15.287  0.4572 -0.3253  0.4371
 6629SOL    HW131346   2.359   2.685  15.212 -0.1639 -0.8271 -0.0291
 6629SOL    HW231347   2.355   2.678  15.367  2.8218  0.0333  0.0723
 6630SOL     OW31348   4.163   3.181   8.218 -0.5491 -0.0779  0.0103
 6630SOL    HW131349   4.228   3.236   8.174  0.2080 -1.3456 -0.4559
 6630SOL    HW231350   4.135   3.114   8.156 -0.2638 -0.7280  0.5814
 6631SOL     OW31351   0.244   2.853   7.500  0.3065  0.1823  0.5567
 6631SOL    HW131352   0.333   2.818   7.492  0.3155  0.5005 -0.7410
 6631SOL    HW231353   0.259   2.940   7.536  1.4552  0.4730 -0.6194
 6632SOL     OW31354   0.686   3.558   8.043 -0.2385 -0.0564  0.0387
 6632SOL    HW131355   0.773   3.598   8.049 -1.3652  2.3391  0.6837
 6632SOL    HW231356   0.705   3.472   8.080  1.1444 -0.3678 -1.3965
 6633SOL     OW31357   1.986   0.097   4.423  0.0709  0.1027 -0.0406
 6633SOL    HW131358   1.967   0.154   4.498  1.3040 -0.2131  0.5138
 6633SOL    HW231359   1.986   0.156   4.347 -2.4687 -0.0107 -0.1244
 6634SOL     OW31360   2.339   4.013   7.670 -1.2358 -0.5082 -0.0059
 6634SOL    HW131361   2.334   3.948   7.601 -0.0090 -0.2956 -0.2944
 6634SOL    HW231362   2.303   3.969   7.747  0.0409 -0.7423  0.4550
 6635SOL     OW31363   0.466   1.858   4.191 -0.3585  0.3992 -0.3323
 6635SOL    HW131364   0.383   1.891   4.154 -1.8859 -0.8468  2.0065
 6635SOL    HW231365   0.499   1.941   4.224 -1.0564  0.1747  0.9447
 6636SOL     OW31366   2.851   1.735   4.511 -0.6559  0.5237  0.1947
 6636SOL    HW131367   2.826   1.827   4.496  0.3625  0.4543 -1.9120
 6636SOL    HW231368   2.832   1.724   4.604 -1.8721  1.1641  0.0348
 6637SOL     OW31369   4.388   0.509   3.950  0.7388 -0.3160  0.5381
 6637SOL    HW131370   4.411   0.601   3.964  1.3106 -0.4717  0.5995
 6637SOL    HW231371   4.449   0.480   3.883 -0.4201 -2.5085  0.4386
 6638SOL     OW31372   4.173   0.778   2.779 -0.1590 -0.0147  0.3758
 6638SOL    HW131373   4.176   0.870   2.806  1.5024 -0.3805  1.4223
 6638SOL    HW231374   4.247   0.735   2.822  2.0187  0.8760 -2.4798
 6639SOL     OW31375   4.065   0.786  15.831  0.0913  0.0720  0.1922
 6639SOL    HW131376   4.112   0.803  15.912  0.7258 -0.4286 -0.0693
 6639SOL    HW231377   3.999   0.735  15.879  1.0742  0.0264  1.4715
 6640SOL     OW31378   1.168   0.001   7.766 -0.0484  0.0994  0.2768
 6640SOL    HW131379   1.102   4.654   7.749  0.4825 -0.6989  1.4294
 6640SOL    HW231380   1.171   0.004   7.861 -0.9703 -0.8506  0.3342
 6641SOL     OW31381   1.108   2.573   2.608  0.2260 -0.2378  0.1700
 6641SOL    HW131382   1.019   2.579   2.643  0.9527 -1.3504  2.1541
 6641SOL    HW231383   1.089   2.616   2.524 -0.9634 -0.6153  0.2360
 6642SOL     OW31384   3.130   1.897   5.060 -0.2245  0.1885  0.7442
 6642SOL    HW131385   3.177   1.933   5.135  2.7567  1.7735 -1.9141
 6642SOL    HW231386   3.044   1.891   5.103  0.4440  3.4313  2.5029
 6643SOL     OW31387   4.495   4.038   2.606  0.0042  0.4204  0.0336
 6643SOL    HW131388   4.572   3.986   2.584 -1.0649 -0.4287 -1.7546
 6643SOL    HW231389   4.470   3.989   2.684  1.0649 -0.6151 -0.2811
 6644SOL     OW31390   3.789   3.854   3.885  0.7397 -0.1798 -0.4681
 6644SOL    HW131391   3.721   3.915   3.856  1.0014  1.1299  1.6445
 6644SOL    HW231392   3.747   3.768   3.888 -0.5362  0.4116 -1.4529
 6645SOL     OW31393   3.792   3.001   8.195  0.3915 -0.3160 -0.3065
 6645SOL    HW131394   3.706   2.998   8.237  0.5902 -2.3041 -0.0199
 6645SOL    HW231395   3.857   2.983   8.263 -1.3229 -0.1880  1.3540
 6646SOL     OW31396   2.821   3.199   6.637 -0.6663  0.4381  0.1852
 6646SOL    HW131397   2.753   3.188   6.704 -1.0520 -1.2095 -0.4732
 6646SOL    HW231398   2.903   3.219   6.683 -1.8052  1.7369  1.6475
 6647SOL     OW31399   1.028   2.430  15.365  0.3770  0.4367 -0.3013
 6647SOL    HW131400   0.965   2.470  15.305  0.3237 -0.8178 -1.0821
 6647SOL    HW231401   1.063   2.510  15.405 -0.0780  0.1361  0.7043
 6648SOL     OW31402   2.427   4.164  12.612  0.3840 -0.3706 -0.3025
 6648SOL    HW131403   2.378   4.092  12.652  1.7759 -1.8307 -1.2517
 6648SOL    HW231404   2.470   4.114  12.544  0.3127 -2.8187  1.4538
 6649SOL     OW31405   1.466   4.252   6.105 -0.2810  0.2133 -0.2254
 6649SOL    HW131406   1.426   4.179   6.056  1.1896 -1.7561  1.5041
 6649SOL    HW231407   1.557   4.224   6.110 -0.1549  0.2207 -2.2528
 6650SOL     OW31408   2.555   1.647   2.103  0.2145 -0.4551  0.3320
 6650SOL    HW131409   2.510   1.691   2.031  0.0702 -1.2811 -0.0816
 6650SOL    HW231410   2.648   1.665   2.090  0.0295  1.3222  1.3821
 6651SOL     OW31411   2.696   4.475   7.729 -0.2957  0.1595 -0.4617
 6651SOL    HW131412   2.734   4.392   7.758  0.6854  0.7868  0.0486
 6651SOL    HW231413   2.725   4.465   7.638  1.2220 -1.4368  0.2043
 6652SOL     OW31414   3.507   1.295   4.245  0.4488  0.5039 -0.2886
 6652SOL    HW131415   3.485   1.226   4.307  1.4354  1.8603  1.5561
 6652SOL    HW231416   3.570   1.340   4.302  1.0879  0.7537 -1.1830
 6653SOL     OW31417   3.767   4.319   9.068 -0.0652 -0.5955  0.3216
 6653SOL    HW131418   3.781   4.273   9.151 -0.3915  0.7460  1.1131
 6653SOL    HW231419   3.853   4.319   9.025  0.7434  0.3620  1.9703
 6654SOL     OW31420   1.167   0.068   5.085 -0.4111 -0.0124  0.0660
 6654SOL    HW131421   1.234   0.029   5.028 -2.6296 -0.1433 -2.4550
 6654SOL    HW231422   1.136   0.144   5.035 -1.0105 -0.3377 -0.0570
 6655SOL     OW31423   4.016   3.823   3.450 -0.0211 -0.4469 -0.0648
 6655SOL    HW131424   4.089   3.862   3.403 -1.6005  0.6271 -1.6198
 6655SOL    HW231425   3.949   3.889   3.430  1.1888  0.2562 -1.7575
 6656SOL     OW31426   2.642   0.330   7.619 -0.1415 -0.5943 -0.3603
 6656SOL    HW131427   2.673   0.328   7.710 -1.0851  4.3617  0.0908
 6656SOL    HW231428   2.660   0.420   7.594 -1.5349 -0.2177 -0.0477
 6657SOL     OW31429   4.377   1.623   3.785 -0.5902  0.2199 -0.1698
 6657SOL    HW131430   4.406   1.679   3.713  1.2696 -2.3084 -1.3736
 6657SOL    HW231431   4.461   1.580   3.799 -0.2596  0.7821 -0.4483
 6658SOL     OW31432   0.797   4.490   2.467 -0.1628  0.3592 -0.6934
 6658SOL    HW131433   0.822   4.478   2.558 -1.8406  0.8839 -0.1681
 6658SOL    HW231434   0.714   4.537   2.474 -0.5906 -0.6630  1.0319
 6659SOL     OW31435   4.066   2.854  17.213 -0.3408 -0.5002 -0.0515
 6659SOL    HW131436   4.020   2.774  17.188 -1.7735  0.8692 -1.7788
 6659SOL    HW231437   4.102   2.885  17.130 -0.4962  2.3085  0.9394
 6660SOL     OW31438   1.306   0.116   9.844 -0.1758 -0.2022  0.3552
 6660SOL    HW131439   1.330   0.170   9.770  0.8364  0.8388  1.4408
 6660SOL    HW231440   1.308   0.025   9.815  0.1182  0.5823 -2.0927
 6661SOL     OW31441   2.536   2.182   0.253 -0.7031 -0.0968 -0.0217
 6661SOL    HW131442   2.464   2.127   0.284  0.5840 -0.9356  1.4600
 6661SOL    HW231443   2.525   2.266   0.297 -0.5006 -0.5536  0.8937
 6662SOL     OW31444   4.522   2.317   1.368  0.3651 -0.0842  0.2122
 6662SOL    HW131445   4.559   2.318   1.455 -2.5005  1.3554  1.4134
 6662SOL    HW231446   4.483   2.404   1.362 -1.8184 -1.1019 -0.7082
 6663SOL     OW31447   3.426   3.204   3.871 -0.2428 -0.1164 -0.7483
 6663SOL    HW131448   3.421   3.165   3.958 -0.2693 -0.3568 -0.8574
 6663SOL    HW231449   3.477   3.142   3.819  0.8107  0.3919 -0.3274
 6664SOL     OW31450   2.015   1.902   2.978 -0.7137  0.5919  0.5139
 6664SOL    HW131451   1.985   1.872   2.892 -2.5561  2.0680  0.6577
 6664SOL    HW231452   1.943   1.869   3.032  1.1000  0.9795  3.2193
 6665SOL     OW31453   1.123   1.950   7.203 -0.3389  0.3235 -0.1472
 6665SOL    HW131454   1.168   1.866   7.205  0.3061  0.6580 -1.1201
 6665SOL    HW231455   1.108   1.955   7.109  2.2037 -1.5706 -0.6468
 6666SOL     OW31456   3.250   2.365   3.518 -0.8215 -0.2931 -0.0847
 6666SOL    HW131457   3.224   2.287   3.470 -1.2565 -0.0109 -0.3067
 6666SOL    HW231458   3.301   2.327   3.590 -1.5186 -1.0714 -0.0078
 6667SOL     OW31459   3.926   1.835   4.032 -0.4679  0.6618 -0.8515
 6667SOL    HW131460   4.017   1.858   4.051 -0.7831  0.6413  0.7147
 6667SOL    HW231461   3.931   1.740   4.024  0.1155  0.8112 -2.2890
 6668SOL     OW31462   0.488   2.722   3.823  0.1184 -0.1306 -1.1566
 6668SOL    HW131463   0.533   2.673   3.754  0.1015 -2.3651  0.3994
 6668SOL    HW231464   0.400   2.739   3.790  0.1468 -0.2110 -1.2747
 6669SOL     OW31465   3.278   0.327  11.174 -0.4575 -0.4282  0.1605
 6669SOL    HW131466   3.283   0.421  11.193 -0.8551  0.3016 -3.4096
 6669SOL    HW231467   3.221   0.300  11.245 -1.5093  1.5993  0.1002
 6670SOL     OW31468   3.017   2.763  15.973 -0.2504 -0.4743  0.1922
 6670SOL    HW131469   2.928   2.794  15.957  0.0207  0.1536 -0.1210
 6670SOL    HW231470   3.012   2.669  15.960 -0.9629 -0.8425  3.3165
 6671SOL     OW31471   4.384   2.607  14.281 -0.0551  0.4352  0.5059
 6671SOL    HW131472   4.340   2.566  14.355  0.4896 -0.4930  0.3102
 6671SOL    HW231473   4.307   2.626  14.228  0.0664 -2.9750 -0.9143
 6672SOL     OW31474   2.013   2.409   8.882 -0.2017 -0.6906 -0.6500
 6672SOL    HW131475   1.991   2.445   8.796  0.4983 -0.9449 -0.9341
 6672SOL    HW231476   1.928   2.375   8.908  0.5092 -1.6367  0.4134
 6673SOL     OW31477   1.980   3.165  11.514  0.1370  0.3385  0.3151
 6673SOL    HW131478   1.919   3.091  11.524  1.8809 -1.1437  0.0915
 6673SOL    HW231479   1.918   3.237  11.505 -0.4722  0.1872  3.2536
 6674SOL     OW31480   4.585   4.427   2.748  0.7223 -0.2295 -0.3438
 6674SOL    HW131481   4.624   4.487   2.811  0.9240  1.1241 -1.7684
 6674SOL    HW231482   4.593   4.349   2.803  0.9456 -0.5977 -0.8947
 6675SOL     OW31483   0.457   3.663   4.846  0.1905  0.1966  0.1471
 6675SOL    HW131484   0.441   3.572   4.821 -0.1114  0.5954 -1.1512
 6675SOL    HW231485   0.533   3.662   4.903  0.6111 -1.8579 -0.4782
 6676SOL     OW31486   3.938   2.320   1.805  0.2975 -0.5888 -0.1976
 6676SOL    HW131487   3.984   2.404   1.814  1.8662 -1.4715  0.0396
 6676SOL    HW231488   3.951   2.290   1.895  0.3144 -1.2428 -0.4163
 6677SOL     OW31489   0.488   3.544  14.334 -0.7120  0.1902  0.2178
 6677SOL    HW131490   0.444   3.461  14.355  0.2998  0.2664  2.5980
 6677SOL    HW231491   0.454   3.603  14.401  1.1229  0.7532  0.6595
 6678SOL     OW31492   3.189   1.962   7.950 -0.0068 -0.3617  0.3445
 6678SOL    HW131493   3.202   1.972   8.044 -1.9145 -1.4713  0.7188
 6678SOL    HW231494   3.095   1.946   7.939 -0.7115  3.3766  0.8476
 6679SOL     OW31495   3.606   4.211   9.499 -0.5504  0.1651 -0.2982
 6679SOL    HW131496   3.665   4.202   9.574  0.6059  0.7499 -1.1509
 6679SOL    HW231497   3.538   4.147   9.520 -1.9815  1.2111 -1.7765
 6680SOL     OW31498   4.267   1.636   6.600 -0.4308  0.3429 -0.6244
 6680SOL    HW131499   4.179   1.597   6.609 -0.6319  0.5046 -1.9733
 6680SOL    HW231500   4.249   1.721   6.640 -1.4771 -0.6029  0.9638
 6681SOL     OW31501   0.539   1.855  14.866  0.1286  0.1850 -0.1792
 6681SOL    HW131502   0.473   1.786  14.858  0.3061 -0.1549  1.2238
 6681SOL    HW231503   0.619   1.810  14.894  1.7217  1.7907 -2.1608
 6682SOL     OW31504   0.368   0.275   1.056 -0.2272 -0.2063 -0.7715
 6682SOL    HW131505   0.391   0.327   0.979 -0.1024  0.0292 -0.5797
 6682SOL    HW231506   0.435   0.207   1.045  0.5954  0.6993 -1.4590
 6683SOL     OW31507   1.711   4.262  13.113  0.5777 -0.1763  0.0302
 6683SOL    HW131508   1.649   4.332  13.134 -0.7243 -0.9225 -1.3350
 6683SOL    HW231509   1.682   4.222  13.030 -0.4534  0.0624  0.2753
 6684SOL     OW31510   2.023   1.809   4.116 -0.1616  0.0875  0.2189
 6684SOL    HW131511   2.028   1.870   4.042  1.8814 -0.6914 -0.2737
 6684SOL    HW231512   1.952   1.847   4.168  1.6106  0.0772  2.6299
 6685SOL     OW31513   0.964   1.710   7.940  0.1181  0.3133 -0.4792
 6685SOL    HW131514   0.965   1.794   7.986 -0.8346 -0.0682  0.2464
 6685SOL    HW231515   1.048   1.678   7.972 -0.9580 -2.2318 -0.1750
 6686SOL     OW31516   0.981   0.536   4.945 -0.2011 -0.4543 -0.7640
 6686SOL    HW131517   0.987   0.621   4.903 -1.5748 -0.7832 -1.6276
 6686SOL    HW231518   1.067   0.533   4.986 -0.6133  0.6944  0.1660
 6687SOL     OW31519   2.471   2.794   8.600 -0.4585 -0.1257 -0.4163
 6687SOL    HW131520   2.464   2.852   8.676 -1.4479 -1.2176  0.3313
 6687SOL    HW231521   2.487   2.850   8.524  0.2934  0.5166  0.2060
 6688SOL     OW31522   0.223   3.507   6.244 -0.2487  0.0250 -0.6472
 6688SOL    HW131523   0.139   3.478   6.280  0.6042 -1.3580  0.2121
 6688SOL    HW231524   0.260   3.421   6.226 -0.1355  0.0004 -0.2982
 6689SOL     OW31525   3.729   0.281   7.081 -0.4377 -0.2999 -0.5747
 6689SOL    HW131526   3.675   0.327   7.016 -1.7979 -0.3535  0.5251
 6689SOL    HW231527   3.778   0.223   7.023 -0.7429 -1.6232  0.5015
 6690SOL     OW31528   3.274   0.679   9.479  0.5682 -0.6721 -0.2691
 6690SOL    HW131529   3.191   0.658   9.522  0.3409 -0.3595 -0.5651
 6690SOL    HW231530   3.342   0.642   9.536 -0.3853 -1.0090  0.6622
 6691SOL     OW31531   1.131   3.863  12.138 -0.1503  0.3290 -0.0116
 6691SOL    HW131532   1.215   3.816  12.142  1.1874  2.6886 -0.0284
 6691SOL    HW231533   1.070   3.791  12.152 -2.3358  2.3738  0.8430
 6692SOL     OW31534   2.426   1.011   5.971 -0.0094 -0.5348  0.2787
 6692SOL    HW131535   2.377   0.952   5.914 -1.8311  0.6639  0.6162
 6692SOL    HW231536   2.366   1.085   5.959  0.1583 -0.5319 -0.5155
 6693SOL     OW31537   2.459   0.486   7.237  0.7768 -0.0992  0.6398
 6693SOL    HW131538   2.391   0.552   7.250  0.2977 -0.8905  2.1792
 6693SOL    HW231539   2.506   0.513   7.316  2.0093  0.4141 -0.2802
 6694SOL     OW31540   1.370   2.715   2.836 -0.4778 -0.5243  0.3145
 6694SOL    HW131541   1.310   2.787   2.817 -0.7763 -0.1822  2.4962
 6694SOL    HW231542   1.443   2.758   2.792  0.3695 -2.5195 -0.1938
 6695SOL     OW31543   0.681   1.915   2.441 -0.0813 -0.0340  0.2461
 6695SOL    HW131544   0.662   1.834   2.489 -0.6934 -0.5618 -0.8911
 6695SOL    HW231545   0.747   1.889   2.377 -1.8699 -1.3217 -1.0742
 6696SOL     OW31546   3.817   4.672   2.616  0.1961 -0.2298 -0.6475
 6696SOL    HW131547   3.860   4.685   2.532  0.4590  0.6779 -0.3722
 6696SOL    HW231548   3.821   0.043   2.645 -0.6311 -0.6933  0.9567
 6697SOL     OW31549   3.992   0.821   6.910  0.1760  0.3869 -0.5335
 6697SOL    HW131550   4.066   0.851   6.857  0.4402 -0.9130 -0.9024
 6697SOL    HW231551   3.967   0.895   6.966  0.4976  1.4126 -1.7431
 6698SOL     OW31552   4.615   0.221  15.292  0.0501  0.6301  0.0943
 6698SOL    HW131553   4.571   0.254  15.214 -0.9024  0.1918  0.4416
 6698SOL    HW231554   4.640   0.133  15.263 -1.1184  0.1660  0.4892
 6699SOL     OW31555   3.374   4.644   2.457 -0.3300  0.2209  0.0254
 6699SOL    HW131556   3.430   0.001   2.449  0.3085 -0.2793 -0.3273
 6699SOL    HW231557   3.431   4.584   2.505 -2.5992 -1.8830  0.1010
 6700SOL     OW31558   4.417   2.914   3.694 -0.0548 -0.1577 -0.1925
 6700SOL    HW131559   4.499   2.959   3.710 -0.4121  0.1991  0.6295
 6700SOL    HW231560   4.373   2.924   3.779 -0.3018 -0.2042 -0.3135
 6701SOL     OW31561   4.674   3.585   2.387  0.1239  0.3920 -0.1769
 6701SOL    HW131562   4.601   3.628   2.431 -1.0010 -2.6864  0.9381
 6701SOL    HW231563   4.661   3.604   2.294  1.8314 -1.2485 -0.7720
 6702SOL     OW31564   3.459   1.319   3.373 -0.4676 -0.1120  0.1741
 6702SOL    HW131565   3.435   1.400   3.327 -0.5445 -1.0409 -1.4268
 6702SOL    HW231566   3.415   1.252   3.321 -0.7742  0.2319 -0.0125
 6703SOL     OW31567   0.639   2.879   1.570 -1.0727 -0.1885  0.0804
 6703SOL    HW131568   0.651   2.970   1.545 -0.3287 -0.4947 -0.6979
 6703SOL    HW231569   0.678   2.849   1.488 -0.9306  1.3988 -0.4183
 6704SOL     OW31570   4.539   3.808   1.945  0.2535 -0.4916  0.4282
 6704SOL    HW131571   4.600   3.876   1.972  0.8543 -0.9647  0.2786
 6704SOL    HW231572   4.474   3.857   1.895  0.2535 -0.5075  0.4127
 6705SOL     OW31573   0.198   2.709   5.708  0.1768  0.0825  0.2286
 6705SOL    HW131574   0.248   2.744   5.635  1.4939 -0.8791  0.6677
 6705SOL    HW231575   0.216   2.773   5.777  0.7320 -1.8460  1.9102
 6706SOL     OW31576   4.374   2.448   5.996 -0.6829 -0.0150  0.0542
 6706SOL    HW131577   4.358   2.413   6.084  1.7314 -1.9219 -0.2908
 6706SOL    HW231578   4.466   2.433   5.976 -0.7428 -1.2548  0.6519
 6707SOL     OW31579   3.775   3.244   0.125  0.4182 -0.1536  0.1198
 6707SOL    HW131580   3.796   3.156   0.095  0.6371  0.6397 -1.9977
 6707SOL    HW231581   3.822   3.258   0.208  0.7861 -0.2992 -0.0663
 6708SOL     OW31582   1.208   0.963   3.589 -0.4581 -0.0462  0.2963
 6708SOL    HW131583   1.161   1.039   3.555 -0.3693 -0.6353 -1.1399
 6708SOL    HW231584   1.186   0.896   3.524 -0.7164 -1.0475  1.4130
 6709SOL     OW31585   3.145   2.546   8.965  0.3343  0.3626  0.1723
 6709SOL    HW131586   3.109   2.458   8.972  0.3102  0.4488  1.0918
 6709SOL    HW231587   3.068   2.600   8.949 -1.0170 -1.6548 -0.1648
 6710SOL     OW31588   1.910   1.623   4.683  0.4354  0.1424 -0.2732
 6710SOL    HW131589   1.887   1.631   4.590  1.2417  1.2482 -0.3721
 6710SOL    HW231590   1.877   1.536   4.705 -0.9013  0.2687 -1.7285
 6711SOL     OW31591   0.605   3.449   3.014 -0.9384 -0.1023 -0.1280
 6711SOL    HW131592   0.690   3.418   2.981  0.3009  1.0151  2.0376
 6711SOL    HW231593   0.589   3.381   3.078 -0.5236 -4.2050 -4.4060
 6712SOL     OW31594   2.567   2.909   4.536 -0.7767 -0.0969 -0.0257
 6712SOL    HW131595   2.599   2.954   4.458  0.4329  2.1520  1.7569
 6712SOL    HW231596   2.650   2.884   4.578 -0.6745  0.0969 -0.1148
 6713SOL     OW31597   3.442   0.910  12.737  0.2365 -0.0775  0.1343
 6713SOL    HW131598   3.375   0.935  12.799 -1.4662  0.7193 -2.0229
 6713SOL    HW231599   3.402   0.844  12.680  0.1797 -1.1854  1.4812
 6714SOL     OW31600   4.322   1.645   7.187 -0.8947 -0.4176  0.2648
 6714SOL    HW131601   4.331   1.643   7.092 -1.6838 -1.2270  0.2001
 6714SOL    HW231602   4.414   1.668   7.201 -0.3497 -0.1631 -3.6712
 6715SOL     OW31603   0.352   3.794   6.576  0.0436 -0.4289 -0.0227
 6715SOL    HW131604   0.311   3.807   6.490 -1.0370  0.7912  0.6872
 6715SOL    HW231605   0.410   3.870   6.572 -0.8326  0.2036 -0.5875
 6716SOL     OW31606   3.125   1.108   9.443  0.4188 -0.0424 -0.3150
 6716SOL    HW131607   3.126   1.141   9.353  0.4639 -1.2519 -0.7543
 6716SOL    HW231608   3.219   1.090   9.452  0.4229 -1.2828 -2.9689
 6717SOL     OW31609   3.809   1.861   8.230 -0.0594  0.3034 -0.0743
 6717SOL    HW131610   3.824   1.791   8.293  0.8978 -0.0228 -0.6530
 6717SOL    HW231611   3.733   1.900   8.272  1.6860  0.4409  2.9440
 6718SOL     OW31612   1.537   1.372   5.191 -0.0868  0.2816 -0.7323
 6718SOL    HW131613   1.482   1.450   5.184  1.8844  1.5835 -1.4293
 6718SOL    HW231614   1.611   1.397   5.137  1.0748  1.3123  1.3179
 6719SOL     OW31615   3.411   3.932   5.250 -0.2025 -0.4296  0.0693
 6719SOL    HW131616   3.479   3.933   5.182  1.7069 -0.7377  1.9899
 6719SOL    HW231617   3.454   3.975   5.324 -0.8681  0.8584 -0.2828
 6720SOL     OW31618   2.007   0.532   2.576  0.2605  0.0374  0.0239
 6720SOL    HW131619   1.963   0.456   2.537  0.5493 -0.4664  0.6765
 6720SOL    HW231620   2.092   0.540   2.533  0.1145  0.0636 -0.2564
 6721SOL     OW31621   3.612   0.367   7.891  0.3778 -0.2431 -0.2003
 6721SOL    HW131622   3.534   0.312   7.904  2.8666 -3.5617  0.8827
 6721SOL    HW231623   3.672   0.342   7.962  0.0099 -0.3573  0.0716
 6722SOL     OW31624   2.496   2.787   8.087  0.4871  0.0080  0.2451
 6722SOL    HW131625   2.539   2.871   8.102 -0.1657 -0.0618  2.6190
 6722SOL    HW231626   2.415   2.806   8.041  0.7014  1.6927  0.5853
 6723SOL     OW31627   2.662   2.131  12.034 -0.5162  0.0362 -0.7099
 6723SOL    HW131628   2.638   2.220  12.006  3.0030  0.4850 -2.4667
 6723SOL    HW231629   2.741   2.128  11.979  1.0747  0.1080  1.5978
 6724SOL     OW31630   3.448   1.938   1.708  0.0453  0.5444  0.3802
 6724SOL    HW131631   3.483   1.911   1.623 -0.6656 -0.2848  0.3428
 6724SOL    HW231632   3.518   1.994   1.741  1.9884 -0.3554 -2.2785
 6725SOL     OW31633   1.936   0.435   1.833 -0.3179  0.4972 -0.1971
 6725SOL    HW131634   1.876   0.415   1.761 -2.1751 -1.6176  1.8911
 6725SOL    HW231635   2.011   0.383   1.806  1.8787  2.7707  1.5078
 6726SOL     OW31636   1.951   1.567   7.367  0.2119 -0.2233  0.1713
 6726SOL    HW131637   1.875   1.624   7.375  0.5737 -0.0064  1.9100
 6726SOL    HW231638   2.001   1.603   7.440 -0.5801  1.0965  0.0571
 6727SOL     OW31639   0.304   1.853   3.739  0.0422  0.0656 -0.1879
 6727SOL    HW131640   0.393   1.848   3.704  0.4596 -2.5896  1.2646
 6727SOL    HW231641   0.287   1.947   3.737 -2.1313 -0.3092  0.4491
 6728SOL     OW31642   1.436   2.522   7.227  0.6424 -0.4504  0.0531
 6728SOL    HW131643   1.374   2.509   7.299  0.3514  0.4825 -0.0326
 6728SOL    HW231644   1.510   2.569   7.266  0.1877 -0.6460  1.1608
 6729SOL     OW31645   2.067   3.911   4.557 -0.3568 -0.1145  0.2520
 6729SOL    HW131646   2.115   3.864   4.489  0.3785  0.3568  0.4496
 6729SOL    HW231647   1.993   3.959   4.518  0.1909  2.1715  2.0624
 6730SOL     OW31648   0.164   0.181   2.150 -0.5386 -0.7613  0.3690
 6730SOL    HW131649   0.217   0.261   2.153 -1.3609 -0.2788  2.1698
 6730SOL    HW231650   0.077   0.217   2.132  0.5854  2.6530  1.7744
 6731SOL     OW31651   1.802   1.956   4.671 -0.4389  0.5398 -0.3580
 6731SOL    HW131652   1.760   2.040   4.650 -1.7597  0.2718  1.2031
 6731SOL    HW231653   1.741   1.924   4.737  0.5972  1.3602  1.0215
 6732SOL     OW31654   4.143   2.358   3.512 -0.3640 -0.8368 -0.1697
 6732SOL    HW131655   4.140   2.443   3.555  2.1486 -1.0415  0.3600
 6732SOL    HW231656   4.054   2.362   3.477  0.2282  0.6460 -1.4793
 6733SOL     OW31657   2.129   1.348   2.110  0.0938 -0.2073 -0.0349
 6733SOL    HW131658   2.219   1.322   2.130 -0.0920  0.6028  1.7809
 6733SOL    HW231659   2.103   1.283   2.044 -2.3085  0.6495  0.0643
 6734SOL     OW31660   1.972   0.855   8.165 -0.2717 -0.2599 -0.0440
 6734SOL    HW131661   2.008   0.852   8.077 -0.8613 -1.6615 -0.2425
 6734SOL    HW231662   2.009   0.940   8.188  0.3969 -0.6922  0.4961
 6735SOL     OW31663   3.233   2.231   5.050 -0.3583  0.6203 -0.0875
 6735SOL    HW131664   3.286   2.309   5.036  0.3172 -0.1864 -2.0853
 6735SOL    HW231665   3.159   2.249   4.992 -1.4065 -0.6966  0.8348
 6736SOL     OW31666   3.646   3.651   2.062  0.2921  0.5875 -0.6501
 6736SOL    HW131667   3.598   3.568   2.071  0.4276  0.5228 -0.5293
 6736SOL    HW231668   3.618   3.666   1.972 -2.1346 -0.3003 -0.0529
 6737SOL     OW31669   1.382   2.468  13.046  0.7246 -0.3899  0.2524
 6737SOL    HW131670   1.325   2.392  13.059 -0.4345  0.4409 -0.0070
 6737SOL    HW231671   1.449   2.430  12.988  1.0585  0.2238  0.2385
 6738SOL     OW31672   0.246   3.264   8.405 -0.2395 -0.2196 -0.2736
 6738SOL    HW131673   0.333   3.296   8.427 -1.2960  2.3001  0.2427
 6738SOL    HW231674   0.259   3.262   8.310 -2.7903  1.7445 -0.6506
 6739SOL     OW31675   1.663   2.987   5.455 -0.1484 -0.2390  0.2925
 6739SOL    HW131676   1.750   2.948   5.449 -0.8501 -1.8209  0.3359
 6739SOL    HW231677   1.667   3.026   5.368 -0.9804 -0.7047  0.0468
 6740SOL     OW31678   1.760   4.243   4.969 -0.2227  0.2327 -0.4731
 6740SOL    HW131679   1.839   4.284   4.933  0.4272 -1.7466 -1.2398
 6740SOL    HW231680   1.737   4.307   5.037  1.1291  2.2855 -1.9457
 6741SOL     OW31681   1.274   2.715   0.694  0.2565  0.1575  0.0471
 6741SOL    HW131682   1.213   2.643   0.711  0.0205 -0.0330 -1.6173
 6741SOL    HW231683   1.267   2.771   0.771  2.4863  0.5347 -0.0509
 6742SOL     OW31684   2.334   0.574   4.756 -0.1686  0.2712 -0.6921
 6742SOL    HW131685   2.352   0.661   4.720 -0.6141  0.9345  0.6716
 6742SOL    HW231686   2.282   0.593   4.834  0.6798  0.3025 -0.1364
 6743SOL     OW31687   4.515   4.019  12.411  0.1879  0.1513  0.3502
 6743SOL    HW131688   4.602   4.003  12.376  0.2807  0.7658  0.2911
 6743SOL    HW231689   4.518   3.999  12.505 -0.7299 -0.2641  0.2896
 6744SOL     OW31690   1.922   1.527   7.827 -0.4371 -0.1215 -0.1074
 6744SOL    HW131691   1.900   1.435   7.841  1.1782 -0.4272  0.4647
 6744SOL    HW231692   1.835   1.559   7.803 -0.0000 -0.8165 -2.5745
 6745SOL     OW31693   2.777   0.718   3.997  0.3225 -0.3418  0.4843
 6745SOL    HW131694   2.734   0.706   4.082  2.0651 -0.6685  1.3206
 6745SOL    HW231695   2.722   0.793   3.974  0.2323 -0.5298  0.0853
 6746SOL     OW31696   1.626   3.432   5.329 -0.1463 -0.0572 -0.0825
 6746SOL    HW131697   1.558   3.455   5.392 -1.8349 -0.0379 -1.9101
 6746SOL    HW231698   1.589   3.349   5.299 -1.4088  0.3786  0.3003
 6747SOL     OW31699   2.749   2.236   1.192  0.3981  0.3407  0.0865
 6747SOL    HW131700   2.702   2.319   1.202 -1.6783 -0.5565 -2.2566
 6747SOL    HW231701   2.673   2.180   1.176  1.6535 -0.6903 -2.2346
 6748SOL     OW31702   1.178   2.095   9.995  0.4500  0.2117 -0.2892
 6748SOL    HW131703   1.188   2.159  10.066 -0.2102 -0.5732  0.5205
 6748SOL    HW231704   1.118   2.130   9.929 -2.2816  0.3307  2.2526
 6749SOL     OW31705   2.804   0.181  17.611 -0.7294  0.1421 -0.5551
 6749SOL    HW131706   2.864   0.126  17.662 -0.7374  1.2778  0.6908
 6749SOL    HW231707   2.866   0.243  17.573 -1.1081 -0.4292 -2.0754
 6750SOL     OW31708   1.203   2.661   6.015 -0.2525 -0.5783  0.4045
 6750SOL    HW131709   1.222   2.723   6.084  1.3500 -2.8737  2.0411
 6750SOL    HW231710   1.120   2.693   5.978  1.6656  0.9839 -2.5396
 6751SOL     OW31711   1.950   4.488   6.497  0.0221 -0.1416  0.3056
 6751SOL    HW131712   1.927   4.436   6.420 -1.9576  0.6125  0.3901
 6751SOL    HW231713   2.034   4.524   6.468  1.4902 -2.9172  1.0644
 6752SOL     OW31714   1.014   1.387   9.094  0.7388  0.6645 -0.4495
 6752SOL    HW131715   0.935   1.339   9.119  3.0862 -2.1396  1.5847
 6752SOL    HW231716   1.079   1.321   9.116 -0.4456 -0.5895 -0.6950
 6753SOL     OW31717   3.550   2.287  17.027 -0.0822  0.0250  0.1028
 6753SOL    HW131718   3.538   2.194  17.044 -2.0155  0.3178  0.3335
 6753SOL    HW231719   3.540   2.288  16.932  4.6760  1.1941 -0.3982
 6754SOL     OW31720   2.972   1.938   3.351 -0.2582  0.0466  0.1891
 6754SOL    HW131721   2.884   1.903   3.335  0.3730 -0.9264 -1.1536
 6754SOL    HW231722   3.010   1.892   3.426 -2.0829 -0.4072  0.8549
 6755SOL     OW31723   4.149   3.725   7.259  0.4877 -0.1446 -0.2468
 6755SOL    HW131724   4.137   3.691   7.170 -0.5981 -1.4948  0.4060
 6755SOL    HW231725   4.061   3.736   7.295  2.0537  2.3402  2.7672
 6756SOL     OW31726   0.323   4.458  16.186 -0.2197  0.0110 -0.2325
 6756SOL    HW131727   0.319   4.462  16.091 -1.5809 -1.0855 -0.2319
 6756SOL    HW231728   0.250   4.512  16.214  0.6380  0.6085  0.8321
 6757SOL     OW31729   2.779   0.401   8.417 -0.8758  0.6514  0.6872
 6757SOL    HW131730   2.828   0.429   8.495 -0.3221 -0.6384  0.8153
 6757SOL    HW231731   2.785   0.477   8.361  1.5864 -0.5611 -0.6741
 6758SOL     OW31732   1.809   4.196  15.358 -0.3338 -0.5797  0.2158
 6758SOL    HW131733   1.718   4.224  15.369  1.1515  3.8747  1.2223
 6758SOL    HW231734   1.823   4.134  15.429 -0.2229 -0.0999  0.6205
 6759SOL     OW31735   1.166   3.679   4.770 -0.1197  0.8986  0.3924
 6759SOL    HW131736   1.217   3.641   4.698  1.1094 -1.3118  2.4637
 6759SOL    HW231737   1.216   3.665   4.850 -1.9190  0.4685  1.4488
 6760SOL     OW31738   1.406   0.465  10.574  0.3611 -0.7327  0.3343
 6760SOL    HW131739   1.327   0.418  10.545  1.3510 -1.8357 -0.5703
 6760SOL    HW231740   1.454   0.455  10.492  1.1942  1.7438  0.5210
 6761SOL     OW31741   1.566   0.373   0.714 -0.0924  0.1978 -0.0612
 6761SOL    HW131742   1.544   0.283   0.739  0.1360  0.1239 -0.1330
 6761SOL    HW231743   1.644   0.385   0.768  1.5906 -1.2581 -2.2039
 6762SOL     OW31744   3.939   1.198  12.616  0.0091 -0.7948  0.2149
 6762SOL    HW131745   3.908   1.111  12.593 -0.9240 -0.9465  2.1108
 6762SOL    HW231746   3.900   1.219  12.701  1.4080 -0.8662  0.8799
 6763SOL     OW31747   1.908   3.810  17.508 -0.1815 -0.0814 -0.1626
 6763SOL    HW131748   1.841   3.796  17.442 -2.7513 -0.9065  2.5886
 6763SOL    HW231749   1.963   3.734  17.487  0.4289 -0.9785  4.4988
 6764SOL     OW31750   3.863   4.581   5.980 -0.9215  0.2493 -0.0191
 6764SOL    HW131751   3.771   4.575   5.953 -0.4272  2.1317 -2.1522
 6764SOL    HW231752   3.853   4.608   6.071 -0.2136 -1.7573  0.6433
 6765SOL     OW31753   4.340   0.201   5.947  0.0624 -0.1462  0.6861
 6765SOL    HW131754   4.251   0.183   5.916  0.1181 -1.1364  1.1094
 6765SOL    HW231755   4.323   0.285   5.990  1.9041  0.3268  0.4857
 6766SOL     OW31756   3.718   4.562  14.907  0.0138 -0.3881 -0.3755
 6766SOL    HW131757   3.747   4.581  14.818 -0.5117  1.5154 -0.1448
 6766SOL    HW231758   3.779   4.495  14.940 -1.6267 -1.5665  0.2706
 6767SOL     OW31759   0.346   4.150   2.014  0.1765  0.0927  0.0783
 6767SOL    HW131760   0.421   4.172   2.071  0.1382  0.6755 -0.0917
 6767SOL    HW231761   0.315   4.072   2.060  0.8864 -0.1627  0.1238
 6768SOL     OW31762   1.036   1.696   1.046 -0.3462  0.4095  0.3850
 6768SOL    HW131763   1.111   1.731   0.997 -1.7869  3.3272  0.2760
 6768SOL    HW231764   1.078   1.696   1.132  0.4367 -3.0261 -0.0064
 6769SOL     OW31765   0.462   2.285   9.571  0.4891  0.1322  0.1149
 6769SOL    HW131766   0.438   2.364   9.619  1.1868 -0.2475  1.0938
 6769SOL    HW231767   0.406   2.220   9.613  1.1819  0.2564  1.2172
 6770SOL     OW31768   4.102   3.222  14.689  0.0336 -0.3801  0.5326
 6770SOL    HW131769   4.048   3.205  14.611  0.5982 -0.8222  0.2402
 6770SOL    HW231770   4.152   3.141  14.675 -0.3675 -0.8896  2.0269
 6771SOL     OW31771   1.537   4.575  17.250  0.3782  0.1009  0.0964
 6771SOL    HW131772   1.571   4.486  17.244  1.8913  0.7534 -1.2862
 6771SOL    HW231773   1.595   4.625  17.193 -2.2102  1.5382 -1.2659
 6772SOL     OW31774   3.390   4.351   8.638  0.0672 -0.0466 -0.2834
 6772SOL    HW131775   3.321   4.347   8.703 -0.3563  1.2009 -0.6431
 6772SOL    HW231776   3.446   4.281   8.670 -0.4328  0.0575  0.7960
 6773SOL     OW31777   2.927   3.471   6.602 -0.0977  0.2499 -0.4800
 6773SOL    HW131778   2.854   3.410   6.586 -0.3546  0.5277 -0.3595
 6773SOL    HW231779   2.885   3.552   6.576  2.1307  2.3246  2.4033
 6774SOL     OW31780   2.313   4.149   9.522 -0.2203  0.3446 -0.5645
 6774SOL    HW131781   2.394   4.103   9.504  0.4766  1.9913 -1.7003
 6774SOL    HW231782   2.309   4.147   9.617 -0.9960  0.1207 -0.5968
 6775SOL     OW31783   0.543   3.784   8.556  0.0726 -0.2228 -0.4438
 6775SOL    HW131784   0.571   3.720   8.621 -1.8727 -0.3141  0.3034
 6775SOL    HW231785   0.466   3.742   8.517  0.8392 -1.9166 -0.1323
 6776SOL     OW31786   4.487   2.047   8.346 -0.3622 -0.0401 -0.8043
 6776SOL    HW131787   4.573   2.007   8.358 -0.4388 -0.0524 -0.3047
 6776SOL    HW231788   4.458   2.066   8.435 -0.0277 -1.7893 -0.3192
 6777SOL     OW31789   2.966   1.834   7.926 -0.0025 -0.0866  0.1601
 6777SOL    HW131790   3.035   1.768   7.918 -1.9100 -2.1093  0.4487
 6777SOL    HW231791   2.926   1.809   8.010  0.3607 -3.0429 -0.5370
 6778SOL     OW31792   4.138   1.105   8.035  0.0102  0.3373 -0.0309
 6778SOL    HW131793   4.101   1.132   7.950  0.4972  0.3475 -0.2360
 6778SOL    HW231794   4.062   1.069   8.080 -1.6509  1.7241 -1.6792
 6779SOL     OW31795   3.485   0.960   3.128  0.5952  0.5224  0.5164
 6779SOL    HW131796   3.445   0.929   3.046 -0.4721 -0.3711  1.3747
 6779SOL    HW231797   3.415   1.006   3.174 -0.3961 -0.2161 -0.2422
 6780SOL     OW31798   3.135   0.228   2.715  0.3752  0.1558 -0.4613
 6780SOL    HW131799   3.199   0.289   2.751  0.1456  0.7889 -1.1289
 6780SOL    HW231800   3.150   0.235   2.621  0.3009 -0.4488 -0.5219
 6781SOL     OW31801   3.540   2.000   3.385 -0.1036 -0.2169 -0.6592
 6781SOL    HW131802   3.609   2.013   3.320 -1.0641  0.1160 -1.6022
 6781SOL    HW231803   3.581   1.937   3.445  0.8884  1.1232  0.0723
 6782SOL     OW31804   0.461   3.677   1.839  0.1385 -0.4925  0.0682
 6782SOL    HW131805   0.429   3.590   1.812  1.1961 -0.4891 -1.2061
 6782SOL    HW231806   0.380   3.713   1.876 -0.2236 -0.4366 -0.7664
 6783SOL     OW31807   2.979   2.540  15.388  0.0339  0.2434 -0.6726
 6783SOL    HW131808   2.952   2.455  15.424 -0.0854  0.2099 -0.8393
 6783SOL    HW231809   3.073   2.537  15.406 -0.4039 -2.2849  1.1270
 6784SOL     OW31810   2.948   0.162  13.081 -0.9049  0.0594  0.0711
 6784SOL    HW131811   3.028   0.133  13.124 -1.8108 -1.6404  0.5888
 6784SOL    HW231812   2.896   0.167  13.161 -0.7932 -0.9945  0.2074
 6785SOL     OW31813   4.299   2.576   0.812 -0.4422 -0.2253 -0.4092
 6785SOL    HW131814   4.243   2.537   0.746 -0.1137 -0.4231 -0.5721
 6785SOL    HW231815   4.233   2.633   0.853 -1.3168 -0.6303 -1.2771
 6786SOL     OW31816   0.259   2.858  17.675 -0.1825 -0.1993 -0.7598
 6786SOL    HW131817   0.208   2.789  17.632  2.4237 -2.3866 -0.3601
 6786SOL    HW231818   0.223   2.934  17.629  2.2033  0.3927 -1.6724
 6787SOL     OW31819   1.867   1.184   2.603 -0.2424 -0.1493 -0.3055
 6787SOL    HW131820   1.903   1.144   2.524  0.6684  1.1464 -0.5430
 6787SOL    HW231821   1.849   1.105   2.654  1.8153 -0.4989 -0.1293
 6788SOL     OW31822   1.520   3.812   5.412 -0.7541  0.4478 -0.5144
 6788SOL    HW131823   1.456   3.883   5.421 -1.7271 -0.6390  1.1957
 6788SOL    HW231824   1.580   3.844   5.344  1.4602  2.2659  2.2906
 6789SOL     OW31825   0.451   3.541   7.240 -0.3063 -0.2367  0.3367
 6789SOL    HW131826   0.401   3.562   7.161  1.9654  0.5542 -0.9047
 6789SOL    HW231827   0.449   3.445   7.239 -0.8233 -0.2291  0.4115
 6790SOL     OW31828   4.358   3.112   6.167  0.2244 -0.1115  0.0908
 6790SOL    HW131829   4.405   3.178   6.218 -2.1404 -0.0409  2.1887
 6790SOL    HW231830   4.433   3.061   6.138  0.3546 -0.9201  1.8303
 6791SOL     OW31831   0.252   3.237  10.247  0.2251 -0.0879  0.1718
 6791SOL    HW131832   0.305   3.302  10.201  2.5417 -1.5198  0.8014
 6791SOL    HW231833   0.207   3.186  10.180  2.5451 -0.8343 -0.8138
 6792SOL     OW31834   1.380   1.778   9.423 -0.3966 -0.1815 -0.0106
 6792SOL    HW131835   1.285   1.784   9.431 -0.3236  2.3706 -1.0878
 6792SOL    HW231836   1.393   1.816   9.510 -2.0735 -1.5452  0.8208
 6793SOL     OW31837   3.773   2.427   4.620 -0.1348 -0.0259  0.6582
 6793SOL    HW131838   3.784   2.346   4.670  2.2460 -0.1539 -0.0790
 6793SOL    HW231839   3.681   2.441   4.642 -0.7149  0.0209 -1.8084
 6794SOL     OW31840   4.191   0.421  16.329 -0.1086  0.4996 -0.3292
 6794SOL    HW131841   4.187   0.511  16.296 -0.9671  0.5472 -0.0959
 6794SOL    HW231842   4.212   0.369  16.251 -0.7024 -0.0510 -0.1238
 6795SOL     OW31843   0.985   1.162   0.030  0.1630  0.3503  0.0390
 6795SOL    HW131844   1.080   1.167   0.018  0.4646 -2.0309  1.5443
 6795SOL    HW231845   0.973   1.242   0.082  1.0024  0.3150  0.2869
 6796SOL     OW31846   1.506   2.579   2.150  0.4693 -0.9720  0.0838
 6796SOL    HW131847   1.601   2.591   2.143  0.5751 -1.6409  0.4131
 6796SOL    HW231848   1.494   2.559   2.243 -0.9109  1.0705  0.3550
 6797SOL     OW31849   3.022   0.824   2.757 -0.3590  0.3821  0.1173
 6797SOL    HW131850   3.081   0.894   2.730 -1.2880  1.1122 -0.0144
 6797SOL    HW231851   3.046   0.818   2.849 -2.0006  1.3591  0.6117
 6798SOL     OW31852   2.397   3.020  15.719 -0.5263  0.0721 -0.0288
 6798SOL    HW131853   2.424   3.082  15.787  1.5333 -0.2720 -0.5417
 6798SOL    HW231854   2.318   3.059  15.682  0.1086  0.6035 -0.8236
 6799SOL     OW31855   0.898   1.528   8.213 -0.2943 -0.1186 -0.1300
 6799SOL    HW131856   0.845   1.582   8.272  0.3207  1.3372 -0.9043
 6799SOL    HW231857   0.981   1.575   8.210  0.5885 -1.5790  1.5489
 6800SOL     OW31858   4.236   4.569   3.031 -0.4599  0.3476  0.0659
 6800SOL    HW131859   4.219   4.576   3.125 -0.1398 -2.7218  0.3454
 6800SOL    HW231860   4.257   4.657   2.998 -0.5070  0.5035  0.4534
 6801SOL     OW31861   4.290   3.643  15.213 -0.3054 -0.4169  0.2691
 6801SOL    HW131862   4.321   3.592  15.288 -0.6634 -1.0143  0.0153
 6801SOL    HW231863   4.308   3.587  15.138 -0.4126  1.6548 -1.3138
 6802SOL     OW31864   2.510   2.492  13.794  0.0296  0.9919  0.2998
 6802SOL    HW131865   2.416   2.479  13.778  0.3815 -1.8216  0.6002
 6802SOL    HW231866   2.549   2.419  13.746 -1.0029  0.6461 -0.0254
 6803SOL     OW31867   0.144   2.923   8.655 -0.8171  0.0459 -0.5837
 6803SOL    HW131868   0.202   2.882   8.719 -1.0519 -1.3355 -1.2424
 6803SOL    HW231869   0.094   2.981   8.712  1.4783 -0.0364  1.4784
 6804SOL     OW31870   3.859   3.710   2.389  0.7783  0.3523 -0.6037
 6804SOL    HW131871   3.870   3.704   2.294  1.8048 -0.8151 -0.4032
 6804SOL    HW231872   3.767   3.733   2.398  0.5643 -1.3965  1.8879
 6805SOL     OW31873   0.430   3.261   3.779  0.1561  0.1345  0.1327
 6805SOL    HW131874   0.522   3.290   3.777 -0.1017  0.8782 -0.9881
 6805SOL    HW231875   0.394   3.348   3.798 -0.9403 -0.6551  1.6535
 6806SOL     OW31876   0.652   0.128   6.092  0.3178  0.3670 -0.7308
 6806SOL    HW131877   0.701   0.205   6.063  2.3481 -0.8245 -0.4946
 6806SOL    HW231878   0.714   0.078   6.145  0.6175  1.6088  0.0632
 6807SOL     OW31879   1.798   0.709   0.639 -0.0694  0.2970 -0.3896
 6807SOL    HW131880   1.891   0.684   0.634 -0.0928  0.0458  0.4305
 6807SOL    HW231881   1.776   0.677   0.727  2.3421  0.0864  0.1492
 6808SOL     OW31882   0.441   2.918   0.996  0.3652  0.0265 -0.4041
 6808SOL    HW131883   0.485   2.938   1.078 -1.6083  0.3473  0.5676
 6808SOL    HW231884   0.496   2.964   0.932 -0.6920  0.0169 -1.3131
 6809SOL     OW31885   0.707   3.517   7.413  0.4717 -0.5349  0.4294
 6809SOL    HW131886   0.692   3.551   7.501  1.4083 -0.0346  0.3937
 6809SOL    HW231887   0.713   3.422   7.420 -0.9251 -0.7454 -1.2939
 6810SOL     OW31888   1.318   4.711   6.705  0.0019 -0.1553  0.2906
 6810SOL    HW131889   1.302   4.701   6.799  1.5203 -2.2004  0.3394
 6810SOL    HW231890   1.411   4.692   6.699  0.3586  1.1288  1.8533
 6811SOL     OW31891   0.462   1.115   2.347 -0.1483 -0.7491  1.0497
 6811SOL    HW131892   0.429   1.182   2.287 -0.1331  0.5352  2.4649
 6811SOL    HW231893   0.440   1.036   2.298  2.1913 -0.4881 -0.4288
 6812SOL     OW31894   4.062   3.535   9.065  0.2856 -0.0942 -0.3340
 6812SOL    HW131895   4.112   3.473   9.011  1.1326  1.8325 -1.7627
 6812SOL    HW231896   3.973   3.525   9.031 -0.2467  1.1737  0.6981
 6813SOL     OW31897   0.430   0.569  13.412  0.3747  0.5111  0.0100
 6813SOL    HW131898   0.431   0.486  13.460  0.2106  1.3162  1.4044
 6813SOL    HW231899   0.337   0.592  13.420  0.1947 -0.2178 -0.0053
 6814SOL     OW31900   4.644   2.022   5.031 -0.2811 -0.0667  0.2035
 6814SOL    HW131901   4.677   2.038   5.120  1.2602  0.1613 -0.4173
 6814SOL    HW231902   4.656   1.928   5.029 -0.2703 -0.0525 -0.3024
 6815SOL     OW31903   4.591   4.088   1.961 -0.1474 -0.7695 -0.1240
 6815SOL    HW131904   4.652   4.127   2.024  0.6867 -2.0406 -0.1337
 6815SOL    HW231905   4.527   4.156   1.943  0.6051  0.9992  3.8427
 6816SOL     OW31906   4.220   2.630   7.154 -0.4496 -0.0342  0.0599
 6816SOL    HW131907   4.219   2.725   7.166 -0.2131 -0.1301  0.7935
 6816SOL    HW231908   4.262   2.619   7.068 -1.2024  1.6720 -0.5309
 6817SOL     OW31909   2.425   3.031  10.944 -0.3513 -0.2579  0.2250
 6817SOL    HW131910   2.394   3.121  10.933 -1.1940 -0.6175 -0.2988
 6817SOL    HW231911   2.500   3.044  10.886 -1.3296 -1.2278 -1.2326
 6818SOL     OW31912   4.080   0.939  12.972 -0.3422 -0.1279 -1.2455
 6818SOL    HW131913   4.048   0.872  13.033 -0.3514  1.0364  0.0382
 6818SOL    HW231914   4.001   0.942  12.917  0.5716  1.3563 -2.4578
 6819SOL     OW31915   4.160   2.552   5.083 -0.6587  0.0164 -0.1513
 6819SOL    HW131916   4.136   2.471   5.038 -1.4765  0.1845 -0.0220
 6819SOL    HW231917   4.144   2.624   5.021  2.3638 -1.4405 -2.6143
 6820SOL     OW31918   0.335   1.984   7.925  0.4061  0.0863 -0.1225
 6820SOL    HW131919   0.292   1.920   7.981  0.8393 -0.3846 -0.3281
 6820SOL    HW231920   0.328   1.949   7.837 -0.9837 -0.7206  0.3167
 6821SOL     OW31921   2.294   0.230   2.451 -0.4893 -0.4046 -0.2051
 6821SOL    HW131922   2.354   0.228   2.525 -2.2914 -1.3197  1.2261
 6821SOL    HW231923   2.355   0.209   2.380 -0.8262  0.5534 -0.7781
 6822SOL     OW31924   2.171   2.929   6.788  0.3021 -0.6746  0.3086
 6822SOL    HW131925   2.243   2.975   6.745 -0.0478 -0.9386 -0.5618
 6822SOL    HW231926   2.161   2.987   6.863  1.0257 -0.1653  0.0148
 6823SOL     OW31927   1.531   1.559   1.719 -0.4474  0.0194  0.2230
 6823SOL    HW131928   1.503   1.500   1.789  1.6780  1.5631  2.3962
 6823SOL    HW231929   1.534   1.645   1.762 -1.1291  0.2072 -0.1113
 6824SOL     OW31930   0.631   3.414  14.742 -0.6686 -0.2155 -0.0602
 6824SOL    HW131931   0.631   3.501  14.704  0.0162  0.8261  2.3092
 6824SOL    HW231932   0.725   3.395  14.737 -0.8018 -0.5425 -1.3373
 6825SOL     OW31933   3.921   3.611   5.781 -0.1364  0.4597  0.0180
 6825SOL    HW131934   3.848   3.653   5.735 -1.2388 -1.4390  0.0075
 6825SOL    HW231935   3.872   3.579   5.857 -0.6564 -1.7174 -1.2375
 6826SOL     OW31936   1.097   1.363   1.015  0.0450 -0.2597  0.1143
 6826SOL    HW131937   1.130   1.445   1.053 -0.6220  0.8629 -1.7395
 6826SOL    HW231938   1.171   1.337   0.959 -1.6614  0.5605 -2.5353
 6827SOL     OW31939   2.027   4.405   3.516  0.1639 -0.1387 -0.4378
 6827SOL    HW131940   2.067   4.491   3.532 -1.3396  0.8103 -1.7498
 6827SOL    HW231941   1.940   4.432   3.487  0.6630  0.9876 -0.9146
 6828SOL     OW31942   0.836   1.533   7.773 -0.7262  0.2243 -0.0883
 6828SOL    HW131943   0.878   1.597   7.830  0.4939 -0.1935 -0.5072
 6828SOL    HW231944   0.781   1.494   7.841  0.0672 -2.1713 -0.8003
 6829SOL     OW31945   1.674   3.063   3.093 -0.0735 -0.6365 -0.5607
 6829SOL    HW131946   1.706   3.042   3.005 -0.8468  1.9546 -1.4756
 6829SOL    HW231947   1.603   2.999   3.099 -1.9919  1.4045 -1.2849
 6830SOL     OW31948   1.055   1.111   4.607  0.0713 -0.1453  0.8897
 6830SOL    HW131949   1.002   1.047   4.560  3.1623 -1.4541 -0.8109
 6830SOL    HW231950   1.006   1.190   4.586  1.0462  0.2442  0.1157
 6831SOL     OW31951   2.697   0.646   9.991 -0.1973  0.1528  0.2353
 6831SOL    HW131952   2.704   0.620   9.899  0.7984 -2.4562  1.0402
 6831SOL    HW231953   2.613   0.692   9.995  0.0210  0.6015 -0.4256
 6832SOL     OW31954   0.880   2.015   4.589  0.5725  0.0401  0.2974
 6832SOL    HW131955   0.971   1.988   4.601 -0.0323 -1.5206  1.3399
 6832SOL    HW231956   0.879   2.052   4.500 -1.5602  1.0303  0.7299
 6833SOL     OW31957   1.210   0.277   3.769  0.1233 -0.3204 -0.1129
 6833SOL    HW131958   1.255   0.227   3.837  1.1536 -0.4702 -0.9133
 6833SOL    HW231959   1.246   0.362   3.795  0.6917 -0.3340 -0.8340
 6834SOL     OW31960   2.641   1.793   3.553 -0.2294 -0.0991  0.2134
 6834SOL    HW131961   2.582   1.735   3.602  2.2500 -1.1606  1.9424
 6834SOL    HW231962   2.584   1.858   3.513 -1.2490 -1.2394 -0.1921
 6835SOL     OW31963   0.376   3.591   3.107  0.4167 -0.3379 -0.3841
 6835SOL    HW131964   0.442   3.523   3.124  0.4850 -0.0164  0.6384
 6835SOL    HW231965   0.299   3.537   3.093  0.4356 -0.7172  0.9777
 6836SOL     OW31966   0.119   3.259  17.309 -0.3362 -0.4341  0.1069
 6836SOL    HW131967   0.047   3.318  17.286 -0.4825 -1.3882 -1.8861
 6836SOL    HW231968   0.197   3.314  17.318  0.8935 -2.4880  2.0334
 6837SOL     OW31969   1.442   2.716   9.128 -0.2501 -0.1207 -0.0154
 6837SOL    HW131970   1.476   2.777   9.062 -2.0466  2.2308  1.2403
 6837SOL    HW231971   1.521   2.691   9.175 -1.3881 -2.3393  0.7010
 6838SOL     OW31972   4.646   4.321   3.809  0.1147 -0.1324  0.3616
 6838SOL    HW131973   4.607   4.314   3.722  0.2067  1.2427  0.2012
 6838SOL    HW231974   4.646   4.415   3.829 -0.1170 -0.2757  1.0329
 6839SOL     OW31975   1.543   1.071   3.417 -0.0083  0.4225  0.0008
 6839SOL    HW131976   1.458   1.105   3.389 -0.8280 -0.3786  1.5433
 6839SOL    HW231977   1.596   1.136   3.371 -1.8645  2.2319  0.4343
 6840SOL     OW31978   3.958   0.440   2.505  0.3962 -0.0421  0.0666
 6840SOL    HW131979   3.873   0.397   2.505 -0.8732  2.4401  1.6840
 6840SOL    HW231980   4.022   0.372   2.488  2.1724  1.5823  0.2858
 6841SOL     OW31981   1.253   1.148   4.379  0.4096  0.3661 -0.1595
 6841SOL    HW131982   1.309   1.094   4.435 -2.4176 -0.4792  1.8464
 6841SOL    HW231983   1.163   1.128   4.404  0.3354 -0.9098 -1.4070
 6842SOL     OW31984   3.642   4.217   0.288  0.3979 -0.5146  0.3939
 6842SOL    HW131985   3.643   4.189   0.379  2.2056  1.9669  1.1382
 6842SOL    HW231986   3.716   4.277   0.281 -0.5187  0.5728 -0.0085
 6843SOL     OW31987   2.841   2.418  16.308  0.6414  0.3559 -0.1321
 6843SOL    HW131988   2.834   2.512  16.295 -0.6054  0.0127 -1.9199
 6843SOL    HW231989   2.847   2.399  16.214 -1.0836  0.6746 -0.2942
 6844SOL     OW31990   2.636   0.095  16.773 -0.6847  0.1300  0.8569
 6844SOL    HW131991   2.583   0.140  16.839  0.1326 -0.7318  2.1068
 6844SOL    HW231992   2.616   0.149  16.696 -2.9837 -1.3866  0.4053
 6845SOL     OW31993   0.664   2.573   6.334  0.2413  0.1683 -0.4468
 6845SOL    HW131994   0.731   2.582   6.403 -0.5064 -0.1700  0.3276
 6845SOL    HW231995   0.628   2.489   6.360 -0.4244  0.2759 -1.0593
 6846SOL     OW31996   3.537   3.397   2.011  0.4179  0.1911  0.1103
 6846SOL    HW131997   3.526   3.409   1.916 -0.5526 -0.6916  0.1002
 6846SOL    HW231998   3.615   3.342   2.015 -0.5432 -1.3924 -2.8929
 6847SOL     OW31999   2.645   3.617   3.150  0.2733  0.1982 -0.1868
 6847SOL    HW132000   2.738   3.614   3.174  0.1590 -0.3138  0.1899
 6847SOL    HW232001   2.627   3.529   3.115 -1.2940  0.4668 -0.0124
 6848SOL     OW32002   1.866   1.195   9.061 -0.2794 -0.5277  0.2681
 6848SOL    HW132003   1.772   1.214   9.055 -0.1347 -0.3053 -1.2837
 6848SOL    HW232004   1.901   1.279   9.092 -0.9528  0.1456 -0.7817
 6849SOL     OW32005   0.649   3.304   5.842 -0.1319 -0.3955  0.1203
 6849SOL    HW132006   0.697   3.251   5.778 -1.1597 -0.2218 -0.8102
 6849SOL    HW232007   0.612   3.231   5.892  0.9790 -0.7654  0.3890
 6850SOL     OW32008   1.701   3.750   7.128 -0.1125  0.0493 -0.2384
 6850SOL    HW132009   1.637   3.726   7.062 -0.0302  0.1090 -0.3394
 6850SOL    HW232010   1.635   3.758   7.197 -1.1100 -2.1556 -0.9585
 6851SOL     OW32011   0.243   1.464  15.701  0.3160 -0.2191  0.1490
 6851SOL    HW132012   0.275   1.374  15.705 -0.7454 -0.6436 -0.7718
 6851SOL    HW232013   0.167   1.452  15.644 -1.8107  0.9702  2.7110
 6852SOL     OW32014   4.416   0.793   4.798 -0.3346 -0.4992 -0.5221
 6852SOL    HW132015   4.492   0.845   4.773  2.1767 -2.8411  2.2666
 6852SOL    HW232016   4.344   0.856   4.798  2.1505  2.2704  2.3146
 6853SOL     OW32017   1.639   3.844  10.612 -0.4964 -0.2114  0.0462
 6853SOL    HW132018   1.568   3.807  10.664 -1.1176 -0.0393 -0.6750
 6853SOL    HW232019   1.643   3.925  10.662  0.1055  1.2928 -2.4019
 6854SOL     OW32020   0.783   4.569   4.289  0.4154  0.3870  0.0300
 6854SOL    HW132021   0.760   4.537   4.376  2.4455  0.2260  0.5102
 6854SOL    HW232022   0.805   4.661   4.307 -2.4912  0.9719  0.6403
 6855SOL     OW32023   0.131   0.719   5.481  0.2575 -0.2822  0.5760
 6855SOL    HW132024   0.147   0.630   5.511  0.5370 -0.4108  0.0547
 6855SOL    HW232025   0.115   0.759   5.566 -0.8762 -1.7936  1.0746
 6856SOL     OW32026   1.983   0.731   1.013  0.0343 -0.2779  0.2531
 6856SOL    HW132027   1.902   0.704   0.970 -0.7593  0.7744  1.0927
 6856SOL    HW232028   1.978   0.679   1.093 -2.9452  0.4864  0.5439
 6857SOL     OW32029   0.166   1.722   6.151 -0.3050  0.1416  0.2514
 6857SOL    HW132030   0.163   1.805   6.200 -0.0387  0.5688 -0.4494
 6857SOL    HW232031   0.084   1.680   6.174 -0.8121  2.2911  2.3388
 6858SOL     OW32032   1.084   3.111  15.852 -0.3152  0.3832 -0.3455
 6858SOL    HW132033   1.133   3.053  15.911 -1.3957 -0.9744 -0.7736
 6858SOL    HW232034   1.030   3.168  15.908  0.2449 -0.3345  0.9375
 6859SOL     OW32035   1.715   3.519   3.688  0.2006  1.0035  0.3449
 6859SOL    HW132036   1.753   3.604   3.712 -0.4203  1.1955  0.6224
 6859SOL    HW232037   1.740   3.529   3.595  0.1453  0.0686  0.2333
 6860SOL     OW32038   3.137   2.244  16.344  0.0549  0.2993  0.4306
 6860SOL    HW132039   3.159   2.330  16.379  1.4762  0.4556 -0.8768
 6860SOL    HW232040   3.089   2.210  16.420  2.6467  0.5311  2.1626
 6861SOL     OW32041   1.178   0.640   7.278 -0.5333 -0.2264  0.0349
 6861SOL    HW132042   1.087   0.667   7.266 -0.8502 -0.8023  1.1475
 6861SOL    HW232043   1.220   0.714   7.235 -1.9610  0.9901  0.7247
 6862SOL     OW32044   1.278   3.147   2.194 -0.2937 -0.4377 -0.5574
 6862SOL    HW132045   1.320   3.231   2.215 -0.6475  0.0264 -1.6814
 6862SOL    HW232046   1.299   3.096   2.272  0.3620 -1.7734 -1.6113
 6863SOL     OW32047   3.169   3.008   4.817 -0.2305 -0.2483  0.1736
 6863SOL    HW132048   3.196   3.010   4.909 -1.9566 -4.0415  0.7609
 6863SOL    HW232049   3.248   2.990   4.765 -0.4816 -0.3509 -0.1736
 6864SOL     OW32050   1.467   3.251  17.664 -0.1397 -0.3642  0.2059
 6864SOL    HW132051   1.436   3.193  17.595  2.2220 -0.3108 -0.8922
 6864SOL    HW232052   1.462   3.340  17.629 -0.4535  0.7052  2.9177
 6865SOL     OW32053   2.311   3.190   8.132  0.3870 -0.0856 -0.1240
 6865SOL    HW132054   2.240   3.126   8.143 -0.7569  0.8850 -1.8744
 6865SOL    HW232055   2.284   3.227   8.048  1.5188  0.7930 -0.1007
 6866SOL     OW32056   1.613   2.436   9.084 -0.2542  0.0784  0.0991
 6866SOL    HW132057   1.589   2.458   8.994  1.5732  1.5458 -0.0194
 6866SOL    HW232058   1.654   2.515   9.119 -1.2000  1.1932 -1.3251
 6867SOL     OW32059   2.953   2.859  10.127 -0.1472 -0.3527  0.3387
 6867SOL    HW132060   2.953   2.772  10.087 -1.4357  1.2413 -3.1459
 6867SOL    HW232061   3.007   2.856  10.206 -0.1162 -1.2249  0.2778
 6868SOL     OW32062   1.690   2.267  13.716  0.5017 -0.5846 -0.4068
 6868SOL    HW132063   1.602   2.305  13.714  1.2842  1.1489 -1.7340
 6868SOL    HW232064   1.683   2.216  13.796  1.0197 -0.3906 -0.2393
 6869SOL     OW32065   0.663   2.434   5.484 -0.0558 -0.2992  0.6906
 6869SOL    HW132066   0.572   2.463   5.488 -1.2944 -3.7473 -2.3287
 6869SOL    HW232067   0.688   2.477   5.402 -1.4452  0.4191  0.6439
 6870SOL     OW32068   1.504   3.940   6.166 -0.0457 -0.3698  0.0766
 6870SOL    HW132069   1.583   3.890   6.185 -0.4746 -0.7911  0.7534
 6870SOL    HW232070   1.453   3.881   6.110  1.1135 -0.3875 -0.9615
 6871SOL     OW32071   2.506   4.182   5.263 -0.2354  0.6929 -0.4396
 6871SOL    HW132072   2.567   4.220   5.326  0.8161 -1.0356 -0.4080
 6871SOL    HW232073   2.450   4.130   5.320 -1.5049  0.6624 -1.7111
 6872SOL     OW32074   4.359   0.994   6.005 -0.3423  0.4383  0.4376
 6872SOL    HW132075   4.338   1.087   6.009 -0.4649  0.2923  3.1182
 6872SOL    HW232076   4.443   0.997   6.050  0.3991  2.7459 -1.1052
 6873SOL     OW32077   1.606   3.072  14.593 -0.0654 -0.1185 -0.0344
 6873SOL    HW132078   1.558   3.154  14.608  1.4696  0.1771  3.3221
 6873SOL    HW232079   1.601   3.024  14.675  0.7378 -0.5255 -0.2258
 6874SOL     OW32080   2.010   4.084  16.402 -0.0380  0.9254 -0.4791
 6874SOL    HW132081   2.018   3.989  16.405 -3.4742  0.6453 -0.4239
 6874SOL    HW232082   1.929   4.099  16.353 -1.4908  0.2070  1.7240
 6875SOL     OW32083   1.247   3.328   7.027  0.2939 -0.4203  0.2329
 6875SOL    HW132084   1.190   3.336   7.103  1.0163 -0.1763  0.7570
 6875SOL    HW232085   1.167   3.297   6.984  0.9332 -0.2070 -1.1215
 6876SOL     OW32086   0.926   1.545   7.518  0.1058 -0.2508 -0.3306
 6876SOL    HW132087   1.020   1.561   7.523 -0.3713  2.2395  0.6777
 6876SOL    HW232088   0.905   1.525   7.610 -0.5370 -0.1903 -0.4643
 6877SOL     OW32089   2.675   0.082   5.434 -0.1702  0.7886  0.5450
 6877SOL    HW132090   2.741   0.148   5.414  0.0607  0.2537 -0.4536
 6877SOL    HW232091   2.687   0.080   5.529  0.7976  2.5193  0.4624
 6878SOL     OW32092   0.362   0.083   0.758 -0.5676  0.5395  0.1437
 6878SOL    HW132093   0.344   4.710   0.751  0.1732  0.3388  0.8642
 6878SOL    HW232094   0.393   0.083   0.849  2.5643 -2.7933 -0.9313
 6879SOL     OW32095   2.993   2.698   7.370 -0.2299 -0.3347  0.2587
 6879SOL    HW132096   2.994   2.794   7.370  1.9453 -0.3566  1.0006
 6879SOL    HW232097   3.023   2.677   7.459  0.5542  1.0259  0.3186
 6880SOL     OW32098   0.880   1.445  12.716 -0.1327 -0.8145  0.5002
 6880SOL    HW132099   0.954   1.504  12.733 -2.4114  1.6661  1.8813
 6880SOL    HW232100   0.811   1.503  12.685 -0.0385 -0.5786  0.7298
 6881SOL     OW32101   4.637   3.733   9.786  0.0790  0.5091 -0.2951
 6881SOL    HW132102   4.712   3.791   9.799 -0.3742  0.9795  0.2182
 6881SOL    HW232103   4.592   3.727   9.871  2.6225  0.3110  1.0261
 6882SOL     OW32104   0.494   0.983  17.031 -0.1900  0.2836  0.1190
 6882SOL    HW132105   0.584   1.005  17.054 -0.2518 -0.4680  1.0660
 6882SOL    HW232106   0.486   0.897  17.072 -3.0494  1.1478  1.3470
 6883SOL     OW32107   3.431   2.168   3.632 -0.6539 -0.3154  0.2088
 6883SOL    HW132108   3.397   2.096   3.685 -2.2141 -0.9329 -1.6479
 6883SOL    HW232109   3.504   2.116   3.599  0.5110  0.3280  1.7482
 6884SOL     OW32110   2.688   1.334   0.401  0.5525 -0.2775  0.3835
 6884SOL    HW132111   2.736   1.399   0.451  1.8128 -0.3077 -0.8008
 6884SOL    HW232112   2.664   1.392   0.328 -2.6569 -1.7610  0.2494
 6885SOL     OW32113   4.236   3.124   0.605 -0.2669 -0.2931  0.2478
 6885SOL    HW132114   4.268   3.098   0.518 -0.2129  2.6089 -0.6252
 6885SOL    HW232115   4.310   3.174   0.640  0.6894 -0.5622 -1.3375
 6886SOL     OW32116   2.279   0.397   3.446 -0.2639  0.4881 -0.3897
 6886SOL    HW132117   2.344   0.347   3.495 -1.9745 -0.2797  1.0675
 6886SOL    HW232118   2.319   0.484   3.455 -1.0048  0.8635 -0.6794
 6887SOL     OW32119   4.253   4.184   7.937 -0.4422  0.5090  0.0702
 6887SOL    HW132120   4.176   4.231   7.904 -2.1129 -0.9944  1.8218
 6887SOL    HW232121   4.284   4.237   8.010 -0.9553  1.7841 -0.6304
 6888SOL     OW32122   2.031   1.220   1.870 -0.0807 -0.0232  0.3996
 6888SOL    HW132123   1.941   1.237   1.843  1.2533  1.6269 -2.9274
 6888SOL    HW232124   2.047   1.150   1.806 -1.3400  2.0708 -2.1601
 6889SOL     OW32125   2.317   0.350   7.594  0.1132  0.3506 -0.0323
 6889SOL    HW132126   2.409   0.325   7.605  0.5029  1.7135 -0.2954
 6889SOL    HW232127   2.331   0.444   7.596 -0.5745  0.4677 -0.7773
 6890SOL     OW32128   3.859   2.369  14.349 -0.1052 -0.1594  0.5940
 6890SOL    HW132129   3.797   2.441  14.339 -0.3019 -0.6102 -1.3586
 6890SOL    HW232130   3.830   2.317  14.424 -1.9648  0.5403  0.3434
 6891SOL     OW32131   0.880   1.549   9.853 -0.2271  0.3002  0.1933
 6891SOL    HW132132   0.900   1.615   9.786 -0.5166 -1.0459 -1.1982
 6891SOL    HW232133   0.882   1.610   9.928  3.6749 -0.2872  0.5964
 6892SOL     OW32134   4.068   4.410   8.645 -0.1223  0.6079 -0.0510
 6892SOL    HW132135   4.057   4.395   8.552 -1.1558  3.8690 -0.4560
 6892SOL    HW232136   4.106   4.327   8.675 -0.2680  0.7923  0.6550
 6893SOL     OW32137   1.062   0.475  17.050  0.1068  0.6616  0.3316
 6893SOL    HW132138   1.080   0.540  17.119  0.3045 -0.5128  1.4008
 6893SOL    HW232139   1.027   0.411  17.112 -0.1757  1.3166  0.8592
 6894SOL     OW32140   3.169   2.049   6.468 -0.2240 -0.0619 -0.1131
 6894SOL    HW132141   3.088   2.026   6.513 -0.2174 -0.8530 -0.4998
 6894SOL    HW232142   3.146   2.019   6.380  2.6245 -0.5571 -0.6863
 6895SOL     OW32143   3.900   0.572   9.656 -0.3953 -0.0887  0.6708
 6895SOL    HW132144   3.830   0.526   9.703  0.3199  0.1685  1.9739
 6895SOL    HW232145   3.866   0.574   9.566 -0.2756 -0.4734  0.6130
 6896SOL     OW32146   2.241   0.637   7.421 -0.3584 -0.2216  0.7732
 6896SOL    HW132147   2.288   0.707   7.375 -3.9141  0.6531 -1.4492
 6896SOL    HW232148   2.288   0.633   7.505  1.1852  1.0949 -0.0390
 6897SOL     OW32149   1.254   1.892   1.455 -0.0854  0.2189 -0.4715
 6897SOL    HW132150   1.207   1.940   1.523 -1.3489  0.0916 -1.2530
 6897SOL    HW232151   1.317   1.838   1.502 -1.3104 -0.3930  0.4780
 6898SOL     OW32152   4.353   3.747   3.825 -0.6651  0.0667 -0.3158
 6898SOL    HW132153   4.307   3.667   3.802  1.0158 -1.1697  0.6876
 6898SOL    HW232154   4.298   3.820   3.796 -0.7210 -0.3461 -1.2586
 6899SOL     OW32155   0.785   1.689   7.087  0.3347  0.3655 -0.6133
 6899SOL    HW132156   0.713   1.629   7.068  0.2900 -0.0525  0.8428
 6899SOL    HW232157   0.785   1.680   7.182  2.3447 -0.4954 -0.6754
 6900SOL     OW32158   0.962   2.838  12.435 -0.0521  0.0611  0.1459
 6900SOL    HW132159   0.881   2.873  12.473 -0.4220  0.3514 -0.9305
 6900SOL    HW232160   0.956   2.856  12.341 -0.9164  1.4202  0.4591
 6901SOL     OW32161   0.934   0.518   9.778  0.4579  0.4418 -0.7037
 6901SOL    HW132162   0.884   0.494   9.700 -2.1570 -1.2064  1.4676
 6901SOL    HW232163   0.877   0.588   9.810 -0.2521 -0.6771  0.4930
 6902SOL     OW32164   3.298   2.866   6.121  0.3459 -0.4226  0.0552
 6902SOL    HW132165   3.366   2.848   6.186 -2.5601 -0.4511  3.0943
 6902SOL    HW232166   3.348   2.890   6.044  2.9054 -0.4865  1.7063
 6903SOL     OW32167   1.489   4.002  14.516  0.1931  0.2449 -0.4090
 6903SOL    HW132168   1.508   4.050  14.597 -0.5774  0.4676 -0.3599
 6903SOL    HW232169   1.498   3.909  14.536  0.9657  0.4748  0.3124
 6904SOL     OW32170   2.515   1.613   4.013  0.0079  0.5185  0.0495
 6904SOL    HW132171   2.419   1.603   4.014 -0.1477  2.2792  2.4287
 6904SOL    HW232172   2.541   1.554   4.084 -1.8589 -0.1409  0.2014
 6905SOL     OW32173   4.266   4.217   7.316  0.1149 -0.4165 -0.1252
 6905SOL    HW132174   4.295   4.131   7.287  1.0571 -0.0233 -0.3685
 6905SOL    HW232175   4.238   4.261   7.236 -0.8975 -2.1655 -0.7314
 6906SOL     OW32176   1.046   1.831  13.690 -0.2617  0.4480 -0.5476
 6906SOL    HW132177   0.961   1.857  13.727 -0.3502  2.6933 -2.3319
 6906SOL    HW232178   1.081   1.790  13.770 -0.3786  0.1765 -0.6372
 6907SOL     OW32179   3.096   3.827   4.303 -0.3363  0.1514  0.1092
 6907SOL    HW132180   3.167   3.852   4.244 -0.2103  0.6458  0.4646
 6907SOL    HW232181   3.028   3.869   4.251 -1.2492 -1.1181  0.2877
 6908SOL     OW32182   0.756   0.862   3.653  0.0780  0.4633  0.2970
 6908SOL    HW132183   0.725   0.907   3.732 -1.0076  0.3214 -0.0570
 6908SOL    HW232184   0.819   0.796   3.680 -0.2974  0.8683  2.1813
 6909SOL     OW32185   1.937   0.463   5.254  0.4875  0.4453  0.6760
 6909SOL    HW132186   2.033   0.457   5.247  0.4300  0.2705  0.0532
 6909SOL    HW232187   1.918   0.556   5.244 -2.2117  0.0583  2.3311
 6910SOL     OW32188   2.767   2.135   5.392 -0.5028 -0.7657 -0.3826
 6910SOL    HW132189   2.770   2.140   5.296  0.9249  2.5087 -0.1573
 6910SOL    HW232190   2.692   2.189   5.418 -0.2726 -0.0655 -1.1760
 6911SOL     OW32191   0.127   2.528   0.735 -0.1120  0.2507  0.1625
 6911SOL    HW132192   0.036   2.511   0.757 -0.7558  0.5642 -2.2998
 6911SOL    HW232193   0.167   2.572   0.810 -0.8023  2.3772 -0.7305
 6912SOL     OW32194   3.409   0.797   7.210  0.3349  0.3717  0.2608
 6912SOL    HW132195   3.503   0.782   7.212  0.3931  0.7615  0.3426
 6912SOL    HW232196   3.370   0.724   7.161 -2.4968  0.8689  1.7486
 6913SOL     OW32197   2.184   1.564   5.264  0.8447  0.0391  0.3040
 6913SOL    HW132198   2.252   1.509   5.224  0.8598  0.9187 -0.8638
 6913SOL    HW232199   2.223   1.582   5.349 -0.9865  3.0977  0.4840
 6914SOL     OW32200   4.531   0.434   3.706 -0.0971  0.0086  0.3679
 6914SOL    HW132201   4.604   0.424   3.645 -2.0518 -2.3386 -1.5848
 6914SOL    HW232202   4.499   0.344   3.710 -1.8980  0.7032  1.4472
 6915SOL     OW32203   0.744   1.027   2.585  0.4223 -0.2603 -0.3256
 6915SOL    HW132204   0.722   0.946   2.538  1.8134 -0.4253 -0.6930
 6915SOL    HW232205   0.827   1.003   2.627 -0.4189 -0.0649  1.4291
 6916SOL     OW32206   1.211   1.863   0.888 -0.0438  0.4673 -0.5047
 6916SOL    HW132207   1.189   1.952   0.913 -0.2739  0.4694 -0.7203
 6916SOL    HW232208   1.168   1.881   0.805 -0.9219 -3.2221 -0.8502
 6917SOL     OW32209   1.038   3.673   1.938 -0.2637 -0.3359  0.4824
 6917SOL    HW132210   1.085   3.749   1.970  0.6605 -1.3565  1.5308
 6917SOL    HW232211   1.020   3.694   1.846 -3.1702 -0.2429  1.0507
 6918SOL     OW32212   2.415   2.086   5.870  0.5311 -0.1356 -0.1448
 6918SOL    HW132213   2.370   2.062   5.950 -0.5974  0.0916 -0.7172
 6918SOL    HW232214   2.463   2.165   5.898 -0.8374 -0.4152  2.9076
 6919SOL     OW32215   0.274   3.163   8.743  0.4608  0.2370  0.3229
 6919SOL    HW132216   0.292   3.098   8.810 -1.4954 -0.6125  0.0307
 6919SOL    HW232217   0.306   3.119   8.664  1.8199  1.7341  0.0449
 6920SOL     OW32218   2.094   2.043   1.701  0.1353  0.5386  0.0015
 6920SOL    HW132219   2.082   1.977   1.769  1.7304  0.4722  0.1963
 6920SOL    HW232220   2.034   2.102   1.747 -0.6288  0.9299 -1.5020
 6921SOL     OW32221   0.036   3.419   6.684 -0.4517  0.1491  0.2460
 6921SOL    HW132222   0.099   3.482   6.649  0.5386 -0.7058  0.5029
 6921SOL    HW232223   0.001   3.473   6.756 -0.2744  0.1777  0.3116
 6922SOL     OW32224   1.055   1.930   0.662 -0.6797  0.2333  0.3599
 6922SOL    HW132225   1.055   1.929   0.567 -0.6631  3.0127  0.3282
 6922SOL    HW232226   0.966   1.962   0.676 -0.3503  1.8548 -1.2648
 6923SOL     OW32227   4.343   1.406   7.692  0.5548  0.0964 -0.0027
 6923SOL    HW132228   4.406   1.474   7.672 -1.0221  0.6986 -3.0057
 6923SOL    HW232229   4.401   1.330   7.696  1.0041  0.5786  2.5551
 6924SOL     OW32230   3.612   3.396   2.603  0.2877  0.1102  0.2956
 6924SOL    HW132231   3.526   3.377   2.640 -0.6692  3.4971 -0.1962
 6924SOL    HW232232   3.618   3.326   2.537 -1.1798  0.8481 -0.6098
 6925SOL     OW32233   2.634   2.636   9.938  0.2427  0.3726  0.0270
 6925SOL    HW132234   2.660   2.548   9.909 -0.5539  0.3299 -0.5830
 6925SOL    HW232235   2.559   2.616   9.994 -0.0609  1.0929 -0.1193
 6926SOL     OW32236   2.171   0.957   4.819  0.3033  0.7809 -0.6690
 6926SOL    HW132237   2.225   1.023   4.861 -0.7740  0.5032  1.1973
 6926SOL    HW232238   2.114   0.938   4.894  0.3153 -0.5810 -0.9938
 6927SOL     OW32239   1.304   0.478  16.927  0.3773 -0.1669  0.1022
 6927SOL    HW132240   1.324   0.572  16.927 -1.0928  0.1395  0.2312
 6927SOL    HW232241   1.214   0.484  16.958  0.1282  1.3410 -0.8983
 6928SOL     OW32242   0.043   3.536  11.399  0.2483 -0.0936  0.4855
 6928SOL    HW132243   0.099   3.569  11.328  1.3417 -3.0926 -0.0255
 6928SOL    HW232244   4.689   3.498  11.351 -0.0365 -1.5180  2.0814
 6929SOL     OW32245   3.905   3.317   0.357 -0.0488  0.2227 -0.2598
 6929SOL    HW132246   3.996   3.314   0.388 -0.0249 -0.4331 -0.3910
 6929SOL    HW232247   3.860   3.344   0.437  0.6153  2.4116 -0.6302
 6930SOL     OW32248   1.892   1.979   8.285 -0.1427  0.3063  0.7523
 6930SOL    HW132249   1.918   2.071   8.288 -0.3100  0.4122 -0.9610
 6930SOL    HW232250   1.896   1.946   8.375  3.6027 -1.5145 -0.0831
 6931SOL     OW32251   2.779   3.105  10.260  0.4938 -0.1286  0.4338
 6931SOL    HW132252   2.846   3.095  10.328  2.0185 -0.6836 -1.1632
 6931SOL    HW232253   2.706   3.053  10.292  0.5100  0.3009  1.1637
 6932SOL     OW32254   4.023   0.857   2.333 -0.0092 -0.3071 -0.0668
 6932SOL    HW132255   4.100   0.907   2.308 -0.3907  0.1523 -0.3102
 6932SOL    HW232256   4.058   0.802   2.404 -1.0206 -0.0274  0.6499
 6933SOL     OW32257   4.676   4.487   7.291  0.0323 -0.1162 -0.0071
 6933SOL    HW132258   4.691   4.464   7.383 -1.4108 -0.8202  0.0472
 6933SOL    HW232259   4.592   4.448   7.267  1.1002 -0.9009 -2.3909
 6934SOL     OW32260   4.480   3.981  12.682  0.7257  0.1376 -0.1997
 6934SOL    HW132261   4.386   3.999  12.684  1.1123  1.8867  1.9640
 6934SOL    HW232262   4.501   3.975  12.775  1.3923  0.3154 -0.3401
 6935SOL     OW32263   3.097   2.719  12.886  0.2896 -0.6150  0.9295
 6935SOL    HW132264   3.022   2.709  12.944  0.2753 -0.0759  1.0078
 6935SOL    HW232265   3.153   2.665  12.942  2.1755  1.6792  1.2528
 6936SOL     OW32266   0.923   2.956   5.480  0.0884 -0.2199 -0.7292
 6936SOL    HW132267   0.979   2.893   5.523 -1.2135 -0.3362  0.7877
 6936SOL    HW232268   0.968   3.040   5.473  1.2079 -0.8731 -1.3042
 6937SOL     OW32269   4.503   3.978   4.139 -0.3348  0.5979  0.5748
 6937SOL    HW132270   4.413   3.966   4.109  0.2535  0.6125 -1.1951
 6937SOL    HW232271   4.552   3.896   4.139 -1.5928 -0.1522  0.7532
 6938SOL     OW32272   3.219   1.505   6.419  0.1976 -0.6763 -0.1568
 6938SOL    HW132273   3.130   1.472   6.404  0.1706 -0.3934 -0.6070
 6938SOL    HW232274   3.223   1.568   6.348 -1.0646 -0.2497  0.1481
 6939SOL     OW32275   4.573   0.336   5.219  0.5213  0.4500 -0.3083
 6939SOL    HW132276   4.597   0.304   5.306 -1.0929  1.2747  0.4451
 6939SOL    HW232277   4.604   0.426   5.226  0.9281  0.3287 -0.5477
 6940SOL     OW32278   1.101   0.031   8.404 -0.4167  0.1508 -0.3926
 6940SOL    HW132279   1.176   0.090   8.400 -1.4325  1.4410 -0.3922
 6940SOL    HW232280   1.038   0.098   8.430 -0.4867  0.6121 -1.7682
 6941SOL     OW32281   1.742   2.309   6.245  0.5063 -0.1162 -0.0242
 6941SOL    HW132282   1.681   2.235   6.242  0.9514 -0.4874 -0.0101
 6941SOL    HW232283   1.691   2.358   6.309 -1.9122  0.5430 -2.4876
 6942SOL     OW32284   3.654   3.087   3.004 -0.2418  0.3665  0.3126
 6942SOL    HW132285   3.651   3.062   3.096 -1.2834 -2.8806 -0.6195
 6942SOL    HW232286   3.617   3.175   3.000 -1.9316 -0.4419 -2.3743
 6943SOL     OW32287   1.347   1.432   8.834  0.0499  0.1688  0.0002
 6943SOL    HW132288   1.376   1.353   8.881 -1.5085 -0.0429  0.5968
 6943SOL    HW232289   1.423   1.446   8.777 -0.7659  0.9709 -0.8660
 6944SOL     OW32290   1.374   3.304  10.996  0.7382 -0.0095  0.6123
 6944SOL    HW132291   1.434   3.292  10.922  0.7541  1.1408  0.4389
 6944SOL    HW232292   1.291   3.304  10.948 -0.0891  1.2096  2.0623
 6945SOL     OW32293   3.432   1.168   9.018 -0.1011  0.3535 -0.3368
 6945SOL    HW132294   3.426   1.101   9.086 -0.0227  1.1133  0.4190
 6945SOL    HW232295   3.370   1.127   8.957  0.7120  2.2485 -2.4424
 6946SOL     OW32296   3.726   3.553   3.793 -0.1953  0.9764 -0.1598
 6946SOL    HW132297   3.759   3.466   3.815  1.0989  0.6688 -3.2688
 6946SOL    HW232298   3.794   3.586   3.734 -1.0160 -0.2208 -1.7836
 6947SOL     OW32299   3.610   0.604   3.682  0.7773 -0.2674 -0.2355
 6947SOL    HW132300   3.565   0.687   3.689  0.1902 -0.7807  2.1505
 6947SOL    HW232301   3.699   0.630   3.708 -0.4128  3.0118  0.4837
 6948SOL     OW32302   4.594   3.345   1.471 -0.0110 -0.0841 -0.3080
 6948SOL    HW132303   4.674   3.316   1.515  0.2638  3.5585  1.6439
 6948SOL    HW232304   4.550   3.409   1.528 -1.0213 -1.4387  0.4194
 6949SOL     OW32305   1.455   3.230   2.416 -0.4769  0.3383  0.3494
 6949SOL    HW132306   1.390   3.282   2.463 -1.9664  0.3923 -1.8075
 6949SOL    HW232307   1.530   3.289   2.408 -0.7955  0.7969  0.7493
 6950SOL     OW32308   2.903   2.525  15.119  0.0503  0.0914 -0.1066
 6950SOL    HW132309   2.813   2.505  15.144  1.1529 -1.8193  2.3012
 6950SOL    HW232310   2.946   2.535  15.204  0.6416  2.5704 -0.6860
 6951SOL     OW32311   1.762   2.639   4.239  0.1036  0.2153 -0.5710
 6951SOL    HW132312   1.668   2.633   4.221  0.3041  0.2318 -1.6470
 6951SOL    HW232313   1.762   2.605   4.328 -0.3488 -1.3799 -1.1904
 6952SOL     OW32314   1.079   2.166   3.200  0.3214  0.1247 -0.9046
 6952SOL    HW132315   1.102   2.258   3.211  2.7918 -0.4035 -1.6682
 6952SOL    HW232316   0.986   2.162   3.224 -0.2223  0.6143 -2.8989
 6953SOL     OW32317   0.350   1.090   3.913  0.0026 -0.2326  0.3232
 6953SOL    HW132318   0.284   1.081   3.845  1.7714  1.9029 -1.6479
 6953SOL    HW232319   0.402   1.158   3.870  0.0809 -0.8827 -0.5949
 6954SOL     OW32320   3.590   2.620   1.929 -0.3310 -0.3136 -0.2736
 6954SOL    HW132321   3.662   2.616   1.993 -1.2790  2.1638  0.9420
 6954SOL    HW232322   3.617   2.700   1.884 -0.5527 -0.9396 -1.5063
 6955SOL     OW32323   3.701   0.144   3.075 -0.2217  0.0511  0.0712
 6955SOL    HW132324   3.681   0.093   2.996  0.1205 -0.1381  0.1066
 6955SOL    HW232325   3.678   0.078   3.141 -1.1541  0.8478  0.5310
 6956SOL     OW32326   1.898   0.629   6.834  0.4932 -0.2946  0.3544
 6956SOL    HW132327   1.972   0.621   6.893  1.4250 -0.2508 -0.8165
 6956SOL    HW232328   1.868   0.538   6.839  0.9130 -0.5857 -2.2581
 6957SOL     OW32329   2.319   4.161   0.488  0.4453 -0.0647 -0.3700
 6957SOL    HW132330   2.370   4.121   0.558 -0.7713 -1.9343 -0.5684
 6957SOL    HW232331   2.331   4.102   0.414  0.9927 -3.1910  2.2344
 6958SOL     OW32332   2.840   3.671   3.445  0.0171 -0.1091  0.7909
 6958SOL    HW132333   2.864   3.633   3.530  1.1294 -0.5791  0.2598
 6958SOL    HW232334   2.750   3.700   3.462 -0.2374  0.7540 -2.0661
 6959SOL     OW32335   1.403   2.656   5.864  0.3809 -0.3328 -0.3072
 6959SOL    HW132336   1.346   2.698   5.800  1.0842  2.0127  0.5780
 6959SOL    HW232337   1.346   2.648   5.940  2.7319 -1.0665  1.3663
 6960SOL     OW32338   0.007   0.143   5.057  0.2657 -0.7392 -0.6661
 6960SOL    HW132339   4.664   0.198   5.102  1.8650  1.1764 -0.7453
 6960SOL    HW232340   0.001   0.166   4.964 -0.5728 -0.0011 -0.4222
 6961SOL     OW32341   0.850   2.695   6.988 -0.1729 -0.1470  0.1650
 6961SOL    HW132342   0.796   2.735   7.055  0.0892  0.1081  0.2249
 6961SOL    HW232343   0.813   2.727   6.906  0.2185  1.7785  0.7375
 6962SOL     OW32344   1.139   2.266   0.996  0.1285  0.6684 -0.7027
 6962SOL    HW132345   1.117   2.176   1.022 -0.1015  0.1938 -2.5218
 6962SOL    HW232346   1.150   2.303   1.084  1.3253  0.3863 -0.7328
 6963SOL     OW32347   0.252   1.005  16.832  0.1553  0.5389  0.0255
 6963SOL    HW132348   0.233   0.941  16.763 -1.3659 -0.8019  1.6996
 6963SOL    HW232349   0.335   1.046  16.808 -0.4621  0.7020 -1.8362
 6964SOL     OW32350   0.301   1.984   7.360  0.3850  0.0762  0.1007
 6964SOL    HW132351   0.388   1.979   7.400  0.2471 -0.1233  0.3727
 6964SOL    HW232352   0.323   2.048   7.291 -0.6706 -0.2730 -0.5633
 6965SOL     OW32353   0.841   2.518  13.354  0.2751 -0.6395  0.2160
 6965SOL    HW132354   0.846   2.594  13.297 -0.2274 -0.3934  0.5047
 6965SOL    HW232355   0.773   2.549  13.414  1.7573  0.9333  1.0598
 6966SOL     OW32356   2.066   3.146  14.833  0.8735 -0.1416  0.4199
 6966SOL    HW132357   2.084   3.122  14.742 -0.9654 -1.1138  0.2935
 6966SOL    HW232358   1.973   3.168  14.833  0.1838 -3.0197  0.8003
 6967SOL     OW32359   4.702   3.821  17.607 -0.0985 -0.0123 -0.2372
 6967SOL    HW132360   4.639   3.818  17.679 -1.2197 -0.4360 -1.2453
 6967SOL    HW232361   4.652   3.867  17.539 -2.2931 -2.5041 -0.3069
 6968SOL     OW32362   3.594   0.654   3.165 -0.0268 -0.8003 -0.0183
 6968SOL    HW132363   3.575   0.739   3.126 -1.4778 -0.9090  0.4421
 6968SOL    HW232364   3.618   0.601   3.089 -0.4244 -2.9502  1.3342
 6969SOL     OW32365   2.702   4.602  13.305  0.2490  0.2905  0.2995
 6969SOL    HW132366   2.694   4.522  13.355 -0.2351  0.4040  0.4067
 6969SOL    HW232367   2.707   4.569  13.215 -1.1998  0.2153  0.2418
 6970SOL     OW32368   0.925   0.385  10.024  0.2243 -0.7313  0.4565
 6970SOL    HW132369   1.013   0.353  10.047 -0.0188 -0.9356  1.0862
 6970SOL    HW232370   0.951   0.432   9.944 -0.1934 -2.8338 -0.9162
 6971SOL     OW32371   2.525   0.813   6.931 -0.1814  0.5527  0.1558
 6971SOL    HW132372   2.553   0.757   6.859 -1.8646 -0.5973  0.3938
 6971SOL    HW232373   2.464   0.873   6.888  0.2628  0.8176 -0.0935
 6972SOL     OW32374   3.033   2.223   6.899 -1.0403  0.6423 -0.2374
 6972SOL    HW132375   2.957   2.235   6.955 -0.4517 -1.5065  0.9925
 6972SOL    HW232376   3.099   2.264   6.955  0.5805 -1.0564 -0.8874
 6973SOL     OW32377   3.928   0.974   4.895  0.4898  0.2180  0.8759
 6973SOL    HW132378   3.858   0.994   4.957  0.0523 -1.5340  0.9394
 6973SOL    HW232379   3.904   1.029   4.821 -1.3417 -0.0031  1.3123
 6974SOL     OW32380   3.448   0.539   9.013  0.2452 -0.5772 -0.0110
 6974SOL    HW132381   3.379   0.562   9.075  0.2449 -1.6446  0.3968
 6974SOL    HW232382   3.458   0.445   9.032  0.6841 -0.2185  1.5811
 6975SOL     OW32383   1.519   0.074  10.236 -0.0850  0.1953 -0.2283
 6975SOL    HW132384   1.572   0.130  10.293 -2.5420  2.7660 -0.5127
 6975SOL    HW232385   1.435   0.077  10.281  0.3816 -1.4590  0.7728
 6976SOL     OW32386   0.550   0.025   8.651 -0.4749 -0.4420  0.1061
 6976SOL    HW132387   0.609   4.683   8.693 -2.3107 -2.2837 -0.0709
 6976SOL    HW232388   0.596   0.107   8.668 -0.4287 -0.4372 -0.0391
 6977SOL     OW32389   2.187   0.848   4.273 -0.2492 -0.4917 -0.3670
 6977SOL    HW132390   2.098   0.820   4.292  0.0004 -0.3058  1.0263
 6977SOL    HW232391   2.180   0.865   4.179 -0.4151 -0.7927 -0.4094
 6978SOL     OW32392   1.164   2.422   3.111  0.1692  0.2683 -0.0388
 6978SOL    HW132393   1.147   2.477   3.035 -0.2030  1.4421  0.8969
 6978SOL    HW232394   1.211   2.352   3.065  2.0563  1.0882  0.6266
 6979SOL     OW32395   0.359   0.788   5.153 -0.4383 -0.7518  0.0161
 6979SOL    HW132396   0.360   0.698   5.120 -0.3243 -1.0580  0.8496
 6979SOL    HW232397   0.305   0.781   5.232  1.4471 -1.4092  1.2556
 6980SOL     OW32398   2.162   1.685   8.993 -0.0686 -0.2801 -0.2114
 6980SOL    HW132399   2.138   1.749   9.060 -0.5555 -0.5379 -0.1397
 6980SOL    HW232400   2.251   1.715   8.972  0.1484 -0.3784  0.5707
 6981SOL     OW32401   3.358   3.668   4.400 -0.4548  0.3850 -0.6252
 6981SOL    HW132402   3.287   3.720   4.437  0.6657  0.6639  1.1103
 6981SOL    HW232403   3.425   3.663   4.468 -2.9882 -0.3252  1.7816
 6982SOL     OW32404   2.634   3.825   9.579 -0.1237  0.4618  0.8560
 6982SOL    HW132405   2.598   3.893   9.522 -0.7905 -0.6917 -0.1167
 6982SOL    HW232406   2.623   3.860   9.667  0.7625 -0.0184  1.1592
 6983SOL     OW32407   4.677   1.605   2.451  0.0675  0.2487  0.3085
 6983SOL    HW132408   4.667   1.631   2.360  0.7163 -1.1287 -0.1513
 6983SOL    HW232409   4.651   1.513   2.451 -2.8639  1.0951  0.9534
 6984SOL     OW32410   1.025   0.677  13.142  0.2779  0.1101  0.1421
 6984SOL    HW132411   1.069   0.601  13.181  1.6340  1.4680  1.2091
 6984SOL    HW232412   1.056   0.663  13.052  0.7042  0.4980  0.2313
 6985SOL     OW32413   1.836   1.432   2.976 -0.2680  0.5344  0.4525
 6985SOL    HW132414   1.861   1.475   2.894  2.3169 -0.0172  0.9348
 6985SOL    HW232415   1.867   1.499   3.036 -0.9439  1.5263 -0.3093
 6986SOL     OW32416   1.746   3.672   6.773  0.6825  0.2611 -0.4718
 6986SOL    HW132417   1.756   3.630   6.688  1.4942 -1.8644  0.6627
 6986SOL    HW232418   1.779   3.603   6.831  2.2040  1.6248  0.2597
 6987SOL     OW32419   2.578   0.860   6.123 -0.0462  0.4261 -0.1082
 6987SOL    HW132420   2.560   0.899   6.209 -1.6297  0.8620 -0.6414
 6987SOL    HW232421   2.537   0.920   6.061  0.0250 -0.7749 -1.3261
 6988SOL     OW32422   3.789   1.547   6.825 -0.2281  0.2701 -0.6642
 6988SOL    HW132423   3.729   1.612   6.863  0.2349  0.1328  0.3022
 6988SOL    HW232424   3.753   1.539   6.737  1.0862 -1.6919 -1.0063
 6989SOL     OW32425   3.131   4.553   7.868 -0.1090  0.7221 -0.3973
 6989SOL    HW132426   3.156   4.466   7.900  0.4586  0.9414 -0.2453
 6989SOL    HW232427   3.088   4.535   7.785 -0.2322 -4.2434  0.7289
 6990SOL     OW32428   3.567   0.672   4.911  0.2407  0.1617 -0.1429
 6990SOL    HW132429   3.626   0.728   4.860 -0.5746  2.7315  1.7425
 6990SOL    HW232430   3.626   0.643   4.981  1.7811 -0.3989 -1.6626
 6991SOL     OW32431   2.735   4.520   8.706 -0.4049 -0.2496 -0.3991
 6991SOL    HW132432   2.677   4.537   8.780 -0.7437 -0.0364 -0.7142
 6991SOL    HW232433   2.688   4.565   8.636 -1.1412 -1.2842 -0.5758
 6992SOL     OW32434   3.567   3.236   2.358  0.3954 -0.4282 -0.6385
 6992SOL    HW132435   3.508   3.164   2.381 -0.9541  0.7087 -0.5247
 6992SOL    HW232436   3.530   3.271   2.276 -0.1168 -0.9519 -0.6262
 6993SOL     OW32437   3.431   3.662   5.212  0.8004 -0.5684 -0.1160
 6993SOL    HW132438   3.406   3.752   5.235 -0.6218 -0.7001 -1.1638
 6993SOL    HW232439   3.426   3.677   5.118  0.1787 -0.7884 -0.1226
 6994SOL     OW32440   0.860   3.220   8.731  0.1623  0.4926 -0.5261
 6994SOL    HW132441   0.911   3.298   8.752 -0.1538  0.3586  0.7159
 6994SOL    HW232442   0.902   3.191   8.650 -2.3366 -0.9497 -1.3144
 6995SOL     OW32443   3.142   2.640  15.072  0.9694 -0.1277  0.2581
 6995SOL    HW132444   3.047   2.624  15.071  1.1977 -1.4893  0.4937
 6995SOL    HW232445   3.149   2.723  15.120 -0.1791  0.3632 -0.4242
 6996SOL     OW32446   1.167   3.812   0.912  0.1698 -0.0849 -0.1399
 6996SOL    HW132447   1.204   3.784   0.829  0.6972  1.0583 -0.2977
 6996SOL    HW232448   1.249   3.798   0.959 -1.1124 -1.3154  1.7554
 6997SOL     OW32449   3.113   4.671   5.228  0.0278 -0.0763  0.1828
 6997SOL    HW132450   3.041   4.652   5.168  1.4865 -2.0342 -0.9719
 6997SOL    HW232451   3.076   0.020   5.282 -0.6291  0.8843 -1.5235
 6998SOL     OW32452   3.814   3.553   8.190 -0.6963 -0.3214  0.2235
 6998SOL    HW132453   3.888   3.567   8.249 -1.1689 -0.1608  0.7828
 6998SOL    HW232454   3.751   3.557   8.262 -0.9665 -0.1043 -0.0234
 6999SOL     OW32455   1.406   2.377   9.241 -0.4701  0.4472  0.2773
 6999SOL    HW132456   1.482   2.396   9.185 -0.8494 -1.3942 -0.8786
 6999SOL    HW232457   1.339   2.371   9.173  1.1798  0.4423 -1.3462
 7000SOL     OW32458   3.840   3.875  16.621  0.5219  0.2194 -0.0548
 7000SOL    HW132459   3.899   3.923  16.564  1.5726 -0.1202  0.7334
 7000SOL    HW232460   3.893   3.802  16.654 -0.6007 -0.2142  0.8029
 7001SOL     OW32461   0.244   0.683   4.744 -0.2055 -0.0313  0.3363
 7001SOL    HW132462   0.317   0.623   4.728  0.9644  1.1436  1.2423
 7001SOL    HW232463   0.290   0.755   4.787 -0.1319 -0.5881  1.1972
 7002SOL     OW32464   3.074   2.522   5.543 -0.3791  0.0611 -0.1207
 7002SOL    HW132465   3.034   2.477   5.469  1.6860 -0.9183 -0.6494
 7002SOL    HW232466   2.999   2.572   5.574  0.8894  0.6126  2.0980
 7003SOL     OW32467   3.158   1.419   7.673  0.3926 -0.5266 -0.1812
 7003SOL    HW132468   3.187   1.360   7.603  0.8229  0.9015 -1.2076
 7003SOL    HW232469   3.091   1.373   7.723  0.0067  2.1612  1.7691
 7004SOL     OW32470   0.127   2.379  14.830  0.1265  0.0654  0.2615
 7004SOL    HW132471   0.124   2.467  14.792  0.9794  0.6889  1.6096
 7004SOL    HW232472   0.064   2.340  14.771 -0.2802 -0.3825  0.9964
 7005SOL     OW32473   1.716   2.008  12.757  0.3029  0.2946 -0.7886
 7005SOL    HW132474   1.721   2.007  12.853 -0.7417 -1.7244 -0.7589
 7005SOL    HW232475   1.782   2.073  12.735  2.1223 -0.3435  2.8751
 7006SOL     OW32476   0.220   3.250  11.347  0.1622 -0.1749 -0.1593
 7006SOL    HW132477   0.185   3.267  11.260 -0.6628 -0.6024  0.0892
 7006SOL    HW232478   0.297   3.308  11.349 -1.6779  2.3940 -3.6946
 7007SOL     OW32479   0.128   1.917   3.183 -0.2203  0.4472 -0.1570
 7007SOL    HW132480   0.161   2.004   3.163 -0.1540  0.2825 -0.7737
 7007SOL    HW232481   0.095   1.886   3.098 -0.9466 -0.1297  0.3385
 7008SOL     OW32482   0.229   2.787   3.699  0.0648 -0.2454  0.4950
 7008SOL    HW132483   0.172   2.787   3.622 -1.6407  3.1891  1.7555
 7008SOL    HW232484   0.165   2.825   3.759 -0.5198  2.6238 -1.9351
 7009SOL     OW32485   3.177   0.435   6.753 -0.5811 -0.2596 -0.0434
 7009SOL    HW132486   3.138   0.514   6.788  0.0692 -1.0286  2.3819
 7009SOL    HW232487   3.157   0.452   6.661 -1.4364 -2.4402 -0.2673
 7010SOL     OW32488   2.953   0.935   9.545  0.1484 -0.5018  0.2139
 7010SOL    HW132489   3.004   1.011   9.520  0.3271 -0.0520  1.9281
 7010SOL    HW232490   2.878   0.940   9.486 -1.0160  1.6711  1.8669
 7011SOL     OW32491   2.412   1.067   8.587 -0.1179  0.7715 -0.3250
 7011SOL    HW132492   2.337   1.008   8.583  0.2026  0.2734  0.9462
 7011SOL    HW232493   2.381   1.132   8.649  0.6026  2.1469 -1.4152
 7012SOL     OW32494   0.527   0.679   4.272  0.1638 -0.3070 -0.1322
 7012SOL    HW132495   0.543   0.627   4.193  1.3871 -0.8834  0.4971
 7012SOL    HW232496   0.511   0.616   4.343  1.1352 -0.8289 -0.3697
 7013SOL     OW32497   2.055   3.595  17.161 -0.1722 -0.3345  0.9515
 7013SOL    HW132498   2.095   3.584  17.075 -1.3454 -0.2311  0.3900
 7013SOL    HW232499   1.971   3.635  17.139  1.3177  3.3060  1.8184
 7014SOL     OW32500   0.954   2.233  14.738 -0.3444  1.1417 -0.6904
 7014SOL    HW132501   0.965   2.277  14.653  1.9545  2.2307  0.1867
 7014SOL    HW232502   1.033   2.269  14.776 -0.1998  0.4966 -0.3718
 7015SOL     OW32503   2.463   3.902   2.151  0.0043  0.0071  1.0032
 7015SOL    HW132504   2.482   3.939   2.065 -0.5335 -0.4328  0.7032
 7015SOL    HW232505   2.376   3.938   2.166  0.1371  0.8861 -0.3866
 7016SOL     OW32506   4.396   0.426   2.187 -0.1900  0.4462  1.0094
 7016SOL    HW132507   4.407   0.518   2.162 -1.4714  0.1034 -0.8364
 7016SOL    HW232508   4.301   0.419   2.198 -0.6463  1.6768 -2.2589
 7017SOL     OW32509   3.568   3.645   9.211  0.3401 -0.2008  0.7756
 7017SOL    HW132510   3.499   3.628   9.147  0.1876 -1.4336  1.2698
 7017SOL    HW232511   3.638   3.693   9.166 -1.0951  0.1615 -1.0585
 7018SOL     OW32512   3.976   3.419   2.535 -0.1061 -0.1238  0.2765
 7018SOL    HW132513   3.918   3.343   2.545 -1.4820  0.9994  0.8826
 7018SOL    HW232514   3.986   3.422   2.440 -0.2423 -0.6593  0.2419
 7019SOL     OW32515   1.690   4.153  12.838 -0.4069 -0.5039 -0.3004
 7019SOL    HW132516   1.754   4.084  12.818 -1.8771 -2.0873  0.4664
 7019SOL    HW232517   1.658   4.170  12.750  2.0564 -0.4646 -1.2032
 7020SOL     OW32518   1.932   2.876   5.491  0.2204  0.5222  0.1415
 7020SOL    HW132519   1.981   2.950   5.455  1.0093 -0.5569 -1.0072
 7020SOL    HW232520   1.912   2.912   5.577  0.8788 -1.7090  1.2221
 7021SOL     OW32521   3.080   0.367   7.780  0.7931 -0.3291 -0.4676
 7021SOL    HW132522   3.057   0.339   7.869 -1.1562  3.5637  0.2390
 7021SOL    HW232523   3.002   0.412   7.748  1.1369  1.3313  1.0475
 7022SOL     OW32524   4.028   1.042   6.230  0.5452  0.0416  0.4986
 7022SOL    HW132525   4.094   0.991   6.183  1.0452  1.0783  0.0712
 7022SOL    HW232526   4.023   1.125   6.184 -0.9325  1.0815  2.5380
 7023SOL     OW32527   3.744   1.052   7.839  0.1667  0.3369 -0.4332
 7023SOL    HW132528   3.687   1.053   7.762  1.4181 -2.5154 -1.3971
 7023SOL    HW232529   3.824   1.086   7.799  2.4759 -0.6316  3.3632
 7024SOL     OW32530   2.039   2.932  16.444 -0.1649 -0.4449  0.4331
 7024SOL    HW132531   1.956   2.964  16.480  0.6880 -0.4320  2.4027
 7024SOL    HW232532   2.046   2.985  16.364 -1.2783 -1.2915 -0.2203
 7025SOL     OW32533   1.109   0.892   0.413 -0.0583 -0.1115 -0.5615
 7025SOL    HW132534   1.203   0.906   0.401  0.2269 -1.5464 -0.0176
 7025SOL    HW232535   1.120   0.872   0.506 -1.7593  2.0083  0.0940
 7026SOL     OW32536   0.899   1.849   3.546 -0.5007  0.1926 -0.3496
 7026SOL    HW132537   0.978   1.902   3.546 -0.1965 -0.2645 -0.0882
 7026SOL    HW232538   0.870   1.853   3.455  1.7766  1.1071 -1.0360
 7027SOL     OW32539   4.169   0.574   1.566 -0.1843  0.3614  0.2025
 7027SOL    HW132540   4.077   0.597   1.557 -0.2136  1.0725  2.1749
 7027SOL    HW232541   4.176   0.537   1.654 -1.6207 -0.5833 -0.0851
 7028SOL     OW32542   0.122   2.062   4.234 -0.0131  0.1040 -0.0760
 7028SOL    HW132543   0.130   2.139   4.291 -0.0382 -0.4069  0.6201
 7028SOL    HW232544   0.177   2.101   4.166  0.1842 -1.0717 -0.5961
 7029SOL     OW32545   3.184   0.073   9.403 -0.2395  0.6082  0.3129
 7029SOL    HW132546   3.248   0.040   9.467  1.5172  2.1448 -0.6508
 7029SOL    HW232547   3.112   0.096   9.461 -0.6631 -0.8353  0.3622
 7030SOL     OW32548   4.012   0.462   2.893  0.0536 -0.0355  0.0710
 7030SOL    HW132549   3.979   0.387   2.943 -0.6005 -1.3905 -2.4079
 7030SOL    HW232550   4.036   0.511   2.972  0.8554 -0.9050  0.3680
 7031SOL     OW32551   2.070   2.572  16.029  0.0410  0.0130  0.5675
 7031SOL    HW132552   2.117   2.622  16.097 -0.4202  0.6482  0.4195
 7031SOL    HW232553   1.979   2.581  16.056 -0.1639 -0.4276  0.0069
 7032SOL     OW32554   3.575   1.626   3.140  0.3506  0.4202 -0.7262
 7032SOL    HW132555   3.632   1.586   3.204  0.4877 -0.4159 -1.3743
 7032SOL    HW232556   3.486   1.595   3.160  0.6025 -0.8192 -1.5320
 7033SOL     OW32557   1.657   0.745  17.652  0.5935 -0.3405  0.2532
 7033SOL    HW132558   1.627   0.664   0.009  1.8625 -0.5719  0.7102
 7033SOL    HW232559   1.649   0.808   0.039  2.7876  1.6777 -1.3077
 7034SOL     OW32560   0.520   1.375   1.861  0.0883 -0.3975  0.5279
 7034SOL    HW132561   0.425   1.366   1.855  0.2377 -0.6229 -1.4958
 7034SOL    HW232562   0.547   1.321   1.787 -3.1527 -0.5025 -0.5752
 7035SOL     OW32563   1.353   3.252   0.720 -0.3180 -0.1886  0.3693
 7035SOL    HW132564   1.406   3.329   0.740  1.3184 -1.5295  1.1961
 7035SOL    HW232565   1.287   3.257   0.790  0.8927  0.4805  1.4602
 7036SOL     OW32566   1.480   3.309   4.282 -0.4245 -0.6737 -0.1690
 7036SOL    HW132567   1.535   3.341   4.211 -1.3091  0.6970 -0.2397
 7036SOL    HW232568   1.467   3.385   4.338 -0.3048  0.4594 -1.6884
 7037SOL     OW32569   3.933   1.878   5.402 -0.3026 -0.3940  0.2601
 7037SOL    HW132570   3.959   1.968   5.383 -2.5365  0.0355 -0.8596
 7037SOL    HW232571   3.879   1.854   5.326  1.7982 -0.8937 -1.0677
 7038SOL     OW32572   1.638   3.400   3.071  0.0903 -0.2322  0.1782
 7038SOL    HW132573   1.685   3.452   3.006 -1.2338 -1.1038 -1.5003
 7038SOL    HW232574   1.665   3.314   3.039 -1.2212 -0.0921 -1.3669
 7039SOL     OW32575   2.054   3.664  13.657  0.2068  0.0595 -0.3515
 7039SOL    HW132576   2.089   3.752  13.644  0.9756  0.0059  1.4531
 7039SOL    HW232577   1.965   3.683  13.687 -0.8288 -1.1147 -2.6134
 7040SOL     OW32578   4.243   4.619  12.009 -0.3920 -0.2706 -0.2454
 7040SOL    HW132579   4.217   4.584  12.094 -0.1004  2.1077  0.8266
 7040SOL    HW232580   4.333   4.588  12.010  0.1228  1.2862  1.6728
 7041SOL     OW32581   0.656   0.393   6.991 -0.0776  0.0676  0.3547
 7041SOL    HW132582   0.588   0.453   6.959 -0.2061  0.0034  0.5065
 7041SOL    HW232583   0.615   0.309   6.967 -0.2248  0.5214 -0.9877
 7042SOL     OW32584   2.875   1.886  17.638 -0.4143 -0.4782 -0.7509
 7042SOL    HW132585   2.798   1.936  17.666  0.0717  0.7196 -1.5295
 7042SOL    HW232586   2.851   1.795  17.651  0.3753 -0.7004 -0.8627
 7043SOL     OW32587   1.450   2.123   8.816 -0.3792  0.6029  0.1081
 7043SOL    HW132588   1.426   2.037   8.848 -1.2392  0.8099  0.0211
 7043SOL    HW232589   1.535   2.111   8.773 -0.5109  0.4108 -0.1007
 7044SOL     OW32590   3.501   1.264   5.724 -0.3789  0.1915 -0.2559
 7044SOL    HW132591   3.501   1.245   5.631 -0.5283  0.3103 -0.2805
 7044SOL    HW232592   3.421   1.317   5.731 -1.2549 -0.9188 -1.9131
 7045SOL     OW32593   1.449   4.278   5.650  0.1722  0.0328 -0.1710
 7045SOL    HW132594   1.527   4.333   5.644  0.5174 -0.4204  0.2867
 7045SOL    HW232595   1.385   4.342   5.617  1.2776  1.6705  0.8224
 7046SOL     OW32596   2.567   1.174   4.026 -0.2957 -0.2734 -0.2577
 7046SOL    HW132597   2.608   1.258   4.050 -0.3344 -0.6345  1.0758
 7046SOL    HW232598   2.524   1.183   4.111  0.5001  1.2585 -0.0054
 7047SOL     OW32599   1.183   2.174   5.895  0.3951  0.3008  0.2106
 7047SOL    HW132600   1.170   2.260   5.853 -0.8773  0.4219  0.8422
 7047SOL    HW232601   1.273   2.159   5.866  0.1999  1.3848 -0.9803
 7048SOL     OW32602   4.329   3.004   3.182 -0.0453 -0.6382 -0.3436
 7048SOL    HW132603   4.309   2.974   3.271 -2.3249  0.1553 -0.5939
 7048SOL    HW232604   4.304   2.922   3.139  1.2491 -0.8449 -0.7140
 7049SOL     OW32605   1.100   1.515   6.198  0.0220 -0.1042 -0.1867
 7049SOL    HW132606   1.103   1.523   6.103  2.1156 -2.8151 -0.3863
 7049SOL    HW232607   1.007   1.533   6.206 -0.3033 -1.8103 -0.1275
 7050SOL     OW32608   4.272   2.992   3.457 -0.2751  0.0357  0.2705
 7050SOL    HW132609   4.211   3.048   3.505 -0.7847 -0.5594  0.3163
 7050SOL    HW232610   4.332   2.972   3.529  0.8260  0.4118 -0.5505
 7051SOL     OW32611   4.010   1.679  10.415  0.3422  0.1343 -0.2770
 7051SOL    HW132612   4.050   1.657  10.499 -1.1011 -1.4159  0.0003
 7051SOL    HW232613   3.950   1.747  10.446  1.2381  1.0934 -0.6544
 7052SOL     OW32614   3.478   4.663  17.124 -0.5969 -0.0636  0.3717
 7052SOL    HW132615   3.547   4.657  17.059 -0.0037  1.3710  0.8486
 7052SOL    HW232616   3.513   4.596  17.183  3.1767  0.5342 -1.2153
 7053SOL     OW32617   4.132   1.718   8.033 -0.5518  0.3063 -0.1967
 7053SOL    HW132618   4.144   1.737   8.126  0.6805 -1.2886 -0.0386
 7053SOL    HW232619   4.092   1.801   8.005  1.4558  1.1993 -0.3939
 7054SOL     OW32620   4.084   3.471   7.834  0.5717 -0.0743 -0.3795
 7054SOL    HW132621   4.165   3.517   7.809  0.0851 -0.1069 -1.9763
 7054SOL    HW232622   4.059   3.529   7.906  0.8685  0.2573 -0.5436
 7055SOL     OW32623   0.552   2.946   6.499  0.2325 -0.1130  0.5975
 7055SOL    HW132624   0.477   2.921   6.552 -0.9922  1.8222 -0.2137
 7055SOL    HW232625   0.623   2.970   6.559 -0.4755 -1.7177  2.0746
 7056SOL     OW32626   2.051   0.044   5.432  0.3253  0.2888  0.1556
 7056SOL    HW132627   2.101   0.001   5.363 -1.6491 -0.2200 -0.9219
 7056SOL    HW232628   2.015   0.127   5.400  1.2864  2.0587  3.5755
 7057SOL     OW32629   3.522   2.599   7.340  0.4396 -0.2896 -0.1891
 7057SOL    HW132630   3.517   2.583   7.246 -0.5512 -0.0103 -0.1812
 7057SOL    HW232631   3.473   2.681   7.349 -0.8176 -1.1778  1.2440
 7058SOL     OW32632   4.442   2.717   1.048  0.3407 -0.0241 -0.2938
 7058SOL    HW132633   4.382   2.703   0.974  0.7344  0.4667 -0.7108
 7058SOL    HW232634   4.521   2.738   0.999 -1.2577  2.0992 -1.9686
 7059SOL     OW32635   3.527   1.557   5.424  0.3641  0.0410  0.0131
 7059SOL    HW132636   3.433   1.566   5.436  0.4750  0.6208  0.4746
 7059SOL    HW232637   3.564   1.586   5.507  0.1799  1.0626 -0.2570
 7060SOL     OW32638   0.039   2.387  17.643 -0.0193  0.0244 -0.1783
 7060SOL    HW132639   0.118   2.351  17.684  0.4862 -0.6512 -1.7397
 7060SOL    HW232640   0.037   2.349  17.556  0.2566 -1.8303  0.6150
 7061SOL     OW32641   0.572   2.910   7.670  0.1810 -0.0514 -0.1533
 7061SOL    HW132642   0.660   2.942   7.690 -0.2531 -0.5198  2.6064
 7061SOL    HW232643   0.533   2.893   7.756 -0.0466  1.3353  0.0170
 7062SOL     OW32644   1.797   3.051   4.526  0.2804 -0.5777 -0.9111
 7062SOL    HW132645   1.788   2.963   4.564  1.1457 -0.6004 -0.7736
 7062SOL    HW232646   1.890   3.067   4.540  0.1621  0.9725 -1.9308
 7063SOL     OW32647   1.537   0.797   8.604 -0.3902 -0.5748  0.2106
 7063SOL    HW132648   1.564   0.710   8.633 -2.2684 -1.9372 -2.1317
 7063SOL    HW232649   1.517   0.773   8.514  1.2252  1.6756 -0.7261
 7064SOL     OW32650   1.602   1.175   2.525 -0.7741  0.6531  0.1928
 7064SOL    HW132651   1.617   1.082   2.507  1.4754  1.3556 -1.4354
 7064SOL    HW232652   1.691   1.199   2.550 -0.6087  0.4442 -0.1937
 7065SOL     OW32653   4.050   3.637  14.906 -0.6114 -0.3012 -0.7542
 7065SOL    HW132654   4.015   3.578  14.973  0.4072 -2.1633 -1.8519
 7065SOL    HW232655   4.110   3.575  14.863 -1.2932  0.3070 -2.5646
 7066SOL     OW32656   3.135   0.331   7.265  0.4270 -0.3227  0.0703
 7066SOL    HW132657   3.052   0.297   7.300 -1.4762  0.3499 -3.7221
 7066SOL    HW232658   3.140   0.255   7.208 -2.1872  0.4801 -1.2240
 7067SOL     OW32659   4.199   1.487  10.272  0.2222 -0.2617  0.7544
 7067SOL    HW132660   4.146   1.562  10.301  0.8263  1.3093 -2.1255
 7067SOL    HW232661   4.163   1.420  10.330  0.8136 -0.7941  0.4991
 7068SOL     OW32662   2.007   2.513   8.620 -0.0636 -0.1612 -0.2708
 7068SOL    HW132663   2.011   2.484   8.529  1.8240 -2.1275  0.4618
 7068SOL    HW232664   2.078   2.577   8.614  1.0645 -1.2237  1.6844
 7069SOL     OW32665   1.009   3.383   7.652  0.4110  0.3041  0.3209
 7069SOL    HW132666   0.985   3.455   7.710  1.2659  1.5020 -0.8204
 7069SOL    HW232667   1.043   3.312   7.706  3.0683  1.3009 -0.0612
 7070SOL     OW32668   0.415   1.542   6.450 -0.3169 -0.2458  0.8375
 7070SOL    HW132669   0.411   1.616   6.512  0.9256  1.3777 -1.0219
 7070SOL    HW232670   0.470   1.477   6.492  0.3295 -1.3316 -1.6856
 7071SOL     OW32671   3.845   4.599   2.894 -0.1063  0.2993  0.0810
 7071SOL    HW132672   3.926   4.550   2.883  0.1330  0.3543  1.6034
 7071SOL    HW232673   3.824   4.639   2.809  1.4825 -0.1540 -0.5177
 7072SOL     OW32674   4.048   2.497  17.668 -0.7104 -0.7977  0.7201
 7072SOL    HW132675   3.986   2.428  17.646 -2.0081  0.2775  0.9768
 7072SOL    HW232676   4.023   2.561  17.601 -0.0501 -0.2648  0.9851
 7073SOL     OW32677   1.921   0.385   3.794  0.7285 -0.2250 -0.2392
 7073SOL    HW132678   1.926   0.467   3.744  2.0895 -1.0537 -1.4397
 7073SOL    HW232679   1.872   0.418   3.870  0.2579  3.5665 -2.1828
 7074SOL     OW32680   4.015   4.643   2.019 -0.2220 -0.1274 -0.1460
 7074SOL    HW132681   4.051   0.011   2.012  0.1727 -0.4194 -1.8886
 7074SOL    HW232682   3.929   4.659   1.981  1.1663 -0.0086 -3.2135
 7075SOL     OW32683   0.603   4.218  16.980  0.0991 -0.2606 -0.3303
 7075SOL    HW132684   0.694   4.238  16.959  0.8142 -3.2560 -0.0684
 7075SOL    HW232685   0.555   4.299  16.997  2.3190  0.9669  0.1600
 7076SOL     OW32686   0.583   1.706  13.540  0.4130  0.1947 -0.4147
 7076SOL    HW132687   0.657   1.764  13.552  0.2453  0.1778  0.7861
 7076SOL    HW232688   0.514   1.752  13.588 -0.8586 -0.5317 -1.5556
 7077SOL     OW32689   4.533   2.453   3.756 -0.8404  0.5139 -0.0132
 7077SOL    HW132690   4.582   2.505   3.820  1.8775  0.1789 -1.8439
 7077SOL    HW232691   4.579   2.480   3.677 -0.5727 -0.4285 -0.1821
 7078SOL     OW32692   1.802   4.654   0.264  0.2496 -0.0470 -0.0310
 7078SOL    HW132693   1.744   0.009   0.256  2.1026  1.3287 -0.3981
 7078SOL    HW232694   1.801   4.626   0.172  0.1016 -2.0430  0.5899
 7079SOL     OW32695   2.636   2.097   1.784 -0.0979  0.1026 -0.5665
 7079SOL    HW132696   2.541   2.092   1.796 -0.0171  0.5827  0.2233
 7079SOL    HW232697   2.666   2.023   1.836 -0.3929  0.1875 -0.2768
 7080SOL     OW32698   0.396   1.467   8.679  0.0161 -0.0935 -0.1147
 7080SOL    HW132699   0.326   1.429   8.732 -0.5082 -0.6847 -1.2353
 7080SOL    HW232700   0.341   1.517   8.620 -1.5092  0.5480  1.8639
 7081SOL     OW32701   1.868   2.665   7.409 -0.5550  0.0005  0.1023
 7081SOL    HW132702   1.902   2.624   7.329 -1.5043 -1.0923  0.2523
 7081SOL    HW232703   1.820   2.593   7.450 -1.4335  1.1525  1.1055
 7082SOL     OW32704   0.043   4.668   8.133  0.2928  0.3952 -0.0977
 7082SOL    HW132705   4.689   0.003   8.112 -0.7971 -1.2853 -0.7449
 7082SOL    HW232706   0.097   0.008   8.183  1.1403 -0.6036  0.1897
 7083SOL     OW32707   4.436   4.086   3.802  0.3107 -0.1138 -0.1578
 7083SOL    HW132708   4.385   4.139   3.741  3.3826  1.0008 -1.7815
 7083SOL    HW232709   4.406   4.122   3.886  0.5579 -1.3547  0.4612
 7084SOL     OW32710   3.278   3.443   2.908  0.4027 -0.4454 -0.0592
 7084SOL    HW132711   3.348   3.492   2.865 -0.4781 -0.1211 -1.1100
 7084SOL    HW232712   3.273   3.362   2.859 -1.4890  1.5662 -3.1533
 7085SOL     OW32713   4.422   1.261   2.722  0.1764 -0.1844 -0.0897
 7085SOL    HW132714   4.327   1.270   2.712  0.2306 -0.3206 -0.7110
 7085SOL    HW232715   4.427   1.284   2.815  0.4830 -0.6815  0.0174
 7086SOL     OW32716   0.676   0.563   0.926  0.1869  0.5164  0.1908
 7086SOL    HW132717   0.617   0.638   0.915 -1.4749 -0.5485  1.7257
 7086SOL    HW232718   0.620   0.492   0.894  1.9936 -0.4093 -0.9235
 7087SOL     OW32719   0.225   1.117  12.725  0.2308 -0.8519 -0.2769
 7087SOL    HW132720   0.187   1.102  12.812 -1.0778  4.1913 -0.0256
 7087SOL    HW232721   0.278   1.037  12.721 -0.7193 -1.6522  3.0364
 7088SOL     OW32722   2.214   1.650   2.072 -0.6785 -0.0891  0.0568
 7088SOL    HW132723   2.301   1.681   2.045  0.0967 -1.8339  0.5618
 7088SOL    HW232724   2.236   1.613   2.157  1.0628  2.4352  0.6993
 7089SOL     OW32725   0.986   2.469  11.797 -0.2475  0.2324 -0.4589
 7089SOL    HW132726   1.061   2.410  11.807 -2.9233 -3.0003  0.4092
 7089SOL    HW232727   0.914   2.434  11.848 -1.5710  1.5087 -1.4554
 7090SOL     OW32728   3.151   3.609   6.839 -0.3613  0.0697  0.4564
 7090SOL    HW132729   3.088   3.680   6.827  0.2513  0.4968 -0.2340
 7090SOL    HW232730   3.171   3.590   6.748 -0.1278  0.4808  0.4221
 7091SOL     OW32731   1.745   4.176   6.070 -0.2297 -0.1118  0.4454
 7091SOL    HW132732   1.773   4.195   5.981  2.0289  1.7656  1.5599
 7091SOL    HW232733   1.826   4.175   6.121  0.3763  1.3260 -0.4955
 7092SOL     OW32734   4.698   2.784   0.134 -0.4588  0.1165 -0.0633
 7092SOL    HW132735   0.058   2.835   0.142 -1.4742  1.5714  0.9386
 7092SOL    HW232736   4.656   2.784   0.221  0.7560 -1.1567  0.5300
 7093SOL     OW32737   0.866   2.989   0.528 -0.0869  0.2148 -0.1982
 7093SOL    HW132738   0.788   2.955   0.573 -0.1727 -1.1176 -1.3913
 7093SOL    HW232739   0.900   2.905   0.499 -1.2760  0.4822 -2.3320
 7094SOL     OW32740   0.819   1.086   9.765 -0.1846  0.2271 -0.4987
 7094SOL    HW132741   0.864   1.064   9.846  0.3956  0.1968 -0.8322
 7094SOL    HW232742   0.847   1.176   9.748  3.9125 -0.7056  1.3681
 7095SOL     OW32743   2.343   2.125   6.659 -0.0124  0.1085 -0.3591
 7095SOL    HW132744   2.405   2.096   6.593 -0.0079  0.2102 -0.3999
 7095SOL    HW232745   2.271   2.167   6.612 -0.2183 -0.8866 -0.9359
 7096SOL     OW32746   3.216   3.840   3.480  0.1189 -0.3153 -0.1787
 7096SOL    HW132747   3.244   3.782   3.551  2.0365 -0.0798 -0.7358
 7096SOL    HW232748   3.249   3.922   3.517 -2.7033 -0.3961  2.5266
 7097SOL     OW32749   3.627   2.017  12.731  0.3219 -0.2480 -0.4452
 7097SOL    HW132750   3.630   1.924  12.713 -2.2985 -0.7619  1.6915
 7097SOL    HW232751   3.717   2.035  12.756 -0.2410 -0.0933  1.4494
 7098SOL     OW32752   1.597   2.385   5.396 -0.1084 -0.0901  0.0374
 7098SOL    HW132753   1.636   2.320   5.339 -2.1944 -1.3339  0.0314
 7098SOL    HW232754   1.655   2.374   5.471 -2.0531 -0.4719  1.4984
 7099SOL     OW32755   4.500   3.422   2.741  0.6112  0.1564 -0.0722
 7099SOL    HW132756   4.413   3.390   2.718  0.9436  0.4770 -1.8205
 7099SOL    HW232757   4.534   3.353   2.798  2.3956 -0.0454 -1.3573
 7100SOL     OW32758   4.440   3.447  11.437 -0.3191  0.3107  0.2035
 7100SOL    HW132759   4.412   3.358  11.457 -0.6709  0.7405  1.6497
 7100SOL    HW232760   4.395   3.453  11.353  2.9054  1.4904 -1.4451
 7101SOL     OW32761   1.114   4.267   7.290  0.7987 -0.4032 -0.3079
 7101SOL    HW132762   1.052   4.300   7.225  0.8229  0.9388  0.3403
 7101SOL    HW232763   1.197   4.298   7.254  0.9091 -0.0141  0.2779
 7102SOL     OW32764   3.310   1.591   9.158 -0.4155  0.0729  0.2842
 7102SOL    HW132765   3.301   1.523   9.225  2.4778 -1.2666 -0.6543
 7102SOL    HW232766   3.238   1.649   9.182 -0.6397 -0.1659  0.1864
 7103SOL     OW32767   0.537   1.228   8.453 -0.1684 -0.8769 -0.2819
 7103SOL    HW132768   0.585   1.311   8.457 -3.6354  0.9704  2.6083
 7103SOL    HW232769   0.588   1.167   8.506 -0.2169 -1.9807 -1.4937
 7104SOL     OW32770   0.358   4.001   3.621  0.0681 -0.2377  0.1438
 7104SOL    HW132771   0.443   4.005   3.576 -1.0323  0.5301 -1.9051
 7104SOL    HW232772   0.300   3.979   3.548  0.1021 -1.5151  0.5094
 7105SOL     OW32773   3.443   3.047   2.516 -0.0111 -0.3409 -0.0159
 7105SOL    HW132774   3.424   3.035   2.609  0.7733 -0.6036  0.1144
 7105SOL    HW232775   3.529   3.006   2.501  0.3105  0.2258  0.2840
 7106SOL     OW32776   3.093   3.248   6.368  0.3538 -0.5353 -0.2547
 7106SOL    HW132777   3.076   3.178   6.431 -0.6729  0.0004  0.0703
 7106SOL    HW232778   3.113   3.196   6.291  1.6643 -0.1337 -0.1858
 7107SOL     OW32779   1.145   1.635   1.961 -0.0455 -1.0783 -0.3980
 7107SOL    HW132780   1.177   1.568   1.901 -2.1372 -1.4688 -1.0739
 7107SOL    HW232781   1.141   1.705   1.895 -0.0251 -0.2391  0.4823
 7108SOL     OW32782   1.708   4.567  10.806 -0.0316 -0.0392 -0.0087
 7108SOL    HW132783   1.697   4.557  10.900  3.1776  0.0196  0.3813
 7108SOL    HW232784   1.767   4.493  10.789 -1.7222 -0.9072 -2.0448
 7109SOL     OW32785   2.596   3.769   3.512  0.4366 -0.0486 -0.7393
 7109SOL    HW132786   2.554   3.727   3.437 -3.7229  0.6976  1.1841
 7109SOL    HW232787   2.524   3.780   3.574  2.3092 -0.4181  1.4946
 7110SOL     OW32788   2.068   0.057   6.022 -0.7481  0.1714 -0.5573
 7110SOL    HW132789   2.128   0.126   5.992 -0.0777  0.1150  0.6610
 7110SOL    HW232790   2.123   0.023   6.093  0.9826 -2.2485 -3.0549
 7111SOL     OW32791   1.128   0.383   7.243  0.8302 -0.0693  0.2546
 7111SOL    HW132792   1.146   0.477   7.243 -1.0502  0.2948  2.0099
 7111SOL    HW232793   1.055   0.378   7.181  0.4076  1.1447  0.6395
 7112SOL     OW32794   3.358   3.779   7.418  0.5988 -0.1948  0.2541
 7112SOL    HW132795   3.296   3.823   7.475 -1.0090  0.8978 -2.3724
 7112SOL    HW232796   3.296   3.724   7.369 -0.9858 -0.5814  2.6818
 7113SOL     OW32797   0.890   4.382   1.891  0.0972 -0.2018 -0.6327
 7113SOL    HW132798   0.969   4.354   1.937  0.1832  1.2037  0.0777
 7113SOL    HW232799   0.843   4.299   1.886  1.0941 -0.8075 -0.0166
 7114SOL     OW32800   2.178   4.434   0.296 -0.1746 -0.3053 -0.5949
 7114SOL    HW132801   2.236   4.381   0.243 -1.0879 -2.4791  0.5819
 7114SOL    HW232802   2.116   4.476   0.236 -2.5707 -1.2969  1.1461
 7115SOL     OW32803   1.363   2.660  17.197 -0.2513  0.2547 -0.3724
 7115SOL    HW132804   1.279   2.699  17.172  0.3176  1.7058 -0.0484
 7115SOL    HW232805   1.342   2.632  17.286  0.2799  2.1390  0.3569
 7116SOL     OW32806   1.335   1.803   4.221 -0.1282 -0.4161 -0.7178
 7116SOL    HW132807   1.258   1.858   4.238  0.4438 -0.1735  1.0130
 7116SOL    HW232808   1.373   1.859   4.153  2.1612 -2.5272 -1.1664
 7117SOL     OW32809   0.558   1.250   5.261  0.5358  0.3750  0.0092
 7117SOL    HW132810   0.560   1.158   5.234  0.2720 -0.2213  1.9816
 7117SOL    HW232811   0.463   1.265   5.260  0.1927 -1.9147 -2.4876
 7118SOL     OW32812   2.976   3.461   2.656  0.2291 -0.0017 -0.2046
 7118SOL    HW132813   3.015   3.423   2.577  1.5275 -0.5477  0.7130
 7118SOL    HW232814   3.050   3.508   2.693  1.3881 -2.0184  0.0299
 7119SOL     OW32815   2.158   1.459   1.744 -0.5785 -0.6386 -0.4421
 7119SOL    HW132816   2.250   1.433   1.754 -0.5450  0.0446  1.0340
 7119SOL    HW232817   2.109   1.386   1.783 -0.5331 -0.4390 -0.0116
 7120SOL     OW32818   2.646   1.499  11.039  0.0406  0.0303 -0.0781
 7120SOL    HW132819   2.632   1.448  11.118  1.6036 -1.1191 -0.5485
 7120SOL    HW232820   2.735   1.478  11.010  0.5265 -0.1688  1.5515
 7121SOL     OW32821   3.834   1.956   3.494  0.1033 -0.1105  0.0709
 7121SOL    HW132822   3.914   1.996   3.527 -0.7287  1.2723  0.4124
 7121SOL    HW232823   3.808   1.925   3.581 -2.4120 -1.6086 -1.2004
 7122SOL     OW32824   3.779   1.689   7.391 -0.1688 -0.2671 -0.1709
 7122SOL    HW132825   3.771   1.647   7.476  1.1077 -0.1769 -0.0002
 7122SOL    HW232826   3.789   1.782   7.411 -0.2936 -0.1329 -0.7100
 7123SOL     OW32827   1.082   3.823  12.838 -0.3548  0.0365  0.2249
 7123SOL    HW132828   1.019   3.752  12.850 -0.9807  0.7382  1.0809
 7123SOL    HW232829   1.124   3.792  12.758  3.1260 -0.5462  2.2861
 7124SOL     OW32830   2.052   3.371   4.616 -0.0016  0.3899 -0.5526
 7124SOL    HW132831   1.975   3.427   4.613  0.3579  0.8673 -0.9419
 7124SOL    HW232832   2.115   3.441   4.596 -0.5706  0.7464 -1.0677
 7125SOL     OW32833   0.197   4.713   3.311 -0.2867  0.4470  0.2586
 7125SOL    HW132834   0.190   4.677   3.400 -0.2215 -1.1602 -0.3810
 7125SOL    HW232835   0.279   0.041   3.319  0.8982 -1.6123  0.9079
 7126SOL     OW32836   1.221   0.522   5.091  0.2355  0.3400  0.1190
 7126SOL    HW132837   1.252   0.529   5.181 -2.6465 -0.1097  1.1280
 7126SOL    HW232838   1.282   0.465   5.043  0.4169  0.1853  0.5387
 7127SOL     OW32839   3.650   1.632  11.580  0.3606  0.4677 -0.1283
 7127SOL    HW132840   3.740   1.629  11.615  0.0583 -2.0202  0.3797
 7127SOL    HW232841   3.645   1.727  11.567 -1.5289  0.9044  3.6765
 7128SOL     OW32842   1.349   0.571   3.673 -0.3874 -0.2472 -0.2637
 7128SOL    HW132843   1.306   0.561   3.758  1.3405 -0.5878  0.5678
 7128SOL    HW232844   1.274   0.568   3.614 -0.0066 -1.9937 -0.6614
 7129SOL     OW32845   3.190   2.967  16.061  0.3532 -0.6907 -0.3379
 7129SOL    HW132846   3.103   3.005  16.074  0.2521 -0.5333 -1.4457
 7129SOL    HW232847   3.162   2.882  16.027  0.8354 -1.2596  0.6889
 7130SOL     OW32848   0.305   2.349  13.882 -0.0755 -0.1512  0.7603
 7130SOL    HW132849   0.299   2.435  13.921 -0.4520 -0.7148  1.9354
 7130SOL    HW232850   0.390   2.349  13.836 -0.9721 -1.3229 -0.9379
 7131SOL     OW32851   1.407   2.429   8.062 -0.0752  0.2012  0.6660
 7131SOL    HW132852   1.502   2.431   8.078  0.3471 -4.1299 -1.3073
 7131SOL    HW232853   1.399   2.334   8.063  0.9232  0.1010 -0.0436
 7132SOL     OW32854   1.760   2.987  12.947  0.7156 -0.3576 -0.2789
 7132SOL    HW132855   1.812   2.962  12.871 -0.0527 -3.1964  0.1616
 7132SOL    HW232856   1.730   3.070  12.909 -1.9198 -1.6131 -0.8922
 7133SOL     OW32857   1.478   1.872   0.302 -0.1785  0.0277 -0.1667
 7133SOL    HW132858   1.540   1.945   0.292 -2.4076  1.7271 -1.4551
 7133SOL    HW232859   1.524   1.789   0.294 -0.3132 -0.0992  0.3575
 7134SOL     OW32860   2.768   2.118   3.142  0.4375  0.7800  0.3838
 7134SOL    HW132861   2.788   2.161   3.225  2.3035  4.3539 -1.9286
 7134SOL    HW232862   2.673   2.117   3.129  0.3509 -4.1960  1.1247
 7135SOL     OW32863   2.673   0.979   2.227 -0.4488  0.3230 -0.3908
 7135SOL    HW132864   2.622   0.945   2.153 -0.9789  0.3345 -0.0310
 7135SOL    HW232865   2.631   0.930   2.298 -0.7291  2.7518  1.1020
 7136SOL     OW32866   0.758   4.394   1.362 -0.1188 -0.0730 -0.5532
 7136SOL    HW132867   0.804   4.320   1.401 -0.5217 -0.2235 -0.3672
 7136SOL    HW232868   0.829   4.457   1.353 -0.7411  0.5498 -1.1429
 7137SOL     OW32869   2.373   2.856   7.545 -0.5969 -0.1476 -0.6773
 7137SOL    HW132870   2.386   2.763   7.563  1.9901  0.1289 -1.2374
 7137SOL    HW232871   2.415   2.901   7.618 -0.4390  0.9288 -1.4312
 7138SOL     OW32872   2.198   1.949   3.643 -0.3666  0.0210  0.0828
 7138SOL    HW132873   2.282   1.975   3.681  1.1203 -1.7116 -2.0531
 7138SOL    HW232874   2.192   2.012   3.571  1.1947 -1.9289 -1.7558
 7139SOL     OW32875   3.659   4.378  15.263  0.3916  0.2539  0.4341
 7139SOL    HW132876   3.733   4.429  15.231  1.2994 -0.1855  1.8222
 7139SOL    HW232877   3.637   4.331  15.183 -0.2903  0.2944  0.5967
 7140SOL     OW32878   0.559   3.499   0.096  0.9572 -0.0840 -0.3174
 7140SOL    HW132879   0.548   3.465   0.007 -2.9546  0.9444 -0.2372
 7140SOL    HW232880   0.567   3.594   0.084 -0.5438  0.0958  0.0280
 7141SOL     OW32881   4.229   2.173  13.275 -0.0995 -0.1529 -0.3278
 7141SOL    HW132882   4.173   2.154  13.201 -1.2981  1.4234  0.1761
 7141SOL    HW232883   4.154   2.200  13.328  2.1693  0.8946  2.4225
 7142SOL     OW32884   3.188   3.158   2.267 -0.7285 -0.3478  0.2170
 7142SOL    HW132885   3.246   3.233   2.257 -0.9155 -0.2715 -0.3129
 7142SOL    HW232886   3.227   3.104   2.198  1.6637  0.6956  0.7645
 7143SOL     OW32887   3.151   0.546  14.476 -0.0024 -0.1733 -0.0505
 7143SOL    HW132888   3.167   0.563  14.568  0.4047 -0.4454 -0.0696
 7143SOL    HW232889   3.087   0.615  14.461 -0.1028 -0.2793 -0.1097
 7144SOL     OW32890   4.248   0.921   8.445 -0.3882 -0.0505  0.4594
 7144SOL    HW132891   4.233   0.936   8.352 -0.4495 -0.2929  0.4320
 7144SOL    HW232892   4.294   1.004   8.462 -0.5874  0.2981 -0.6840
 7145SOL     OW32893   0.118   1.513   7.385 -0.3210  0.4128 -0.4500
 7145SOL    HW132894   0.206   1.473   7.387  0.7661  2.7987 -1.1027
 7145SOL    HW232895   0.064   1.458   7.441 -0.2561  0.0653 -0.7271
 7146SOL     OW32896   1.385   1.996   2.090 -0.5213 -0.3879  0.3968
 7146SOL    HW132897   1.389   2.050   2.011  0.5664 -0.5724  0.3251
 7146SOL    HW232898   1.291   1.977   2.086 -0.1933 -2.4715  2.3748
 7147SOL     OW32899   2.161   0.773  12.409 -0.0864 -0.4244 -0.3336
 7147SOL    HW132900   2.242   0.722  12.413  1.0705  1.3069 -1.4722
 7147SOL    HW232901   2.119   0.757  12.324  0.7059  1.9681 -1.1789
 7148SOL     OW32902   2.797   1.621   8.099  0.4388  1.2482  0.4252
 7148SOL    HW132903   2.737   1.644   8.170 -1.3630  0.6309 -0.9331
 7148SOL    HW232904   2.881   1.599   8.141 -0.2871 -2.6365 -0.1635
 7149SOL     OW32905   4.336   3.317   8.032 -0.5595  0.0230 -0.1857
 7149SOL    HW132906   4.426   3.343   8.053 -0.5606 -0.3072  0.2203
 7149SOL    HW232907   4.361   3.285   7.945 -1.4106  2.4986 -1.3506
 7150SOL     OW32908   3.668   0.557   2.898  0.4114 -0.1545 -0.2273
 7150SOL    HW132909   3.648   0.637   2.850  1.5607  0.8978  1.0615
 7150SOL    HW232910   3.762   0.573   2.906  0.4827  0.0284 -1.3894
 7151SOL     OW32911   3.129   2.721  11.951 -0.2295 -0.3738  1.0994
 7151SOL    HW132912   3.098   2.672  12.027 -1.5965  1.8951  2.0032
 7151SOL    HW232913   3.207   2.764  11.985  0.8885 -0.6490 -1.0707
 7152SOL     OW32914   0.080   2.170   6.253  0.1475  0.4066 -0.3680
 7152SOL    HW132915   0.090   2.092   6.198  1.8145  1.0211 -0.9416
 7152SOL    HW232916   0.057   2.143   6.341 -0.3135  2.5435  0.1583
 7153SOL     OW32917   4.307   2.099   0.615  0.2465  0.2538 -0.4825
 7153SOL    HW132918   4.369   2.170   0.630  0.1228 -0.1034  1.8546
 7153SOL    HW232919   4.361   2.036   0.662 -0.5613 -1.0617 -1.3315
 7154SOL     OW32920   2.679   2.862   6.074  0.0678  0.2406  0.5113
 7154SOL    HW132921   2.657   2.886   6.164 -0.0863  1.6799  0.0876
 7154SOL    HW232922   2.713   2.949   6.051  0.0195 -0.4560 -2.2708
 7155SOL     OW32923   3.889   0.048   7.965  0.1030  0.3513 -0.0669
 7155SOL    HW132924   3.896   0.108   8.039  0.9077 -0.8873  0.8720
 7155SOL    HW232925   3.864   4.692   8.016  0.5054  1.6867  2.1287
 7156SOL     OW32926   3.116   0.884   1.882  0.2218  0.6827 -0.3163
 7156SOL    HW132927   3.059   0.894   1.806 -0.9693 -0.1658  0.4644
 7156SOL    HW232928   3.161   0.968   1.883  0.1115  0.7976 -3.8034
 7157SOL     OW32929   3.425   1.553   7.726  0.0696  0.1943 -0.1398
 7157SOL    HW132930   3.379   1.632   7.754  0.0076  0.1084 -0.0023
 7157SOL    HW232931   3.357   1.523   7.666 -0.7128  0.4474  0.6286
 7158SOL     OW32932   0.583   3.677  16.056  0.3384  0.3277  0.0932
 7158SOL    HW132933   0.610   3.734  16.128  2.0040 -0.4878  0.1302
 7158SOL    HW232934   0.590   3.745  15.988  1.4783  0.0932 -0.0350
 7159SOL     OW32935   4.131   1.266  10.422  0.3815 -0.4059  0.1946
 7159SOL    HW132936   4.086   1.260  10.506 -0.0523 -1.3515 -0.1048
 7159SOL    HW232937   4.117   1.173  10.406  2.4321 -0.5317 -0.8077
 7160SOL     OW32938   2.645   0.789   5.826 -0.3433 -0.2534  0.3757
 7160SOL    HW132939   2.580   0.794   5.896 -0.4180  1.5256  0.1605
 7160SOL    HW232940   2.714   0.759   5.887 -1.9384 -0.4061  2.1057
 7161SOL     OW32941   0.161   3.373  12.920  0.2014  0.4391 -0.8167
 7161SOL    HW132942   0.193   3.308  12.982 -1.3743 -0.1365 -0.5952
 7161SOL    HW232943   0.216   3.449  12.937  1.3032 -0.2528 -1.2711
 7162SOL     OW32944   0.402   3.071   5.207 -0.2449 -1.2182  0.0717
 7162SOL    HW132945   0.314   3.107   5.215  0.6243  0.9349 -0.2136
 7162SOL    HW232946   0.456   3.144   5.178 -0.1323 -0.7566  1.4580
 7163SOL     OW32947   4.688   0.653   7.983  0.1245 -0.1017  0.2083
 7163SOL    HW132948   4.661   0.686   8.068 -1.2588 -1.7729  0.4074
 7163SOL    HW232949   0.038   0.715   7.962  0.7098  0.1251  2.9352
 7164SOL     OW32950   4.379   1.033  15.734 -0.2858 -0.5002 -0.3105
 7164SOL    HW132951   4.447   1.095  15.758  0.1143 -0.7529 -0.7727
 7164SOL    HW232952   4.413   0.961  15.787 -0.3218 -0.2630  0.0284
 7165SOL     OW32953   0.278   2.877  12.027  0.3349 -0.8651  0.4297
 7165SOL    HW132954   0.287   2.800  11.970  2.4110 -1.6492  1.8402
 7165SOL    HW232955   0.367   2.908  12.015  0.3180 -1.1393 -0.3868
 7166SOL     OW32956   3.990   4.373   8.365  0.3570  0.0523  1.0286
 7166SOL    HW132957   3.899   4.345   8.377  0.4833 -0.5974  0.4759
 7166SOL    HW232958   4.035   4.291   8.343 -1.6338 -0.5729 -0.7439
 7167SOL     OW32959   3.701   2.124   1.183 -0.2492 -0.2807 -0.0580
 7167SOL    HW132960   3.661   2.175   1.253  0.3731 -0.3755  0.3682
 7167SOL    HW232961   3.786   2.169   1.175 -0.8488  0.8113 -0.3315
 7168SOL     OW32962   3.492   1.693   2.452 -0.3658  0.1228 -0.1087
 7168SOL    HW132963   3.430   1.679   2.524  1.6160  2.6752  2.0968
 7168SOL    HW232964   3.534   1.608   2.461  1.1554  1.0640  1.8509
 7169SOL     OW32965   0.388   2.046   9.713  0.5353 -0.2140 -0.1013
 7169SOL    HW132966   0.340   1.965   9.696  3.4690 -1.7514 -0.9888
 7169SOL    HW232967   0.474   2.005   9.717  1.3573  1.3749 -1.3900
 7170SOL     OW32968   1.031   1.016   9.217 -0.3161  0.1140 -0.6175
 7170SOL    HW132969   1.118   1.046   9.192  0.6965 -1.1024  1.3793
 7170SOL    HW232970   1.042   1.037   9.309 -1.7527  1.3597 -0.7431
 7171SOL     OW32971   0.079   1.725  15.292 -0.2776 -0.1271 -0.9736
 7171SOL    HW132972   0.023   1.780  15.346  1.2196 -0.7515  1.2032
 7171SOL    HW232973   0.046   1.733  15.202 -2.7497 -0.1804 -0.0719
 7172SOL     OW32974   3.897   2.640  15.264  0.1997 -0.0220  0.0914
 7172SOL    HW132975   3.864   2.717  15.311  1.1606  0.5792 -0.2176
 7172SOL    HW232976   3.902   2.671  15.173  0.4878 -3.4797 -1.0702
 7173SOL     OW32977   0.480   1.627   7.385 -0.4612  0.2770  0.0262
 7173SOL    HW132978   0.481   1.534   7.361  1.5734  0.6504 -1.3308
 7173SOL    HW232979   0.565   1.655   7.352 -1.0653  0.6179 -1.2430
 7174SOL     OW32980   2.727   4.104   6.224  0.2279  0.0326  0.3668
 7174SOL    HW132981   2.655   4.055   6.184 -0.5080  0.4165  1.1911
 7174SOL    HW232982   2.698   4.105   6.316  1.1618  2.9986  0.6382
 7175SOL     OW32983   1.976   4.080  14.583 -0.3179 -0.4721  0.0222
 7175SOL    HW132984   2.039   4.075  14.655  0.0401 -2.3600 -0.4105
 7175SOL    HW232985   2.002   4.156  14.531 -1.6766 -1.5737 -2.2572
 7176SOL     OW32986   4.330   1.713   6.871  0.3971  0.2377  0.0595
 7176SOL    HW132987   4.340   1.682   6.781 -1.8713 -0.1838 -0.0372
 7176SOL    HW232988   4.235   1.712   6.879  0.4696  0.2797  0.9441
 7177SOL     OW32989   2.180   0.212   8.616 -0.6055  0.7594  0.0919
 7177SOL    HW132990   2.258   0.267   8.619 -0.9931  1.3260 -0.1776
 7177SOL    HW232991   2.219   0.127   8.634 -0.9870  0.9856  2.0099
 7178SOL     OW32992   0.012   0.104   7.742 -0.0886  0.2024  0.6839
 7178SOL    HW132993   4.701   0.026   7.697  1.6606  0.7508 -1.4896
 7178SOL    HW232994   4.699   0.094   7.831  2.1734 -1.3237  1.3661
 7179SOL     OW32995   2.309   2.504   8.097 -0.2335 -0.1894 -0.1423
 7179SOL    HW132996   2.233   2.562   8.101 -0.9159 -1.0051 -1.1564
 7179SOL    HW232997   2.272   2.418   8.118  3.6559 -1.7165  0.5025
 7180SOL     OW32998   0.027   3.121   2.184 -0.0267  0.1529  0.0180
 7180SOL    HW132999   0.001   3.197   2.132  2.1463  0.0052 -1.3058
 7180SOL    HW233000   4.717   3.148   2.271 -1.2920 -0.4113 -0.2519
 7181SOL     OW33001   0.100   3.046   3.446  0.4053  0.5445 -0.0407
 7181SOL    HW133002   0.066   3.113   3.387 -0.0808  2.3914  2.3244
 7181SOL    HW233003   0.121   3.092   3.528  1.1127 -1.2984  0.8331
 7182SOL     OW33004   3.762   0.899   5.591  0.0548 -0.2832  0.2228
 7182SOL    HW133005   3.677   0.916   5.551 -0.3456 -0.1780  1.1104
 7182SOL    HW233006   3.751   0.932   5.680  1.6827  0.1113  0.2693
 7183SOL     OW33007   4.229   3.000   9.657  0.1807 -0.1610  0.2054
 7183SOL    HW133008   4.163   3.052   9.610  0.5369  1.6077  1.7025
 7183SOL    HW233009   4.183   2.916   9.664  0.4767 -0.0609  3.0991
 7184SOL     OW33010   3.394   4.713   2.779  1.2041  0.7965 -0.0380
 7184SOL    HW133011   3.414   4.620   2.794 -2.6539 -0.3545 -2.1126
 7184SOL    HW233012   3.365   4.703   2.688  2.3567  0.0440 -0.3301
 7185SOL     OW33013   3.274   1.214   6.762 -0.6792  0.9747 -0.2346
 7185SOL    HW133014   3.326   1.203   6.842  0.9041  1.1141 -1.2368
 7185SOL    HW233015   3.196   1.167   6.792  1.3355 -2.9452 -1.1646
 7186SOL     OW33016   2.656   4.707   4.581  0.2685  0.1344 -0.2409
 7186SOL    HW133017   2.748   4.705   4.554  0.0330 -1.1178 -0.9605
 7186SOL    HW233018   2.684   0.031   4.661  1.0214 -0.4467 -0.1788
 7187SOL     OW33019   0.223   3.820   7.219  0.1051 -0.3255  0.3200
 7187SOL    HW133020   0.311   3.803   7.253 -0.2135 -1.4767  0.5490
 7187SOL    HW233021   0.239   3.786   7.131  0.4311 -2.1287  1.0850
 7188SOL     OW33022   4.072   2.776   8.373  0.4964 -0.3451  0.0344
 7188SOL    HW133023   4.064   2.693   8.326  3.1081 -0.9050  0.5814
 7188SOL    HW233024   3.982   2.808   8.379  0.8100  0.7101 -0.9161
 7189SOL     OW33025   3.094   0.219   4.367  0.5139 -0.0112  0.1151
 7189SOL    HW133026   3.055   0.274   4.299  0.6201 -0.7179 -0.5126
 7189SOL    HW233027   3.054   0.258   4.445 -1.1294 -0.4855 -0.4758
 7190SOL     OW33028   1.432   2.030   5.883 -0.1427 -0.3988 -0.2710
 7190SOL    HW133029   1.442   2.024   5.788  1.2436 -1.7290 -0.0385
 7190SOL    HW233030   1.414   1.939   5.907  0.5440 -0.2169  0.9671
 7191SOL     OW33031   3.529   3.366   9.768  0.2674 -0.5565 -0.3182
 7191SOL    HW133032   3.553   3.337   9.857  3.5181  1.5969 -0.5168
 7191SOL    HW233033   3.617   3.381   9.735  0.1415  2.5790  0.7542
 7192SOL     OW33034   3.890   0.225   8.853 -0.3616 -0.6369 -0.2126
 7192SOL    HW133035   3.806   0.270   8.857  1.5533  3.1842 -2.8460
 7192SOL    HW233036   3.902   0.222   8.758 -0.7643  0.2575 -0.2886
 7193SOL     OW33037   3.533   3.871   2.669 -0.0080  0.2215 -0.1282
 7193SOL    HW133038   3.627   3.884   2.680  0.1012 -2.0003  1.5731
 7193SOL    HW233039   3.536   3.794   2.612  2.4866  1.1684 -1.2777
 7194SOL     OW33040   0.275   4.157   1.185  0.6751 -0.2604  0.3730
 7194SOL    HW133041   0.224   4.093   1.136  0.4496  0.1663  0.0420
 7194SOL    HW233042   0.356   4.107   1.187  2.2106  2.2458  0.9542
 7195SOL     OW33043   1.146   1.084   5.538 -1.0603 -0.4378  0.1824
 7195SOL    HW133044   1.163   1.175   5.560  0.1161 -0.7182  0.4715
 7195SOL    HW233045   1.164   1.045   5.623 -2.3856 -0.5355  0.4090
 7196SOL     OW33046   1.184   3.477  10.361  0.2651  0.1039  0.0893
 7196SOL    HW133047   1.213   3.545  10.300 -1.1013  1.1076  0.5461
 7196SOL    HW233048   1.118   3.435  10.306 -0.2041  1.4882 -0.3978
 7197SOL     OW33049   4.222   0.822   8.900 -0.2028 -0.0918  0.0393
 7197SOL    HW133050   4.190   0.865   8.821 -2.4733 -0.0527  0.9737
 7197SOL    HW233051   4.180   0.737   8.887 -0.1132  0.2730 -2.6750
 7198SOL     OW33052   2.014   2.858   7.534  0.2466 -0.3098 -0.4486
 7198SOL    HW133053   2.066   2.889   7.460  0.4159  1.3729  0.3648
 7198SOL    HW233054   1.954   2.795   7.494 -0.6844 -0.0804  0.5503
 7199SOL     OW33055   4.347   1.061   8.186  0.5167  0.7052  0.2356
 7199SOL    HW133056   4.320   1.125   8.252 -1.2701 -0.5129  0.6979
 7199SOL    HW233057   4.284   1.074   8.116 -0.3785  1.6164  1.2129
 7200SOL     OW33058   0.420   1.590  14.869  0.3045 -0.1514  0.1622
 7200SOL    HW133059   0.378   1.507  14.890  2.5285 -1.6814 -1.4689
 7200SOL    HW233060   0.378   1.616  14.786 -1.0138 -0.7452  0.6441
 7201SOL     OW33061   1.518   3.197   1.357 -0.5409  0.0844  0.4858
 7201SOL    HW133062   1.443   3.252   1.334  1.3822  1.9154 -1.5859
 7201SOL    HW233063   1.577   3.270   1.376  1.2181 -0.9270 -1.0254
 7202SOL     OW33064   1.129   3.307   4.571  0.2678  0.6741 -0.3191
 7202SOL    HW133065   1.072   3.234   4.547  0.3053 -0.3777  2.7241
 7202SOL    HW233066   1.071   3.373   4.532 -0.0534  0.8239  0.4009
 7203SOL     OW33067   1.731   3.890   8.782 -0.6041  0.3776  0.5235
 7203SOL    HW133068   1.807   3.859   8.831 -0.6195  0.8541  0.8438
 7203SOL    HW233069   1.763   3.948   8.714 -0.5470  2.1706  2.0946
 7204SOL     OW33070   4.300   2.236   4.141  0.0911  0.1437 -0.5493
 7204SOL    HW133071   4.392   2.241   4.169  0.4963  0.1808 -1.8715
 7204SOL    HW233072   4.298   2.304   4.074 -0.8233  0.3231 -0.3412
 7205SOL     OW33073   1.017   3.628  10.888 -0.0762  0.1158 -0.0435
 7205SOL    HW133074   1.044   3.541  10.917 -1.2780  0.4168  1.9577
 7205SOL    HW233075   1.027   3.685  10.964 -4.9537  1.4567 -0.4487
 7206SOL     OW33076   2.208   3.729   5.938 -0.3576 -0.7851  0.6832
 7206SOL    HW133077   2.275   3.794   5.958  0.7177 -1.5177 -0.4805
 7206SOL    HW233078   2.260   3.656   5.904 -0.5135 -1.0515  1.0190
 7207SOL     OW33079   3.654   4.287   8.120  0.3558  1.0417 -0.2927
 7207SOL    HW133080   3.593   4.217   8.146  0.1877  1.5292  0.6246
 7207SOL    HW233081   3.591   4.355   8.098 -2.7542 -0.7285  2.9133
 7208SOL     OW33082   3.275   2.849   1.703 -0.3830 -0.0139 -0.1683
 7208SOL    HW133083   3.180   2.859   1.701 -0.4271 -0.2399  0.6900
 7208SOL    HW233084   3.282   2.778   1.767 -1.2668  0.1950  0.1581
 7209SOL     OW33085   1.557   4.021   4.003 -0.2040  0.2758 -0.5405
 7209SOL    HW133086   1.476   4.068   3.983 -1.8917 -2.2510  0.3584
 7209SOL    HW233087   1.527   3.974   4.081  3.5184  2.5159  2.3006
 7210SOL     OW33088   4.107   4.344   6.401  0.1282 -0.0697  0.2571
 7210SOL    HW133089   4.069   4.366   6.487  0.7978  2.2477 -0.0436
 7210SOL    HW233090   4.166   4.419   6.395  1.7539 -1.3292  0.6633
 7211SOL     OW33091   3.320   3.339   3.394  0.0030 -0.1019 -0.0527
 7211SOL    HW133092   3.365   3.277   3.337 -0.5224  0.9315 -1.5825
 7211SOL    HW233093   3.387   3.353   3.461  0.5532  2.3302 -1.0758
 7212SOL     OW33094   1.309   4.675   2.848  0.0892  0.2411  0.2468
 7212SOL    HW133095   1.277   4.665   2.937  0.6304 -1.0336  0.3031
 7212SOL    HW233096   1.268   4.599   2.807  0.3141  0.5142 -0.4881
 7213SOL     OW33097   2.894   0.482  10.151  0.4660  0.2591 -0.4826
 7213SOL    HW133098   2.932   0.408  10.103 -0.9936  0.3535 -1.7877
 7213SOL    HW233099   2.833   0.515  10.085 -0.3316 -2.8295 -1.2828
 7214SOL     OW33100   0.020   1.153   4.478  0.2844 -0.3240 -0.6361
 7214SOL    HW133101   4.663   1.101   4.499  0.1514 -0.3713 -1.2441
 7214SOL    HW233102   0.001   1.189   4.391  2.7923 -1.0964 -1.5050
 7215SOL     OW33103   1.480   3.482   4.834 -0.5981 -0.3578  0.3389
 7215SOL    HW133104   1.483   3.512   4.924  0.3815  0.0584  0.1599
 7215SOL    HW233105   1.557   3.426   4.824 -0.3196  0.0964 -0.0438
 7216SOL     OW33106   1.618   0.070   6.714 -0.0640  0.2122 -0.2392
 7216SOL    HW133107   1.713   0.066   6.722 -0.2619 -2.8556  0.4598
 7216SOL    HW233108   1.585   4.704   6.738  0.1758 -0.1272 -1.1444
 7217SOL     OW33109   1.665   0.354  13.180 -0.2474 -0.1824 -0.0392
 7217SOL    HW133110   1.682   0.414  13.253 -1.2208  1.2321 -0.9825
 7217SOL    HW233111   1.724   0.399  13.120 -0.3137 -0.2846 -0.1822
 7218SOL     OW33112   2.990   3.991   2.470 -0.4211  0.5479  0.1025
 7218SOL    HW133113   2.979   3.909   2.421  0.7150  0.0120  0.7496
 7218SOL    HW233114   2.996   4.062   2.406 -1.5843  0.2180 -0.3722
 7219SOL     OW33115   3.847   4.624  14.665 -0.3662  0.0466  0.0504
 7219SOL    HW133116   3.937   4.655  14.657 -1.0641  2.2854  0.9312
 7219SOL    HW233117   3.803   4.696  14.620  0.6732  0.5333 -0.1822
 7220SOL     OW33118   1.137   2.429   8.750  0.0222  0.2071  0.2558
 7220SOL    HW133119   1.090   2.509   8.727 -1.4331  0.0016  2.4942
 7220SOL    HW233120   1.070   2.380   8.798  0.2819  0.7350  1.1553
 7221SOL     OW33121   3.437   0.286   9.118  0.2419  0.3125  0.0831
 7221SOL    HW133122   3.406   0.204   9.080  0.5081 -0.6160  1.8721
 7221SOL    HW233123   3.371   0.304   9.185  0.3840 -1.6526  0.7332
 7222SOL     OW33124   4.066   0.154   2.728  0.4265 -0.0016  0.3384
 7222SOL    HW133125   4.098   0.175   2.640 -0.5663 -1.9276 -0.4893
 7222SOL    HW233126   3.972   0.158   2.709  0.4122  0.3046  0.4691
 7223SOL     OW33127   1.066   0.794  13.678 -0.3957 -0.0021  0.2941
 7223SOL    HW133128   1.088   0.833  13.593  0.1647  1.9105  1.3260
 7223SOL    HW233129   0.971   0.806  13.684 -0.0327  2.3122  1.3840
 7224SOL     OW33130   2.915   0.096   2.521  0.2782  0.2021  0.4843
 7224SOL    HW133131   2.918   0.057   2.608  2.0315 -2.4288 -0.7732
 7224SOL    HW233132   2.898   0.187   2.544 -0.2388  0.2574 -0.1032
 7225SOL     OW33133   0.468   4.426   3.933 -0.3506  0.2299  0.0977
 7225SOL    HW133134   0.465   4.400   4.025 -0.5410  1.7373  0.5093
 7225SOL    HW233135   0.418   4.361   3.884 -0.7771 -0.5906  1.6116
 7226SOL     OW33136   1.224   0.441   6.778 -0.0996 -0.5597  0.0825
 7226SOL    HW133137   1.194   0.417   6.866  0.0911 -0.8666  0.0651
 7226SOL    HW233138   1.140   0.474   6.746  0.4571  0.3895 -0.3890
 7227SOL     OW33139   1.869   0.486   4.351 -0.6742 -0.8105  0.3296
 7227SOL    HW133140   1.844   0.529   4.432 -0.2060 -0.6057  0.3659
 7227SOL    HW233141   1.820   0.522   4.278  0.2310 -1.0624 -0.4047
 7228SOL     OW33142   2.697   2.472   5.726 -0.1879  0.3001  0.0400
 7228SOL    HW133143   2.788   2.490   5.752 -1.2136  1.2187  3.0520
 7228SOL    HW233144   2.691   2.532   5.652  0.0891  0.2027 -0.0647
 7229SOL     OW33145   4.057   3.029   7.501  0.0332 -0.1580  0.6186
 7229SOL    HW133146   4.022   3.116   7.522  0.0435 -0.0231  0.0715
 7229SOL    HW233147   3.997   2.966   7.541 -0.6443  0.5105  0.6497
 7230SOL     OW33148   4.478   0.860  15.971  0.6236  0.0901  0.0601
 7230SOL    HW133149   4.480   0.766  15.952  0.5964  0.2174 -0.5826
 7230SOL    HW233150   4.565   0.890  15.949 -0.1109  1.8857 -0.3613
 7231SOL     OW33151   4.104   2.238   5.985 -0.0496  0.4882  0.2493
 7231SOL    HW133152   4.157   2.159   5.998  1.1376  1.6431  2.3705
 7231SOL    HW233153   4.159   2.273   5.915  1.9567 -0.8056  1.2056
 7232SOL     OW33154   1.140   3.316  17.569 -0.0328 -0.1744  0.6993
 7232SOL    HW133155   1.083   3.315  17.646  1.2865 -2.1645  1.6452
 7232SOL    HW233156   1.209   3.374  17.600  1.0041 -0.9869 -0.0988
 7233SOL     OW33157   0.479   0.084   3.316  0.1635  0.1649 -0.5797
 7233SOL    HW133158   0.510   0.174   3.329  3.1596 -1.0195  0.5724
 7233SOL    HW233159   0.494   0.077   3.222 -0.6864  2.3191 -0.8690
 7234SOL     OW33160   3.230   3.453   8.355 -0.4922  0.0888 -0.4528
 7234SOL    HW133161   3.158   3.409   8.309 -0.8546 -1.2951  1.4303
 7234SOL    HW233162   3.231   3.411   8.441  0.2464  1.6509  0.2878
 7235SOL     OW33163   4.125   0.036   4.875  0.1085  0.1701  0.5276
 7235SOL    HW133164   4.090   0.009   4.791  0.5509  1.2237  0.0157
 7235SOL    HW233165   4.092   0.125   4.887 -2.2339 -0.6401  0.0687
 7236SOL     OW33166   3.757   4.367   7.812 -0.4698  0.5120 -0.0377
 7236SOL    HW133167   3.700   4.428   7.764 -0.5975  0.2474 -0.2280
 7236SOL    HW233168   3.696   4.347   7.883 -0.4210  0.8218  0.0886
 7237SOL     OW33169   0.293   4.594  15.592 -0.1449 -0.1383 -0.1414
 7237SOL    HW133170   0.364   4.554  15.641  0.8248  1.1622 -0.4881
 7237SOL    HW233171   0.232   4.620  15.662 -1.9626 -3.7524 -0.3932
 7238SOL     OW33172   4.076   0.196   5.920 -0.0268  0.3492  0.2975
 7238SOL    HW133173   4.048   0.113   5.881  2.7124 -0.1779 -0.5468
 7238SOL    HW233174   4.019   0.210   5.996 -1.7539 -2.3650 -0.4890
 7239SOL     OW33175   4.159   3.634   8.051 -0.6935  0.0566 -0.1473
 7239SOL    HW133176   4.189   3.725   8.058  0.8599 -0.4739 -0.0045
 7239SOL    HW233177   4.132   3.619   8.141 -2.8068  2.0230 -0.4505
 7240SOL     OW33178   1.118   1.594   1.550 -0.4245 -0.0439 -0.2331
 7240SOL    HW133179   1.137   1.614   1.458  0.5405 -0.9204 -0.2362
 7240SOL    HW233180   1.150   1.503   1.550 -1.9313 -0.5627  0.6797
 7241SOL     OW33181   0.135   1.499  10.479  0.1520 -0.0633 -0.5619
 7241SOL    HW133182   0.148   1.423  10.535 -0.1866  0.3637  0.0996
 7241SOL    HW233183   0.163   1.565  10.543 -0.4773  0.6689 -1.0374
 7242SOL     OW33184   1.890   4.150   8.185 -0.0680  0.0767  0.5269
 7242SOL    HW133185   1.928   4.133   8.099 -0.2293 -2.3747  0.9464
 7242SOL    HW233186   1.828   4.218   8.159 -0.1868 -1.1743 -2.4055
 7243SOL     OW33187   4.472   2.986  17.344  0.4206 -0.2303 -0.3407
 7243SOL    HW133188   4.528   3.016  17.273 -0.8815  1.2071 -0.7777
 7243SOL    HW233189   4.445   3.070  17.382 -0.2659 -0.6021  0.0054
 7244SOL     OW33190   1.636   1.035   4.166  0.0939  0.1636 -0.0937
 7244SOL    HW133191   1.711   1.072   4.121 -0.5067  3.5925  1.7400
 7244SOL    HW233192   1.558   1.056   4.116 -1.2999  0.6175  2.2408
 7245SOL     OW33193   1.343   1.717   8.241 -0.6577 -0.2827 -0.5478
 7245SOL    HW133194   1.311   1.803   8.214 -1.2135 -0.5325 -0.6854
 7245SOL    HW233195   1.275   1.694   8.304  0.3148 -2.2763 -0.2028
 7246SOL     OW33196   3.376   3.275   9.107  0.0209 -0.0706  0.2761
 7246SOL    HW133197   3.380   3.196   9.053 -1.8242 -1.6026  2.3473
 7246SOL    HW233198   3.318   3.243   9.177 -0.3628 -3.6140 -1.6954
 7247SOL     OW33199   0.261   1.958   0.047 -0.6961 -0.1121  0.9710
 7247SOL    HW133200   0.270   1.996   0.134  0.0179  0.0201  0.8446
 7247SOL    HW233201   0.223   2.028  17.679 -2.7092  0.4408  3.1947
 7248SOL     OW33202   2.672   4.258   5.498 -0.2409  0.7191 -0.2478
 7248SOL    HW133203   2.660   4.347   5.530 -0.8743  0.8479 -0.8420
 7248SOL    HW233204   2.738   4.216   5.553 -0.2502  1.1906  0.1167
 7249SOL     OW33205   1.134   1.909   9.755 -0.0594  0.7285 -0.4003
 7249SOL    HW133206   1.157   1.945   9.841 -1.5291  1.1058 -0.1674
 7249SOL    HW233207   1.214   1.928   9.707  0.7215  0.9305  0.9912
 7250SOL     OW33208   1.788   1.818   3.113  0.3878 -0.6923 -0.0627
 7250SOL    HW133209   1.787   1.795   3.206  2.7978 -0.6053 -0.0096
 7250SOL    HW233210   1.699   1.797   3.083  0.3434 -1.3225  0.5254
 7251SOL     OW33211   4.013   1.700   3.065  0.5899  0.2675 -0.3237
 7251SOL    HW133212   4.041   1.770   3.007 -1.0285  0.6903 -0.6080
 7251SOL    HW233213   3.965   1.742   3.137  1.4553 -1.9159  1.5327
 7252SOL     OW33214   4.331   4.714   2.080  0.3512 -0.0625  0.3570
 7252SOL    HW133215   4.425   4.715   2.066  0.3661 -0.8839  0.4118
 7252SOL    HW233216   4.299   4.713   1.990 -1.3493 -0.4669  0.9645
 7253SOL     OW33217   3.695   4.349   1.428  0.1177 -0.5247  0.3352
 7253SOL    HW133218   3.697   4.256   1.449 -0.0899 -0.4454  0.7135
 7253SOL    HW233219   3.759   4.382   1.491  0.2969  1.5542 -0.9067
 7254SOL     OW33220   2.398   2.792  14.913 -0.6844 -0.3677 -0.3376
 7254SOL    HW133221   2.310   2.828  14.912 -0.2445  0.6778 -1.8640
 7254SOL    HW233222   2.448   2.872  14.928  0.6529 -1.4221  0.7725
 7255SOL     OW33223   3.926   3.359   0.745 -0.1333  0.5449 -0.0218
 7255SOL    HW133224   3.916   3.403   0.829  0.8647 -0.4986  0.6415
 7255SOL    HW233225   3.879   3.277   0.759 -0.7737  1.2013  1.6630
 7256SOL     OW33226   2.466   0.337   4.720  0.1300  0.0679  0.7682
 7256SOL    HW133227   2.432   0.295   4.800  0.5480  0.0957  0.9611
 7256SOL    HW233228   2.437   0.427   4.733  2.3278  0.8153  0.3285
 7257SOL     OW33229   0.833   2.116   9.628 -0.1342  0.3058 -0.6592
 7257SOL    HW133230   0.880   2.071   9.558  0.9804 -0.3813  0.5375
 7257SOL    HW233231   0.748   2.130   9.585 -0.6387  1.0499  0.5740
 7258SOL     OW33232   2.185   1.926   9.153  0.6715 -0.0878  0.1688
 7258SOL    HW133233   2.272   1.955   9.124  1.0600 -0.8451  0.5756
 7258SOL    HW233234   2.203   1.913   9.246  0.8526 -1.8442 -0.1049
 7259SOL     OW33235   0.333   0.272   4.549 -0.2351 -0.2067 -0.3976
 7259SOL    HW133236   0.422   0.238   4.536 -1.0442 -1.6664 -2.1780
 7259SOL    HW233237   0.273   0.199   4.569  0.3856 -0.5744  0.1160
 7260SOL     OW33238   3.043   4.684   6.093 -0.2461  0.5928 -0.4447
 7260SOL    HW133239   3.067   4.651   6.006  0.3007 -0.4012  0.0908
 7260SOL    HW233240   3.110   0.028   6.115 -1.7555  1.5216  1.3726
 7261SOL     OW33241   4.157   4.449   2.224 -0.0399  0.2470  0.4805
 7261SOL    HW133242   4.157   4.534   2.181 -0.2902 -0.2457 -0.5029
 7261SOL    HW233243   4.089   4.401   2.176  1.3843 -2.3219  1.0137
 7262SOL     OW33244   3.649   0.466   5.423  0.2236 -0.1800 -0.4150
 7262SOL    HW133245   3.562   0.504   5.422  0.3653  0.1838  1.0011
 7262SOL    HW233246   3.694   0.516   5.355 -0.4254  1.9007  0.6936
 7263SOL     OW33247   2.391   2.126  16.537  0.3323  0.0238  0.4844
 7263SOL    HW133248   2.455   2.195  16.521  2.9462 -2.1484  1.5508
 7263SOL    HW233249   2.359   2.134  16.627  1.5645 -3.3191  1.2018
 7264SOL     OW33250   1.089   1.677   8.388 -0.2178  0.2728 -0.1345
 7264SOL    HW133251   1.053   1.744   8.446  0.1130  0.2718  0.0743
 7264SOL    HW233252   1.095   1.603   8.449  0.7556 -1.2008 -2.0501
 7265SOL     OW33253   1.482   4.195   4.394 -0.3028  0.2774 -0.3537
 7265SOL    HW133254   1.393   4.191   4.427  0.3586  0.6393  1.4478
 7265SOL    HW233255   1.501   4.288   4.378  1.5999 -0.3428 -1.7018
 7266SOL     OW33256   4.685   1.069   3.191 -0.3122 -0.1084 -0.2202
 7266SOL    HW133257   4.703   1.006   3.261 -0.3387  0.6415  0.4609
 7266SOL    HW233258   4.595   1.039   3.174 -0.0545 -1.1012  0.1616
 7267SOL     OW33259   3.249   2.177  15.514 -0.0728  0.9386  1.1487
 7267SOL    HW133260   3.249   2.163  15.419  0.8048  2.5189  0.9357
 7267SOL    HW233261   3.339   2.193  15.540 -0.0608 -0.1994  1.8484
 7268SOL     OW33262   3.954   3.957  10.494  0.6393  0.2192 -0.2035
 7268SOL    HW133263   3.928   4.013  10.567 -1.7135 -2.1709  0.8297
 7268SOL    HW233264   3.928   3.873  10.532  0.6470 -0.8391 -2.5385
 7269SOL     OW33265   1.748   3.328  11.481 -0.6331 -0.5017  0.3377
 7269SOL    HW133266   1.685   3.371  11.422 -0.1582 -1.8560 -1.1505
 7269SOL    HW233267   1.769   3.412  11.523 -1.9165 -1.4641  2.8842
 7270SOL     OW33268   3.742   2.209   8.979 -0.2498 -0.3565  0.0991
 7270SOL    HW133269   3.690   2.139   9.019  1.0588 -1.4932 -0.2053
 7270SOL    HW233270   3.677   2.279   8.971  0.3443  0.1772 -0.0147
 7271SOL     OW33271   2.939   3.271   3.994 -0.5113  0.1343  0.1338
 7271SOL    HW133272   2.869   3.333   3.977 -0.8474 -0.6365 -1.3074
 7271SOL    HW233273   2.988   3.279   3.912  1.3418 -0.3416  1.1755
 7272SOL     OW33274   1.602   3.362   6.849  0.1540 -0.0690  0.5290
 7272SOL    HW133275   1.600   3.292   6.915  1.0068  0.3928  1.0416
 7272SOL    HW233276   1.558   3.426   6.905 -0.3405 -0.4149  0.5337
 7273SOL     OW33277   4.370   2.287   3.326 -0.2619  0.6594  0.3702
 7273SOL    HW133278   4.395   2.361   3.270  1.2564 -0.2057 -0.0866
 7273SOL    HW233279   4.304   2.329   3.380 -1.9314  1.2048 -2.0888
 7274SOL     OW33280   2.723   1.975   6.871 -0.1336  0.3481  0.3142
 7274SOL    HW133281   2.747   2.050   6.816 -0.8775 -1.3887 -2.3682
 7274SOL    HW233282   2.704   2.021   6.952  0.4515  1.2481 -0.0570
 7275SOL     OW33283   1.818   0.291   3.497 -0.9997 -0.4010  0.3500
 7275SOL    HW133284   1.755   0.312   3.429  0.2515  0.4309 -0.5448
 7275SOL    HW233285   1.762   0.305   3.573  1.0021  1.2166  1.5358
 7276SOL     OW33286   2.786   1.930  17.236  0.0582 -0.5039  0.1513
 7276SOL    HW133287   2.792   1.845  17.278  0.1558 -1.6667 -2.2330
 7276SOL    HW233288   2.812   1.985  17.310 -0.1545 -0.3614  0.1207
 7277SOL     OW33289   0.455   0.823   7.719 -0.1893 -0.0415 -0.4245
 7277SOL    HW133290   0.501   0.801   7.639 -0.0515  2.0362 -0.9157
 7277SOL    HW233291   0.366   0.806   7.687 -1.1558  1.5692  1.3590
 7278SOL     OW33292   4.515   1.437   7.083  0.2733 -0.0974 -0.1304
 7278SOL    HW133293   4.507   1.362   7.142 -0.4715 -0.2320 -0.3949
 7278SOL    HW233294   4.443   1.424   7.022  0.9677  0.2654 -1.0297
 7279SOL     OW33295   0.843   3.973   2.247  0.6091  0.3038  0.5478
 7279SOL    HW133296   0.835   3.889   2.202  2.3807  1.2788 -1.6174
 7279SOL    HW233297   0.906   4.009   2.184 -1.4775  2.2231 -0.4653
 7280SOL     OW33298   2.931   1.755   6.797 -0.0839 -0.1306 -0.4724
 7280SOL    HW133299   2.906   1.754   6.889  1.9300  1.2080  0.0834
 7280SOL    HW233300   2.983   1.676   6.780  0.8147  0.1197  1.1079
 7281SOL     OW33301   4.668   1.105   8.297 -0.0146  0.0180  0.0499
 7281SOL    HW133302   4.590   1.068   8.338  0.1624 -0.0502  0.3242
 7281SOL    HW233303   4.632   1.137   8.214  1.3816  1.5629  0.0251
 7282SOL     OW33304   0.139   2.136   1.483 -0.1440 -0.0015 -0.0571
 7282SOL    HW133305   0.122   2.230   1.474  0.6620 -0.0084 -1.7085
 7282SOL    HW233306   0.126   2.123   1.577  2.3358 -3.0704 -0.1444
 7283SOL     OW33307   0.306   0.370  15.838 -0.2865 -0.3662 -0.1642
 7283SOL    HW133308   0.292   0.420  15.918  2.1468 -2.2291  1.4458
 7283SOL    HW233309   0.289   0.434  15.770  1.7713  1.2414  0.8371
 7284SOL     OW33310   1.094   1.291   6.552  0.1190  0.3026  0.2701
 7284SOL    HW133311   1.016   1.292   6.608  1.2871 -0.8830  1.9023
 7284SOL    HW233312   1.134   1.216   6.596  2.1701  0.6806 -0.9853
 7285SOL     OW33313   1.240   2.145   5.133 -0.2006  0.1640 -0.7572
 7285SOL    HW133314   1.154   2.169   5.097  0.3450 -0.3100 -2.3816
 7285SOL    HW233315   1.289   2.226   5.128  0.7910 -0.2236  2.3296
 7286SOL     OW33316   1.836   4.157   6.459 -0.0499 -0.3868 -0.1245
 7286SOL    HW133317   1.753   4.180   6.417 -0.1595 -0.9001 -0.1814
 7286SOL    HW233318   1.895   4.223   6.423 -0.1970 -1.3014 -2.0479
 7287SOL     OW33319   0.276   3.289   8.139 -0.2378 -0.3007 -0.1646
 7287SOL    HW133320   0.268   3.362   8.077  1.2207 -0.9641 -1.1604
 7287SOL    HW233321   0.222   3.225   8.094  0.1641 -2.1651  2.0643
 7288SOL     OW33322   2.625   0.922   3.931  0.3225  0.4451 -0.2068
 7288SOL    HW133323   2.591   1.003   3.969  1.1277  0.1154  1.2137
 7288SOL    HW233324   2.654   0.957   3.847  0.0827 -0.1602 -0.5396
 7289SOL     OW33325   4.501   3.914  10.786  0.3521  0.0585  0.0744
 7289SOL    HW133326   4.543   3.998  10.806  1.3574 -0.0425 -1.6028
 7289SOL    HW233327   4.570   3.850  10.805  1.4111  1.0910 -0.2663
 7290SOL     OW33328   3.700   4.545   5.676 -0.5750  0.2000 -0.1664
 7290SOL    HW133329   3.683   4.586   5.591 -0.4970  1.7513  0.5662
 7290SOL    HW233330   3.770   4.601   5.709 -0.2856 -0.9986  1.2353
 7291SOL     OW33331   1.932   1.808   3.346 -0.0471 -0.4016 -0.3568
 7291SOL    HW133332   1.952   1.812   3.439  2.1769  2.0464 -0.9404
 7291SOL    HW233333   2.019   1.828   3.311 -0.8038 -0.3411 -2.2337
 7292SOL     OW33334   0.986   4.703   7.483 -0.2246 -0.3790 -0.2640
 7292SOL    HW133335   0.926   4.665   7.420 -0.7890  3.7264 -2.1991
 7292SOL    HW233336   0.928   0.018   7.551 -1.5568 -0.3976 -1.4065
 7293SOL     OW33337   3.564   0.939  16.470 -0.2961  0.1472 -0.0971
 7293SOL    HW133338   3.614   1.009  16.512 -0.8682  0.5440 -0.0836
 7293SOL    HW233339   3.485   0.984  16.442 -0.2993  0.0603 -0.2290
 7294SOL     OW33340   1.887   2.720  16.226  0.5309 -0.3018 -0.1965
 7294SOL    HW133341   1.902   2.672  16.307 -1.0963 -1.6377 -0.7041
 7294SOL    HW233342   1.940   2.800  16.231  0.6753 -0.3555 -0.8397
 7295SOL     OW33343   3.504   1.273   8.414 -0.3332 -0.6650 -0.0743
 7295SOL    HW133344   3.487   1.320   8.495 -2.6179  0.4200 -1.2088
 7295SOL    HW233345   3.527   1.348   8.360  2.5220 -0.3385  1.5634
 7296SOL     OW33346   0.717   4.404   3.847 -0.6412  0.3151 -0.1907
 7296SOL    HW133347   0.732   4.498   3.843 -1.4992  0.4560 -0.0689
 7296SOL    HW233348   0.625   4.398   3.873 -1.0794 -0.9246 -2.0499
 7297SOL     OW33349   3.916   2.953   0.674 -0.1977  0.3046 -0.2508
 7297SOL    HW133350   4.006   2.988   0.676  0.5950 -1.7846  0.4802
 7297SOL    HW233351   3.918   2.883   0.608  0.7435 -0.6325  0.7620
 7298SOL     OW33352   1.663   1.658   3.760 -0.1745 -0.6438  0.5342
 7298SOL    HW133353   1.615   1.725   3.712  1.6591  1.2162  1.2916
 7298SOL    HW233354   1.684   1.588   3.697 -1.1289 -0.4105 -0.0431
 7299SOL     OW33355   2.143   0.426  13.024 -0.0822  0.1208  0.0993
 7299SOL    HW133356   2.171   0.335  13.021  1.6213  0.6140  0.8367
 7299SOL    HW233357   2.174   0.441  12.934  0.3711 -1.8736 -0.0793
 7300SOL     OW33358   3.237   2.510   2.294  0.3372  0.2953 -0.3408
 7300SOL    HW133359   3.183   2.571   2.244  0.4663  1.6394  1.1406
 7300SOL    HW233360   3.310   2.570   2.308 -1.1998  2.2857 -0.9432
 7301SOL     OW33361   2.395   1.881   1.640 -0.3396  0.1023  0.0433
 7301SOL    HW133362   2.354   1.796   1.659 -0.0617 -0.5447 -2.2546
 7301SOL    HW233363   2.477   1.874   1.689  0.9445  2.7729 -1.7715
 7302SOL     OW33364   0.244   1.767  14.693  0.3272  0.6105  0.1274
 7302SOL    HW133365   0.217   1.818  14.769 -0.2517  0.1170  0.2491
 7302SOL    HW233366   0.198   1.806  14.618 -0.2693 -0.6022 -0.1308
 7303SOL     OW33367   0.203   3.325  15.046 -0.2205  0.2848 -0.2718
 7303SOL    HW133368   0.175   3.390  15.109  0.6047  1.2493 -0.8928
 7303SOL    HW233369   0.293   3.313  15.077 -0.1582 -0.0809 -0.5927
 7304SOL     OW33370   3.111   4.394   6.865  0.1826  0.4578  0.2932
 7304SOL    HW133371   3.030   4.376   6.913  0.6514 -0.9829  0.5271
 7304SOL    HW233372   3.088   4.477   6.822  0.7724 -1.0926 -2.9768
 7305SOL     OW33373   4.559   3.041  11.234  0.2223  0.8312  0.3660
 7305SOL    HW133374   4.464   3.027  11.242  0.2616  0.0622 -0.5199
 7305SOL    HW233375   4.571   3.030  11.139  0.3304 -0.0566  0.4885
 7306SOL     OW33376   2.724   3.606   4.865  0.3491  0.2931  0.3349
 7306SOL    HW133377   2.766   3.685   4.899 -1.3020  0.6597  1.5075
 7306SOL    HW233378   2.783   3.555   4.921  0.3319  0.9249  0.9198
 7307SOL     OW33379   3.906   2.607   5.798 -0.6335 -0.4611 -0.3409
 7307SOL    HW133380   3.893   2.536   5.861  1.3209  0.7168  1.3445
 7307SOL    HW233381   3.975   2.567   5.746  0.2760  0.8765 -0.1511
 7308SOL     OW33382   0.976   0.588   8.753  0.2462  0.8964  0.1174
 7308SOL    HW133383   0.969   0.665   8.810 -0.9987  1.9660 -1.4644
 7308SOL    HW233384   0.961   0.516   8.814 -0.4594  1.7428  0.9411
 7309SOL     OW33385   2.314   0.776  11.230 -0.0211 -0.4009  0.4373
 7309SOL    HW133386   2.356   0.709  11.285 -0.7566 -1.2824 -0.0583
 7309SOL    HW233387   2.225   0.741  11.228  0.7170 -2.2695  0.1164
 7310SOL     OW33388   1.727   1.608   8.679  0.4048 -0.0420 -0.4179
 7310SOL    HW133389   1.801   1.632   8.735  0.7608 -0.3535 -0.7527
 7310SOL    HW233390   1.681   1.536   8.723 -0.3495  1.4432  1.2512
 7311SOL     OW33391   1.316   2.606  17.470 -0.2636  0.1497  0.2245
 7311SOL    HW133392   1.350   2.531  17.519  2.1033  0.8784 -0.2987
 7311SOL    HW233393   1.366   2.672  17.518 -1.6754 -0.0299  1.9806
 7312SOL     OW33394   1.481   1.392  12.712 -0.0583  0.2086  0.5527
 7312SOL    HW133395   1.395   1.434  12.706  0.5797  1.7252  2.2015
 7312SOL    HW233396   1.477   1.322  12.647  0.2231  0.4582  0.2674
 7313SOL     OW33397   1.955   3.859   6.939  0.0098  0.2274  0.5132
 7313SOL    HW133398   1.967   3.913   6.860  0.3356 -0.0691  0.3632
 7313SOL    HW233399   1.918   3.779   6.903 -0.1745 -0.0369  1.2857
 7314SOL     OW33400   3.529   3.936   4.972  0.3199  0.0723 -0.0803
 7314SOL    HW133401   3.449   3.909   4.927  0.1448 -1.6494  1.2631
 7314SOL    HW233402   3.552   4.011   4.917  0.9020 -0.5449 -0.6852
 7315SOL     OW33403   0.142   0.519   5.983 -0.2343  0.2224  0.4167
 7315SOL    HW133404   0.185   0.465   6.050 -1.9217 -0.4667  0.9665
 7315SOL    HW233405   0.090   0.456   5.932 -0.0844 -1.2073  2.0079
 7316SOL     OW33406   0.954   2.926   4.170 -0.2381 -0.4341  0.3149
 7316SOL    HW133407   0.906   2.951   4.091 -0.4563  0.9308  0.8914
 7316SOL    HW233408   0.939   2.999   4.229 -0.3438 -0.2282  0.0343
 7317SOL     OW33409   4.656   3.559  10.715  0.3836 -0.0561  0.4579
 7317SOL    HW133410   4.649   3.626  10.647 -3.2977 -0.8601  0.0436
 7317SOL    HW233411   4.649   3.618  10.791  1.5933  0.4922  0.1398
 7318SOL     OW33412   2.718   0.089  15.675 -0.2192 -0.3259 -0.2567
 7318SOL    HW133413   2.780   0.106  15.745 -1.7525 -1.8026  1.4617
 7318SOL    HW233414   2.766   0.110  15.595 -1.0989 -1.2930 -1.0372
 7319SOL     OW33415   1.781   2.244   3.185  0.5487  0.4606 -0.2778
 7319SOL    HW133416   1.805   2.225   3.095  1.4312  0.4079 -0.0311
 7319SOL    HW233417   1.694   2.204   3.186  0.8511 -0.1332  2.2181
 7320SOL     OW33418   0.425   3.212   2.316 -0.1001  0.5760 -0.1521
 7320SOL    HW133419   0.382   3.194   2.232  1.2793 -1.0222 -0.5089
 7320SOL    HW233420   0.448   3.125   2.349 -1.7511 -0.0608 -0.6469
 7321SOL     OW33421   0.313   4.498   1.930  0.1151 -0.6490  0.1731
 7321SOL    HW133422   0.266   4.559   1.987  0.9761 -0.7500  0.9824
 7321SOL    HW233423   0.323   4.552   1.851 -1.8995  0.0939  0.4183
 7322SOL     OW33424   1.948   3.595   3.108 -0.4247 -0.2089  0.1602
 7322SOL    HW133425   1.970   3.686   3.128  1.8974  0.0486 -3.5341
 7322SOL    HW233426   1.997   3.578   3.027  0.2486 -1.2767  0.7810
 7323SOL     OW33427   1.833   2.260   4.215 -0.0903 -0.2406 -0.2947
 7323SOL    HW133428   1.896   2.286   4.148 -0.1915  1.6914  0.3731
 7323SOL    HW233429   1.749   2.262   4.169 -1.3670 -2.4248  1.8636
 7324SOL     OW33430   2.318   1.449   3.664 -0.0309  0.3261 -0.0396
 7324SOL    HW133431   2.270   1.394   3.726 -0.2628  1.6647  0.9666
 7324SOL    HW233432   2.300   1.394   3.588 -0.1482 -1.4428  1.2716
 7325SOL     OW33433   2.255   0.804  13.319 -0.1182  0.0751  0.2714
 7325SOL    HW133434   2.342   0.843  13.311 -0.1559  0.2393  0.6385
 7325SOL    HW233435   2.277   0.713  13.302 -3.0647 -0.2510 -1.8238
 7326SOL     OW33436   0.501   3.675   6.194 -0.3316  0.2361  0.7235
 7326SOL    HW133437   0.544   3.643   6.114  0.5998  0.6574  1.0521
 7326SOL    HW233438   0.556   3.634   6.261  1.5516  0.0625 -0.9039
 7327SOL     OW33439   2.145   3.067   4.017  0.3776 -0.0766  0.1907
 7327SOL    HW133440   2.230   3.061   3.974  0.8361 -0.6826  1.1738
 7327SOL    HW233441   2.111   3.150   3.982  0.5709 -0.0285  0.1144
 7328SOL     OW33442   3.323   2.180  15.235  0.1425 -0.4286 -0.3736
 7328SOL    HW133443   3.347   2.101  15.186  0.3780  0.1892 -1.2407
 7328SOL    HW233444   3.275   2.232  15.171  0.8395 -0.6972 -1.1118
 7329SOL     OW33445   2.258   1.857  12.313  0.4359 -0.3799 -0.3668
 7329SOL    HW133446   2.345   1.855  12.271  0.8061  2.1778  0.3320
 7329SOL    HW233447   2.280   1.881  12.402 -0.2223 -3.8080  0.7266
 7330SOL     OW33448   2.684   2.538   5.008 -0.6457  0.5121 -0.0427
 7330SOL    HW133449   2.604   2.576   4.971 -0.9248  1.1579  1.2205
 7330SOL    HW233450   2.671   2.444   4.994  0.7644 -0.2126  3.4019
 7331SOL     OW33451   1.857   3.465   5.739  0.2871  0.3669  0.2174
 7331SOL    HW133452   1.841   3.477   5.646 -0.0068 -0.0186  0.2175
 7331SOL    HW233453   1.944   3.503   5.745  1.1237 -1.4011 -0.5818
 7332SOL     OW33454   0.140   4.648  17.052  0.0563  0.4529  0.4939
 7332SOL    HW133455   0.123   4.675  17.142  1.1723  0.7597  0.6218
 7332SOL    HW233456   0.236   4.651  17.043 -0.0650  0.4400 -0.8006
 7333SOL     OW33457   1.438   3.191   7.224  0.3193 -0.1719  0.3570
 7333SOL    HW133458   1.492   3.147   7.158  0.6590 -0.4410  0.8181
 7333SOL    HW233459   1.374   3.225   7.161  0.8806 -1.3660 -0.8621
 7334SOL     OW33460   0.598   3.302   5.227 -0.6797  0.0859  0.4776
 7334SOL    HW133461   0.692   3.309   5.248 -0.3819  0.2223 -0.9029
 7334SOL    HW233462   0.563   3.295   5.316  2.0952 -2.5143  1.3869
 7335SOL     OW33463   3.636   1.824  15.021 -0.1981  0.6226 -0.0345
 7335SOL    HW133464   3.671   1.747  15.066  0.5456  1.7124  1.2827
 7335SOL    HW233465   3.674   1.811  14.935 -0.8296 -1.1419 -0.0487
 7336SOL     OW33466   2.682   1.758  10.310 -0.1089 -0.3476 -0.5001
 7336SOL    HW133467   2.672   1.853  10.310  0.4749 -0.2818 -3.2542
 7336SOL    HW233468   2.606   1.732  10.361  0.7344 -1.3488  0.2523
 7337SOL     OW33469   3.381   4.517   5.249  0.0685  0.2175 -0.3484
 7337SOL    HW133470   3.293   4.552   5.262 -0.7603 -2.2224  0.5354
 7337SOL    HW233471   3.366   4.431   5.209 -1.4704 -0.1219  0.9788
 7338SOL     OW33472   1.445   2.864   3.083 -0.2295 -0.5639 -0.0788
 7338SOL    HW133473   1.475   2.785   3.128  0.3583 -1.2894 -1.7668
 7338SOL    HW233474   1.391   2.826   3.013 -1.5135  1.1145 -0.0036
 7339SOL     OW33475   1.551   0.748   6.617 -0.0309  0.2215 -1.0309
 7339SOL    HW133476   1.609   0.813   6.578  3.8196 -1.3817  2.0841
 7339SOL    HW233477   1.571   0.759   6.710 -0.6833 -0.0651 -0.8575
 7340SOL     OW33478   1.471   1.629  13.390  0.6016  0.3137 -0.3527
 7340SOL    HW133479   1.386   1.589  13.376 -0.6233  1.9959  2.3147
 7340SOL    HW233480   1.502   1.589  13.471 -0.3081  0.7033  0.1870
 7341SOL     OW33481   2.511   0.881  11.601  0.0768 -0.8592 -0.1192
 7341SOL    HW133482   2.467   0.935  11.536 -0.9870 -0.2846  1.0841
 7341SOL    HW233483   2.599   0.917  11.591 -0.3562 -0.3106 -1.8777
 7342SOL     OW33484   0.300   0.677   7.175 -0.2653  0.5046  0.0379
 7342SOL    HW133485   0.309   0.771   7.159  0.5124  0.5867  0.9233
 7342SOL    HW233486   0.299   0.645   7.085 -0.9804  1.5460 -0.3206
 7343SOL     OW33487   3.845   2.982  17.666  0.1201  0.1243 -0.0234
 7343SOL    HW133488   3.906   3.054  17.653  2.2724 -1.6721  0.0722
 7343SOL    HW233489   3.806   2.965  17.580 -1.0242 -0.5653  0.6238
 7344SOL     OW33490   0.645   1.077  11.879 -0.0792 -0.2149  0.2660
 7344SOL    HW133491   0.679   1.161  11.911  0.4367  0.0612 -1.0027
 7344SOL    HW233492   0.588   1.118  11.815 -0.5732  0.3346  1.0623
 7345SOL     OW33493   2.586   1.526   3.114 -0.2531  0.0381 -0.0038
 7345SOL    HW133494   2.631   1.606   3.089  0.2593 -0.1400  0.3615
 7345SOL    HW233495   2.556   1.556   3.200  2.7476  0.9513  0.7256
 7346SOL     OW33496   0.278   1.735   8.066  0.2858 -0.2417 -0.1920
 7346SOL    HW133497   0.355   1.678   8.070  0.1101 -0.5527 -1.2297
 7346SOL    HW233498   0.204   1.675   8.066 -1.2059  1.5759  1.7323
 7347SOL     OW33499   1.582   1.339   7.207 -0.1682  0.2015  0.2121
 7347SOL    HW133500   1.571   1.335   7.112 -0.3800 -0.0935  0.2484
 7347SOL    HW233501   1.677   1.349   7.218 -0.3207  2.3083 -0.3719
 7348SOL     OW33502   4.619   2.412   2.481  0.0878  0.5449  0.0279
 7348SOL    HW133503   4.649   2.333   2.435  1.5982  1.6663 -0.9152
 7348SOL    HW233504   4.528   2.389   2.500 -0.0416  1.7127  0.8177
 7349SOL     OW33505   1.033   2.614   4.580 -0.5890  0.2181 -0.1712
 7349SOL    HW133506   1.004   2.645   4.495 -2.3672  0.3625  0.4945
 7349SOL    HW233507   1.074   2.530   4.559  1.1245  0.3736  2.4573
 7350SOL     OW33508   3.484   4.687   2.100  0.0799  0.1666 -0.7254
 7350SOL    HW133509   3.549   0.014   2.151 -0.8016  2.2282 -1.5271
 7350SOL    HW233510   3.539   4.612   2.079  1.0488  1.2353 -2.0418
 7351SOL     OW33511   2.481   3.512   7.689  0.1040 -0.6052 -0.0947
 7351SOL    HW133512   2.565   3.547   7.660 -0.9723  2.5737  0.6213
 7351SOL    HW233513   2.437   3.502   7.605  0.4489 -0.1900 -0.3242
 7352SOL     OW33514   2.410   1.420   2.137 -0.4341 -0.2824  0.2860
 7352SOL    HW133515   2.470   1.397   2.208 -0.2391 -0.2049  0.1474
 7352SOL    HW233516   2.439   1.507   2.110 -0.0073 -1.4404 -2.9473
 7353SOL     OW33517   2.297   2.736   8.275 -0.1568 -0.0954  0.4135
 7353SOL    HW133518   2.356   2.735   8.200 -0.8647  1.6167 -0.1722
 7353SOL    HW233519   2.330   2.816   8.314 -1.0644  0.5435 -0.1324
 7354SOL     OW33520   4.667   0.213   8.926 -0.0219 -0.0983 -0.8233
 7354SOL    HW133521   4.598   0.148   8.918 -1.8886  1.5605  1.6866
 7354SOL    HW233522   4.621   0.297   8.918  1.0502  0.7437  1.8161
 7355SOL     OW33523   2.969   2.110  14.860  0.3422 -0.1776 -0.4990
 7355SOL    HW133524   3.032   2.181  14.870  0.4344 -0.3624  0.2471
 7355SOL    HW233525   3.006   2.037  14.910  0.6493 -0.3299 -0.9542
 7356SOL     OW33526   2.378   3.242  16.556  0.4533  0.1965 -0.4084
 7356SOL    HW133527   2.453   3.225  16.613  0.9381  1.3957 -0.6816
 7356SOL    HW233528   2.336   3.315  16.602  0.4485 -0.0131 -0.0783
 7357SOL     OW33529   0.264   3.346   1.203  0.0700  0.0643 -0.0128
 7357SOL    HW133530   0.282   3.274   1.263  2.4453 -0.3183 -1.1685
 7357SOL    HW233531   0.170   3.359   1.194 -0.1343 -1.7676 -0.5891
 7358SOL     OW33532   1.659   1.951   3.675 -0.0489  0.5389 -0.0976
 7358SOL    HW133533   1.723   2.009   3.718  3.8237 -3.1611 -0.8729
 7358SOL    HW233534   1.580   1.968   3.725  0.5261 -1.7623  1.5335
 7359SOL     OW33535   2.292   1.867  11.581  0.1867 -0.1154  0.2406
 7359SOL    HW133536   2.211   1.877  11.530  0.0181  2.1076  0.9416
 7359SOL    HW233537   2.355   1.851  11.511 -0.8956 -1.5048 -0.4335
 7360SOL     OW33538   3.674   0.525  14.695 -0.6670 -0.0182  0.0513
 7360SOL    HW133539   3.714   0.528  14.782  0.0096  1.4841 -0.3267
 7360SOL    HW233540   3.614   0.450  14.697  1.3899 -1.6989 -1.9079
 7361SOL     OW33541   0.880   0.260   0.351  0.3487 -0.2097  0.0920
 7361SOL    HW133542   0.873   0.352   0.374  1.1360 -0.2087  0.3171
 7361SOL    HW233543   0.915   0.237   0.437  0.5523  0.8957  0.3043
 7362SOL     OW33544   2.293   3.852   0.601 -0.0693 -0.0979  0.0663
 7362SOL    HW133545   2.348   3.931   0.605 -1.4766  0.8861 -0.0675
 7362SOL    HW233546   2.341   3.799   0.538  0.9279 -1.7875  2.2433
 7363SOL     OW33547   0.485   0.480   4.444  0.4200  0.5842 -0.1279
 7363SOL    HW133548   0.499   0.508   4.534  1.7179 -0.5194  0.0198
 7363SOL    HW233549   0.406   0.429   4.462  1.1701 -0.2976  0.6422
 7364SOL     OW33550   0.227   4.223  17.069 -0.0679 -0.3367 -0.3495
 7364SOL    HW133551   0.265   4.145  17.108 -0.8290  0.0997  1.2935
 7364SOL    HW233552   0.151   4.181  17.030 -1.8469  0.2887  2.4042
 7365SOL     OW33553   1.373   0.375   9.167 -0.4693 -0.5977 -0.0713
 7365SOL    HW133554   1.343   0.453   9.120 -1.1939 -0.0281  1.3523
 7365SOL    HW233555   1.468   0.387   9.160 -0.0150 -3.3001  1.5345
 7366SOL     OW33556   4.600   0.118   2.967  0.2000  0.1386 -0.8020
 7366SOL    HW133557   4.683   0.102   2.922  0.0230  1.9064 -1.7845
 7366SOL    HW233558   4.548   0.164   2.901 -3.1724 -0.2541  1.5525
 7367SOL     OW33559   3.974   3.485   0.136  0.2350  0.0847  0.0517
 7367SOL    HW133560   3.899   3.485   0.076 -0.0336 -0.9593  0.3911
 7367SOL    HW233561   3.941   3.437   0.212  1.5506 -2.4783 -0.9832
 7368SOL     OW33562   1.522   4.487   4.312 -0.0251  0.2957  0.1901
 7368SOL    HW133563   1.439   4.531   4.328 -1.3091 -1.7296 -1.0047
 7368SOL    HW233564   1.511   4.480   4.217  1.0262 -0.7167  0.1476
 7369SOL     OW33565   1.425   3.712  15.252 -0.2550  0.4319  0.1847
 7369SOL    HW133566   1.405   3.648  15.320 -0.0535 -0.3800 -0.5286
 7369SOL    HW233567   1.354   3.701  15.189  0.5090  0.8371 -0.7487
 7370SOL     OW33568   1.651   4.485   5.705 -0.3845  0.6158 -0.3106
 7370SOL    HW133569   1.662   4.561   5.648  4.2021  0.4656  0.4042
 7370SOL    HW233570   1.623   4.532   5.783 -1.3328  0.6395 -0.6688
 7371SOL     OW33571   3.574   2.587   2.696  0.3817  0.4515 -0.7596
 7371SOL    HW133572   3.659   2.612   2.658  1.1877 -0.9900  0.1084
 7371SOL    HW233573   3.587   2.492   2.689  2.2412  0.7151 -0.9385
 7372SOL     OW33574   0.918   1.620  12.052  0.6127 -0.2659 -0.1266
 7372SOL    HW133575   0.909   1.553  12.120 -0.4923  1.2718  1.2307
 7372SOL    HW233576   0.948   1.694  12.104 -2.3852  0.3494  0.7373
 7373SOL     OW33577   1.662   4.383   8.975 -0.7809  0.1068 -0.3489
 7373SOL    HW133578   1.716   4.341   8.908  1.1407  0.6243  0.8939
 7373SOL    HW233579   1.647   4.318   9.043 -1.2109 -0.5372 -1.0486
 7374SOL     OW33580   0.094   0.409   4.496  0.0358  0.1235  0.0967
 7374SOL    HW133581   0.039   0.412   4.575 -0.8555  1.3913 -0.5836
 7374SOL    HW233582   0.177   0.391   4.542  0.9611  0.1909 -1.5447
 7375SOL     OW33583   3.904   0.340   3.126  0.4169  0.2724  0.0884
 7375SOL    HW133584   3.836   0.280   3.095  3.9653 -2.3398 -2.7461
 7375SOL    HW233585   3.941   0.293   3.202  0.8703  0.2172 -0.1684
 7376SOL     OW33586   2.718   3.711   4.288  1.1445  0.2041 -0.0654
 7376SOL    HW133587   2.627   3.725   4.312  0.5652 -1.4890 -1.2753
 7376SOL    HW233588   2.748   3.802   4.295  1.4033  0.2409 -1.5882
 7377SOL     OW33589   4.187   1.895  11.183  0.0618 -0.2941 -0.0806
 7377SOL    HW133590   4.273   1.913  11.219  0.4141  0.2627 -1.1982
 7377SOL    HW233591   4.218   1.886  11.093  1.0775 -2.8558  0.5259
 7378SOL     OW33592   3.097   0.317   9.095 -0.0128  0.0485 -0.0618
 7378SOL    HW133593   3.061   0.236   9.132 -0.6420  0.0172 -0.7561
 7378SOL    HW233594   3.162   0.335   9.163  0.2000  1.1285 -0.5551
 7379SOL     OW33595   3.031   1.631   1.389 -0.4739 -0.4084  0.3539
 7379SOL    HW133596   2.990   1.717   1.379 -0.4281 -0.2393  1.6459
 7379SOL    HW233597   2.964   1.604   1.452 -1.0441  0.2983  0.0566
 7380SOL     OW33598   2.429   2.053   4.658 -0.2218  0.6055 -1.3304
 7380SOL    HW133599   2.352   2.046   4.714  1.8403 -1.0902  1.2600
 7380SOL    HW233600   2.491   2.021   4.723 -1.5604  0.1538 -0.2712
 7381SOL     OW33601   2.393   2.590   1.715 -0.2915 -0.1777 -0.0083
 7381SOL    HW133602   2.331   2.640   1.662 -0.3959  0.5438  0.7938
 7381SOL    HW233603   2.477   2.619   1.679  0.0849 -0.4962  0.6060
 7382SOL     OW33604   4.044   3.146  17.627 -0.0270  0.1826  0.8498
 7382SOL    HW133605   4.105   3.219  17.637  1.8902 -1.3568  0.2406
 7382SOL    HW233606   4.018   3.171  17.538  1.6368  1.1196  0.6304
 7383SOL     OW33607   3.094   0.355   8.824  0.0262  0.0421  0.1583
 7383SOL    HW133608   3.106   0.339   8.917  0.1717 -1.1338 -0.0583
 7383SOL    HW233609   3.092   0.450   8.821  0.7443  0.1061  1.8449
 7384SOL     OW33610   4.437   0.048   6.153 -0.3706 -0.2809 -0.3242
 7384SOL    HW133611   4.433   0.089   6.067 -3.0806  0.3690  0.0941
 7384SOL    HW233612   4.373   0.106   6.195 -1.2814 -0.8469 -0.9305
 7385SOL     OW33613   3.248   4.215   4.777 -0.1331  0.5561  0.4927
 7385SOL    HW133614   3.311   4.199   4.706 -1.2125  0.2519 -0.3922
 7385SOL    HW233615   3.232   4.305   4.748  1.2613  1.0015  1.0945
 7386SOL     OW33616   2.371   2.243  11.840 -0.6238  0.0375 -0.2137
 7386SOL    HW133617   2.299   2.221  11.899  0.2325 -3.0247 -0.2929
 7386SOL    HW233618   2.398   2.155  11.814  0.7617 -0.1124  1.7628
 7387SOL     OW33619   4.463   3.956   8.178  0.3598  1.0172 -0.1590
 7387SOL    HW133620   4.540   3.901   8.194  1.6415  2.2717 -1.9985
 7387SOL    HW233621   4.471   4.025   8.244  1.9776 -0.9882  1.7702
 7388SOL     OW33622   0.793   0.954   5.024 -0.4456 -0.3483 -0.1098
 7388SOL    HW133623   0.735   0.998   5.086 -1.6476  0.5462 -1.8831
 7388SOL    HW233624   0.727   0.925   4.962 -1.7415  0.5223  0.8634
 7389SOL     OW33625   0.223   3.214   0.199  0.2454 -0.9852  0.0377
 7389SOL    HW133626   0.267   3.243   0.119  0.0925 -2.5300 -0.6060
 7389SOL    HW233627   0.276   3.245   0.273  1.0297  2.1579 -1.8667
 7390SOL     OW33628   0.450   0.504   3.047 -0.2346 -0.0154  0.2202
 7390SOL    HW133629   0.498   0.578   3.010 -1.4770  0.0110 -1.3634
 7390SOL    HW233630   0.406   0.459   2.974 -2.6904 -0.1711  1.7738
 7391SOL     OW33631   2.448   0.742   9.639  0.0443  0.0832  0.2502
 7391SOL    HW133632   2.414   0.653   9.647  2.1039 -0.6810  0.4728
 7391SOL    HW233633   2.471   0.731   9.547 -0.4852 -0.5431  0.2001
 7392SOL     OW33634   3.120   3.983  10.298  0.2940 -0.1945 -0.1532
 7392SOL    HW133635   3.146   4.067  10.260  3.6127 -0.5892  1.2404
 7392SOL    HW233636   3.084   4.008  10.383  0.5228 -0.6018  0.0652
 7393SOL     OW33637   1.023   2.140   5.657 -0.6257 -0.0544  0.3478
 7393SOL    HW133638   1.059   2.162   5.743 -2.4581  1.5599  0.7105
 7393SOL    HW233639   1.094   2.179   5.606  1.3626 -0.8563  2.5113
 7394SOL     OW33640   0.122   3.077   6.209  0.3558  0.0257  0.1896
 7394SOL    HW133641   0.197   3.128   6.178 -0.5280  0.4550 -1.2338
 7394SOL    HW233642   0.129   2.994   6.163 -0.6808  0.1073 -0.1251
 7395SOL     OW33643   4.441   1.148   6.918  0.5192 -0.2495  0.4965
 7395SOL    HW133644   4.404   1.234   6.942  1.3737  0.1583  0.3304
 7395SOL    HW233645   4.480   1.169   6.834 -0.0270 -0.5687  0.1631
 7396SOL     OW33646   1.542   2.346   4.426 -0.3291  0.1865  0.1958
 7396SOL    HW133647   1.565   2.253   4.432 -0.1643  0.1572 -0.9446
 7396SOL    HW233648   1.455   2.327   4.391 -0.0019  0.1890 -0.6171
 7397SOL     OW33649   4.471   0.344  15.496 -0.1299 -0.1663  0.0055
 7397SOL    HW133650   4.379   0.350  15.473 -0.0895  2.1661  0.4058
 7397SOL    HW233651   4.506   0.292  15.423 -1.1613  2.1965 -2.1470
 7398SOL     OW33652   4.209   3.764   1.190 -0.2526 -0.7351 -0.0026
 7398SOL    HW133653   4.221   3.722   1.275  0.3502 -0.0439  0.2538
 7398SOL    HW233654   4.113   3.767   1.185 -0.1698  2.9640  0.1002
 7399SOL     OW33655   1.103   0.976  15.830 -0.5952 -0.1731  0.3296
 7399SOL    HW133656   1.094   0.885  15.859 -1.5133  0.2227  1.3068
 7399SOL    HW233657   1.081   0.961  15.738 -2.4323 -3.6899  1.3127
 7400SOL     OW33658   2.065   1.717   8.389 -0.3762 -0.0552 -0.2292
 7400SOL    HW133659   2.018   1.778   8.446  0.0937  0.1381 -0.0488
 7400SOL    HW233660   2.026   1.634   8.416 -0.8481  0.2429  0.0007
 7401SOL     OW33661   1.194   3.661   8.045  0.0377  0.1224  0.0719
 7401SOL    HW133662   1.108   3.693   8.017 -0.8460 -0.8969  1.6528
 7401SOL    HW233663   1.154   3.576   8.062  1.0317 -0.4134 -0.2390
 7402SOL     OW33664   2.876   4.591   6.604 -0.0136  0.0873 -0.2941
 7402SOL    HW133665   2.922   4.634   6.531 -0.9151 -0.3113 -1.0969
 7402SOL    HW233666   2.931   4.611   6.679  1.1474 -1.2268 -0.7924
 7403SOL     OW33667   3.632   1.903   1.920  0.0536  0.8925 -0.4214
 7403SOL    HW133668   3.677   1.851   1.853  2.2983 -0.0462  1.8316
 7403SOL    HW233669   3.596   1.844   1.986  0.7035  1.8722  0.8013
 7404SOL     OW33670   3.488   0.232   3.361  0.1772  0.2537 -0.3228
 7404SOL    HW133671   3.531   0.209   3.444 -1.0725  1.0007  0.5469
 7404SOL    HW233672   3.487   0.328   3.366  1.5617  0.2099  0.7341
 7405SOL     OW33673   0.070   3.625  14.560  0.8298 -0.3869  0.3547
 7405SOL    HW133674   0.146   3.650  14.611  1.3110  0.9891 -1.0525
 7405SOL    HW233675   0.073   3.692  14.492  0.0719 -2.6087 -1.9043
 7406SOL     OW33676   3.556   3.209   5.877  0.2147  0.3594 -0.4785
 7406SOL    HW133677   3.478   3.160   5.853 -0.4341  1.4407 -0.5631
 7406SOL    HW233678   3.536   3.284   5.933 -4.1339 -0.0111 -1.5698
 7407SOL     OW33679   3.173   0.984   5.125 -0.6214  0.3025  0.1560
 7407SOL    HW133680   3.087   0.978   5.085  0.0258 -2.1287 -0.8547
 7407SOL    HW233681   3.199   0.892   5.125 -0.9185  0.2182 -1.0332
 7408SOL     OW33682   2.122   3.951   5.001  0.3919  0.0880  0.1716
 7408SOL    HW133683   2.112   3.863   4.963 -0.8369  0.4935 -0.4557
 7408SOL    HW233684   2.129   4.006   4.923  0.6302  0.1105  0.2085
 7409SOL     OW33685   1.682   1.607   1.034 -0.1807 -0.5977 -0.2280
 7409SOL    HW133686   1.688   1.632   0.942  1.3875 -0.4179 -0.0770
 7409SOL    HW233687   1.622   1.532   1.029 -1.4723  0.4701 -0.6899
 7410SOL     OW33688   1.334   0.442   4.813 -0.1079  0.4262 -0.4611
 7410SOL    HW133689   1.291   0.505   4.755  2.7557  0.0228 -3.0089
 7410SOL    HW233690   1.425   0.471   4.820  0.4629 -0.8152 -2.6384
 7411SOL     OW33691   1.808   3.163   4.849 -0.5698  0.3535  0.9128
 7411SOL    HW133692   1.784   3.075   4.819  3.5789 -0.2896 -0.4615
 7411SOL    HW233693   1.730   3.212   4.824 -2.1035 -2.3122  0.4253
 7412SOL     OW33694   2.206   4.686   7.888  0.8982  0.3151 -0.0040
 7412SOL    HW133695   2.269   0.036   7.897 -0.3968  1.5861 -0.8461
 7412SOL    HW233696   2.271   4.616   7.883  0.8053  0.0815  2.0716
 7413SOL     OW33697   2.281   4.336   4.713 -0.5536 -0.2699 -0.0939
 7413SOL    HW133698   2.348   4.270   4.694 -0.8662 -0.8924  0.9552
 7413SOL    HW233699   2.324   4.409   4.669 -2.1993 -0.1825 -1.5452
 7414SOL     OW33700   4.432   4.701   4.588 -0.6024  0.6626  0.3846
 7414SOL    HW133701   4.511   4.682   4.639  0.5417 -0.4302 -1.7693
 7414SOL    HW233702   4.431   4.622   4.535 -2.0184  1.1934 -0.3865
 7415SOL     OW33703   1.527   0.093   4.729  0.0019  0.5351 -0.4546
 7415SOL    HW133704   1.442   0.056   4.702 -0.4758 -0.3393  2.1627
 7415SOL    HW233705   1.528   0.054   4.817 -0.4038  1.3755 -0.0759
 7416SOL     OW33706   0.287   3.739   0.959 -0.3079  0.3722  0.2040
 7416SOL    HW133707   0.202   3.697   0.945 -0.5819  0.8345  0.4922
 7416SOL    HW233708   0.324   3.700   0.879 -1.0051  1.1818 -0.5100
 7417SOL     OW33709   2.423   2.771   8.890 -0.1329  0.1424 -0.0157
 7417SOL    HW133710   2.397   2.850   8.843 -0.8160 -0.4306 -0.5933
 7417SOL    HW233711   2.447   2.825   8.966  0.1363  0.0380 -0.0286
 7418SOL     OW33712   0.783   3.629   5.533  0.1606 -0.1349  0.8988
 7418SOL    HW133713   0.693   3.603   5.551  0.0126  0.8527  1.5950
 7418SOL    HW233714   0.806   3.647   5.624  3.8130 -2.7760  0.5061
 7419SOL     OW33715   4.398   0.432   0.728 -0.4985 -0.1632  0.2891
 7419SOL    HW133716   4.451   0.453   0.805  1.7406 -2.3560 -0.6781
 7419SOL    HW233717   4.344   0.510   0.714 -0.0048 -0.1574 -1.6176
 7420SOL     OW33718   1.960   1.797   5.780  0.3828 -0.4436 -0.1135
 7420SOL    HW133719   2.030   1.832   5.725 -0.2613  0.2174 -0.5176
 7420SOL    HW233720   1.897   1.776   5.711  0.9318 -1.3986 -0.3121
 7421SOL     OW33721   2.168   1.658   7.942  0.0818  0.3067 -0.8969
 7421SOL    HW133722   2.088   1.607   7.939  1.7014 -2.2744 -0.3004
 7421SOL    HW233723   2.151   1.730   7.881 -0.3773  0.7802 -0.2045
 7422SOL     OW33724   0.105   0.896   4.636  0.3026  0.2194 -0.1222
 7422SOL    HW133725   0.155   0.815   4.632  0.4209  0.3618 -1.4617
 7422SOL    HW233726   0.039   0.876   4.570  3.0184 -2.2165 -2.0841
 7423SOL     OW33727   2.517   0.278   3.366 -0.4731  0.1413 -0.1385
 7423SOL    HW133728   2.596   0.325   3.341 -0.6634 -0.4721 -1.8835
 7423SOL    HW233729   2.522   0.295   3.460  0.9107  2.5369 -0.6556
 7424SOL     OW33730   3.690   2.508   3.119  0.8779 -0.2695  0.2729
 7424SOL    HW133731   3.643   2.589   3.100  1.0982 -0.3430 -0.5642
 7424SOL    HW233732   3.630   2.438   3.147  0.6798 -0.5461 -0.8346
 7425SOL     OW33733   0.074   2.003   6.046  0.1435 -0.2430  0.1325
 7425SOL    HW133734   0.088   1.934   5.982 -0.9533  2.4945 -3.1028
 7425SOL    HW233735   0.137   2.062   6.005 -1.3358  1.0835 -0.2612
 7426SOL     OW33736   3.420   3.898   8.581 -0.3283 -0.3135  0.4369
 7426SOL    HW133737   3.501   3.852   8.603 -0.4360  1.0090  3.4688
 7426SOL    HW233738   3.360   3.834   8.542 -0.0688  0.4866 -1.3203
 7427SOL     OW33739   1.982   4.361   2.276 -0.3310  0.1565  0.5165
 7427SOL    HW133740   1.965   4.450   2.247  1.9244  0.6455  0.6695
 7427SOL    HW233741   1.986   4.336   2.184 -1.3362  2.5189 -0.1460
 7428SOL     OW33742   1.831   3.551   5.495 -0.4888  0.4978  0.4435
 7428SOL    HW133743   1.815   3.518   5.407  3.1017 -1.3291  0.4691
 7428SOL    HW233744   1.816   3.645   5.493 -3.9470 -0.1009 -0.9113
 7429SOL     OW33745   2.175   3.021   5.240 -0.3221  0.5782 -0.3526
 7429SOL    HW133746   2.128   3.104   5.231  0.4426  1.0587  0.0952
 7429SOL    HW233747   2.226   3.036   5.320  0.1309 -0.3004 -0.4799
 7430SOL     OW33748   0.263   0.704   8.351 -0.2437  0.0023 -0.4203
 7430SOL    HW133749   0.169   0.689   8.340 -0.2565  0.2258 -0.6281
 7430SOL    HW233750   0.280   0.663   8.436  2.2411 -0.6018 -1.2030
 7431SOL     OW33751   0.733   0.012  12.058  0.3259 -0.0371 -0.5169
 7431SOL    HW133752   0.807   4.714  12.116 -0.2618  0.5749  0.4291
 7431SOL    HW233753   0.773   4.691  11.981 -0.7410 -0.2930 -0.9322
 7432SOL     OW33754   3.567   3.935   4.139  0.0834  0.2979  0.1656
 7432SOL    HW133755   3.573   3.935   4.044 -0.0673  3.3142  0.1427
 7432SOL    HW233756   3.561   3.844   4.167  0.0195  0.1862 -0.2167
 7433SOL     OW33757   0.737   0.753   3.206  0.4410 -0.0207 -0.2163
 7433SOL    HW133758   0.759   0.781   3.117  0.0559  0.0928 -0.2793
 7433SOL    HW233759   0.723   0.839   3.247  0.4006 -0.9418  1.7031
 7434SOL     OW33760   4.149   1.919  14.519 -0.2896 -0.0671  0.2291
 7434SOL    HW133761   4.142   1.848  14.456  0.6166  2.2323 -2.4435
 7434SOL    HW233762   4.135   1.996  14.464  1.2350 -0.2632 -0.4426
 7435SOL     OW33763   3.049   4.113   1.211  0.2660 -0.4276 -0.4887
 7435SOL    HW133764   3.033   4.162   1.131 -0.8437 -0.2354 -0.1501
 7435SOL    HW233765   3.080   4.186   1.264  0.6941 -1.2929  0.4569
 7436SOL     OW33766   2.169   3.022  10.676  0.0471 -0.6365 -0.0990
 7436SOL    HW133767   2.256   3.060  10.683  0.0491 -0.4245 -1.2817
 7436SOL    HW233768   2.182   2.938  10.630 -1.5151 -1.0827  0.2552
 7437SOL     OW33769   1.514   2.139   3.132 -0.4645 -0.5903  0.0640
 7437SOL    HW133770   1.480   2.075   3.195  0.3871 -2.3759 -1.2886
 7437SOL    HW233771   1.438   2.153   3.075  1.7429  2.2936 -2.1717
 7438SOL     OW33772   4.090   2.438   4.228 -0.1252 -0.1298  0.0153
 7438SOL    HW133773   4.103   2.445   4.133 -1.3164 -1.6527 -0.2542
 7438SOL    HW233774   3.996   2.425   4.215 -0.1510 -0.3556  0.4489
 7439SOL     OW33775   3.477   3.448   8.260  0.8527 -0.4497 -0.3378
 7439SOL    HW133776   3.389   3.462   8.295  0.5224 -1.6591 -0.7034
 7439SOL    HW233777   3.530   3.513   8.306 -0.2953 -0.6924  1.2820
 7440SOL     OW33778   0.077   2.877  15.371 -0.1961 -0.0742  0.1032
 7440SOL    HW133779   0.008   2.864  15.436 -1.8652  0.2343 -1.5964
 7440SOL    HW233780   0.029   2.834  15.300  0.4202 -0.7075  0.0690
 7441SOL     OW33781   4.188   2.375  12.217  0.4679 -0.0922 -0.0488
 7441SOL    HW133782   4.146   2.312  12.159  2.0205 -2.9935  1.9114
 7441SOL    HW233783   4.272   2.329  12.232  0.2509 -0.1421  1.0050
 7442SOL     OW33784   2.817   1.733   2.812 -0.2360 -0.1593 -0.0960
 7442SOL    HW133785   2.771   1.743   2.896  0.3572  0.7001  0.1311
 7442SOL    HW233786   2.743   1.745   2.753  2.2900 -0.7054 -3.3711
 7443SOL     OW33787   2.978   1.191  11.153  0.5085 -0.5868  0.0199
 7443SOL    HW133788   3.017   1.243  11.223 -1.2315 -1.1761  1.4425
 7443SOL    HW233789   3.032   1.112  11.155 -0.3332 -1.1981 -1.4763
 7444SOL     OW33790   0.690   2.746   9.067 -0.1664  0.2061  0.3552
 7444SOL    HW133791   0.615   2.726   9.123 -0.6953 -1.0410 -0.7919
 7444SOL    HW233792   0.690   2.665   9.016 -0.9089 -0.7731  1.8970
 7445SOL     OW33793   2.718   2.332   6.172 -0.3655  0.3158 -0.3543
 7445SOL    HW133794   2.670   2.414   6.162 -0.7718  0.1772  0.4584
 7445SOL    HW233795   2.693   2.293   6.088 -3.3461 -0.3072  0.8386
 7446SOL     OW33796   2.934   3.462  15.481 -0.4399 -0.6510 -0.3036
 7446SOL    HW133797   2.992   3.498  15.415 -2.9211  1.6688 -1.1890
 7446SOL    HW233798   2.989   3.457  15.559  1.1757  1.1200 -1.3471
 7447SOL     OW33799   0.732   1.119   8.734  0.8602  0.0772 -0.6444
 7447SOL    HW133800   0.799   1.151   8.795  1.0403 -1.5436  0.0228
 7447SOL    HW233801   0.681   1.199   8.726 -1.2776 -0.8627  3.4742
 7448SOL     OW33802   3.594   4.005  17.134 -0.2136 -0.0452 -0.1051
 7448SOL    HW133803   3.571   4.072  17.069 -2.2122 -0.1443  0.5049
 7448SOL    HW233804   3.514   3.954  17.146 -0.8266  1.2719  1.3361
 7449SOL     OW33805   4.435   0.346   1.432  0.2482  0.2963  0.9436
 7449SOL    HW133806   4.349   0.328   1.471  0.5990 -1.4252  0.9141
 7449SOL    HW233807   4.492   0.289   1.484  1.0647 -0.1300 -0.4246
 7450SOL     OW33808   4.290   2.470   0.165 -0.4153 -0.5183 -0.5386
 7450SOL    HW133809   4.370   2.507   0.127 -1.5385  2.0341 -0.3644
 7450SOL    HW233810   4.229   2.542   0.156 -1.2205 -1.2003 -0.5404
 7451SOL     OW33811   1.146   0.467   5.963 -0.3518  0.1487 -0.3225
 7451SOL    HW133812   1.051   0.476   5.966 -0.3601 -0.0339 -0.0183
 7451SOL    HW233813   1.170   0.485   6.054  0.5071 -0.9507 -0.3328
 7452SOL     OW33814   1.130   3.906   8.479  0.2258 -0.6643  0.2760
 7452SOL    HW133815   1.123   3.813   8.501 -0.5127 -0.7084 -0.1652
 7452SOL    HW233816   1.221   3.906   8.449  0.6077  0.8740  1.4535
 7453SOL     OW33817   2.692   4.621   9.789 -0.1382 -0.1751  0.8535
 7453SOL    HW133818   2.674   4.580   9.873 -1.6026 -1.3415 -0.0386
 7453SOL    HW233819   2.600   4.629   9.764  0.2799 -1.3244 -1.0351
 7454SOL     OW33820   3.942   1.285   2.006 -0.1660  0.2206  0.0761
 7454SOL    HW133821   3.897   1.277   2.090 -1.5663  3.1880 -0.4176
 7454SOL    HW233822   3.879   1.249   1.944 -0.4496  1.6501 -0.4584
 7455SOL     OW33823   2.524   3.595   9.672 -0.5636  0.0794  0.1125
 7455SOL    HW133824   2.581   3.662   9.634  2.0915 -2.4743 -0.3708
 7455SOL    HW233825   2.445   3.613   9.621 -0.5020 -0.2009 -0.0785
 7456SOL     OW33826   2.642   3.020   8.166  0.3138 -0.2250 -0.4984
 7456SOL    HW133827   2.652   3.042   8.259 -0.1466 -1.7540 -0.0712
 7456SOL    HW233828   2.608   3.103   8.133 -3.8754 -1.4890  0.6522
 7457SOL     OW33829   4.698   3.704   6.278 -0.4601 -0.5622  0.1506
 7457SOL    HW133830   4.709   3.775   6.214  0.3649 -3.3154 -2.7567
 7457SOL    HW233831   0.060   3.720   6.324 -0.4374 -1.5467  0.4444
 7458SOL     OW33832   1.462   3.299  11.242  0.3505  0.2773  0.6756
 7458SOL    HW133833   1.507   3.223  11.206 -0.4673  0.7398 -1.3088
 7458SOL    HW233834   1.413   3.314  11.162  0.4683 -2.2720  0.1611
 7459SOL     OW33835   1.194   0.781   9.160 -0.7611  0.2571 -0.1967
 7459SOL    HW133836   1.104   0.814   9.170 -0.7048  0.5768 -0.7671
 7459SOL    HW233837   1.221   0.777   9.252 -1.5218  3.5203  0.1643
 7460SOL     OW33838   3.188   0.137   9.914  0.0656  0.1972  0.1296
 7460SOL    HW133839   3.168   0.052   9.876 -0.5704  0.7801 -0.8641
 7460SOL    HW233840   3.205   0.194   9.839 -0.4947  0.8974  0.5267
 7461SOL     OW33841   1.448   3.908   6.529  0.1048  0.6699  0.0460
 7461SOL    HW133842   1.357   3.879   6.530  0.6442 -0.9094  4.1883
 7461SOL    HW233843   1.445   3.988   6.476 -0.8391  0.2286 -0.5626
 7462SOL     OW33844   2.915   0.203  14.847 -0.7973 -0.6129 -0.2034
 7462SOL    HW133845   2.853   0.233  14.914 -0.2855 -0.4716  0.2039
 7462SOL    HW233846   2.864   0.142  14.795 -1.0553 -1.0826  0.6029
 7463SOL     OW33847   1.145   3.839   2.141 -0.1792  0.2935  0.8171
 7463SOL    HW133848   1.190   3.830   2.226  0.6563 -1.1804  0.2125
 7463SOL    HW233849   1.060   3.819   2.179 -0.9614 -2.4017 -2.4080
 7464SOL     OW33850   2.053   4.680   4.733  0.1628  0.1141  0.0439
 7464SOL    HW133851   1.975   4.695   4.680  0.4206  1.3401  0.0199
 7464SOL    HW233852   2.119   4.689   4.665  0.1368 -0.9642 -0.1219
 7465SOL     OW33853   2.390   2.998   8.390  0.1919  0.8057  0.0434
 7465SOL    HW133854   2.385   3.063   8.460  0.1273 -1.0282  1.7503
 7465SOL    HW233855   2.405   3.062   8.320  1.2288  0.6811  0.1593
 7466SOL     OW33856   1.277   0.099   7.544 -0.4902  0.4716 -0.6177
 7466SOL    HW133857   1.221   0.071   7.617 -0.6601 -0.0024 -0.9339
 7466SOL    HW233858   1.234   0.042   7.481 -0.8145 -0.7282  0.6956
 7467SOL     OW33859   1.092   2.451  14.912 -0.2009 -0.6530 -0.3093
 7467SOL    HW133860   1.104   2.536  14.870 -2.7765 -0.9225 -1.6011
 7467SOL    HW233861   1.174   2.441  14.959 -0.8711 -2.1085  0.5375
 7468SOL     OW33862   4.094   2.816  10.864  0.2757 -0.0420  0.0970
 7468SOL    HW133863   4.085   2.910  10.848  1.6917 -0.2453 -1.7913
 7468SOL    HW233864   4.012   2.797  10.911  0.5624 -1.0334  0.1837
 7469SOL     OW33865   2.664   4.297   3.595  0.4178 -0.3902 -0.1837
 7469SOL    HW133866   2.649   4.376   3.543 -2.6509 -0.6488  0.3168
 7469SOL    HW233867   2.607   4.233   3.552 -0.9430  1.2861 -0.8765
 7470SOL     OW33868   2.510   4.416   4.880  0.3006  0.4407  0.3434
 7470SOL    HW133869   2.479   4.447   4.794  3.6426  2.2546 -0.2164
 7470SOL    HW233870   2.449   4.345   4.900 -0.8544  1.5349  0.7276
 7471SOL     OW33871   2.229   4.141   6.296  0.2181  0.2891  0.1493
 7471SOL    HW133872   2.255   4.055   6.331  3.4464  2.0007  1.9525
 7471SOL    HW233873   2.309   4.172   6.253  0.7690  2.0016  2.3793
 7472SOL     OW33874   2.202   1.612  16.984  0.3029  0.1876  0.1154
 7472SOL    HW133875   2.260   1.537  16.987 -0.2552 -0.1874  1.8728
 7472SOL    HW233876   2.112   1.580  16.975 -0.2792  1.8710 -0.2098
 7473SOL     OW33877   1.618   1.133   7.722  0.3376 -0.2069  0.3148
 7473SOL    HW133878   1.693   1.192   7.714 -1.0917  1.4054 -1.2923
 7473SOL    HW233879   1.564   1.175   7.654  0.7796 -0.8114 -0.4138
 7474SOL     OW33880   1.431   4.510   8.076 -0.3189 -0.2918 -0.0007
 7474SOL    HW133881   1.470   4.523   8.163 -1.7451  0.7616  0.4765
 7474SOL    HW233882   1.476   4.571   8.017  0.2929  1.0924  1.8817
 7475SOL     OW33883   1.037   1.685  11.547 -0.1115 -0.1425 -0.3324
 7475SOL    HW133884   1.077   1.722  11.468  1.3515 -0.1169  0.4153
 7475SOL    HW233885   1.037   1.595  11.516 -0.2301 -0.1658 -0.2622
 7476SOL     OW33886   2.478   1.382   6.107  0.6262  0.0290  0.1638
 7476SOL    HW133887   2.470   1.455   6.046  1.2116 -0.3614 -0.3807
 7476SOL    HW233888   2.424   1.315   6.066 -0.5776  0.3512  1.2373
 7477SOL     OW33889   0.803   2.067   0.617  0.3669  0.3188  0.0382
 7477SOL    HW133890   0.723   2.018   0.599 -0.4163  0.3954  3.4071
 7477SOL    HW233891   0.766   2.152   0.641  0.2356  0.0426  0.7964
 7478SOL     OW33892   1.922   1.916   8.568 -0.1990  0.4784  0.0861
 7478SOL    HW133893   1.971   1.998   8.563 -0.3746  0.5084 -1.0341
 7478SOL    HW233894   1.873   1.930   8.649  0.8069  2.2450  0.3978
 7479SOL     OW33895   3.516   4.119   5.744 -0.4718  0.2279  0.7856
 7479SOL    HW133896   3.437   4.134   5.795 -1.6156  0.9546 -1.1984
 7479SOL    HW233897   3.549   4.206   5.763  2.2270 -0.6475  0.0959
 7480SOL     OW33898   0.839   4.563   3.145 -0.3397  0.2678 -0.3487
 7480SOL    HW133899   0.910   4.501   3.161 -0.4274  0.4121  0.5865
 7480SOL    HW233900   0.770   4.501   3.120  0.9762 -1.0843 -0.6630
 7481SOL     OW33901   4.097   1.490   7.850 -0.0864 -0.2317  0.7365
 7481SOL    HW133902   4.178   1.482   7.799  0.5044  0.3792  1.5830
 7481SOL    HW233903   4.117   1.565   7.905 -1.3607 -0.2118  1.1807
 7482SOL     OW33904   1.882   2.598   3.675 -0.1204 -0.7748 -0.1935
 7482SOL    HW133905   1.814   2.586   3.742  0.0879  0.8340  0.3091
 7482SOL    HW233906   1.842   2.671   3.627  0.2431  0.0775  0.7899
 7483SOL     OW33907   0.390   2.205   6.019 -0.2385 -0.4170 -0.4930
 7483SOL    HW133908   0.421   2.150   5.947  0.1249 -0.8209 -0.0286
 7483SOL    HW233909   0.418   2.286   5.977  2.4615 -1.7825 -1.3297
 7484SOL     OW33910   3.370   0.604   4.381 -0.1645  0.3260 -0.3637
 7484SOL    HW133911   3.365   0.611   4.476  2.9595 -1.7979 -0.0470
 7484SOL    HW233912   3.417   0.685   4.363  0.5748 -0.5107 -2.2736
 7485SOL     OW33913   2.305   1.239   1.409  0.1240 -0.2090 -0.1225
 7485SOL    HW133914   2.367   1.204   1.345 -2.6645 -0.2832 -2.7596
 7485SOL    HW233915   2.221   1.228   1.364  0.2862  3.9153 -1.4975
 7486SOL     OW33916   0.871   4.270  16.958 -0.1892 -0.1728  0.1770
 7486SOL    HW133917   0.942   4.225  16.911 -1.5354 -0.4163 -1.6181
 7486SOL    HW233918   0.897   4.362  16.955 -2.3105  0.5101  2.7301
 7487SOL     OW33919   4.050   3.541  11.346 -0.9195  0.0244 -0.7809
 7487SOL    HW133920   4.103   3.539  11.266  2.4439  2.0894  1.3743
 7487SOL    HW233921   4.110   3.591  11.402 -3.2505 -1.0491  2.6615
 7488SOL     OW33922   1.590   3.482   5.793  0.1631  0.0825  0.0711
 7488SOL    HW133923   1.569   3.395   5.761  0.7215  0.3444 -0.9878
 7488SOL    HW233924   1.685   3.477   5.786 -0.1495 -0.8090 -3.1315
 7489SOL     OW33925   2.234   1.798   2.408  0.0812 -0.5106  0.1854
 7489SOL    HW133926   2.249   1.804   2.502 -2.7262  0.9171  0.5353
 7489SOL    HW233927   2.325   1.790   2.379  0.0770 -1.4623  0.4563
 7490SOL     OW33928   3.774   0.127   6.850  0.2185  0.0563 -0.1599
 7490SOL    HW133929   3.764   0.121   6.755 -2.3781 -1.5949  0.2432
 7490SOL    HW233930   3.706   0.065   6.876  0.3784  0.9641  2.4800
 7491SOL     OW33931   4.066   3.317   7.561 -0.4836 -0.8014  0.1764
 7491SOL    HW133932   4.096   3.401   7.596 -2.6757 -0.2053  0.6061
 7491SOL    HW233933   4.121   3.315   7.483 -0.0617  1.6688  0.4000
 7492SOL     OW33934   1.853   2.789   9.894  0.0088 -0.5853 -0.4787
 7492SOL    HW133935   1.781   2.851   9.891 -0.0163 -0.6390 -1.0536
 7492SOL    HW233936   1.915   2.834   9.837 -1.0308 -0.6315 -1.6654
 7493SOL     OW33937   1.885   3.045   5.753  0.7827  0.2761  0.1304
 7493SOL    HW133938   1.895   3.114   5.687  1.9503  0.7063  0.7548
 7493SOL    HW233939   1.869   3.099   5.831  1.6710 -1.4170  1.4774
 7494SOL     OW33940   0.933   2.776   6.377  0.6733  0.1320 -0.5610
 7494SOL    HW133941   0.922   2.870   6.393 -0.8324 -0.2154  0.4196
 7494SOL    HW233942   0.915   2.745   6.466 -0.4325  2.4374  0.0096
 7495SOL     OW33943   0.648   0.349   8.412 -0.4904 -0.7617  0.1382
 7495SOL    HW133944   0.557   0.336   8.438 -0.8857 -0.5371 -1.1605
 7495SOL    HW233945   0.670   0.262   8.379 -0.8904 -0.4237 -0.9960
 7496SOL     OW33946   1.520   2.201   4.793 -0.2057 -0.0111 -1.0943
 7496SOL    HW133947   1.430   2.172   4.777 -0.0940 -1.3133  0.5982
 7496SOL    HW233948   1.543   2.134   4.858  0.5942  0.2760 -1.0848
 7497SOL     OW33949   1.336   2.853   2.313 -0.0983  0.1595 -0.2788
 7497SOL    HW133950   1.320   2.842   2.219 -1.4662 -2.0026  0.1886
 7497SOL    HW233951   1.243   2.864   2.333 -0.5223  0.3747 -2.4122
 7498SOL     OW33952   0.097   3.851   5.862  0.3047  0.1262 -0.1687
 7498SOL    HW133953   0.085   3.904   5.941 -1.6398 -0.3972 -0.1246
 7498SOL    HW233954   0.135   3.776   5.908 -0.2387  0.4278  0.7734
 7499SOL     OW33955   4.543   0.082  12.527  0.1418 -0.0148 -0.0742
 7499SOL    HW133956   4.581   0.157  12.573  0.3415  1.1196 -2.0886
 7499SOL    HW233957   4.523   0.021  12.598  3.8073  2.3373  2.9510
 7500SOL     OW33958   0.080   1.639   2.691 -0.1622 -0.4099  0.3726
 7500SOL    HW133959   0.136   1.567   2.662  1.1440 -0.2110  2.3942
 7500SOL    HW233960   0.042   1.660   2.605 -1.8686  1.0228  1.4702
 7501SOL     OW33961   0.057   2.405  15.275  0.3251  0.0637  0.6775
 7501SOL    HW133962   0.145   2.443  15.272  0.0217  0.6801 -0.7577
 7501SOL    HW233963   4.720   2.478  15.301 -0.4520 -0.1339 -0.4460
 7502SOL     OW33964   3.472   0.817  10.122  0.1337  0.2890 -0.0875
 7502SOL    HW133965   3.459   0.912  10.130  1.8038  0.6643 -1.8616
 7502SOL    HW233966   3.518   0.804  10.040 -0.1723  0.2824 -0.2568
 7503SOL     OW33967   2.466   1.699  10.463 -0.1900  0.2627  0.4653
 7503SOL    HW133968   2.433   1.623  10.512 -0.5760 -0.6637 -1.2506
 7503SOL    HW233969   2.429   1.776  10.506 -1.0846 -0.6513  1.3423
 7504SOL     OW33970   0.151   0.274   6.596  0.0997  0.2809 -0.1010
 7504SOL    HW133971   0.091   0.266   6.670  0.9731 -0.4046  0.5367
 7504SOL    HW233972   0.096   0.315   6.530 -1.0482  1.8540  1.7965
 7505SOL     OW33973   1.190   1.689   7.228 -0.5070 -0.2188  0.4276
 7505SOL    HW133974   1.162   1.642   7.149 -0.1024 -0.8432  0.6548
 7505SOL    HW233975   1.275   1.646   7.241 -0.8123 -0.8206  0.4759
 7506SOL     OW33976   4.674   1.417   5.532  0.7524 -0.1809  0.0780
 7506SOL    HW133977   4.640   1.374   5.611  1.9484  0.2529  0.8238
 7506SOL    HW233978   4.661   1.357   5.459 -0.4586 -0.0088  0.1564
 7507SOL     OW33979   2.721   4.678   6.912 -0.4092 -0.0702  0.0687
 7507SOL    HW133980   2.666   0.031   6.940  1.5009  0.6213  1.9691
 7507SOL    HW233981   2.778   4.676   6.988  0.0849 -2.6506 -0.3529
 7508SOL     OW33982   3.812   0.028  13.129 -0.1589  0.3958  0.7842
 7508SOL    HW133983   3.887   4.715  13.080 -1.5616  1.4412 -2.0798
 7508SOL    HW233984   3.765   4.666  13.139  1.6531 -0.6164  0.8142
 7509SOL     OW33985   1.707   0.196   5.075 -0.4877  0.1870 -0.3746
 7509SOL    HW133986   1.629   0.153   5.108 -0.8424  0.4535 -0.8622
 7509SOL    HW233987   1.748   0.129   5.021  0.1828 -0.8488  1.4488
 7510SOL     OW33988   0.854   4.570   8.887  0.1484  0.2303 -0.2095
 7510SOL    HW133989   0.839   4.568   8.981 -0.8005 -3.1597 -0.4214
 7510SOL    HW233990   0.940   4.611   8.880  1.1655 -2.0443 -1.1593
 7511SOL     OW33991   2.979   2.820   4.818 -0.4938  0.3773 -0.1068
 7511SOL    HW133992   2.957   2.849   4.906 -0.1906 -1.3538  0.5503
 7511SOL    HW233993   3.060   2.869   4.803 -0.1117 -0.2061  0.0255
 7512SOL     OW33994   1.724   3.313   7.825  0.1938  0.0091 -0.0805
 7512SOL    HW133995   1.643   3.262   7.827  0.8035 -0.9058  1.2009
 7512SOL    HW233996   1.690   3.389   7.779  0.5716 -0.7815 -1.6839
 7513SOL     OW33997   4.506   3.135   2.503  0.1913 -0.1179  0.0508
 7513SOL    HW133998   4.462   3.087   2.432 -1.5894  2.0064 -0.2587
 7513SOL    HW233999   4.439   3.195   2.536  0.2905  0.6136 -1.0872
 7514SOL     OW34000   1.658   0.547   2.271  0.2002 -0.0674 -0.6667
 7514SOL    HW134001   1.666   0.451   2.273  1.8324  0.0783 -0.3128
 7514SOL    HW234002   1.652   0.574   2.180 -2.7996 -0.1073 -0.4949
 7515SOL     OW34003   0.495   2.114   6.783 -0.3790  0.0768  0.0245
 7515SOL    HW134004   0.571   2.127   6.840  0.0428  2.8517 -1.1976
 7515SOL    HW234005   0.518   2.028   6.749 -1.2764 -0.1746  0.0437
 7516SOL     OW34006   4.685   2.825   6.783  0.3223  0.8041 -0.3499
 7516SOL    HW134007   4.656   2.819   6.874 -0.4832 -0.6464 -0.7062
 7516SOL    HW234008   0.027   2.755   6.770 -1.2879 -0.4246 -1.4074
 7517SOL     OW34009   1.832   1.341   1.458 -0.2603  0.1963 -0.0644
 7517SOL    HW134010   1.824   1.315   1.550  2.6376 -0.4773  0.0114
 7517SOL    HW234011   1.817   1.435   1.461  2.6351  0.6090  1.6702
 7518SOL     OW34012   3.621   1.193   3.536 -0.0101 -0.1430  0.1291
 7518SOL    HW134013   3.581   1.247   3.468  2.5593  0.2232 -1.1002
 7518SOL    HW234014   3.635   1.114   3.484  1.7019  0.6560 -0.6130
 7519SOL     OW34015   2.618   3.166   3.803  0.1731  0.2879 -0.0522
 7519SOL    HW134016   2.683   3.131   3.743  2.3162  1.3911  1.6439
 7519SOL    HW234017   2.657   3.248   3.834  0.5114  0.0462  0.1602
 7520SOL     OW34018   0.839   4.373   8.512 -0.7685 -0.4967 -0.5623
 7520SOL    HW134019   0.922   4.412   8.484 -1.1293  0.4498 -0.3211
 7520SOL    HW234020   0.851   4.283   8.481  0.8518  0.1709 -1.9039
 7521SOL     OW34021   3.937   0.886   5.905  0.8953  0.5036  0.3224
 7521SOL    HW134022   3.973   0.852   5.986 -0.2922  0.7471  0.9555
 7521SOL    HW234023   3.906   0.805   5.864  1.2746  1.9649 -2.8726
 7522SOL     OW34024   3.839   2.631   2.543 -0.3301  0.0906 -0.0815
 7522SOL    HW134025   3.806   2.612   2.456 -1.7497 -0.8510  0.6567
 7522SOL    HW234026   3.924   2.591   2.526 -0.2360  0.7612 -1.1856
 7523SOL     OW34027   0.891   2.382   8.893  0.3105  0.2584 -0.2227
 7523SOL    HW134028   0.815   2.439   8.885 -1.1648 -2.1060 -2.8760
 7523SOL    HW234029   0.842   2.301   8.883 -1.9831  1.6475 -0.2238
 7524SOL     OW34030   0.122   3.212   3.662  0.2470  0.8503 -0.1596
 7524SOL    HW134031   0.151   3.162   3.738 -0.6271 -0.3829 -0.6447
 7524SOL    HW234032   0.110   3.297   3.704  3.6342  0.7317  1.0483
 7525SOL     OW34033   4.605   2.565   3.478 -1.2442  0.0223 -0.1184
 7525SOL    HW134034   4.655   2.645   3.464 -1.8729  0.0577 -2.2063
 7525SOL    HW234035   4.590   2.529   3.390  0.3567  0.5951 -0.6214
 7526SOL     OW34036   1.274   1.991  11.188  0.0447  0.2697 -0.5710
 7526SOL    HW134037   1.263   1.896  11.198  0.4232  0.4222  1.3776
 7526SOL    HW234038   1.345   2.018  11.246 -1.1563  0.3411  0.8857
 7527SOL     OW34039   1.820   1.553   8.421 -0.0966 -0.0936 -0.1060
 7527SOL    HW134040   1.750   1.581   8.363  0.5741  0.4655 -0.6506
 7527SOL    HW234041   1.780   1.561   8.507  0.5194 -1.7624  0.3558
 7528SOL     OW34042   2.692   0.359  11.164  0.1230  0.5392  0.0069
 7528SOL    HW134043   2.743   0.283  11.193  1.0216  0.7100 -1.0937
 7528SOL    HW234044   2.613   0.333  11.210 -1.0169 -0.9342 -2.7863
 7529SOL     OW34045   2.728   0.463  11.456  0.0584  0.7677  0.0728
 7529SOL    HW134046   2.755   0.520  11.384  0.9001 -0.0807 -0.2851
 7529SOL    HW234047   2.654   0.503  11.501 -1.3368 -0.6229 -0.9865
 7530SOL     OW34048   2.265   1.183   8.782 -0.0240  0.5255  0.7044
 7530SOL    HW134049   2.240   1.209   8.871  2.5442  0.1482  1.5518
 7530SOL    HW234050   2.204   1.109   8.779  2.7043 -1.7753  1.9645
 7531SOL     OW34051   0.926   0.969   7.503 -0.4030 -0.4155  0.1331
 7531SOL    HW134052   0.908   1.035   7.570  1.0527  1.1371 -1.0128
 7531SOL    HW234053   1.016   0.947   7.530 -0.3823  1.0329  1.2851
 7532SOL     OW34054   2.756   4.683   2.155  0.3192  0.1778  0.2451
 7532SOL    HW134055   2.749   0.031   2.088 -1.3617 -0.2209  0.0188
 7532SOL    HW234056   2.667   4.692   2.188  0.2142  0.8848 -0.2254
 7533SOL     OW34057   0.188   1.468  15.359  0.4344  0.7153  0.0318
 7533SOL    HW134058   0.277   1.491  15.333  0.0786  2.0689 -0.0062
 7533SOL    HW234059   0.146   1.553  15.343  2.4703  2.1269  2.2456
 7534SOL     OW34060   3.713   0.647  16.211 -0.0770 -0.1646 -0.7969
 7534SOL    HW134061   3.672   0.573  16.168 -1.9214  0.7190 -0.5708
 7534SOL    HW234062   3.781   0.603  16.262  1.3471  1.1760 -1.5353
 7535SOL     OW34063   2.061   2.920   2.872  0.3248 -0.0788 -0.7701
 7535SOL    HW134064   2.133   2.917   2.935 -0.8544 -4.2426  0.3833
 7535SOL    HW234065   2.111   2.943   2.793  2.0384 -1.2462 -0.0281
 7536SOL     OW34066   1.003   0.737   5.346  0.0036 -0.1262 -0.3687
 7536SOL    HW134067   1.092   0.735   5.311  0.4905  1.6202  0.7511
 7536SOL    HW234068   0.995   0.643   5.362 -0.7265  0.2619  1.5719
 7537SOL     OW34069   0.005   3.466   7.501  0.2336  0.1553  0.0786
 7537SOL    HW134070   0.006   3.554   7.465 -0.6777 -0.0642 -0.4732
 7537SOL    HW234071   4.665   3.466   7.575  2.7174  0.1663  2.1122
 7538SOL     OW34072   3.724   1.164   3.781  0.5472 -0.4660 -0.6969
 7538SOL    HW134073   3.766   1.250   3.782 -1.1666  0.3447  1.4183
 7538SOL    HW234074   3.693   1.174   3.691 -2.0782  2.7854  0.6039
 7539SOL     OW34075   2.298   0.111   5.280  0.5616 -0.3021 -0.2177
 7539SOL    HW134076   2.274   0.158   5.360  1.2240 -3.4788  1.8288
 7539SOL    HW234077   2.387   0.144   5.269  0.0485  0.4011 -2.3346
 7540SOL     OW34078   1.150   0.462  13.228 -0.5775  0.5505  0.4198
 7540SOL    HW134079   1.229   0.418  13.196 -1.4674 -1.6677  1.2381
 7540SOL    HW234080   1.124   0.403  13.299  3.3947  3.4784  4.3044
 7541SOL     OW34081   2.853   4.300   4.728 -0.1978 -0.0246  0.1790
 7541SOL    HW134082   2.886   4.303   4.818  2.4151 -1.1924 -0.7403
 7541SOL    HW234083   2.771   4.252   4.741  0.0014 -0.1757  0.8814
 7542SOL     OW34084   3.477   1.253   2.118  0.8319 -0.0132 -0.3605
 7542SOL    HW134085   3.493   1.159   2.130  2.4042  0.1056 -1.5358
 7542SOL    HW234086   3.478   1.268   2.023 -1.9571 -0.7544 -0.5087
 7543SOL     OW34087   0.756   1.984   4.813 -0.6425  0.0474  0.0925
 7543SOL    HW134088   0.780   1.984   4.721  0.8326 -0.8474  0.4721
 7543SOL    HW234089   0.683   2.046   4.818 -0.6252  0.3092 -3.4883
 7544SOL     OW34090   1.451   4.338   5.257 -0.1495  0.5128  0.0839
 7544SOL    HW134091   1.408   4.335   5.342 -0.2424  1.9972  0.0810
 7544SOL    HW234092   1.526   4.392   5.281 -0.1221  2.0161 -3.3442
 7545SOL     OW34093   1.661   2.743   4.654 -0.2996  0.0236 -0.0953
 7545SOL    HW134094   1.606   2.720   4.578 -0.2378  1.9808 -0.7448
 7545SOL    HW234095   1.704   2.660   4.677  0.8091  1.1787  1.9411
 7546SOL     OW34096   4.676   1.991   9.599  0.2122  0.4126  0.1318
 7546SOL    HW134097   0.022   2.030   9.655 -0.1333 -1.1250  1.6067
 7546SOL    HW234098   4.646   2.070   9.554 -2.1310 -0.2586  0.5032
 7547SOL     OW34099   3.762   2.827   9.547 -0.0562  0.5529 -0.9086
 7547SOL    HW134100   3.714   2.789   9.473  1.1710 -2.3541 -0.2273
 7547SOL    HW234101   3.734   2.768   9.617 -0.8264 -0.5942 -2.1825
 7548SOL     OW34102   3.519   1.214   3.981  0.0483 -0.1843  0.7904
 7548SOL    HW134103   3.597   1.226   3.927 -1.0360 -0.1283 -0.7816
 7548SOL    HW234104   3.533   1.251   4.068 -1.2263  1.4402  0.3149
 7549SOL     OW34105   0.510   3.842  16.442  0.1618 -0.4243 -0.4687
 7549SOL    HW134106   0.597   3.807  16.422  0.0953 -0.4120 -0.7825
 7549SOL    HW234107   0.531   3.936  16.438  0.7093 -0.5551 -0.7528
 7550SOL     OW34108   2.376   0.494   9.288  0.1470  0.3126  0.0211
 7550SOL    HW134109   2.332   0.439   9.353 -2.4521  0.3310 -1.6973
 7550SOL    HW234110   2.466   0.462   9.280  0.8676  1.4811  3.7427
 7551SOL     OW34111   4.044   0.437   5.771  0.5905  0.3896  0.4415
 7551SOL    HW134112   3.992   0.400   5.699 -0.9271 -2.3332  2.9544
 7551SOL    HW234113   4.062   0.363   5.829 -0.1791 -1.1218 -1.2134
 7552SOL     OW34114   2.403   0.314   5.047  0.2044  0.1661  0.2239
 7552SOL    HW134115   2.353   0.253   4.993  2.1603 -1.8121  0.6562
 7552SOL    HW234116   2.459   0.250   5.090  2.3915  2.2712  0.5362
 7553SOL     OW34117   2.563   3.554   5.088  0.1664  0.5073  0.0245
 7553SOL    HW134118   2.611   3.553   5.005  2.1486  0.7973  1.1761
 7553SOL    HW234119   2.536   3.462   5.089  1.2042  0.1953 -0.5597
 7554SOL     OW34120   1.847   1.346   7.219  0.5879 -0.8528  0.2658
 7554SOL    HW134121   1.891   1.426   7.247 -0.4090 -0.8505  1.7960
 7554SOL    HW234122   1.818   1.308   7.301  2.6000  0.5019  1.6103
 7555SOL     OW34123   2.302   1.039   0.744  0.0107 -0.3416  0.4550
 7555SOL    HW134124   2.309   0.949   0.712 -0.5599 -0.1674 -0.1611
 7555SOL    HW234125   2.213   1.029   0.778 -1.4970 -1.1116 -3.7372
 7556SOL     OW34126   1.791   4.553   1.150 -0.1662  0.6174  0.0226
 7556SOL    HW134127   1.819   4.462   1.143  0.3234  0.7667  0.0653
 7556SOL    HW234128   1.711   4.553   1.098 -1.2133  0.0769  1.6251
 7557SOL     OW34129   3.872   2.761  11.029  0.5785 -0.1195  0.0380
 7557SOL    HW134130   3.922   2.769  11.110 -0.4617  0.1464  0.6476
 7557SOL    HW234131   3.814   2.836  11.022  0.3707 -0.4233 -1.5396
 7558SOL     OW34132   4.536   1.803  12.077  0.1968 -0.0021  0.1036
 7558SOL    HW134133   4.602   1.737  12.094  1.2355  1.3339  1.2753
 7558SOL    HW234134   4.459   1.764  12.117 -0.7879  0.3612 -1.4298
 7559SOL     OW34135   3.375   4.655   6.665 -0.1891  0.0254  0.2043
 7559SOL    HW134136   3.448   4.708   6.631 -1.5642  0.7315 -1.6799
 7559SOL    HW234137   3.423   4.601   6.728 -2.8895  0.1435  2.3389
 7560SOL     OW34138   3.565   0.071   7.699  0.3926 -0.1202 -0.7940
 7560SOL    HW134139   3.527   4.708   7.724 -1.0468  0.4238 -1.1637
 7560SOL    HW234140   3.488   0.119   7.668  2.8751  2.3844 -3.2212
 7561SOL     OW34141   1.917   0.635   3.885 -0.1835 -0.0344 -0.6463
 7561SOL    HW134142   2.000   0.682   3.894  0.3328 -0.9626 -0.5857
 7561SOL    HW234143   1.875   0.687   3.816 -3.1330 -1.2316  0.2927
 7562SOL     OW34144   2.409   3.035  10.551  0.0342 -0.6066  0.0961
 7562SOL    HW134145   2.470   3.091  10.599 -3.0813  1.9504  1.0399
 7562SOL    HW234146   2.472   2.991  10.494 -0.0931 -0.3531 -0.2403
 7563SOL     OW34147   2.301   2.526   8.871  0.7950 -0.1393 -0.3559
 7563SOL    HW134148   2.264   2.530   8.783 -0.8880  3.7924  0.5385
 7563SOL    HW234149   2.336   2.615   8.882 -0.8315  0.2834  1.3904
 7564SOL     OW34150   2.031   4.427  11.520  0.3791 -0.5989 -0.1367
 7564SOL    HW134151   2.056   4.495  11.582  1.0851 -0.0422 -1.0152
 7564SOL    HW234152   2.112   4.427  11.469  0.4882 -2.3781  0.0254
 7565SOL     OW34153   0.136   4.068  13.195  0.1388  0.4047 -0.2771
 7565SOL    HW134154   0.157   4.084  13.103 -1.1294  0.9250 -0.4841
 7565SOL    HW234155   0.042   4.087  13.199 -0.0050  0.0797 -2.3372
 7566SOL     OW34156   1.556   2.752  16.501 -0.2137 -0.0428  0.2425
 7566SOL    HW134157   1.607   2.702  16.565  0.0590  0.3538  0.3292
 7566SOL    HW234158   1.470   2.710  16.496 -1.6677  2.7812  1.4137
 7567SOL     OW34159   0.306   1.798   7.117  0.6419  0.4114 -0.5255
 7567SOL    HW134160   0.374   1.845   7.166 -1.1551  1.3265  1.1290
 7567SOL    HW234161   0.298   1.721   7.173 -0.7560 -0.8755 -2.5243
 7568SOL     OW34162   4.315   2.738  10.505 -0.0544 -0.4154 -0.2760
 7568SOL    HW134163   4.292   2.794  10.431 -1.1995  1.1293  1.2468
 7568SOL    HW234164   4.410   2.735  10.503  0.1033  2.7794  2.2481
 7569SOL     OW34165   4.701   4.690  15.225 -0.7361 -0.2700  0.2512
 7569SOL    HW134166   0.073   4.688  15.249 -0.2892 -0.2959 -1.4561
 7569SOL    HW234167   4.700   4.638  15.145  0.5404  0.3357 -0.1580
 7570SOL     OW34168   3.708   3.935   2.949 -0.2549  0.3404  0.3392
 7570SOL    HW134169   3.794   3.892   2.946 -0.8173 -0.7122 -0.4971
 7570SOL    HW234170   3.724   3.993   3.023 -2.1747 -0.8242  1.6709
 7571SOL     OW34171   1.376   1.045   9.292 -0.1304 -0.0410 -0.6118
 7571SOL    HW134172   1.373   0.980   9.362 -0.5261 -1.8360 -2.3242
 7571SOL    HW234173   1.462   1.085   9.309  0.5780 -1.9425  0.2633
 7572SOL     OW34174   1.977   1.556   6.597 -0.3637  0.4765  0.1749
 7572SOL    HW134175   1.913   1.491   6.569 -0.5413  0.3201  0.9599
 7572SOL    HW234176   1.977   1.536   6.690 -0.7762  0.9775  0.2784
 7573SOL     OW34177   0.931   0.796   8.930 -0.2143 -0.3036 -0.2738
 7573SOL    HW134178   0.843   0.807   8.894 -0.1222  4.9138  1.0920
 7573SOL    HW234179   0.916   0.771   9.021  2.1696  0.0423  0.1934
 7574SOL     OW34180   0.508   0.694   6.634 -0.7564  0.2818 -0.2798
 7574SOL    HW134181   0.424   0.652   6.655 -0.3769  0.7494  2.2246
 7574SOL    HW234182   0.576   0.633   6.662 -0.5994 -0.1019 -1.5019
 7575SOL     OW34183   0.613   0.333   8.117 -0.3666  0.5780 -0.2275
 7575SOL    HW134184   0.562   0.366   8.191  3.1184  2.5831  1.2912
 7575SOL    HW234185   0.667   0.402   8.078  0.0059  0.3297 -0.1440
 7576SOL     OW34186   0.734   1.682   2.610 -0.1060 -0.2145 -0.5903
 7576SOL    HW134187   0.652   1.677   2.659  1.1654 -0.8857  1.4290
 7576SOL    HW234188   0.725   1.601   2.559  0.0328 -0.4488 -0.2382
 7577SOL     OW34189   2.540   0.076   3.142  0.1188  0.3795  0.4444
 7577SOL    HW134190   2.523   0.160   3.185 -1.9696  0.2815 -0.2260
 7577SOL    HW234191   2.592   0.103   3.066 -0.6035  0.1133 -0.1431
 7578SOL     OW34192   0.722   2.182   5.940 -0.6180 -0.0688 -0.0985
 7578SOL    HW134193   0.728   2.183   5.844  0.4519 -0.2050 -0.0341
 7578SOL    HW234194   0.730   2.275   5.958  0.1289  0.3513 -2.5806
 7579SOL     OW34195   1.609   2.232  11.526  0.2058 -0.6704  0.0782
 7579SOL    HW134196   1.702   2.213  11.541  0.0496 -2.5527 -1.3390
 7579SOL    HW234197   1.607   2.309  11.470 -1.3039 -0.0846  0.9310
 7580SOL     OW34198   1.326   1.821   0.010 -1.0491  0.0772 -0.5283
 7580SOL    HW134199   1.417   1.850   0.016 -0.4264 -2.6271  2.6163
 7580SOL    HW234200   1.279   1.903   0.024  1.4010  0.8812  2.9929
 7581SOL     OW34201   1.206   0.324  10.824  0.0128 -0.1815 -0.0988
 7581SOL    HW134202   1.122   0.292  10.793 -0.2117 -1.0279  1.3820
 7581SOL    HW234203   1.247   0.250  10.867  0.1800 -0.3606 -0.5624
 7582SOL     OW34204   0.287   2.489  14.492  0.0561  0.4252  0.1328
 7582SOL    HW134205   0.267   2.399  14.515 -0.0412 -0.0698 -1.9828
 7582SOL    HW234206   0.221   2.539  14.541  1.4935  4.0539 -1.5640
 7583SOL     OW34207   1.452   1.369   1.276  0.0485  0.2564  0.3971
 7583SOL    HW134208   1.458   1.390   1.183  1.3337 -0.9558  0.2056
 7583SOL    HW234209   1.458   1.274   1.287 -0.7087  0.1034 -0.5462
 7584SOL     OW34210   3.673   3.954   6.295 -0.1831 -0.0911  0.2022
 7584SOL    HW134211   3.657   4.039   6.337  1.2503  0.5177 -0.4784
 7584SOL    HW234212   3.734   3.980   6.225 -0.4214 -1.6181 -0.5774
 7585SOL     OW34213   4.115   3.881   2.232  0.3059 -0.0473  0.4049
 7585SOL    HW134214   4.158   3.930   2.302 -0.0675 -0.2641  0.7849
 7585SOL    HW234215   4.117   3.942   2.157 -0.5308  0.1210  0.5154
 7586SOL     OW34216   3.550   1.411   7.062  0.6201  0.1894 -0.3342
 7586SOL    HW134217   3.564   1.470   7.136 -1.8153  0.8863 -0.4278
 7586SOL    HW234218   3.526   1.463   6.985 -2.9974 -1.0310 -0.0387
 7587SOL     OW34219   1.755   4.114  13.758  0.0576 -0.0055 -0.0639
 7587SOL    HW134220   1.710   4.040  13.717  1.0480 -0.8142  0.3029
 7587SOL    HW234221   1.828   4.115  13.696 -0.6198  1.9635 -0.8307
 7588SOL     OW34222   1.764   2.498   4.491  0.3809  0.0154 -0.0776
 7588SOL    HW134223   1.764   2.466   4.581 -0.1667 -3.9970 -1.5095
 7588SOL    HW234224   1.705   2.430   4.458 -0.6813  0.6102  0.5663
 7589SOL     OW34225   3.211   0.724  14.070 -0.3710  0.0020 -0.0744
 7589SOL    HW134226   3.175   0.749  13.984  1.8652 -0.1435 -1.0447
 7589SOL    HW234227   3.149   0.653  14.088  0.5986 -1.2895 -1.8793
 7590SOL     OW34228   1.168   2.460   8.299  0.5419 -0.6342  0.2552
 7590SOL    HW134229   1.095   2.467   8.361  0.0710  0.3367 -0.4081
 7590SOL    HW234230   1.119   2.414   8.231  0.8171  0.5413 -0.7343
 7591SOL     OW34231   2.274   4.328   6.487  0.3474  0.3932 -0.4173
 7591SOL    HW134232   2.246   4.279   6.410  0.3328  0.3877 -0.4084
 7591SOL    HW234233   2.234   4.415   6.478  0.4614  0.4611 -0.2805
 7592SOL     OW34234   2.822   0.566   2.289  0.4648  0.1834  0.3862
 7592SOL    HW134235   2.883   0.501   2.255  0.1888  0.2930 -0.3221
 7592SOL    HW234236   2.754   0.531   2.231 -0.3127  0.3419  1.2083
 7593SOL     OW34237   2.636   2.638   6.306 -0.3200 -0.2776  0.2436
 7593SOL    HW134238   2.620   2.732   6.320 -0.9144 -0.0936 -1.5634
 7593SOL    HW234239   2.691   2.648   6.228 -0.5376 -1.3889 -0.0437
 7594SOL     OW34240   4.512   3.779   5.475  0.3837  0.2049  0.0241
 7594SOL    HW134241   4.579   3.833   5.517  0.1055 -0.3144  1.1399
 7594SOL    HW234242   4.474   3.750   5.558  1.4950 -1.7954 -0.1705
 7595SOL     OW34243   4.678   4.365   3.539  0.4110  0.2174  0.0446
 7595SOL    HW134244   0.042   4.411   3.535 -1.5385  3.8973  1.8593
 7595SOL    HW234245   4.693   4.334   3.449  0.1361  3.2638 -1.0535
 7596SOL     OW34246   4.670   0.002   5.369  0.0877 -0.2755 -0.2754
 7596SOL    HW134247   4.663   0.087   5.412  0.7368 -1.1946  1.6599
 7596SOL    HW234248   4.601   4.678   5.418 -0.4755  1.6683  0.7022
 7597SOL     OW34249   2.552   0.597  10.290 -0.6291 -0.2254  0.0705
 7597SOL    HW134250   2.477   0.553  10.330  1.0286 -2.9497  0.1882
 7597SOL    HW234251   2.549   0.569  10.198  0.0155  1.6724 -0.5395
 7598SOL     OW34252   0.289   4.529   8.274 -0.3727  0.1393 -0.3891
 7598SOL    HW134253   0.359   4.574   8.321 -1.9502  1.6708  0.4741
 7598SOL    HW234254   0.206   4.574   8.289 -0.4700 -0.1526 -0.0661
 7599SOL     OW34255   2.176   3.927   7.884  0.2869 -0.3501 -0.8916
 7599SOL    HW134256   2.170   3.953   7.976 -1.3009 -1.3199 -0.7314
 7599SOL    HW234257   2.084   3.943   7.866  0.3749 -1.7287 -2.4979
 7600SOL     OW34258   3.082   3.499   5.156  0.0180 -0.3014 -0.2230
 7600SOL    HW134259   3.049   3.515   5.244 -0.6548  1.5149 -0.8088
 7600SOL    HW234260   3.148   3.429   5.164 -0.4562 -0.7396 -0.1143
 7601SOL     OW34261   1.659   1.182  17.416  0.1424 -0.1454 -0.7745
 7601SOL    HW134262   1.655   1.086  17.423  0.1723 -0.1919 -1.3337
 7601SOL    HW234263   1.754   1.193  17.410  0.4219 -3.5724 -2.8742
 7602SOL     OW34264   1.963   0.925   1.296  0.4231  0.2775 -0.0631
 7602SOL    HW134265   1.937   0.835   1.317  2.2354 -0.3532 -0.5084
 7602SOL    HW234266   2.057   0.909   1.294  0.5374  0.8132  1.0843
 7603SOL     OW34267   1.784   3.538   6.539 -0.2306 -0.2409  0.7590
 7603SOL    HW134268   1.875   3.531   6.510 -0.0971 -0.2835  1.1842
 7603SOL    HW234269   1.765   3.626   6.505  0.1955 -1.4328 -2.4910
 7604SOL     OW34270   0.234   3.455   5.763  0.0055 -0.6356 -0.1159
 7604SOL    HW134271   0.284   3.520   5.713 -4.4095  0.7927 -2.6813
 7604SOL    HW234272   0.147   3.472   5.726 -0.8910 -0.2799  2.2035
 7605SOL     OW34273   1.071   4.152   2.439  0.2617 -0.0379  0.4173
 7605SOL    HW134274   1.074   4.215   2.367  1.2266 -1.1019 -0.4753
 7605SOL    HW234275   0.979   4.138   2.461 -0.0264 -1.3176 -1.6460
 7606SOL     OW34276   2.835   4.656  16.699  0.2578 -0.0207 -0.1162
 7606SOL    HW134277   2.772   4.719  16.734  0.5427 -0.0596  0.4660
 7606SOL    HW234278   2.912   4.671  16.754  0.2332  1.0181 -0.3619
 7607SOL     OW34279   4.571   3.500   6.159 -0.2980  0.2100 -0.2293
 7607SOL    HW134280   4.522   3.471   6.236 -1.4974  1.4661 -0.5279
 7607SOL    HW234281   4.599   3.585   6.193  2.5805  0.1584 -2.4916
 7608SOL     OW34282   1.777   1.767  11.290 -1.3493  0.6454 -0.8843
 7608SOL    HW134283   1.751   1.719  11.212 -1.5220 -0.6158 -0.0497
 7608SOL    HW234284   1.868   1.739  11.294 -1.8506 -1.2536 -3.0747
 7609SOL     OW34285   0.260   2.304   0.071 -0.0780  0.1871 -0.3933
 7609SOL    HW134286   0.335   2.362   0.059 -0.7264  1.1352  0.0707
 7609SOL    HW234287   0.262   2.259   0.156  1.4917  1.0879  0.0497
 7610SOL     OW34288   0.451   0.615  11.180 -0.6738  0.1190  0.1412
 7610SOL    HW134289   0.362   0.616  11.216 -0.9914  2.8270 -0.7017
 7610SOL    HW234290   0.492   0.666  11.250  0.7306 -2.6863  1.3459
 7611SOL     OW34291   4.615   1.797   8.155 -0.4541  0.6780 -0.4319
 7611SOL    HW134292   4.612   1.888   8.125 -0.1817  0.2884 -1.6268
 7611SOL    HW234293   4.647   1.752   8.077  1.0111  0.5968  0.2247
 7612SOL     OW34294   2.718   2.062  16.013 -0.3136  0.4752  0.0537
 7612SOL    HW134295   2.694   2.095  16.100  1.5203 -1.1085  1.1768
 7612SOL    HW234296   2.632   2.057  15.972 -0.2059 -1.9885  0.1499
 7613SOL     OW34297   0.397   1.161   4.649 -0.0747 -0.0530  0.3064
 7613SOL    HW134298   0.449   1.237   4.673  0.3300 -0.1256 -0.3406
 7613SOL    HW234299   0.355   1.146   4.734  2.4809 -0.7165  1.4567
 7614SOL     OW34300   3.612   1.105  11.542  1.0061 -1.0598  0.3116
 7614SOL    HW134301   3.687   1.164  11.540  1.0799 -1.2280 -2.2375
 7614SOL    HW234302   3.577   1.139  11.624  0.0531  3.1383 -1.8285
 7615SOL     OW34303   0.818   2.664  12.154  0.1825 -0.3638  0.3670
 7615SOL    HW134304   0.843   2.659  12.062  0.4048  1.3679  0.3434
 7615SOL    HW234305   0.863   2.743  12.184  1.1301 -1.2144  1.1779
 7616SOL     OW34306   2.550   4.413  12.506 -0.6020 -0.0968  0.0749
 7616SOL    HW134307   2.513   4.328  12.530 -0.3074 -0.0878  0.5633
 7616SOL    HW234308   2.553   4.417  12.411 -0.5915  0.3366  0.0898
 7617SOL     OW34309   3.561   2.425   8.199  0.1766  0.0441 -0.2697
 7617SOL    HW134310   3.505   2.500   8.181 -0.3640 -0.6410 -1.4513
 7617SOL    HW234311   3.503   2.371   8.253  0.5066 -1.1554 -1.1127
 7618SOL     OW34312   4.535   3.241   6.341 -0.0525 -0.5550  0.3790
 7618SOL    HW134313   4.630   3.249   6.338 -0.0822  1.3096  3.8476
 7618SOL    HW234314   4.527   3.229   6.436  2.5507 -0.6760  0.5729
 7619SOL     OW34315   4.431   2.448   9.208  0.1069 -0.2937  0.1141
 7619SOL    HW134316   4.353   2.471   9.259  0.3859 -0.7371  0.7357
 7619SOL    HW234317   4.446   2.537   9.175  0.2459 -0.3310  0.0784
 7620SOL     OW34318   1.759   3.183  13.273  0.3571  0.0898 -0.0194
 7620SOL    HW134319   1.793   3.216  13.356  2.5110 -1.9036 -0.1287
 7620SOL    HW234320   1.826   3.116  13.259  1.7412  2.1246 -2.9488
 7621SOL     OW34321   0.021   0.397  17.510 -0.3878 -0.1307 -0.2792
 7621SOL    HW134322   0.022   0.318  17.564 -0.1943  0.3840  0.4702
 7621SOL    HW234323   0.109   0.427  17.532 -0.3724 -0.0437 -0.4599
 7622SOL     OW34324   4.413   3.756   1.020 -0.7888 -0.1901  0.6208
 7622SOL    HW134325   4.329   3.768   1.066 -1.3433 -1.4951 -0.0637
 7622SOL    HW234326   4.388   3.737   0.930 -0.1917 -0.7976  0.5934
 7623SOL     OW34327   0.322   0.698   9.956 -0.1396  0.0485  0.6466
 7623SOL    HW134328   0.346   0.618   9.909 -0.4898  0.6484 -0.5628
 7623SOL    HW234329   0.231   0.674   9.967  0.1915 -1.5760 -0.1070
 7624SOL     OW34330   4.482   1.205   7.320 -0.0719 -0.6240 -0.2438
 7624SOL    HW134331   4.415   1.255   7.366  0.8222  0.5108 -0.1703
 7624SOL    HW234332   4.425   1.143   7.274 -0.0601 -0.4603 -0.4802
 7625SOL     OW34333   2.396   2.722  10.973 -0.2493 -0.3473  0.4401
 7625SOL    HW134334   2.393   2.816  10.991  2.2233 -0.2811  0.5751
 7625SOL    HW234335   2.411   2.735  10.879  0.0550 -3.8366  0.0052
 7626SOL     OW34336   3.948   0.884   9.134 -0.1670 -0.4434  0.2277
 7626SOL    HW134337   4.018   0.839   9.086 -2.7154 -2.9731 -1.1184
 7626SOL    HW234338   3.897   0.893   9.054 -2.0257 -1.7150  1.2779
 7627SOL     OW34339   1.854   0.155   2.284  0.4996  0.0079 -0.1504
 7627SOL    HW134340   1.864   0.059   2.288  2.8956  0.2247 -1.2483
 7627SOL    HW234341   1.893   0.176   2.369  0.5509  0.3264 -0.2550
 7628SOL     OW34342   3.352   1.643   4.905 -0.2991  0.3479  0.1223
 7628SOL    HW134343   3.311   1.713   4.855 -1.1263 -0.0337  0.2620
 7628SOL    HW234344   3.359   1.583   4.831  0.2015  2.4154 -1.4828
 7629SOL     OW34345   0.328   1.496   3.318 -0.2212 -0.0214 -0.6397
 7629SOL    HW134346   0.241   1.492   3.277  0.5486 -0.2542 -2.2168
 7629SOL    HW234347   0.384   1.468   3.246  1.1633 -0.1303  0.4959
 7630SOL     OW34348   0.017   0.770   5.973 -0.1818  0.3793 -0.1491
 7630SOL    HW134349   4.705   0.683   5.997  0.8421  1.0563  3.5801
 7630SOL    HW234350   0.093   0.777   6.030 -0.7701  2.9453  0.2844
 7631SOL     OW34351   4.672   2.809   0.866 -0.4475 -0.2900 -0.3675
 7631SOL    HW134352   0.039   2.774   0.882 -0.5904 -0.1195  0.7622
 7631SOL    HW234353   4.695   2.900   0.850  1.5674 -0.7577 -0.0423
 7632SOL     OW34354   1.134   3.795   6.941 -0.3486 -0.2365 -0.5127
 7632SOL    HW134355   1.141   3.855   6.866 -2.0675  0.7851  0.1296
 7632SOL    HW234356   1.042   3.813   6.963 -0.8080 -1.2084 -1.6296
 7633SOL     OW34357   0.852   3.663   0.352  0.0572  0.0000  0.0941
 7633SOL    HW134358   0.834   3.583   0.400 -0.4998 -1.4680 -2.5534
 7633SOL    HW234359   0.856   3.723   0.426  0.1677  0.8248 -0.5689
 7634SOL     OW34360   2.630   0.637   3.690 -0.1122  0.6053  0.8456
 7634SOL    HW134361   2.619   0.607   3.780 -1.0281 -0.9542  0.2140
 7634SOL    HW234362   2.627   0.549   3.651  3.3352  0.6675  0.4656
 7635SOL     OW34363   0.918   1.388  11.704  0.4223  0.1145 -0.0190
 7635SOL    HW134364   0.927   1.337  11.784  0.4085 -2.3237 -1.5891
 7635SOL    HW234365   0.875   1.467  11.737  0.0539  0.6527 -1.7594
 7636SOL     OW34366   2.932   2.780   9.828  0.1799 -0.3683  0.2272
 7636SOL    HW134367   2.919   2.872   9.806 -0.5411 -0.4406  0.3432
 7636SOL    HW234368   2.934   2.726   9.749  1.1839  0.5031 -0.3237
 7637SOL     OW34369   0.629   4.433   5.676 -0.1576  0.1514  0.0352
 7637SOL    HW134370   0.543   4.421   5.716  0.3636  0.8667  1.3499
 7637SOL    HW234371   0.688   4.425   5.751  0.8711 -0.3928 -0.8200
 7638SOL     OW34372   0.925   2.687   2.946 -0.1981  0.4167  0.3264
 7638SOL    HW134373   1.005   2.642   2.917 -0.8687  1.2316 -2.6763
 7638SOL    HW234374   0.899   2.735   2.868 -0.8133 -0.3869  0.0374
 7639SOL     OW34375   2.585   1.417   1.896  0.0993  0.1782 -0.2057
 7639SOL    HW134376   2.532   1.406   1.817  0.6960 -0.1388 -0.5630
 7639SOL    HW234377   2.520   1.433   1.964  0.5864  0.4733  0.1906
 7640SOL     OW34378   1.856   0.309   4.646 -0.6257 -0.5458 -0.1076
 7640SOL    HW134379   1.845   0.217   4.668  0.3646 -0.5994  0.1852
 7640SOL    HW234380   1.763   0.329   4.641 -1.0862 -2.4957  0.8589
 7641SOL     OW34381   1.832   4.699  17.437  0.7277  0.8212  0.2226
 7641SOL    HW134382   1.807   4.621  17.487  2.3667  0.1290 -0.0357
 7641SOL    HW234383   1.926   4.696  17.456 -0.0680 -2.9357  3.5625
 7642SOL     OW34384   2.398   3.436  14.129 -0.3250 -0.5877 -0.2510
 7642SOL    HW134385   2.350   3.508  14.089  0.4232  0.4543  0.7283
 7642SOL    HW234386   2.469   3.428  14.065  1.7253 -0.9187  2.0418
 7643SOL     OW34387   2.929   0.968  17.000  0.0051  0.5195 -0.5051
 7643SOL    HW134388   2.848   1.000  16.959 -1.4708 -1.2356  1.0421
 7643SOL    HW234389   2.993   1.000  16.937  0.6726 -0.8553 -0.5214
 7644SOL     OW34390   0.080   2.518   2.673 -0.2725 -0.4914  0.1187
 7644SOL    HW134391   0.024   2.578   2.722  0.6554  0.5837 -0.1332
 7644SOL    HW234392   0.029   2.508   2.593 -2.2640 -1.5440  1.5167
 7645SOL     OW34393   4.131   1.507   5.356  0.5273 -0.5769  0.2322
 7645SOL    HW134394   4.161   1.486   5.444 -2.0386 -0.1467  1.2081
 7645SOL    HW234395   4.079   1.434   5.323 -0.2396 -0.2896  0.7953
 7646SOL     OW34396   4.691   3.182  12.385 -0.1747  0.2419 -0.0456
 7646SOL    HW134397   0.057   3.168  12.424 -0.8458 -1.9021  0.6552
 7646SOL    HW234398   4.625   3.154  12.448  0.6797  0.6927  1.0602
 7647SOL     OW34399   0.862   2.403   6.722 -0.3418  0.6463 -0.6081
 7647SOL    HW134400   0.869   2.311   6.695  4.6751  1.0952 -0.8496
 7647SOL    HW234401   0.920   2.404   6.798  1.7055 -0.6059 -2.1555
 7648SOL     OW34402   3.090   1.047  14.233  0.8388 -0.2607  0.3017
 7648SOL    HW134403   3.046   1.054  14.318  0.5339 -0.3716  0.1549
 7648SOL    HW234404   3.066   1.129  14.189 -2.1006  0.2555  2.8154
 7649SOL     OW34405   1.109   2.761  13.748  0.4560  0.1206 -0.2568
 7649SOL    HW134406   1.040   2.757  13.681  0.1651  2.0429 -0.0755
 7649SOL    HW234407   1.093   2.849  13.783  1.9949 -0.0390  0.8570
 7650SOL     OW34408   1.462   2.566   4.106 -0.1453  0.3010  0.2901
 7650SOL    HW134409   1.413   2.580   4.025 -2.1094  1.4646  1.6707
 7650SOL    HW234410   1.421   2.636   4.156  0.4860  1.2588 -0.5492
 7651SOL     OW34411   2.844   0.963   4.230 -0.4604  0.1029 -0.1432
 7651SOL    HW134412   2.936   0.978   4.248 -1.3050  1.7759  2.7271
 7651SOL    HW234413   2.836   1.014   4.150 -3.0024  1.2705  0.8585
 7652SOL     OW34414   2.536   4.412   6.497 -0.2168 -0.4714  0.1754
 7652SOL    HW134415   2.443   4.394   6.512  0.2770 -3.6275 -0.6796
 7652SOL    HW234416   2.530   4.488   6.439 -0.5304 -1.0833 -0.5836
 7653SOL     OW34417   3.276   0.746   8.922  0.2218 -0.4734  0.3681
 7653SOL    HW134418   3.223   0.757   9.000  1.3507  3.1888  0.6054
 7653SOL    HW234419   3.344   0.687   8.955  1.0633 -0.7025 -1.7349
 7654SOL     OW34420   1.738   2.110   5.078  0.1903  0.2031 -0.4190
 7654SOL    HW134421   1.707   2.190   5.035  0.5409  0.6812  0.2247
 7654SOL    HW234422   1.739   2.143   5.167  0.2950 -2.9826  0.7859
 7655SOL     OW34423   3.333   4.287   2.624 -0.2278 -0.3420 -0.2766
 7655SOL    HW134424   3.390   4.251   2.557 -0.7234 -0.6815 -0.5108
 7655SOL    HW234425   3.307   4.204   2.664 -1.4900 -0.9425 -2.3793
 7656SOL     OW34426   4.322   0.438   6.873  0.2398 -0.1689  0.3416
 7656SOL    HW134427   4.329   0.531   6.853  0.7550 -0.4296 -0.7342
 7656SOL    HW234428   4.259   0.435   6.945  0.7549 -2.2157  0.7226
 7657SOL     OW34429   2.041   1.645  11.337  0.3257 -0.0020 -0.2095
 7657SOL    HW134430   2.004   1.686  11.416  2.0435  0.2797  0.4304
 7657SOL    HW234431   2.085   1.567  11.370  0.6668 -0.0349 -0.7614
 7658SOL     OW34432   1.844   4.654   5.257 -0.0728 -0.2302 -0.4193
 7658SOL    HW134433   1.871   4.711   5.329  0.8898 -1.7999  0.4827
 7658SOL    HW234434   1.925   4.624   5.217  0.0895 -0.2269 -0.0956
 7659SOL     OW34435   1.187   0.326  10.496 -0.5788 -0.4862 -0.8382
 7659SOL    HW134436   1.174   0.389  10.425  2.8204 -0.0119 -1.0147
 7659SOL    HW234437   1.109   0.344  10.549 -0.7438 -0.5085 -1.0720
 7660SOL     OW34438   0.669   3.814   8.155 -0.3731 -0.6986  0.1924
 7660SOL    HW134439   0.705   3.903   8.147 -3.0386  0.3120 -0.3631
 7660SOL    HW234440   0.575   3.826   8.163 -0.2174  0.7328 -0.0661
 7661SOL     OW34441   1.769   1.669   9.531  0.8493 -0.1763 -0.1588
 7661SOL    HW134442   1.716   1.716   9.595  0.9191  0.8592 -0.8542
 7661SOL    HW234443   1.721   1.586   9.535  0.6797 -0.0322  0.7106
 7662SOL     OW34444   4.073   0.327  17.237  0.1589 -0.2026 -0.2833
 7662SOL    HW134445   4.027   0.403  17.202  2.1125  0.1829 -1.9753
 7662SOL    HW234446   4.137   0.363  17.299  2.1663 -0.2483 -2.3290
 7663SOL     OW34447   1.486   0.153   9.523 -0.4582 -0.1266 -0.1678
 7663SOL    HW134448   1.555   0.203   9.481  0.0620 -0.1603  0.6521
 7663SOL    HW234449   1.449   0.219   9.582 -1.6789 -0.6751 -0.3095
 7664SOL     OW34450   3.408   2.631  15.043 -0.3733  0.1137 -0.1969
 7664SOL    HW134451   3.435   2.558  15.098  0.0221 -0.2836 -0.9111
 7664SOL    HW234452   3.314   2.617  15.044 -0.5059  1.0971  1.6857
 7665SOL     OW34453   2.345   1.246  12.908 -0.2006 -0.2345 -0.0359
 7665SOL    HW134454   2.268   1.280  12.863  1.2031 -1.6849 -3.5051
 7665SOL    HW234455   2.415   1.246  12.843 -0.7426 -0.7996 -0.6145
 7666SOL     OW34456   2.987   4.095   5.664 -0.5334 -0.7138 -0.3912
 7666SOL    HW134457   3.031   4.015   5.693  1.0997  0.9476  1.7474
 7666SOL    HW234458   2.932   4.123   5.737  0.9993 -0.2872  0.5949
 7667SOL     OW34459   2.569   4.280   2.636 -0.5492 -0.3301 -0.2791
 7667SOL    HW134460   2.521   4.363   2.642  1.3991  0.6774  1.3675
 7667SOL    HW234461   2.649   4.307   2.681 -1.7047  4.0951 -0.8652
 7668SOL     OW34462   0.757   0.025   2.911  0.0148  0.7604  0.1620
 7668SOL    HW134463   0.795   0.088   2.973 -0.4765  0.7286  0.4900
 7668SOL    HW234464   0.745   4.664   2.959 -0.4568  2.2627  2.5883
 7669SOL     OW34465   3.066   4.619  11.402  1.4571 -0.3003 -0.2727
 7669SOL    HW134466   3.157   4.649  11.406  1.4522 -0.5981  2.1854
 7669SOL    HW234467   3.017   4.700  11.418  1.3118 -0.4740  0.1519
 7670SOL     OW34468   4.046   3.033  10.545  0.2546  0.3429  0.5622
 7670SOL    HW134469   4.020   3.015  10.635  0.9280  0.4488  0.7796
 7670SOL    HW234470   4.137   3.061  10.558  0.6385 -0.2105 -0.8253
 7671SOL     OW34471   1.319   2.268   8.602  0.0479 -0.3573 -0.0684
 7671SOL    HW134472   1.321   2.195   8.664 -1.9507 -1.9993 -1.9058
 7671SOL    HW234473   1.265   2.332   8.647  1.2465 -0.4079  1.4453
 7672SOL     OW34474   0.407   3.350   5.032 -0.0052 -0.0017  0.5389
 7672SOL    HW134475   0.333   3.377   5.087 -0.2694 -1.2247  0.7851
 7672SOL    HW234476   0.479   3.340   5.095 -0.3072  1.8778  1.1746
 7673SOL     OW34477   4.515   1.589  13.185  0.1822 -0.2577 -0.0909
 7673SOL    HW134478   4.573   1.582  13.261 -0.1850 -0.6681  0.1457
 7673SOL    HW234479   4.570   1.576  13.108  1.7717  4.3537  0.2448
 7674SOL     OW34480   0.602   1.689   1.845  0.1440 -0.1058 -0.3898
 7674SOL    HW134481   0.612   1.605   1.890 -2.6860  1.7071  3.6031
 7674SOL    HW234482   0.518   1.726   1.872  1.1656  1.8776  0.0370
 7675SOL     OW34483   0.873   2.742   4.980  0.3637 -0.0327  0.5346
 7675SOL    HW134484   0.874   2.799   5.056  0.7270 -0.6272  0.9769
 7675SOL    HW234485   0.861   2.794   4.900  3.1913  0.8761  0.6847
 7676SOL     OW34486   3.717   0.712   2.372  0.0731  0.4723  0.2372
 7676SOL    HW134487   3.633   0.679   2.405 -0.1244  2.0750  1.3115
 7676SOL    HW234488   3.780   0.698   2.442 -0.9155 -1.0240  0.8328
 7677SOL     OW34489   4.410   2.691  11.274 -0.2297 -0.6219 -0.6482
 7677SOL    HW134490   4.340   2.697  11.208  0.5603  1.8799 -1.2686
 7677SOL    HW234491   4.484   2.696  11.214  0.6035 -1.8568  0.2815
 7678SOL     OW34492   3.394   3.650   3.312  0.2030 -0.1631 -0.7844
 7678SOL    HW134493   3.432   3.611   3.233 -0.6397  0.7619 -1.6442
 7678SOL    HW234494   3.444   3.604   3.379  1.3297  1.1420 -0.7370
 7679SOL     OW34495   1.330   3.494   0.488  0.5639  0.4236 -0.0347
 7679SOL    HW134496   1.371   3.459   0.567  2.6485 -0.2435 -1.4096
 7679SOL    HW234497   1.404   3.540   0.448  0.8598 -0.4123 -0.4517
 7680SOL     OW34498   1.106   0.831   6.865  0.0366 -0.3645  0.5103
 7680SOL    HW134499   1.159   0.752   6.855 -0.9526 -0.8927 -0.5426
 7680SOL    HW234500   1.047   0.801   6.934 -1.6325  0.7787 -0.4183
 7681SOL     OW34501   1.285   3.535   4.197  0.3213 -0.0955  0.0367
 7681SOL    HW134502   1.318   3.561   4.111  0.8454 -1.0803 -0.0616
 7681SOL    HW234503   1.358   3.547   4.256  4.0171  0.2984 -4.6392
 7682SOL     OW34504   3.274   0.325   9.328 -0.8060  0.0473  0.6090
 7682SOL    HW134505   3.265   0.230   9.339 -1.3008 -0.0842 -0.9631
 7682SOL    HW234506   3.218   0.360   9.398  0.0363  0.6316  0.9856
 7683SOL     OW34507   0.637   2.892   5.533  0.7856 -0.5349 -0.4882
 7683SOL    HW134508   0.727   2.886   5.501  0.4455 -0.7799 -1.3982
 7683SOL    HW234509   0.614   2.804   5.562 -0.8728 -0.9168 -2.9673
 7684SOL     OW34510   1.020   2.576   7.232  0.3967  0.2567 -0.2628
 7684SOL    HW134511   1.019   2.590   7.137  2.6838  2.0583 -0.0147
 7684SOL    HW234512   0.930   2.554   7.255  0.3756  1.2109  0.5741
 7685SOL     OW34513   0.550   1.947   3.171  0.1879  0.3466  0.0156
 7685SOL    HW134514   0.577   1.908   3.087  0.2426 -0.2773  0.3204
 7685SOL    HW234515   0.477   1.887   3.188  0.3754 -0.1359 -0.8979
 7686SOL     OW34516   0.465   2.055   2.786  0.2002  0.5174  0.2675
 7686SOL    HW134517   0.508   2.102   2.856  0.7785 -0.7130  0.7292
 7686SOL    HW234518   0.520   2.086   2.714 -0.0359 -1.4612 -0.7603
 7687SOL     OW34519   2.890   1.028   8.450 -0.6493  0.6229 -0.4168
 7687SOL    HW134520   2.900   1.120   8.429  0.4198  0.3342 -1.1852
 7687SOL    HW234521   2.795   1.027   8.435 -0.7374 -2.9921  0.3589
 7688SOL     OW34522   1.624   4.015   7.104 -0.3901 -0.0534 -0.2272
 7688SOL    HW134523   1.689   4.080   7.076  0.3944 -0.1004  1.4818
 7688SOL    HW234524   1.661   3.926   7.101 -1.2905 -0.4544  0.5801
 7689SOL     OW34525   3.056   3.174  10.052 -0.1040 -0.6125 -0.1326
 7689SOL    HW134526   3.105   3.247  10.014 -1.2312 -0.6158 -1.6134
 7689SOL    HW234527   3.118   3.112  10.090  0.7949  1.5109  1.8647
 7690SOL     OW34528   0.716   4.240  15.661  0.1332  0.2270  0.1027
 7690SOL    HW134529   0.645   4.257  15.598  3.3330 -0.1623 -3.5981
 7690SOL    HW234530   0.661   4.247  15.739  0.4259  0.9241  0.2449
 7691SOL     OW34531   2.743   0.698   8.500 -0.0487  0.5613 -0.2348
 7691SOL    HW134532   2.736   0.785   8.538 -0.6424 -0.7708  2.7054
 7691SOL    HW234533   2.704   0.706   8.413  0.3897  1.6562 -0.3260
 7692SOL     OW34534   2.637   2.616   8.755 -0.0294  0.3246  0.4402
 7692SOL    HW134535   2.606   2.525   8.757  0.5713  0.1799  3.3472
 7692SOL    HW234536   2.552   2.657   8.748 -0.2731 -0.2283  0.0834
 7693SOL     OW34537   1.448   2.389  10.242 -0.0468 -0.1863  0.2899
 7693SOL    HW134538   1.503   2.431  10.308  0.4174 -0.9092  0.3759
 7693SOL    HW234539   1.419   2.448  10.173  0.8737 -0.9246 -0.7446
 7694SOL     OW34540   2.742   4.324  13.706 -0.2736  0.4214  0.0875
 7694SOL    HW134541   2.771   4.394  13.765 -0.2469  0.0873  0.4675
 7694SOL    HW234542   2.822   4.280  13.678 -0.7047  0.7935 -1.7170
 7695SOL     OW34543   0.465   3.241   7.270 -0.2757  0.4556  0.2082
 7695SOL    HW134544   0.380   3.230   7.312 -0.7417  1.3840 -0.4921
 7695SOL    HW234545   0.526   3.209   7.338  3.0819  1.1962 -2.4581
 7696SOL     OW34546   2.263   0.313   4.099  0.3648  0.4493 -0.0169
 7696SOL    HW134547   2.346   0.336   4.141  0.4725  0.1667 -0.0725
 7696SOL    HW234548   2.252   0.384   4.035 -2.1312 -1.1106 -1.3272
 7697SOL     OW34549   1.987   1.597   3.129 -0.1526 -0.0808 -0.6711
 7697SOL    HW134550   1.946   1.640   3.204  0.3883 -0.9229  0.1028
 7697SOL    HW234551   2.076   1.630   3.130  0.5678 -2.0866  1.5424
 7698SOL     OW34552   3.047   4.238   4.202  0.2819 -0.2815 -0.2630
 7698SOL    HW134553   3.018   4.152   4.171  0.6497  0.3215 -2.2218
 7698SOL    HW234554   3.013   4.237   4.292 -0.5916  1.4888 -0.5878
 7699SOL     OW34555   2.640   3.451   6.602 -0.1481  0.0120 -0.0582
 7699SOL    HW134556   2.682   3.412   6.679  0.1122  1.7503  0.6772
 7699SOL    HW234557   2.577   3.509   6.645 -0.1184  0.7528 -1.0031
 7700SOL     OW34558   1.665   1.198   9.339 -0.3906  0.0765 -0.0153
 7700SOL    HW134559   1.739   1.141   9.362  0.6279  2.6765  3.0219
 7700SOL    HW234560   1.647   1.242   9.422 -0.2021 -0.6899  0.4315
 7701SOL     OW34561   1.439   1.576   7.616 -0.0472 -0.1330 -0.3126
 7701SOL    HW134562   1.492   1.507   7.577  0.6937 -0.3530  1.0899
 7701SOL    HW234563   1.499   1.630   7.667 -1.9895  2.5354 -0.8631
 7702SOL     OW34564   1.818   2.995  16.566 -0.3132  0.4696  0.5753
 7702SOL    HW134565   1.757   3.053  16.613 -1.2906 -0.0443 -0.0667
 7702SOL    HW234566   1.791   2.911  16.604  0.0414  0.8860  1.7529
 7703SOL     OW34567   1.333   0.814   7.131 -0.4914 -0.4510 -0.0386
 7703SOL    HW134568   1.391   0.881   7.095 -2.3304  1.1732  0.0062
 7703SOL    HW234569   1.310   0.759   7.057  1.4512 -1.2992 -0.0066
 7704SOL     OW34570   0.370   2.784   5.223  0.1189 -0.0631  0.4097
 7704SOL    HW134571   0.386   2.873   5.191 -2.0174  0.4505  0.7595
 7704SOL    HW234572   0.331   2.741   5.146  2.0267 -1.2850  0.1412
 7705SOL     OW34573   1.021   4.142  13.682  0.0942  0.7426  0.3362
 7705SOL    HW134574   1.008   4.058  13.638  3.4124 -0.6958  2.0699
 7705SOL    HW234575   1.111   4.128  13.711  0.2347 -0.0602 -0.4840
 7706SOL     OW34576   0.381   0.693  12.036  0.8006  0.0526 -0.2917
 7706SOL    HW134577   0.388   0.610  12.082  2.3429  1.1364  1.4182
 7706SOL    HW234578   0.289   0.706  12.011  0.4471 -0.8628  0.5455
 7707SOL     OW34579   2.098   2.788   2.309 -0.2240  0.6532  0.1089
 7707SOL    HW134580   2.078   2.866   2.362 -1.4363  0.0919  0.4805
 7707SOL    HW234581   2.044   2.793   2.230 -1.4386 -1.7580  0.7970
 7708SOL     OW34582   3.414   0.803   3.652 -0.4412 -0.0438 -0.4887
 7708SOL    HW134583   3.445   0.893   3.664 -2.3878  0.1601  3.2299
 7708SOL    HW234584   3.339   0.807   3.712  0.6111 -0.6234  0.8490
 7709SOL     OW34585   0.983   0.526   7.758  0.7406 -0.3274  0.0245
 7709SOL    HW134586   0.994   0.539   7.663 -0.1731 -0.0520 -0.0391
 7709SOL    HW234587   0.916   0.458   7.761  1.6669 -1.0483  3.9165
 7710SOL     OW34588   0.829   0.802   6.062 -0.6327  0.1403 -0.0731
 7710SOL    HW134589   0.811   0.766   6.149  2.0830 -0.8158  0.0945
 7710SOL    HW234590   0.827   0.726   6.003  0.9848  0.3496 -0.3956
 7711SOL     OW34591   2.267   3.639   2.484  0.6410 -0.1465 -0.0052
 7711SOL    HW134592   2.327   3.694   2.434 -0.0909  1.0195  0.3902
 7711SOL    HW234593   2.309   3.653   2.569  2.6762 -0.1390 -1.0047
 7712SOL     OW34594   4.654   2.925  10.841 -0.0760  0.6413 -0.3720
 7712SOL    HW134595   4.622   3.006  10.881 -2.1750 -0.3088 -0.1315
 7712SOL    HW234596   4.568   2.904  10.804  0.0027 -0.0018 -0.1783
 7713SOL     OW34597   0.621   1.933   8.603 -0.2218  0.2524 -0.0413
 7713SOL    HW134598   0.528   1.939   8.584 -0.2119 -0.3556 -0.2799
 7713SOL    HW234599   0.652   1.958   8.515 -0.4568  0.5291 -0.0466
 7714SOL     OW34600   2.682   3.063   1.892  0.5330  0.1260  0.1907
 7714SOL    HW134601   2.623   3.046   1.965  0.6505  0.7086  0.4215
 7714SOL    HW234602   2.766   3.080   1.935  1.2575  0.4474 -1.3700
 7715SOL     OW34603   4.610   4.460   9.575  0.1221 -0.8283  0.1070
 7715SOL    HW134604   4.608   4.388   9.512 -0.0849  1.5107 -2.5277
 7715SOL    HW234605   4.635   4.404   9.650  2.1425  0.8749  0.7060
 7716SOL     OW34606   4.241   1.980   6.046 -0.1241  0.1156 -0.4426
 7716SOL    HW134607   4.212   1.910   6.105 -0.9918  0.9877  0.1826
 7716SOL    HW234608   4.335   1.984   6.065 -0.2505  0.5992  0.1004
 7717SOL     OW34609   0.765   0.831  15.627 -0.6416 -0.4735  0.4963
 7717SOL    HW134610   0.784   0.738  15.634  1.8608 -0.1322 -1.6961
 7717SOL    HW234611   0.855   0.862  15.612 -0.5332  0.6170  3.5351
 7718SOL     OW34612   3.002   2.483  15.954  0.6538  0.2769 -0.2654
 7718SOL    HW134613   3.018   2.451  15.866 -0.3248 -0.3030 -0.2243
 7718SOL    HW234614   2.915   2.449  15.974  0.9921 -0.5605 -0.2266
 7719SOL     OW34615   2.731   2.099   8.516  0.2191  0.7016 -0.2526
 7719SOL    HW134616   2.635   2.098   8.505 -0.1249 -1.0895  3.0763
 7719SOL    HW234617   2.729   2.083   8.610  3.2651 -0.5839 -0.4282
 7720SOL     OW34618   0.992   2.112  16.536  0.4856 -0.0513 -0.7892
 7720SOL    HW134619   0.977   2.060  16.457  1.2476 -0.2840 -0.7743
 7720SOL    HW234620   0.993   2.043  16.603 -0.2641  0.2732 -0.4348
 7721SOL     OW34621   1.965   4.064  15.587 -0.4462  0.0608 -0.6047
 7721SOL    HW134622   1.897   4.124  15.619  0.3413 -1.4160  3.8455
 7721SOL    HW234623   2.045   4.096  15.628 -1.1196 -1.3392  1.8174
 7722SOL     OW34624   2.103   0.804   9.578  0.0887 -0.3197 -0.0819
 7722SOL    HW134625   2.085   0.714   9.604 -1.0255 -0.1655 -0.3458
 7722SOL    HW234626   2.148   0.844   9.653 -1.2414 -0.3052  0.6976
 7723SOL     OW34627   4.395   4.439   7.265 -0.0981 -0.2789 -0.0224
 7723SOL    HW134628   4.330   4.455   7.197 -1.3033  0.1931  1.2162
 7723SOL    HW234629   4.365   4.348   7.274  1.1634 -0.5674  1.2346
 7724SOL     OW34630   1.168   2.961  16.074  0.2230  0.4446  0.2238
 7724SOL    HW134631   1.162   2.889  16.011  1.5593  0.1672  0.4047
 7724SOL    HW234632   1.126   2.926  16.152 -2.1486  1.6362 -0.5407
 7725SOL     OW34633   0.457   2.469  14.994 -0.0432 -0.1437  0.0930
 7725SOL    HW134634   0.406   2.516  14.928 -0.9822  0.3996  1.2092
 7725SOL    HW234635   0.529   2.532  15.006  0.0818 -0.3018  0.1681
 7726SOL     OW34636   2.726   1.170   2.044 -0.7157  0.1888 -0.1682
 7726SOL    HW134637   2.633   1.147   2.047 -0.9711  1.1296 -0.8269
 7726SOL    HW234638   2.764   1.109   2.107 -1.7564 -0.9587 -0.6770
 7727SOL     OW34639   3.433   2.636   5.882  0.1846  0.3557  0.8407
 7727SOL    HW134640   3.487   2.581   5.824  0.3121 -0.9446  2.2004
 7727SOL    HW234641   3.376   2.676   5.816  2.1934  1.2094 -0.3947
 7728SOL     OW34642   2.704   1.235  14.804  0.0490 -0.4405 -0.3373
 7728SOL    HW134643   2.705   1.147  14.841  1.0845  0.2269  1.2410
 7728SOL    HW234644   2.745   1.288  14.872  0.2921 -0.2041 -0.6633
 7729SOL     OW34645   3.729   0.901  16.127  0.1681 -0.1079 -0.0259
 7729SOL    HW134646   3.713   0.810  16.151  1.4740 -0.1809  0.5704
 7729SOL    HW234647   3.745   0.939  16.214 -1.8960 -0.9570  0.7193
 7730SOL     OW34648   4.627   3.911  15.398 -0.2591 -0.1414 -0.7117
 7730SOL    HW134649   4.551   3.919  15.456  0.1239 -2.8246  0.1503
 7730SOL    HW234650   4.577   3.925  15.318  1.5225  2.8235 -1.2954
 7731SOL     OW34651   0.973   2.764   9.475 -0.4931  0.0414  0.2231
 7731SOL    HW134652   0.899   2.706   9.496 -0.2425 -0.6594 -0.8540
 7731SOL    HW234653   0.972   2.773   9.380 -1.3157 -0.2261  0.2076
 7732SOL     OW34654   2.079   1.938  16.830  0.1540  0.4764  0.1961
 7732SOL    HW134655   2.088   1.915  16.738  0.7132  2.3634 -0.2256
 7732SOL    HW234656   2.012   2.006  16.827  0.1664  0.5059  0.6223
 7733SOL     OW34657   2.934   2.878   5.093  0.2582 -0.6079  0.1025
 7733SOL    HW134658   2.901   2.799   5.136  1.1446 -0.6902  0.6185
 7733SOL    HW234659   3.015   2.891   5.142  1.3374 -0.8961 -1.5998
 7734SOL     OW34660   2.653   2.140   8.863  0.3689 -0.6509  0.4802
 7734SOL    HW134661   2.636   2.155   8.956 -2.3695  0.7366 -0.2612
 7734SOL    HW234662   2.731   2.084   8.861 -0.7918 -2.2406 -0.5826
 7735SOL     OW34663   1.411   1.684   5.271  0.1116 -0.1255 -0.7494
 7735SOL    HW134664   1.338   1.746   5.261  0.7270  0.4890 -1.4422
 7735SOL    HW234665   1.363   1.606   5.298  0.1524  0.0287 -0.2356
 7736SOL     OW34666   2.705   2.435   3.874  0.5280  0.1481  1.0611
 7736SOL    HW134667   2.755   2.511   3.904 -1.0733  1.4329  0.4712
 7736SOL    HW234668   2.625   2.445   3.927  0.0544  0.0495  0.3655
 7737SOL     OW34669   1.930   1.667  11.838  0.2581  0.1951 -0.0975
 7737SOL    HW134670   1.964   1.745  11.882  0.5672 -0.1382  0.2493
 7737SOL    HW234671   1.846   1.648  11.881  1.5912 -1.2189  1.8514
 7738SOL     OW34672   2.422   4.312   1.557  1.2410 -0.5677 -0.3255
 7738SOL    HW134673   2.434   4.287   1.648 -0.8172 -1.0636 -0.1838
 7738SOL    HW234674   2.351   4.377   1.550  1.3065 -0.3041  1.6868
 7739SOL     OW34675   4.060   4.438  14.883  0.4046 -0.0854  0.1586
 7739SOL    HW134676   4.003   4.361  14.880 -1.2834  1.0588  2.3229
 7739SOL    HW234677   4.091   4.450  14.793  2.7414 -0.0180  0.9917
 7740SOL     OW34678   1.940   0.258  17.669 -0.2634  0.6016  0.4862
 7740SOL    HW134679   1.979   0.179  17.632  0.4807  1.1938  0.0020
 7740SOL    HW234680   1.976   0.329  17.616 -0.6109  0.1162 -0.3887
 7741SOL     OW34681   3.538   4.462   4.014  0.3784 -0.1395 -0.0813
 7741SOL    HW134682   3.588   4.380   4.013 -0.2952 -0.5555  0.3235
 7741SOL    HW234683   3.552   4.495   4.103 -1.3315  0.9907 -0.2357
 7742SOL     OW34684   2.452   4.474  10.765  0.6142  0.3553 -0.1459
 7742SOL    HW134685   2.440   4.471  10.670  0.5579  1.3807 -0.1784
 7742SOL    HW234686   2.433   4.566  10.783 -0.5699  0.2989 -1.1057
 7743SOL     OW34687   4.301   4.459  16.094  0.3434 -0.3660  0.1347
 7743SOL    HW134688   4.251   4.463  16.013  2.2031  3.4195 -0.8249
 7743SOL    HW234689   4.357   4.535  16.076  1.3605 -0.8940  1.0769
 7744SOL     OW34690   4.060   3.135   6.929  0.2378 -0.1229  0.2943
 7744SOL    HW134691   4.056   3.100   7.018 -1.1407  0.2905  0.3869
 7744SOL    HW234692   4.096   3.221   6.951  0.8292 -0.6454  1.3769
 7745SOL     OW34693   0.873   3.847   1.366 -0.2485 -0.0029 -0.5396
 7745SOL    HW134694   0.927   3.774   1.398 -2.0429 -1.6926 -1.3709
 7745SOL    HW234695   0.793   3.795   1.360  0.1090 -0.4085 -1.7668
 7746SOL     OW34696   2.360   2.670   2.913 -0.3696  0.7544  0.8292
 7746SOL    HW134697   2.393   2.743   2.860 -0.5355  0.7668  0.7420
 7746SOL    HW234698   2.389   2.594   2.864 -2.7695 -0.4174  1.2140
 7747SOL     OW34699   0.472   0.559   7.348 -0.2874 -0.1461 -0.4082
 7747SOL    HW134700   0.433   0.473   7.337 -1.5439  0.5923 -1.7185
 7747SOL    HW234701   0.433   0.601   7.271 -0.7656 -1.6767 -0.9995
 7748SOL     OW34702   4.672   1.240   5.317  0.3810 -0.5406  0.7654
 7748SOL    HW134703   0.040   1.276   5.309  0.5810 -1.4354 -0.9015
 7748SOL    HW234704   4.662   1.194   5.234 -2.2398  0.2810  0.6484
 7749SOL     OW34705   3.721   0.531   7.372  0.2720  0.6907  0.3742
 7749SOL    HW134706   3.744   0.547   7.280  0.8571 -0.7402  0.2794
 7749SOL    HW234707   3.682   0.444   7.366 -0.6598  1.0602  0.9977
 7750SOL     OW34708   4.252   0.339   0.527  0.0749  0.1422 -0.2869
 7750SOL    HW134709   4.277   0.406   0.463 -1.4764  1.0829  0.0787
 7750SOL    HW234710   4.311   0.356   0.600 -1.7053  1.4548  0.8500
 7751SOL     OW34711   2.176   3.920  16.068  0.0842  0.0165  0.6462
 7751SOL    HW134712   2.122   3.996  16.090  0.1306  0.4115 -0.5680
 7751SOL    HW234713   2.232   3.911  16.144 -2.5732 -1.0563  2.4882
 7752SOL     OW34714   1.135   2.137   3.745 -0.0962  0.3569  0.1635
 7752SOL    HW134715   1.074   2.132   3.672  0.3090  0.1594 -0.1583
 7752SOL    HW234716   1.208   2.187   3.707  1.3648 -0.9128  1.2998
 7753SOL     OW34717   1.114   4.210   1.578 -0.0399  0.2960  0.1488
 7753SOL    HW134718   1.119   4.194   1.672  0.8903 -0.0075  0.0422
 7753SOL    HW234719   1.185   4.148   1.564 -0.2167  0.4663 -1.5075
 7754SOL     OW34720   3.530   0.952   5.473 -0.3082  0.4983  0.2668
 7754SOL    HW134721   3.481   0.926   5.395  0.6194 -0.8701  0.1397
 7754SOL    HW234722   3.497   1.041   5.464  2.7947  1.5508 -0.5763
 7755SOL     OW34723   1.202   3.470   5.286 -0.6038  0.4098  0.1325
 7755SOL    HW134724   1.214   3.385   5.328 -1.6990 -0.5342 -1.4963
 7755SOL    HW234725   1.112   3.491   5.309 -0.4274 -0.3682  1.5527
 7756SOL     OW34726   2.529   1.305   5.532 -0.5631  0.1321  0.1584
 7756SOL    HW134727   2.585   1.374   5.497  0.2631 -0.6870 -0.1495
 7756SOL    HW234728   2.548   1.229   5.476 -1.6977 -1.0360  1.3549
 7757SOL     OW34729   2.852   4.509   5.653 -0.4534  0.1158 -0.2360
 7757SOL    HW134730   2.815   4.561   5.582  0.2254  1.5303  0.4374
 7757SOL    HW234731   2.773   4.483   5.699 -0.7270  1.3295 -0.0232
 7758SOL     OW34732   0.328   2.983   4.089  0.2445  0.1536  0.0055
 7758SOL    HW134733   0.374   2.900   4.095  1.8386  0.9281 -1.4724
 7758SOL    HW234734   0.313   3.015   4.178 -0.7117 -3.9375  1.3172
 7759SOL     OW34735   1.643   2.855   8.124 -0.4173 -0.6448  0.9162
 7759SOL    HW134736   1.725   2.819   8.090 -0.1144  0.1209  0.8475
 7759SOL    HW234737   1.601   2.876   8.041  2.3577 -1.4684 -0.6760
 7760SOL     OW34738   0.061   2.213   8.597  0.1196  0.2383  0.3285
 7760SOL    HW134739   0.148   2.199   8.558 -0.1230 -1.3671  0.3454
 7760SOL    HW234740   0.011   2.261   8.531  3.0745  1.6325 -0.8847
 7761SOL     OW34741   0.216   4.255   4.401  0.4187 -0.0043  0.5032
 7761SOL    HW134742   0.250   4.167   4.386 -0.2343 -0.0529 -0.7307
 7761SOL    HW234743   0.221   4.285   4.310  1.2967  2.3697  1.3260
 7762SOL     OW34744   4.527   2.940  12.855  0.7434 -0.2448  0.5089
 7762SOL    HW134745   4.599   2.882  12.880  0.8855  0.5613  1.9842
 7762SOL    HW234746   4.547   2.965  12.765  1.9045 -2.1121  0.2601
 7763SOL     OW34747   4.459   2.481  12.414  0.2947 -0.2925 -0.0911
 7763SOL    HW134748   4.433   2.389  12.407 -1.0212  0.1423 -0.9996
 7763SOL    HW234749   4.410   2.518  12.488 -0.1670 -0.6259 -0.2316
 7764SOL     OW34750   2.083   1.935  11.389 -0.6067 -0.2883  0.4914
 7764SOL    HW134751   2.054   1.852  11.351  2.0997 -0.7640 -0.5502
 7764SOL    HW234752   2.066   1.994  11.315 -0.3656  0.3924  0.9849
 7765SOL     OW34753   3.913   2.416   5.984 -0.4038 -0.2362 -0.3667
 7765SOL    HW134754   3.880   2.390   6.070  2.2581  1.3109  1.1161
 7765SOL    HW234755   4.001   2.381   5.999 -0.3535 -0.1958 -0.5700
 7766SOL     OW34756   2.703   2.542  14.305 -0.0865 -1.1397  0.1944
 7766SOL    HW134757   2.613   2.517  14.281  0.3018 -1.8486 -0.5132
 7766SOL    HW234758   2.712   2.484  14.381 -1.8820 -0.4474  0.9338
 7767SOL     OW34759   1.275   4.612   3.861  0.2227 -0.3275  0.0729
 7767SOL    HW134760   1.305   4.603   3.770  0.0673 -0.8988  0.0765
 7767SOL    HW234761   1.180   4.620   3.850  0.3879  0.3114 -0.9205
 7768SOL     OW34762   0.324   1.087   7.843 -0.4042  0.0961 -0.1159
 7768SOL    HW134763   0.362   1.169   7.811 -1.6757  0.5465 -0.4532
 7768SOL    HW234764   0.395   1.029   7.815 -0.3451 -1.1419  2.5602
 7769SOL     OW34765   1.935   4.691   0.958  0.0179  1.0648 -0.0450
 7769SOL    HW134766   1.878   4.654   1.026  0.7917 -0.0697 -0.0107
 7769SOL    HW234767   2.001   0.017   1.009 -1.6582  2.6088  0.6993
 7770SOL     OW34768   3.672   2.295   5.868  0.2976 -0.4241 -0.4597
 7770SOL    HW134769   3.682   2.203   5.895  0.1304 -0.6885 -1.2947
 7770SOL    HW234770   3.763   2.325   5.863  0.3789 -0.5609  0.2437
 7771SOL     OW34771   2.927   1.276   4.597 -0.3128  0.8661 -0.5412
 7771SOL    HW134772   2.858   1.336   4.626  0.6673  3.1107 -2.8608
 7771SOL    HW234773   2.910   1.214   4.668 -0.1668  0.8595 -0.5116
 7772SOL     OW34774   0.301   3.454   4.308  0.2172  0.7432 -0.0581
 7772SOL    HW134775   0.299   3.514   4.383  0.1119 -0.3866  0.8370
 7772SOL    HW234776   0.346   3.506   4.242 -0.1725 -0.4307 -1.2378
 7773SOL     OW34777   0.458   3.051   8.378 -0.2875 -0.1223 -0.7540
 7773SOL    HW134778   0.476   2.980   8.439  0.8253  1.5100  0.8372
 7773SOL    HW234779   0.540   3.099   8.369 -0.7201  0.7055 -0.3076
 7774SOL     OW34780   1.274   3.032   7.960 -0.0511  0.2218 -0.0319
 7774SOL    HW134781   1.190   2.986   7.953 -1.2920  2.2808  1.1298
 7774SOL    HW234782   1.319   2.987   8.032  0.2083  0.1578 -0.2347
 7775SOL     OW34783   0.826   0.449   3.210  0.0952 -0.0781 -0.0411
 7775SOL    HW134784   0.765   0.498   3.155 -2.9033 -1.5511  1.9968
 7775SOL    HW234785   0.892   0.516   3.226  0.3509 -0.1765 -0.6886
 7776SOL     OW34786   1.545   2.183   1.199  0.5474 -0.3994  0.8702
 7776SOL    HW134787   1.551   2.144   1.286 -0.1566 -1.8369  0.2767
 7776SOL    HW234788   1.493   2.115   1.155  1.2625 -0.6195  0.3660
 7777SOL     OW34789   0.272   2.260   8.395  0.1248 -0.1711  0.0709
 7777SOL    HW134790   0.217   2.209   8.336 -1.6977  2.6563 -0.6680
 7777SOL    HW234791   0.354   2.210   8.397  0.9796  1.1512 -1.1241
 7778SOL     OW34792   1.191   1.355  16.846 -0.1178 -0.7738 -0.3705
 7778SOL    HW134793   1.121   1.300  16.881  1.1958 -1.2908  1.4239
 7778SOL    HW234794   1.264   1.321  16.897 -0.2253  0.2169  0.4501
 7779SOL     OW34795   3.754   4.275   8.464  0.8049  0.6832 -0.0196
 7779SOL    HW134796   3.752   4.224   8.383 -2.0205 -0.4329  0.7664
 7779SOL    HW234797   3.765   4.209   8.533 -0.3872 -0.7394 -1.2027
 7780SOL     OW34798   3.326   1.861  15.588  0.5299 -0.1508  0.2761
 7780SOL    HW134799   3.346   1.931  15.650  0.1861  0.9351 -0.8497
 7780SOL    HW234800   3.233   1.846  15.608 -0.1436  2.0879 -1.2382
 7781SOL     OW34801   1.422   2.633   8.389 -0.0001  0.0879 -0.3321
 7781SOL    HW134802   1.378   2.620   8.305  1.0339 -0.8983 -0.7119
 7781SOL    HW234803   1.355   2.589   8.442  1.2319  0.2748  1.3698
 7782SOL     OW34804   1.916   1.731  11.586 -0.1874 -0.2191  0.6036
 7782SOL    HW134805   1.869   1.813  11.600 -0.2965 -0.5242  1.9975
 7782SOL    HW234806   1.933   1.704  11.676 -2.3146 -0.8213  0.8171
 7783SOL     OW34807   2.179   2.666   3.665 -0.2947  0.2601 -0.1125
 7783SOL    HW134808   2.183   2.667   3.761 -0.9464 -2.4221 -0.0384
 7783SOL    HW234809   2.087   2.655   3.643 -0.2342 -0.8655  0.1638
 7784SOL     OW34810   0.433   3.630   0.757 -0.1801 -0.2291  0.4436
 7784SOL    HW134811   0.503   3.686   0.723 -0.5684  0.0458  0.0879
 7784SOL    HW234812   0.485   3.550   0.763 -2.0641 -1.6555 -2.3465
 7785SOL     OW34813   2.042   2.962   0.096  0.3089 -0.6183 -0.0357
 7785SOL    HW134814   1.993   2.892   0.139 -0.1744  0.0317  0.4774
 7785SOL    HW234815   2.116   2.907   0.071  1.3841  1.2217 -0.9213
 7786SOL     OW34816   1.394   2.336   7.048 -0.4905 -0.1182 -0.1602
 7786SOL    HW134817   1.484   2.307   7.029 -0.3588  0.1381  0.0738
 7786SOL    HW234818   1.410   2.408   7.109  0.4075 -1.9296  1.7786
 7787SOL     OW34819   2.730   0.621   9.739 -0.0801  0.5156  0.4067
 7787SOL    HW134820   2.702   0.530   9.726  2.2872  0.2365 -2.7398
 7787SOL    HW234821   2.815   0.622   9.696 -0.6418  1.3371 -0.6757
 7788SOL     OW34822   3.108   4.248   0.424 -0.6375 -0.3800 -0.1872
 7788SOL    HW134823   3.112   4.323   0.364  0.2487 -0.5702 -0.3603
 7788SOL    HW234824   3.153   4.284   0.500 -2.6861  2.9762 -0.5571
 7789SOL     OW34825   3.264   1.013   8.012  0.0917  0.2195  0.2596
 7789SOL    HW134826   3.280   0.926   8.047 -0.1015  0.3984  0.8055
 7789SOL    HW234827   3.278   1.066   8.091 -3.3130  0.0104  1.0041
 7790SOL     OW34828   1.697   3.660   2.924  0.3563  0.1401 -0.3433
 7790SOL    HW134829   1.606   3.654   2.954  1.0496  1.0909  1.9925
 7790SOL    HW234830   1.750   3.659   3.004  0.8811  0.0638 -0.6873
 7791SOL     OW34831   3.583   1.766  16.107 -0.2922 -0.0582 -0.3212
 7791SOL    HW134832   3.583   1.854  16.069 -0.0370 -0.3381 -0.9601
 7791SOL    HW234833   3.659   1.719  16.072 -0.8394  0.2779 -1.9186
 7792SOL     OW34834   0.951   2.429   0.601 -0.1716 -0.7133 -0.1338
 7792SOL    HW134835   0.983   2.376   0.528 -0.5882 -1.9392  0.5788
 7792SOL    HW234836   0.860   2.400   0.608  0.2957 -2.6147 -1.9032
 7793SOL     OW34837   3.853   1.745   9.643  0.2360  0.7164 -0.2745
 7793SOL    HW134838   3.764   1.763   9.673  1.1497  2.2919  1.4629
 7793SOL    HW234839   3.834   1.666   9.593  0.5015  0.1271  0.5656
 7794SOL     OW34840   0.426   0.353  13.566 -0.1336  0.3175  0.0448
 7794SOL    HW134841   0.418   0.403  13.647  0.8009 -1.0770  0.9935
 7794SOL    HW234842   0.367   0.285  13.597  0.9622 -0.7247 -0.1643
 7795SOL     OW34843   1.482   3.965  14.215 -0.6730  0.3141  0.6161
 7795SOL    HW134844   1.426   3.905  14.266 -2.2846  0.6255 -0.8052
 7795SOL    HW234845   1.512   4.014  14.292  0.0836 -1.8629  1.7331
 7796SOL     OW34846   2.991   4.260   7.412 -0.1549 -0.2836 -0.1031
 7796SOL    HW134847   2.914   4.309   7.441 -0.0577  0.3959 -1.0211
 7796SOL    HW234848   2.953   4.185   7.366 -0.8019 -0.4313  0.6610
 7797SOL     OW34849   3.459   1.573  16.404 -0.0971 -0.0269 -0.0189
 7797SOL    HW134850   3.454   1.485  16.368  0.1808 -0.6158  1.3945
 7797SOL    HW234851   3.419   1.624  16.333  0.3792 -0.7228 -0.7899
 7798SOL     OW34852   0.603   1.246   2.529  0.8537 -0.2254 -0.5141
 7798SOL    HW134853   0.547   1.201   2.466  0.4488  0.5176 -0.6806
 7798SOL    HW234854   0.669   1.177   2.538 -0.0809 -1.1772 -1.0018
 7799SOL     OW34855   3.580   1.420   5.193  0.4296 -0.1137 -0.2135
 7799SOL    HW134856   3.577   1.468   5.111 -0.9293  0.8518  0.4006
 7799SOL    HW234857   3.569   1.493   5.254  0.2241 -0.3418  0.0214
 7800SOL     OW34858   1.131   0.518  10.313  0.0673  0.2144  0.5196
 7800SOL    HW134859   1.171   0.603  10.332 -0.5190  0.7869 -0.7843
 7800SOL    HW234860   1.040   0.535  10.336 -0.4907 -1.5134 -0.3990
 7801SOL     OW34861   2.308   4.241   3.455  0.3039  0.3372  0.5595
 7801SOL    HW134862   2.287   4.221   3.546  0.8046  2.7562  1.1976
 7801SOL    HW234863   2.230   4.291   3.429 -0.2404 -0.8951 -0.1823
 7802SOL     OW34864   3.517   3.979  11.756 -0.1699  0.1833 -0.0637
 7802SOL    HW134865   3.539   3.898  11.800 -1.8585 -1.3715 -2.0951
 7802SOL    HW234866   3.544   3.950  11.669 -0.6538 -0.7178  0.0943
 7803SOL     OW34867   0.552   3.211   8.133  0.0554  0.1191 -0.1572
 7803SOL    HW134868   0.501   3.133   8.114  1.7937 -1.2005  0.5032
 7803SOL    HW234869   0.488   3.280   8.119 -0.3051  0.1798  1.7480
 7804SOL     OW34870   0.966   2.139   8.244 -0.2436 -0.4071 -0.6736
 7804SOL    HW134871   1.052   2.129   8.285 -1.4021 -0.6565  1.6919
 7804SOL    HW234872   0.983   2.216   8.189  1.2923 -1.7737 -2.0992
 7805SOL     OW34873   1.921   0.563   6.154  0.1813 -0.5560  0.4551
 7805SOL    HW134874   1.939   0.657   6.157 -0.8802 -0.3907  1.7476
 7805SOL    HW234875   1.931   0.544   6.247 -0.3895  0.9457  0.8374
 7806SOL     OW34876   3.827   3.157   1.519  0.1850  0.2953  1.0151
 7806SOL    HW134877   3.874   3.110   1.449 -0.9534  0.1830  0.3185
 7806SOL    HW234878   3.783   3.223   1.466  0.2719 -2.1505 -2.1536
 7807SOL     OW34879   2.070   1.354   0.804  0.1910 -0.8868 -0.7176
 7807SOL    HW134880   2.153   1.350   0.756  0.6252  1.0037 -0.1156
 7807SOL    HW234881   2.010   1.335   0.732  0.2312  0.2636 -1.0541
 7808SOL     OW34882   0.674   2.968   7.131  0.1072 -0.0205 -0.1703
 7808SOL    HW134883   0.584   2.991   7.107 -0.2590 -1.7486 -0.4576
 7808SOL    HW234884   0.665   2.932   7.219  2.1024 -2.1173 -0.8300
 7809SOL     OW34885   1.732   3.034   5.124  0.2810  0.3318 -0.3192
 7809SOL    HW134886   1.793   3.092   5.077  0.1827  0.6444 -0.0676
 7809SOL    HW234887   1.730   2.964   5.059 -2.8250  0.2634 -0.1467
 7810SOL     OW34888   0.387   0.827  13.553 -0.3403  0.3045 -0.0622
 7810SOL    HW134889   0.309   0.854  13.505 -0.0545 -2.0302 -1.8202
 7810SOL    HW234890   0.372   0.744  13.598 -1.1344  1.5196  1.9476
 7811SOL     OW34891   3.273   3.330   7.442  0.0531  0.0278  0.2575
 7811SOL    HW134892   3.256   3.366   7.529  0.5381  1.2025 -0.1273
 7811SOL    HW234893   3.367   3.316   7.453  0.1044  0.3870  0.2833
 7812SOL     OW34894   2.691   2.961   8.758 -0.1608  0.0049 -0.0885
 7812SOL    HW134895   2.713   2.940   8.849 -1.5424  2.2583  0.7623
 7812SOL    HW234896   2.744   2.896   8.712 -0.4971 -0.9956  0.9423
 7813SOL     OW34897   2.010   2.541   4.163 -0.3472 -0.7383 -0.1454
 7813SOL    HW134898   1.999   2.465   4.105  2.0415 -0.8756 -0.3999
 7813SOL    HW234899   1.918   2.563   4.174 -0.0721  0.2670  0.0667
 7814SOL     OW34900   1.674   2.410  17.458 -0.1823  0.4363  0.5637
 7814SOL    HW134901   1.632   2.427  17.374 -0.1433 -0.3180  0.3898
 7814SOL    HW234902   1.598   2.422  17.516 -1.4358  2.2193 -1.4467
 7815SOL     OW34903   0.732   2.584  15.014 -0.3448 -0.2026 -0.2952
 7815SOL    HW134904   0.768   2.499  15.039  0.5029  0.3981  0.4866
 7815SOL    HW234905   0.801   2.648  15.030  0.3249 -1.0829  0.3480
 7816SOL     OW34906   0.614   3.843   2.000  0.5934  1.0649 -0.3195
 7816SOL    HW134907   0.650   3.875   1.917  0.8255  1.0313 -0.2318
 7816SOL    HW234908   0.553   3.785   1.955  0.7067  1.4110 -0.9134
 7817SOL     OW34909   2.999   1.312   6.949  0.6178 -0.0807 -0.2307
 7817SOL    HW134910   3.054   1.355   7.015 -1.3260 -0.0350  1.3669
 7817SOL    HW234911   3.024   1.220   6.956 -1.9962 -0.9768 -2.7127
 7818SOL     OW34912   2.536   1.927   8.712  0.3374  0.1508  0.3559
 7818SOL    HW134913   2.523   1.966   8.625 -1.7984  2.1222  1.5817
 7818SOL    HW234914   2.566   2.003   8.762  1.6290  0.9207 -1.5779
 7819SOL     OW34915   2.786   0.538  10.429  0.2695  0.0759 -0.1019
 7819SOL    HW134916   2.837   0.528  10.348  0.4044  0.4319 -0.0599
 7819SOL    HW234917   2.706   0.553  10.379 -0.1499  0.3512  0.6608
 7820SOL     OW34918   1.896   0.855   4.214  0.3466  0.4736  0.3682
 7820SOL    HW134919   1.832   0.902   4.268  1.5040  2.3583  0.1025
 7820SOL    HW234920   1.841   0.792   4.169 -0.0860 -0.2022  1.8443
 7821SOL     OW34921   3.185   3.981   8.344 -0.0192 -0.4713  0.1297
 7821SOL    HW134922   3.271   4.008   8.377  0.4096 -1.2663 -0.3454
 7821SOL    HW234923   3.198   3.887   8.337 -2.6988 -0.6688 -2.2015
 7822SOL     OW34924   1.053   4.356   6.985  0.4683  0.3602  0.2992
 7822SOL    HW134925   0.979   4.392   7.035  0.2862  0.1762  0.1618
 7822SOL    HW234926   1.040   4.380   6.893 -2.2215  0.6541  0.7515
 7823SOL     OW34927   2.103   0.931   4.037 -0.3340 -0.5087  0.3899
 7823SOL    HW134928   2.111   1.022   4.008 -0.5118 -1.0696 -1.4528
 7823SOL    HW234929   2.022   0.926   4.087 -1.9777 -0.3655 -2.2575
 7824SOL     OW34930   2.575   4.132   9.170 -0.2952 -0.2203 -0.0159
 7824SOL    HW134931   2.653   4.184   9.188  0.9811 -2.5331  1.1277
 7824SOL    HW234932   2.574   4.129   9.074 -2.5889 -2.3143  0.0632
 7825SOL     OW34933   4.072   1.077   1.359  0.0120  0.0447  0.3210
 7825SOL    HW134934   3.982   1.046   1.353  1.1413 -3.3394  0.9385
 7825SOL    HW234935   4.106   1.012   1.420  0.1630  0.7072  0.9441
 7826SOL     OW34936   1.970   2.782   6.392 -0.4930 -0.0112  0.4259
 7826SOL    HW134937   2.052   2.739   6.416  1.1984  1.7238 -2.3335
 7826SOL    HW234938   1.966   2.748   6.303  1.7552  1.4501 -0.2315
 7827SOL     OW34939   2.694   1.414  10.603  0.5685  0.5905  0.2420
 7827SOL    HW134940   2.638   1.340  10.582 -0.0248  1.1129 -0.0333
 7827SOL    HW234941   2.666   1.478  10.537 -0.2330 -0.7291 -0.6929
 7828SOL     OW34942   0.993   2.700   8.203  0.1325  0.3852 -0.6089
 7828SOL    HW134943   1.065   2.675   8.260 -2.3017 -2.1416  1.3455
 7828SOL    HW234944   0.925   2.638   8.227  1.4589 -0.9005 -0.2379
 7829SOL     OW34945   0.630   3.957   0.957  0.4231 -0.1883 -0.1549
 7829SOL    HW134946   0.710   3.991   0.997  0.0951 -0.8616  1.0660
 7829SOL    HW234947   0.662   3.901   0.885  1.1478  1.5382 -1.1650
 7830SOL     OW34948   3.819   3.668  16.268  0.2037  0.3894 -0.4617
 7830SOL    HW134949   3.856   3.756  16.267 -0.9266  0.8768  1.3905
 7830SOL    HW234950   3.864   3.641  16.347 -0.6052 -0.3622 -0.2595
 7831SOL     OW34951   1.365   1.232   4.757 -0.2354  0.1083 -0.1632
 7831SOL    HW134952   1.348   1.324   4.775  0.5468  0.3949 -0.8753
 7831SOL    HW234953   1.446   1.235   4.706  1.5492 -2.5544  2.5006
 7832SOL     OW34954   4.383   1.918   7.052  0.3821 -0.0435 -0.0404
 7832SOL    HW134955   4.353   1.864   6.978  0.3492 -1.4718  0.9972
 7832SOL    HW234956   4.300   1.941   7.095 -0.4874 -3.2841  0.0289
 7833SOL     OW34957   1.659   4.351   6.343 -0.0653 -0.1247  0.3718
 7833SOL    HW134958   1.713   4.383   6.271 -0.8008  0.3090  0.0088
 7833SOL    HW234959   1.646   4.424   6.404 -0.0375 -0.1767  0.4399
 7834SOL     OW34960   3.167   3.222   8.009  0.0471 -0.3224 -0.4263
 7834SOL    HW134961   3.250   3.216   8.055 -0.7487  1.8377  1.3014
 7834SOL    HW234962   3.150   3.316   8.012  1.4545 -0.1121  0.5704
 7835SOL     OW34963   0.168   0.809   7.626  0.0475 -0.0481  0.2738
 7835SOL    HW134964   0.087   0.808   7.677 -0.2383 -0.7375 -0.1775
 7835SOL    HW234965   0.138   0.758   7.550 -1.0606 -0.2712  0.8684
 7836SOL     OW34966   0.789   1.746   7.368  0.0223 -0.4574  0.0337
 7836SOL    HW134967   0.845   1.814   7.406 -1.0075 -0.5931  1.8054
 7836SOL    HW234968   0.819   1.669   7.417 -3.0327 -1.3580  0.4413
 7837SOL     OW34969   2.994   0.355   2.207 -0.1905  0.2290 -0.2173
 7837SOL    HW134970   3.061   0.288   2.221  0.1403  0.8511  1.2088
 7837SOL    HW234971   3.054   0.413   2.159  1.4968  0.1123  1.7201
 7838SOL     OW34972   3.170   4.588   9.814  0.3729 -0.6926 -0.0343
 7838SOL    HW134973   3.246   4.536   9.842  1.5478  1.3998  0.6185
 7838SOL    HW234974   3.106   4.552   9.876 -0.4403 -1.6294 -1.4335
 7839SOL     OW34975   3.204   4.440   3.281 -0.0914 -0.1487  0.5783
 7839SOL    HW134976   3.222   4.447   3.187 -0.5236  0.2817  0.5290
 7839SOL    HW234977   3.256   4.516   3.308 -1.5455  0.0780  2.6742
 7840SOL     OW34978   0.732   0.788   5.308 -0.6387 -0.1036  0.9968
 7840SOL    HW134979   0.743   0.802   5.402  1.0481 -1.6295  1.0166
 7840SOL    HW234980   0.824   0.770   5.288 -0.8261 -0.9568  0.9189
 7841SOL     OW34981   2.440   1.197   4.256 -0.4679 -0.2778 -0.1264
 7841SOL    HW134982   2.382   1.271   4.237  0.6636  1.0447  1.6270
 7841SOL    HW234983   2.397   1.161   4.334  0.2330 -3.1264 -1.0260
 7842SOL     OW34984   4.290   0.505  15.672 -0.2845 -0.1493  0.3585
 7842SOL    HW134985   4.297   0.565  15.746 -0.2397  0.0270  0.2103
 7842SOL    HW234986   4.381   0.493  15.647 -0.6906 -1.7925 -0.3666
 7843SOL     OW34987   4.378   2.182   5.662  0.1012 -0.1156  1.0035
 7843SOL    HW134988   4.434   2.211   5.589  0.0944  1.6128  1.6838
 7843SOL    HW234989   4.356   2.267   5.701  1.8385  0.0160  1.6891
 7844SOL     OW34990   1.774   2.196   5.329 -0.4372 -0.4169  0.0014
 7844SOL    HW134991   1.800   2.150   5.409 -3.1050 -0.5569  0.7983
 7844SOL    HW234992   1.851   2.250   5.311 -0.6452 -0.6356 -1.5793
 7845SOL     OW34993   4.434   1.867   2.497 -0.2592 -0.2341  0.5681
 7845SOL    HW134994   4.505   1.913   2.452 -0.6069  0.7749  1.0568
 7845SOL    HW234995   4.414   1.795   2.437 -0.1490  1.0786 -1.0250
 7846SOL     OW34996   1.341   4.623   8.523 -0.6701  0.8102 -0.0594
 7846SOL    HW134997   1.286   4.569   8.580  1.3405 -0.9781  0.1524
 7846SOL    HW234998   1.273   4.646   8.459  0.8245 -0.3155 -2.0565
 7847SOL     OW34999   3.300   2.858   9.436 -0.5322  0.6091 -0.5046
 7847SOL    HW135000   3.354   2.916   9.490 -0.3154  0.2805 -0.3740
 7847SOL    HW235001   3.331   2.878   9.348 -1.4552  0.9091 -0.7716
 7848SOL     OW35002   3.523   1.873   5.896  0.2066 -0.2466  0.1570
 7848SOL    HW135003   3.491   1.901   5.810 -1.0004 -2.8260 -0.2563
 7848SOL    HW235004   3.611   1.840   5.879  0.0920 -0.4095 -0.1371
 7849SOL     OW35005   4.093   2.084   7.849  0.1504  0.2983  0.0526
 7849SOL    HW135006   4.118   2.164   7.895 -1.3955  1.3681 -0.9554
 7849SOL    HW235007   4.017   2.055   7.899 -0.1873 -0.5139 -0.9375
 7850SOL     OW35008   0.536   1.835   3.503 -0.5431  0.4268 -0.0946
 7850SOL    HW135009   0.483   1.835   3.424 -0.6832  0.6584  0.0002
 7850SOL    HW235010   0.533   1.928   3.527 -1.5708  0.3299  0.1260
 7851SOL     OW35011   4.042   1.520   6.683  0.1991 -0.4751  0.1187
 7851SOL    HW135012   4.026   1.426   6.697  0.1732 -0.3737  0.7349
 7851SOL    HW235013   3.962   1.555   6.723  0.6720 -0.5661  1.1247
 7852SOL     OW35014   2.492   1.847   1.217 -0.0750  0.3415  0.3827
 7852SOL    HW135015   2.440   1.779   1.176 -1.9816  0.1504  3.1257
 7852SOL    HW235016   2.565   1.795   1.251 -0.5558  0.7297  2.0478
 7853SOL     OW35017   1.196   3.041   5.780  0.4580  0.1900  0.6417
 7853SOL    HW135018   1.203   3.009   5.869 -1.5841 -1.5280  0.2000
 7853SOL    HW235019   1.169   3.131   5.799 -1.0045  0.0935 -0.9564
 7854SOL     OW35020   3.223   2.627   9.580 -0.3416  0.1314  0.5356
 7854SOL    HW135021   3.266   2.680   9.512  2.4532 -0.7532  1.5893
 7854SOL    HW235022   3.283   2.644   9.653  0.4650 -1.2955  0.2160
 7855SOL     OW35023   4.669   3.762   4.098 -0.4611  0.0616  0.2348
 7855SOL    HW135024   0.036   3.729   4.115 -0.6368 -0.8857 -0.7128
 7855SOL    HW235025   4.623   3.692   4.052  0.4329  0.1046 -0.7292
 7856SOL     OW35026   1.535   4.101   0.810  0.1782 -1.0785  0.5333
 7856SOL    HW135027   1.514   4.190   0.781  0.4935 -0.5340  2.0098
 7856SOL    HW235028   1.612   4.076   0.759  1.4818  0.2175  1.8675
 7857SOL     OW35029   0.206   3.085   3.874  0.4106 -0.0339 -0.3860
 7857SOL    HW135030   0.298   3.105   3.856  0.2677  1.1304  0.1437
 7857SOL    HW235031   0.217   3.053   3.964 -3.8558  0.3317  0.2862
 7858SOL     OW35032   0.579   0.807   9.992  0.2738 -0.6384  0.2935
 7858SOL    HW135033   0.598   0.814  10.086  0.6954 -1.6720  0.2736
 7858SOL    HW235034   0.486   0.782   9.987  0.5356 -1.0408 -2.4981
 7859SOL     OW35035   0.876   0.023   7.105  0.3203  0.1978  0.2859
 7859SOL    HW135036   0.810   4.695   7.155 -0.9667  0.8264 -0.7946
 7859SOL    HW235037   0.960   0.019   7.150  0.4696 -2.3852 -0.1813
 7860SOL     OW35038   0.862   1.263   4.307 -0.5404  0.3047 -0.0821
 7860SOL    HW135039   0.894   1.246   4.218 -0.3977  0.1768 -0.0055
 7860SOL    HW235040   0.799   1.335   4.300  0.6929  1.3441 -0.6902
 7861SOL     OW35041   3.415   4.106  15.844  0.1477 -0.6382  0.4349
 7861SOL    HW135042   3.398   4.011  15.848  1.6015 -0.9119  0.3506
 7861SOL    HW235043   3.505   4.103  15.879 -0.0015  2.2158  0.9982
 7862SOL     OW35044   0.496   3.633   2.270 -0.4721 -0.4851 -0.3170
 7862SOL    HW135045   0.443   3.587   2.205  0.4390  0.3750 -1.6620
 7862SOL    HW235046   0.548   3.561   2.305 -0.8889  0.0580  1.4073
 7863SOL     OW35047   3.878   0.111  13.761  0.2170  0.0816 -0.0688
 7863SOL    HW135048   3.875   0.138  13.853 -0.1630  1.4394 -0.4782
 7863SOL    HW235049   3.929   0.030  13.766 -0.5720 -0.5188 -1.9318
 7864SOL     OW35050   3.231   2.176  16.816  0.0407 -0.6956 -0.3118
 7864SOL    HW135051   3.209   2.209  16.903 -1.3852  1.3302 -1.4418
 7864SOL    HW235052   3.326   2.178  16.823  0.0048 -0.0219 -0.0006
 7865SOL     OW35053   1.027   0.532   6.652  0.2627  0.4445 -0.1004
 7865SOL    HW135054   1.102   0.579   6.613 -0.1455  1.9233  0.8877
 7865SOL    HW235055   0.963   0.595   6.620  0.7224  0.8147 -0.3093
 7866SOL     OW35056   4.160   0.623   7.306  0.0911  0.7573 -0.0256
 7866SOL    HW135057   4.175   0.603   7.399  0.4008 -0.9904 -0.4648
 7866SOL    HW235058   4.064   0.621   7.310  0.1472  0.1374  0.9975
 7867SOL     OW35059   4.375   1.554  16.396 -0.4952  0.1948 -0.4698
 7867SOL    HW135060   4.320   1.596  16.463  1.7779  1.7677  0.4252
 7867SOL    HW235061   4.465   1.571  16.422 -0.5629 -0.0368 -0.0839
 7868SOL     OW35062   0.177   0.073  11.309 -0.0749  0.8115  0.2231
 7868SOL    HW135063   0.092   0.028  11.305  0.1227  0.5572 -1.5223
 7868SOL    HW235064   0.173   0.109  11.220  1.3920 -1.3559 -0.7291
 7869SOL     OW35065   2.860   3.848   7.459 -0.0087  0.1383  1.0473
 7869SOL    HW135066   2.789   3.836   7.396  1.6923  2.5145 -1.3442
 7869SOL    HW235067   2.875   3.942   7.450 -0.8180  0.1308 -0.3512
 7870SOL     OW35068   0.349   3.488   6.994 -0.0848 -0.1144  0.4780
 7870SOL    HW135069   0.391   3.444   6.920 -1.1411  1.7383 -1.2350
 7870SOL    HW235070   0.274   3.431   7.013  1.6040 -3.4589 -2.8515
 7871SOL     OW35071   3.440   3.163   8.187 -0.7308 -0.2967 -0.0543
 7871SOL    HW135072   3.508   3.180   8.122 -0.4140  0.2323  0.4126
 7871SOL    HW235073   3.448   3.241   8.242 -0.4618  1.0301 -1.9553
 7872SOL     OW35074   1.482   3.552   4.403 -0.2873  0.1330 -0.2247
 7872SOL    HW135075   1.422   3.548   4.478  1.1851  2.2694  1.0519
 7872SOL    HW235076   1.530   3.633   4.422 -1.7237  0.9138  0.0616
 7873SOL     OW35077   3.512   4.701   3.834 -0.1005 -0.1865  0.1806
 7873SOL    HW135078   3.427   4.705   3.878 -0.3197  1.3844 -0.3713
 7873SOL    HW235079   3.543   4.615   3.861  1.1135  0.0470 -0.4447
 7874SOL     OW35080   0.968   0.899  12.670  0.5613  0.2173  0.6532
 7874SOL    HW135081   0.916   0.925  12.746 -1.8013 -0.1147 -0.8505
 7874SOL    HW235082   1.056   0.885  12.706  1.4896  2.2049 -0.8164
 7875SOL     OW35083   4.262   3.285   1.848  0.5139 -0.0078  0.3200
 7875SOL    HW135084   4.325   3.214   1.862 -0.7146 -0.8860  1.3869
 7875SOL    HW235085   4.250   3.300   1.755 -1.2624 -2.5398  0.1556
 7876SOL     OW35086   4.627   3.595   7.113  0.0571  0.3219  0.2970
 7876SOL    HW135087   4.664   3.511   7.142  0.6015 -0.1854 -1.8803
 7876SOL    HW235088   4.669   3.656   7.174 -0.2803 -1.4385  2.2980
 7877SOL     OW35089   0.815   0.395   3.543 -0.3772 -0.0433 -0.8334
 7877SOL    HW135090   0.859   0.466   3.590 -0.3188  0.4093 -1.5498
 7877SOL    HW235091   0.846   0.422   3.456 -0.9313  2.0229 -0.3981
 7878SOL     OW35092   3.860   3.370   4.067 -0.0028  0.3785 -0.6510
 7878SOL    HW135093   3.841   3.282   4.098 -0.9345  1.2954  1.3760
 7878SOL    HW235094   3.949   3.382   4.099 -0.4368 -0.1342  0.7396
 7879SOL     OW35095   2.302   0.531  13.241  0.1267  0.1111  0.4598
 7879SOL    HW135096   2.332   0.441  13.248  1.7000  0.5806 -0.3240
 7879SOL    HW235097   2.245   0.513  13.166 -0.7811  1.3650  0.8392
 7880SOL     OW35098   2.568   3.493   4.666  0.0757  0.2951  0.3293
 7880SOL    HW135099   2.554   3.415   4.720 -0.2694 -0.0929 -0.3205
 7880SOL    HW235100   2.626   3.540   4.726 -0.0288  1.8333 -0.7643
 7881SOL     OW35101   1.099   3.271  14.883 -0.0759 -0.4650  0.3570
 7881SOL    HW135102   1.171   3.300  14.939 -0.4814 -0.4719  0.8756
 7881SOL    HW235103   1.152   3.217  14.824 -0.2316  0.3475 -0.5299
 7882SOL     OW35104   0.384   3.769   5.598 -0.1170 -0.3053 -0.5790
 7882SOL    HW135105   0.323   3.750   5.527  0.3006 -1.9140 -0.5099
 7882SOL    HW235106   0.446   3.696   5.596  0.1339 -0.0771 -1.1070
 7883SOL     OW35107   4.300   3.603   6.101  0.1654 -0.1496 -0.2183
 7883SOL    HW135108   4.284   3.516   6.065  0.8108 -0.6635  0.7373
 7883SOL    HW235109   4.228   3.658   6.072 -1.0937 -1.3002  0.7052
 7884SOL     OW35110   4.450   4.627   1.402 -0.5480 -0.4038 -0.2780
 7884SOL    HW135111   4.518   4.560   1.390  1.2078  1.2025  0.6810
 7884SOL    HW235112   4.510   4.683   1.451  1.1473 -0.8970 -1.7933
 7885SOL     OW35113   4.436   1.379   2.250 -0.6356  0.7959  0.5635
 7885SOL    HW135114   4.460   1.374   2.157  1.3377  0.0610  1.1093
 7885SOL    HW235115   4.346   1.348   2.240  0.0117 -0.5571 -1.0410
 7886SOL     OW35116   3.527   0.112  12.709  0.1257 -0.6489 -0.1755
 7886SOL    HW135117   3.487   0.028  12.728  2.9149 -1.8623  0.4055
 7886SOL    HW235118   3.587   0.124  12.783 -2.1697 -1.2938  1.7719
 7887SOL     OW35119   0.655   3.152   8.562  0.0250 -0.2419 -0.1975
 7887SOL    HW135120   0.708   3.174   8.639  1.3918  2.1910 -1.8429
 7887SOL    HW235121   0.591   3.092   8.602  0.4024  0.3373  1.2806
 7888SOL     OW35122   3.342   3.836  12.815  0.5978 -0.0847 -0.4505
 7888SOL    HW135123   3.315   3.800  12.730 -0.6428  0.7100 -0.3932
 7888SOL    HW235124   3.261   3.839  12.866 -0.3703  0.2494 -2.0050
 7889SOL     OW35125   4.443   4.083   6.932  0.3912  0.0009  0.4401
 7889SOL    HW135126   4.516   4.072   6.993 -0.0259 -1.2165  0.7243
 7889SOL    HW235127   4.413   3.993   6.926  0.2467  0.0928 -0.1760
 7890SOL     OW35128   0.934   0.852  17.381 -0.4562 -0.2357 -0.5535
 7890SOL    HW135129   1.011   0.849  17.438  0.7685 -1.2886 -2.2569
 7890SOL    HW235130   0.873   0.895  17.440  1.5850 -0.5297  1.7407
 7891SOL     OW35131   0.263   2.844   4.618 -0.1841 -0.3810 -0.3687
 7891SOL    HW135132   0.308   2.917   4.575 -0.7117  0.2813  0.2051
 7891SOL    HW235133   0.319   2.832   4.695 -2.1678  3.3613  1.6404
 7892SOL     OW35134   0.125   4.267   7.250  0.4253  0.2610  0.2469
 7892SOL    HW135135   0.063   4.327   7.291 -0.4993 -1.2074  1.0012
 7892SOL    HW235136   0.199   4.319   7.220  0.8904 -1.5469 -1.7534
 7893SOL     OW35137   2.716   2.385  14.520  0.0225  0.0275 -0.0185
 7893SOL    HW135138   2.684   2.396  14.609 -2.3018 -3.3555 -0.4131
 7893SOL    HW235139   2.779   2.314  14.532 -1.6192 -1.0208  2.3448
 7894SOL     OW35140   0.090   0.702   4.420 -0.2786 -0.1006  0.2850
 7894SOL    HW135141   0.012   0.646   4.420 -0.4378  0.0800 -3.0842
 7894SOL    HW235142   0.153   0.640   4.384  2.1336  2.0090  0.9241
 7895SOL     OW35143   3.247   0.481   3.207 -0.2813 -0.0853 -0.5926
 7895SOL    HW135144   3.335   0.506   3.236 -0.4159  1.3912 -1.4701
 7895SOL    HW235145   3.185   0.550   3.230 -2.7283 -2.2274 -0.8288
 7896SOL     OW35146   0.467   4.699   7.853  0.5370  0.3582  0.1567
 7896SOL    HW135147   0.386   4.651   7.871  0.6977 -0.1141 -0.4190
 7896SOL    HW235148   0.485   0.007   7.943 -1.8073  1.2332  0.3624
 7897SOL     OW35149   2.698   2.116   7.119  0.0680  0.2417 -0.3878
 7897SOL    HW135150   2.637   2.190   7.120  1.1647  1.1713 -1.1696
 7897SOL    HW235151   2.784   2.156   7.138  0.6210 -0.1345 -2.1573
 7898SOL     OW35152   4.616   4.558   7.672 -0.3343  0.1237 -0.1171
 7898SOL    HW135153   4.541   4.562   7.612 -1.0164 -0.6240  0.6825
 7898SOL    HW235154   4.559   4.533   7.746 -0.2968  0.3031 -0.0291
 7899SOL     OW35155   3.870   3.349  13.838 -0.3780 -0.0410  0.6544
 7899SOL    HW135156   3.800   3.404  13.872  0.5938  1.4921  0.1603
 7899SOL    HW235157   3.940   3.366  13.902  0.9713 -0.9061 -0.5939
 7900SOL     OW35158   0.459   1.287   3.761  0.1630  0.3127  0.0602
 7900SOL    HW135159   0.525   1.263   3.697 -0.0675  3.0034 -1.1821
 7900SOL    HW235160   0.423   1.360   3.711 -0.1970  0.3434  0.3576
 7901SOL     OW35161   4.624   0.814   1.180  0.1268  0.1299 -0.5530
 7901SOL    HW135162   4.711   0.853   1.185 -0.9357  2.2536  1.1062
 7901SOL    HW235163   4.643   0.723   1.203 -0.2020 -0.1660 -1.4660
 7902SOL     OW35164   0.167   3.494  11.048  0.3711 -0.3293 -0.2770
 7902SOL    HW135165   0.078   3.465  11.069 -0.3115  0.5047 -1.9750
 7902SOL    HW235166   0.224   3.422  11.076  0.9273  0.8446  1.5431
 7903SOL     OW35167   1.928   0.944   5.381  0.2071 -0.1534 -0.1922
 7903SOL    HW135168   1.879   1.025   5.391  0.9074 -0.0240  2.1855
 7903SOL    HW235169   1.959   0.918   5.467  3.1656  1.5613 -0.7520
 7904SOL     OW35170   3.597   2.304   3.293 -0.1840  0.0816 -0.4824
 7904SOL    HW135171   3.663   2.237   3.274 -1.3679 -0.9273 -1.0627
 7904SOL    HW235172   3.646   2.348   3.362 -1.4474  2.9498 -1.4513
 7905SOL     OW35173   3.585   3.277   6.700  0.9311  0.4346  0.5056
 7905SOL    HW135174   3.620   3.328   6.772  0.8513  1.6936 -0.3480
 7905SOL    HW235175   3.565   3.351   6.643 -0.8641 -1.3113 -1.1414
 7906SOL     OW35176   2.571   0.458  13.811  0.0705 -0.2555  0.4257
 7906SOL    HW135177   2.482   0.455  13.848 -0.7921  0.4370 -1.6004
 7906SOL    HW235178   2.592   0.365  13.811 -2.3037 -0.7718 -0.5007
 7907SOL     OW35179   3.033   4.344   7.660 -0.0388 -0.2732  0.4838
 7907SOL    HW135180   3.042   4.311   7.570 -1.3531 -0.3576  0.3888
 7907SOL    HW235181   2.963   4.289   7.695  0.8566 -2.1277 -0.6356
 7908SOL     OW35182   3.588   0.134   5.053 -0.3285 -0.3354 -0.1068
 7908SOL    HW135183   3.561   0.215   5.009 -0.1649  0.0429  0.4935
 7908SOL    HW235184   3.513   0.120   5.110 -0.4857  0.0610 -0.2151
 7909SOL     OW35185   4.694   1.371   4.652 -0.5957 -0.1551  0.4240
 7909SOL    HW135186   4.672   1.415   4.570  0.6672 -0.2876  0.0130
 7909SOL    HW235187   0.011   1.290   4.617 -0.4738  0.0817  0.0070
 7910SOL     OW35188   0.800   4.311   2.268  0.5628 -0.2093 -1.1518
 7910SOL    HW135189   0.892   4.305   2.243  1.2209 -0.0735  1.2320
 7910SOL    HW235190   0.807   4.389   2.322  0.0662  0.5174 -2.1318
 7911SOL     OW35191   3.252   0.924   6.556 -0.3466  0.8387 -0.5009
 7911SOL    HW135192   3.300   0.958   6.632 -2.6492 -1.1322  1.8120
 7911SOL    HW235193   3.177   0.876   6.590 -0.1427  0.6445 -0.3161
 7912SOL     OW35194   3.221   4.452   2.989 -0.5878 -0.0046 -0.4801
 7912SOL    HW135195   3.221   4.548   2.995  3.4570 -0.2020  2.2676
 7912SOL    HW235196   3.296   4.432   2.934 -0.8526 -0.6120 -0.6205
 7913SOL     OW35197   0.462   0.916   8.300  0.2793  0.1466  0.2961
 7913SOL    HW135198   0.404   0.844   8.323  2.0384 -2.1242 -2.3978
 7913SOL    HW235199   0.398   0.986   8.312 -0.4082 -0.4690  0.1978
 7914SOL     OW35200   3.960   3.837   9.887  0.0417  0.1640  0.2837
 7914SOL    HW135201   3.971   3.745   9.907  0.2847  0.7125  2.6858
 7914SOL    HW235202   3.865   3.846   9.893 -0.0449 -0.5980  0.0234
 7915SOL     OW35203   2.194   1.949  10.769  0.1456  0.4528  0.1753
 7915SOL    HW135204   2.266   1.979  10.713  0.6922  1.9883  1.6962
 7915SOL    HW235205   2.208   1.855  10.758 -1.6612 -0.0701  2.3867
 7916SOL     OW35206   3.257   0.092   4.883 -0.1201 -0.4237  0.1680
 7916SOL    HW135207   3.248   0.003   4.915  3.2506  0.0957  2.5644
 7916SOL    HW235208   3.352   0.102   4.873 -0.0404 -0.5434  0.7971
 7917SOL     OW35209   0.695   2.560  12.366 -0.1261  0.5524 -0.1545
 7917SOL    HW135210   0.786   2.563  12.396  0.4827  2.1892 -2.1438
 7917SOL    HW235211   0.723   2.586  12.278  2.6553 -1.1131  0.2353
 7918SOL     OW35212   3.472   3.834  15.894  0.0068 -0.3552  0.5765
 7918SOL    HW135213   3.493   3.770  15.961  1.6599  0.2233  0.6128
 7918SOL    HW235214   3.555   3.882  15.904 -0.1202  0.3875 -1.8133
 7919SOL     OW35215   0.824   1.054   3.156  0.1889  0.6629 -0.5384
 7919SOL    HW135216   0.763   1.075   3.227  0.4513  0.3805 -0.2287
 7919SOL    HW235217   0.755   1.061   3.091  1.5257  2.4093 -1.7705
 7920SOL     OW35218   2.149   0.078   2.882  0.4416  0.2349 -0.1014
 7920SOL    HW135219   2.165   0.001   2.828  1.1960 -1.4037  2.4977
 7920SOL    HW235220   2.180   0.055   2.969 -1.8901 -1.8541  0.1829
 7921SOL     OW35221   4.472   0.876   6.890 -0.4645 -0.0648  0.1537
 7921SOL    HW135222   4.473   0.971   6.898  1.8588  0.0716 -1.7096
 7921SOL    HW235223   4.561   0.866   6.858 -0.9768 -0.4275 -1.1750
 7922SOL     OW35224   2.337   0.862   6.544  0.1407 -0.1017  0.0892
 7922SOL    HW135225   2.325   0.802   6.618  0.1708 -0.5745 -0.2902
 7922SOL    HW235226   2.280   0.933   6.575 -1.0199 -1.0606  0.1663
 7923SOL     OW35227   4.181   3.385  17.660 -0.2322  0.2120 -0.3956
 7923SOL    HW135228   4.236   3.464  17.661 -0.7560  0.6068 -2.3599
 7923SOL    HW235229   4.108   3.422   0.024 -0.0541 -0.4815  0.4069
 7924SOL     OW35230   3.046   2.914  15.485  0.3612  0.0138  0.4823
 7924SOL    HW135231   2.957   2.879  15.480  0.5028 -0.3006  0.0714
 7924SOL    HW235232   3.099   2.844  15.445 -1.1740 -1.0613  0.3186
 7925SOL     OW35233   2.745   4.566  15.409 -0.5872 -0.0459  0.4319
 7925SOL    HW135234   2.794   4.531  15.484 -0.2158 -1.1332 -0.3243
 7925SOL    HW235235   2.683   4.493  15.401 -0.7230  0.1933 -0.6207
 7926SOL     OW35236   4.466   3.774  14.024  0.9925  0.3427 -0.5178
 7926SOL    HW135237   4.449   3.686  13.989  0.5964 -0.3535  1.4084
 7926SOL    HW235238   4.515   3.762  14.106 -2.0436 -0.0135  1.2790
 7927SOL     OW35239   4.191   3.332  13.951  0.1975  0.3005 -0.0698
 7927SOL    HW135240   4.277   3.335  13.992 -0.1821 -0.3734  0.7822
 7927SOL    HW235241   4.195   3.248  13.905 -1.0159  1.7985 -2.9367
 7928SOL     OW35242   3.621   1.503   3.601 -0.0206  0.2815 -0.2574
 7928SOL    HW135243   3.531   1.473   3.609  0.0379 -0.0789 -0.9442
 7928SOL    HW235244   3.661   1.466   3.680 -0.1347  3.1354  1.1461
 7929SOL     OW35245   0.316   3.248   6.373  0.0338 -0.4016  0.6113
 7929SOL    HW135246   0.388   3.235   6.434  1.3073  0.5995 -0.6658
 7929SOL    HW235247   0.363   3.250   6.290  1.4019  0.4599  1.4207
 7930SOL     OW35248   1.338   3.424   6.408  0.4957 -0.2724 -0.2326
 7930SOL    HW135249   1.399   3.442   6.480  0.4460  0.6365 -0.4131
 7930SOL    HW235250   1.316   3.513   6.381  2.2259  0.3042  0.2475
 7931SOL     OW35251   2.869   0.604  11.250 -0.4215 -0.5317 -0.0104
 7931SOL    HW135252   2.846   0.518  11.215 -1.1541 -0.5383  0.4762
 7931SOL    HW235253   2.904   0.644  11.171  1.6639  2.1198  2.2794
 7932SOL     OW35254   3.460   1.736   7.487  0.2806 -0.6909  0.5540
 7932SOL    HW135255   3.540   1.788   7.476 -0.0991  0.4703  3.1464
 7932SOL    HW235256   3.416   1.778   7.561 -2.5619  0.3772 -1.7397
 7933SOL     OW35257   0.632   3.658   5.047 -0.9176  0.2733  0.2979
 7933SOL    HW135258   0.704   3.619   4.999 -0.9872 -3.0506  2.9591
 7933SOL    HW235259   0.681   3.680   5.126  1.2312  0.9221 -1.2132
 7934SOL     OW35260   0.936   1.863   7.695 -0.2778  0.1409 -0.1578
 7934SOL    HW135261   0.972   1.809   7.765 -0.6417 -0.5202 -0.4840
 7934SOL    HW235262   0.997   1.846   7.622 -1.6368 -1.5367 -0.8959
 7935SOL     OW35263   0.761   3.735   5.298  0.0522 -0.2192  0.1585
 7935SOL    HW135264   0.741   3.828   5.300 -1.3100 -0.5110  0.7752
 7935SOL    HW235265   0.741   3.704   5.386 -3.7571  1.7128 -0.0209
 7936SOL     OW35266   4.655   1.471   7.604  0.2497 -0.3115  0.0395
 7936SOL    HW135267   4.599   1.536   7.561  0.9754 -0.4775 -1.1576
 7936SOL    HW235268   4.597   1.395   7.612 -0.8196  0.7300  1.9817
 7937SOL     OW35269   4.124   4.397   4.247 -0.0564 -0.3130  0.1860
 7937SOL    HW135270   4.059   4.438   4.190  2.6021  0.9338 -1.9215
 7937SOL    HW235271   4.079   4.329   4.298 -0.5321  1.5378  2.2549
 7938SOL     OW35272   4.605   2.965  13.480  0.4971 -0.6614  0.5260
 7938SOL    HW135273   4.664   2.981  13.554  0.7533  1.6184 -0.1751
 7938SOL    HW235274   4.545   3.036  13.503  0.9762 -0.0898  0.0147
 7939SOL     OW35275   3.996   3.726   4.285 -0.0156  0.5998  0.0832
 7939SOL    HW135276   4.000   3.791   4.215  1.8391  0.1314 -0.2431
 7939SOL    HW235277   4.054   3.770   4.347  1.7936  0.0786 -1.2612
 7940SOL     OW35278   3.279   1.102   4.356  0.3008  0.4712  0.3086
 7940SOL    HW135279   3.238   1.150   4.284 -0.9018 -0.1710  0.5710
 7940SOL    HW235280   3.295   1.166   4.425 -1.2792  0.5619  0.5869
 7941SOL     OW35281   3.172   2.584   8.679 -0.1454  0.1644  0.5242
 7941SOL    HW135282   3.078   2.575   8.667  0.1375 -1.6866 -0.3114
 7941SOL    HW235283   3.173   2.618   8.769  0.5309 -0.6068  0.8035
 7942SOL     OW35284   2.654   4.581   5.060  0.3456  0.1070 -0.1941
 7942SOL    HW135285   2.604   4.516   5.010  0.5749 -0.7312  0.6787
 7942SOL    HW235286   2.698   4.528   5.125  0.6025  1.8677  1.0568
 7943SOL     OW35287   4.634   3.688   8.036  0.0391  0.1414 -0.0153
 7943SOL    HW135288   4.637   3.731   8.121 -2.2202  0.2937 -0.0272
 7943SOL    HW235289   4.710   3.723   7.988 -0.4975 -0.2753 -1.1662
 7944SOL     OW35290   3.027   0.214   6.831  0.2474 -0.2292  0.5025
 7944SOL    HW135291   2.945   0.264   6.831  0.4885  0.1828 -1.4470
 7944SOL    HW235292   3.091   0.285   6.819 -0.6922  0.7385  1.1516
 7945SOL     OW35293   0.720   3.141   5.631  0.2950 -0.2585 -0.2257
 7945SOL    HW135294   0.811   3.125   5.603 -0.3110 -2.0094 -1.1866
 7945SOL    HW235295   0.686   3.054   5.611 -0.9813 -0.4554  2.6676
 7946SOL     OW35296   3.347   0.208  10.843 -0.3113  1.0089 -0.1459
 7946SOL    HW135297   3.295   0.137  10.805  1.1128  0.4040 -0.9762
 7946SOL    HW235298   3.436   0.192  10.811 -0.5565 -1.6985  0.5289
 7947SOL     OW35299   0.476   2.768  10.917  0.4176  0.3155 -0.0270
 7947SOL    HW135300   0.571   2.760  10.928 -0.0228 -2.1784  1.9852
 7947SOL    HW235301   0.445   2.798  11.002 -0.5009  1.7913 -0.8736
 7948SOL     OW35302   1.594   1.904  17.656  0.5478  0.2593 -0.0789
 7948SOL    HW135303   1.641   1.963   0.029  0.2138  0.8235 -0.3853
 7948SOL    HW235304   1.661   1.840  17.629  0.1970  0.5581 -1.6815
 7949SOL     OW35305   2.426   2.066   3.821 -0.1750 -0.1255 -0.5011
 7949SOL    HW135306   2.496   2.014   3.861 -0.5762 -0.2626  0.0199
 7949SOL    HW235307   2.351   2.033   3.870 -0.4806  0.0314 -0.8616
 7950SOL     OW35308   3.986   1.813   6.387  0.1598  0.6595  0.5251
 7950SOL    HW135309   3.911   1.870   6.368 -0.2407 -0.3227 -0.8713
 7950SOL    HW235310   4.000   1.775   6.300 -0.5558  0.7727  0.3625
 7951SOL     OW35311   2.876   1.301  12.976  0.2248 -0.0457 -0.2628
 7951SOL    HW135312   2.924   1.298  12.893 -2.0494 -0.7887 -1.5374
 7951SOL    HW235313   2.821   1.224  12.964 -0.2718 -0.0408  2.0250
 7952SOL     OW35314   0.305   1.932   8.276  0.8094  0.1401 -0.0861
 7952SOL    HW135315   0.313   1.860   8.214 -1.8896 -0.7754  0.6543
 7952SOL    HW235316   0.236   1.987   8.240 -0.5937 -1.1126  0.7175
 7953SOL     OW35317   3.860   2.423   0.235  0.1900 -0.1310 -0.6622
 7953SOL    HW135318   3.814   2.475   0.169  0.5928  0.0081 -0.8339
 7953SOL    HW235319   3.949   2.424   0.200  0.6496  0.1262  0.5260
 7954SOL     OW35320   4.655   2.283   6.032 -0.1935 -0.5577  0.1604
 7954SOL    HW135321   0.004   2.255   6.091 -2.0283 -1.6333  1.8217
 7954SOL    HW235322   4.704   2.338   5.972 -1.1222  1.5020  1.2724
 7955SOL     OW35323   2.721   2.728   6.706  0.0279 -0.2319 -0.1632
 7955SOL    HW135324   2.680   2.648   6.739 -3.2309  1.7701  0.5821
 7955SOL    HW235325   2.783   2.749   6.776 -0.1274 -0.3179 -0.0017
 7956SOL     OW35326   0.433   1.988   1.983 -0.1470  0.1721  0.4554
 7956SOL    HW135327   0.342   2.011   2.004 -0.4426 -1.4080  0.8715
 7956SOL    HW235328   0.420   1.906   1.936  1.3072  1.7214 -2.6891
 7957SOL     OW35329   2.075   0.003   0.241 -0.1819 -0.2363  0.4193
 7957SOL    HW135330   1.985   4.696   0.258 -0.3459  0.1573  0.1747
 7957SOL    HW235331   2.078   4.693   0.150 -1.8425  0.0645  0.2641
 7958SOL     OW35332   1.882   0.982   1.669 -0.0616 -0.0572 -0.3865
 7958SOL    HW135333   1.830   1.018   1.597  0.7123  0.0676 -0.8879
 7958SOL    HW235334   1.810   0.935   1.711  0.6083 -2.5396 -2.0141
 7959SOL     OW35335   1.472   4.142   6.388  0.0284 -0.6220  0.0345
 7959SOL    HW135336   1.513   4.223   6.357 -1.1832 -0.3881 -0.9577
 7959SOL    HW235337   1.481   4.088   6.309  3.0043  0.7234 -0.5344
 7960SOL     OW35338   3.451   0.323   6.701 -0.0064  0.1629 -0.0210
 7960SOL    HW135339   3.361   0.329   6.734  1.1455 -0.2598  3.2022
 7960SOL    HW235340   3.450   0.397   6.641  0.2497 -0.5236 -0.8709
 7961SOL     OW35341   0.365   0.311  13.014 -0.2449  0.4175 -0.9775
 7961SOL    HW135342   0.456   0.328  13.036 -0.6073  1.1955 -0.0756
 7961SOL    HW235343   0.324   0.366  13.081 -1.7854  1.7412 -3.0024
 7962SOL     OW35344   3.890   3.142   1.139 -0.1963  1.0126  0.4791
 7962SOL    HW135345   3.801   3.152   1.105 -1.0988 -2.2835  1.8387
 7962SOL    HW235346   3.871   3.071   1.200 -0.2478  0.4048 -0.2430
 7963SOL     OW35347   4.338   3.166   5.291 -0.5013 -0.4697  0.6301
 7963SOL    HW135348   4.412   3.120   5.330 -1.2638 -0.9316  1.5106
 7963SOL    HW235349   4.321   3.100   5.224  2.2483 -0.5433  0.0168
 7964SOL     OW35350   2.338   1.307   0.721  0.4672 -0.0892  0.3338
 7964SOL    HW135351   2.353   1.324   0.628  1.2805 -2.1044  0.0970
 7964SOL    HW235352   2.349   1.212   0.715  2.6053  0.1020  1.1708
 7965SOL     OW35353   3.594   2.349   3.983 -0.1569 -0.0749  0.1014
 7965SOL    HW135354   3.601   2.263   4.025  1.5785  0.2727  0.4965
 7965SOL    HW235355   3.673   2.362   3.931  0.2301 -0.2500  0.6504
 7966SOL     OW35356   2.964   3.299   8.311  0.3343 -0.5652 -0.5724
 7966SOL    HW135357   2.916   3.292   8.229  1.5874 -0.9862 -1.2679
 7966SOL    HW235358   2.977   3.210   8.342  1.0002 -0.4142 -0.4267
 7967SOL     OW35359   2.089   1.536   5.731  0.3392  0.1421 -0.0844
 7967SOL    HW135360   2.013   1.492   5.692  0.0588  1.0284 -0.5372
 7967SOL    HW235361   2.047   1.618   5.756  2.0010  0.5054  1.5400
 7968SOL     OW35362   0.674   3.996  14.814 -0.1432 -0.1332 -0.4386
 7968SOL    HW135363   0.587   4.031  14.833 -0.5099 -2.5309  2.3088
 7968SOL    HW235364   0.729   4.074  14.817 -0.6593  0.2379 -0.7131
 7969SOL     OW35365   1.543   2.986   2.466  0.1655  0.1255  0.1842
 7969SOL    HW135366   1.506   3.073   2.451  2.2103  0.7808 -1.0632
 7969SOL    HW235367   1.474   2.932   2.428  0.6998 -1.9168  2.1267
 7970SOL     OW35368   2.810   1.706   8.798  0.2155 -0.8678 -0.2348
 7970SOL    HW135369   2.746   1.691   8.868  1.7373  0.3186  1.3933
 7970SOL    HW235370   2.859   1.624   8.799  1.9885  0.2460  3.1346
 7971SOL     OW35371   4.130   3.137   3.653 -0.4290  0.1396  0.0490
 7971SOL    HW135372   4.087   3.053   3.671 -0.2782  0.2201  0.7715
 7971SOL    HW235373   4.070   3.201   3.689 -1.0273  1.5745 -3.4679
 7972SOL     OW35374   3.223   4.636  12.379  0.5199  0.4874  0.3385
 7972SOL    HW135375   3.261   4.710  12.426 -0.8867  1.5193 -0.1465
 7972SOL    HW235376   3.165   4.594  12.443  2.8667 -0.6184  1.7240
 7973SOL     OW35377   1.963   1.788  12.412 -0.7997  0.0301 -0.1964
 7973SOL    HW135378   1.923   1.767  12.496 -0.0490 -0.9598 -0.0851
 7973SOL    HW235379   1.961   1.882  12.426  0.9189 -0.2996  2.3207
 7974SOL     OW35380   3.800   1.826   3.191  0.6081  0.1690  0.1463
 7974SOL    HW135381   3.812   1.875   3.110  1.2539  0.3375  0.3482
 7974SOL    HW235382   3.707   1.808   3.178  0.7251  0.8863 -1.7437
 7975SOL     OW35383   4.154   3.971   8.548 -0.1421 -0.3224 -0.3649
 7975SOL    HW135384   4.220   3.917   8.505  1.3098 -0.7231  2.3946
 7975SOL    HW235385   4.098   3.905   8.588 -2.2595  0.3178 -2.1962
 7976SOL     OW35386   2.080   1.885   7.841  0.1220  0.0141  0.3434
 7976SOL    HW135387   2.145   1.938   7.887  0.6702 -1.8464  1.7230
 7976SOL    HW235388   2.072   1.922   7.753  2.4924  2.0648  1.0078
 7977SOL     OW35389   1.989   1.623   2.248  0.3731  0.5269  0.0906
 7977SOL    HW135390   2.035   1.658   2.172  3.5887 -0.8524  1.4070
 7977SOL    HW235391   1.930   1.559   2.208  1.1951 -0.4258  0.4048
 7978SOL     OW35392   2.250   1.671   3.148 -0.1286 -0.3257  0.1079
 7978SOL    HW135393   2.264   1.758   3.110 -0.2251 -0.6269 -0.6144
 7978SOL    HW235394   2.311   1.672   3.222  0.1016  0.8527 -0.0930
 7979SOL     OW35395   2.750   2.513   2.125 -0.2505 -0.2565  0.0303
 7979SOL    HW135396   2.761   2.479   2.035  1.7753 -0.1850  0.2530
 7979SOL    HW235397   2.655   2.513   2.131 -0.1347  0.1314  1.7140
 7980SOL     OW35398   3.936   0.186   6.173 -0.3253 -0.2597 -0.7713
 7980SOL    HW135399   3.905   0.264   6.218  0.8117 -0.6432  0.6610
 7980SOL    HW235400   3.869   0.120   6.190  1.6876 -1.6522  1.8022
 7981SOL     OW35401   0.050   0.085   1.887  0.6754 -0.1059  0.0003
 7981SOL    HW135402   0.096   0.167   1.869  2.1917 -0.5787  1.7970
 7981SOL    HW235403   0.116   0.019   1.865 -0.4169 -1.4275  0.7238
 7982SOL     OW35404   1.434   1.659  12.617 -0.0465 -0.3547  0.3524
 7982SOL    HW135405   1.368   1.590  12.605  0.0156 -0.5008  0.8464
 7982SOL    HW235406   1.396   1.733  12.572  1.0009 -0.4109 -0.6152
 7983SOL     OW35407   4.465   4.295   8.635 -0.1834  0.2249  0.0407
 7983SOL    HW135408   4.478   4.224   8.698 -0.1638 -0.4371 -0.7120
 7983SOL    HW235409   4.481   4.366   8.697  0.9113 -0.5670  0.6498
 7984SOL     OW35410   0.424   0.476   8.246 -0.7207 -0.0848 -0.2189
 7984SOL    HW135411   0.397   0.568   8.235 -0.5412  0.3938  3.4983
 7984SOL    HW235412   0.386   0.468   8.333  0.3172  0.2303  0.2536
 7985SOL     OW35413   2.318   1.558   7.445 -0.0990  0.0063  0.3205
 7985SOL    HW135414   2.342   1.466   7.455 -0.5337 -0.2692 -1.1490
 7985SOL    HW235415   2.241   1.571   7.501 -1.1989 -0.5053 -1.0849
 7986SOL     OW35416   3.516   0.980   3.850  0.4307  0.2052 -0.3807
 7986SOL    HW135417   3.585   1.032   3.808 -1.7433  1.1281 -2.8845
 7986SOL    HW235418   3.481   1.048   3.909 -1.0612 -0.8432 -0.0479
 7987SOL     OW35419   4.122   1.465   6.377 -0.7111 -0.2895 -0.3977
 7987SOL    HW135420   4.189   1.513   6.329 -0.3856  1.0076  1.3516
 7987SOL    HW235421   4.123   1.504   6.464  0.7989  0.6236 -0.8128
 7988SOL     OW35422   2.861   0.469   6.916 -0.4226  0.1745  0.1584
 7988SOL    HW135423   2.832   0.452   7.006 -0.9867  1.2130  0.1740
 7988SOL    HW235424   2.796   0.424   6.862 -0.2898  0.9508 -0.6355
 7989SOL     OW35425   1.032   1.841   9.208  0.5145 -0.1194 -0.5696
 7989SOL    HW135426   1.006   1.791   9.131 -1.5390 -1.1244  0.7897
 7989SOL    HW235427   1.058   1.764   9.259 -0.3492 -0.6696 -0.9578
 7990SOL     OW35428   0.619   0.437   4.966  0.1918 -1.0475  0.3862
 7990SOL    HW135429   0.712   0.456   4.980 -0.3106  0.4549  1.6071
 7990SOL    HW235430   0.619   0.343   4.983 -0.7344 -0.7984  1.7189
 7991SOL     OW35431   3.803   0.031   1.873  0.4814 -0.7290 -0.2475
 7991SOL    HW135432   3.749   4.709   1.806 -0.7222  0.3953 -0.0141
 7991SOL    HW235433   3.741   0.097   1.905 -2.2794 -2.1178 -2.7562
 7992SOL     OW35434   4.695   2.587  12.280 -0.3681 -0.1232  0.4415
 7992SOL    HW135435   4.644   2.540  12.347 -1.4244 -1.4780 -1.3151
 7992SOL    HW235436   0.055   2.581  12.331 -0.1696 -4.0000 -0.3285
 7993SOL     OW35437   1.495   1.268  14.554 -0.5131  0.3663 -0.0422
 7993SOL    HW135438   1.574   1.237  14.508 -0.8611 -1.0221  0.2833
 7993SOL    HW235439   1.456   1.334  14.498 -1.9136 -0.3859  0.0510
 7994SOL     OW35440   0.168   1.941  13.333  0.0326 -0.4917  0.7342
 7994SOL    HW135441   0.192   1.849  13.322 -0.3168 -0.7095  1.7326
 7994SOL    HW235442   0.073   1.934  13.326  0.0826  1.7581 -1.9670
 7995SOL     OW35443   4.244   3.882   6.280  0.2289  0.5631  0.0380
 7995SOL    HW135444   4.271   3.970   6.308 -2.1706  0.3893  2.9143
 7995SOL    HW235445   4.240   3.897   6.186  1.0276 -0.1990 -0.1124
 7996SOL     OW35446   1.211   0.413   4.479 -0.3433  0.0806 -1.0109
 7996SOL    HW135447   1.242   0.503   4.469 -1.3403  0.3128 -2.0502
 7996SOL    HW235448   1.285   0.354   4.471 -1.2284 -0.9593 -1.5182
 7997SOL     OW35449   1.145   0.663   4.675  0.0276 -0.0062  0.0949
 7997SOL    HW135450   1.099   0.734   4.720  1.7765  0.7475  0.7401
 7997SOL    HW235451   1.085   0.589   4.673  0.8457 -0.6654 -0.1932
 7998SOL     OW35452   3.726   2.218  13.651 -0.4881 -0.1667  0.1920
 7998SOL    HW135453   3.675   2.223  13.731 -2.1001 -0.0296 -0.8369
 7998SOL    HW235454   3.819   2.220  13.675 -0.0805 -0.1563 -1.3545
 7999SOL     OW35455   4.717   0.111   3.919  0.2512 -0.1897  0.0157
 7999SOL    HW135456   4.689   0.181   3.977 -0.3072 -0.7731  0.4400
 7999SOL    HW235457   0.072   0.149   3.873 -0.7309  1.7054 -0.0163
 8000SOL     OW35458   2.172   4.525  16.679  0.5726 -0.0578  0.1178
 8000SOL    HW135459   2.141   4.458  16.618 -1.4301  1.3380 -0.3808
 8000SOL    HW235460   2.205   4.584  16.611 -3.6956  1.0578 -0.9323
 8001SOL     OW35461   3.922   1.176   5.595  0.2143  0.2128  0.6598
 8001SOL    HW135462   3.859   1.155   5.525 -0.5063  0.9034  1.1001
 8001SOL    HW235463   3.971   1.255   5.573 -3.8402  2.7124  0.6756
 8002SOL     OW35464   0.547   1.696   3.768 -0.1801  0.1275 -0.4942
 8002SOL    HW135465   0.528   1.670   3.858  1.5403 -1.1791 -0.5007
 8002SOL    HW235466   0.502   1.632   3.712 -1.1986 -0.1727  0.6872
 8003SOL     OW35467   0.558   1.055   9.861 -0.2551  0.2048  0.4198
 8003SOL    HW135468   0.593   0.986   9.917 -0.5747  0.4418  0.9185
 8003SOL    HW235469   0.637   1.063   9.806  0.4756  0.0251  1.4379
 8004SOL     OW35470   2.107   2.098  12.235 -0.2283 -0.1020 -0.3136
 8004SOL    HW135471   2.175   2.032  12.241  0.9458  1.0145 -1.3509
 8004SOL    HW235472   2.080   2.108  12.326  0.6663  4.3668 -0.5288
 8005SOL     OW35473   3.448   0.119   5.503 -0.0902  0.3452 -0.4348
 8005SOL    HW135474   3.417   0.115   5.413  2.1221  5.3574 -1.4203
 8005SOL    HW235475   3.534   0.078   5.496 -0.8154 -1.0792 -1.1326
 8006SOL     OW35476   2.510   4.445  12.228 -0.0013  0.6453 -0.3040
 8006SOL    HW135477   2.457   4.519  12.200  0.0016  1.1442  1.0160
 8006SOL    HW235478   2.593   4.456  12.183  0.9598  2.9607  2.0355
 8007SOL     OW35479   2.839   3.858  10.670  0.1146 -0.4310  0.2430
 8007SOL    HW135480   2.894   3.934  10.649 -0.9486  0.3001  0.1354
 8007SOL    HW235481   2.777   3.867  10.597  1.4818  1.4252 -0.6911
 8008SOL     OW35482   0.028   2.428   8.154  0.3182 -0.4015 -0.4507
 8008SOL    HW135483   0.072   2.371   8.091 -0.9434 -2.3177  0.4042
 8008SOL    HW235484   0.096   2.489   8.185 -0.4405  0.4301 -0.4229
 8009SOL     OW35485   0.258   4.538   7.916  0.2101  0.6069 -0.3813
 8009SOL    HW135486   0.227   4.451   7.890 -0.1123  0.1450  1.5329
 8009SOL    HW235487   0.178   4.568   7.958  0.1715  0.0160 -0.0316
 8010SOL     OW35488   4.552   3.038   1.579  0.1459  0.3087 -0.0271
 8010SOL    HW135489   4.463   3.070   1.596  0.7362  1.1915  1.3844
 8010SOL    HW235490   4.599   3.122   1.575  0.7521  0.0213  0.9573
 8011SOL     OW35491   0.785   2.620   7.594  0.2768  0.3037 -0.1898
 8011SOL    HW135492   0.851   2.555   7.568 -0.1442 -0.5198  0.7914
 8011SOL    HW235493   0.714   2.586   7.541 -0.1225  0.3512  0.3182
 8012SOL     OW35494   1.746   0.574   3.438  0.3422 -0.5714  0.0567
 8012SOL    HW135495   1.828   0.537   3.471  0.3480  0.9631  1.7386
 8012SOL    HW235496   1.720   0.509   3.373 -2.6548  0.3323  0.3640
 8013SOL     OW35497   3.493   1.791   9.156  0.8707  0.3940  0.0110
 8013SOL    HW135498   3.479   1.772   9.249 -2.0365  1.7111 -0.1453
 8013SOL    HW235499   3.465   1.711   9.113  1.0149  0.2830  0.1238
 8014SOL     OW35500   0.904   4.517  15.654 -0.5021  0.4950 -0.4673
 8014SOL    HW135501   0.927   4.424  15.650  0.3156  0.7028 -0.6555
 8014SOL    HW235502   0.818   4.521  15.613 -0.7191 -0.6217 -0.1135
 8015SOL     OW35503   2.289   1.128  16.870  0.9499 -0.7028 -0.2581
 8015SOL    HW135504   2.299   1.057  16.934  0.8633 -0.4066  0.0846
 8015SOL    HW235505   2.212   1.107  16.816 -0.1762 -0.5096  1.2760
 8016SOL     OW35506   0.671   1.098  13.474 -0.6169  0.1057 -0.3072
 8016SOL    HW135507   0.688   1.166  13.407  1.4688  0.3219  0.4379
 8016SOL    HW235508   0.652   1.152  13.550  3.0208  2.2942 -0.9413
 8017SOL     OW35509   4.618   3.394  11.125 -0.2086  0.3442  0.0923
 8017SOL    HW135510   4.598   3.305  11.093 -1.4462  0.0214  1.7771
 8017SOL    HW235511   4.533   3.421  11.160 -0.6287  0.4498 -0.9774
 8018SOL     OW35512   3.816   1.067   1.131 -0.0030  0.2819 -0.4715
 8018SOL    HW135513   3.828   1.012   1.208 -0.4603 -2.0279 -2.0662
 8018SOL    HW235514   3.883   1.031   1.074  0.5602  1.0811 -0.3214
 8019SOL     OW35515   1.919   2.352   2.294 -0.1364  0.3552 -0.0267
 8019SOL    HW135516   1.865   2.337   2.372  0.9748  1.6407  0.9734
 8019SOL    HW235517   1.881   2.288   2.234  0.7174 -1.8006  1.7337
 8020SOL     OW35518   1.789   3.001   6.680  0.1812  0.6431  0.1309
 8020SOL    HW135519   1.697   2.986   6.704  0.5457 -2.0174 -0.0409
 8020SOL    HW235520   1.799   3.095   6.694 -3.4784  1.0823 -0.2351
 8021SOL     OW35521   2.844   2.979   7.714 -0.7771 -0.4281 -0.4270
 8021SOL    HW135522   2.911   2.910   7.714  0.3780  0.7159  1.7004
 8021SOL    HW235523   2.873   3.023   7.794 -0.9887  0.2377 -0.7199
 8022SOL     OW35524   2.351   1.548  13.758  0.2089 -0.3908  0.4273
 8022SOL    HW135525   2.364   1.573  13.849  0.0908  1.5364 -0.0787
 8022SOL    HW235526   2.443   1.533  13.736  0.0397 -1.2532  0.3097
 8023SOL     OW35527   0.302   0.548  16.419  0.3577  0.6231  0.8559
 8023SOL    HW135528   0.297   0.620  16.356  1.1612 -0.1134 -0.0398
 8023SOL    HW235529   0.216   0.562  16.460 -0.6175 -1.3738 -0.4490
 8024SOL     OW35530   3.698   0.334   9.492 -0.4029 -0.4356  0.0032
 8024SOL    HW135531   3.681   0.240   9.480 -1.5610  0.1949 -3.1987
 8024SOL    HW235532   3.761   0.352   9.423 -0.0003 -1.0823  0.1985
 8025SOL     OW35533   1.418   2.708   6.567 -0.4437  0.4045 -0.4005
 8025SOL    HW135534   1.348   2.656   6.528  0.1281  0.9157 -2.0920
 8025SOL    HW235535   1.459   2.732   6.484  1.9952 -0.2778  0.6239
 8026SOL     OW35536   1.777   0.048   6.111  0.3988  0.7859 -0.2174
 8026SOL    HW135537   1.716   0.039   6.038  0.4382  1.1841 -0.2949
 8026SOL    HW235538   1.860   0.052   6.063 -0.0679  1.4030 -0.9706
 8027SOL     OW35539   1.980   0.128  16.221  0.0932 -0.4965  0.0825
 8027SOL    HW135540   1.971   0.172  16.136  2.5062 -0.5295 -0.1935
 8027SOL    HW235541   1.910   0.063  16.223 -0.9957  0.7213  2.5738
 8028SOL     OW35542   2.588   3.281   5.500 -0.1992  0.0478  0.2589
 8028SOL    HW135543   2.613   3.352   5.559 -0.5794  0.7538 -0.4321
 8028SOL    HW235544   2.583   3.318   5.412 -0.0245 -0.0129  0.2231
 8029SOL     OW35545   0.576   2.628   5.277  0.6800 -0.1921 -0.6094
 8029SOL    HW135546   0.573   2.563   5.207  0.8375 -1.1657  0.2870
 8029SOL    HW235547   0.512   2.689   5.239 -1.3100 -1.3418  0.9343
 8030SOL     OW35548   0.102   1.232   6.914  0.2086 -0.7920  0.5524
 8030SOL    HW135549   0.096   1.153   6.968 -3.3872 -0.1334  1.1063
 8030SOL    HW235550   0.056   1.209   6.833 -0.8863 -1.3380  1.3251
 8031SOL     OW35551   4.426   4.083   1.215 -0.2202 -0.4322 -0.5710
 8031SOL    HW135552   4.371   4.115   1.286 -1.6659 -0.9082 -1.4894
 8031SOL    HW235553   4.457   3.998   1.247  0.7263 -0.7414 -2.2958
 8032SOL     OW35554   3.004   4.223   5.249 -0.9640 -0.3298 -0.2429
 8032SOL    HW135555   3.019   4.298   5.306 -1.9960 -1.1126  1.0685
 8032SOL    HW235556   3.073   4.161   5.274 -1.3209 -1.6312 -2.3782
 8033SOL     OW35557   2.856   0.147   9.766 -0.0605 -0.1309 -0.4461
 8033SOL    HW135558   2.787   0.081   9.755 -0.3263  0.3873 -1.9336
 8033SOL    HW235559   2.916   0.109   9.702  0.9271  0.3845  0.1794
 8034SOL     OW35560   2.074   3.742   4.780 -0.0895  0.1324  0.4398
 8034SOL    HW135561   2.159   3.716   4.744 -0.7934 -3.2601  1.2480
 8034SOL    HW235562   2.050   3.812   4.720 -0.1771  0.4952  0.8975
 8035SOL     OW35563   1.771   2.040   7.001 -0.2966  0.3948  0.3062
 8035SOL    HW135564   1.858   2.062   6.968 -0.0548 -0.0945  0.6165
 8035SOL    HW235565   1.738   1.991   6.925  0.6626  0.5168 -0.1861
 8036SOL     OW35566   0.242   2.374  13.533  0.4377 -0.0576 -0.3563
 8036SOL    HW135567   0.280   2.413  13.455 -1.1609  1.6071 -0.2960
 8036SOL    HW235568   0.149   2.380  13.513 -0.2126 -3.8345  1.5785
 8037SOL     OW35569   2.732   0.539   5.225 -0.1456 -0.6308  0.2666
 8037SOL    HW135570   2.803   0.602   5.232 -1.4917  0.9914 -0.7931
 8037SOL    HW235571   2.722   0.514   5.317  0.9326 -0.7381  0.3568
 8038SOL     OW35572   3.111   3.498  15.692  0.1770  0.6562  0.5162
 8038SOL    HW135573   3.148   3.466  15.609 -0.9365 -3.4025  1.5695
 8038SOL    HW235574   3.199   3.498  15.729 -0.0183  0.1638  0.9775
 8039SOL     OW35575   3.743   0.093  14.490 -0.6331 -0.3201  0.1341
 8039SOL    HW135576   3.690   0.025  14.447  0.5354 -1.4716  0.5340
 8039SOL    HW235577   3.680   0.159  14.519 -2.4643 -1.6933 -0.6703
 8040SOL     OW35578   0.611   1.288  14.209 -0.1166  0.3503  0.1683
 8040SOL    HW135579   0.663   1.364  14.183 -1.5656  1.5158  0.6477
 8040SOL    HW235580   0.668   1.233  14.261 -0.4860  1.1999  1.4682
 8041SOL     OW35581   1.082   3.809   5.427 -0.1610  0.4499 -0.2493
 8041SOL    HW135582   0.993   3.844   5.424 -0.8694 -1.2761  0.2500
 8041SOL    HW235583   1.081   3.754   5.505 -0.6967  0.7056 -0.0738
 8042SOL     OW35584   1.995   4.165   4.351  0.1958  0.2706  0.3587
 8042SOL    HW135585   1.936   4.233   4.316 -0.7426  0.2312  1.8906
 8042SOL    HW235586   2.061   4.163   4.281 -0.5969 -0.5878 -0.3651
 8043SOL     OW35587   4.715   2.828   5.034 -0.0299  0.5862 -0.2772
 8043SOL    HW135588   4.691   2.829   4.941 -2.8552  0.2076  0.4587
 8043SOL    HW235589   4.662   2.756   5.068  0.9595  0.0931  0.2350
 8044SOL     OW35590   3.265   3.454  13.601 -0.5501  0.1980 -0.3162
 8044SOL    HW135591   3.311   3.439  13.683 -2.0453 -0.1013  0.4622
 8044SOL    HW235592   3.216   3.533  13.624 -1.2882 -0.3459 -0.0117
 8045SOL     OW35593   0.286   2.601   8.142  0.3478 -0.4672 -0.1159
 8045SOL    HW135594   0.305   2.619   8.234  0.9624 -0.8089 -0.1764
 8045SOL    HW235595   0.358   2.543   8.119 -0.5560 -2.3601  1.9258
 8046SOL     OW35596   0.581   2.077   9.461  0.3766  0.3122 -0.3560
 8046SOL    HW135597   0.545   2.162   9.489  2.9979  1.5432 -0.6835
 8046SOL    HW235598   0.494   2.037   9.456 -0.3906  2.1111 -1.5270
 8047SOL     OW35599   0.470   3.517   3.791 -0.0449 -0.2059 -0.1381
 8047SOL    HW135600   0.544   3.560   3.747 -0.3002 -0.8344 -1.1825
 8047SOL    HW235601   0.437   3.573   3.862 -0.0336 -0.9334  0.4445
 8048SOL     OW35602   2.653   1.957   2.034 -1.2705 -0.2034  0.3747
 8048SOL    HW135603   2.727   1.897   2.049 -1.7089 -1.2247 -1.5048
 8048SOL    HW235604   2.625   1.981   2.122  1.3455  0.6518  0.9815
 8049SOL     OW35605   3.479   0.539   2.160  0.2229  0.1998  0.0400
 8049SOL    HW135606   3.441   0.532   2.248 -1.1935  2.3961 -0.4180
 8049SOL    HW235607   3.440   0.622   2.133 -0.6069 -0.1095  0.2890
 8050SOL     OW35608   1.747   4.644  10.530  0.6475  0.4621 -0.6945
 8050SOL    HW135609   1.785   0.011  10.527 -0.3389  0.9581  0.8027
 8050SOL    HW235610   1.737   4.641  10.626 -2.4042 -0.3095 -1.0401
 8051SOL     OW35611   0.740   1.782   4.550 -0.1006 -0.6921  0.0150
 8051SOL    HW135612   0.792   1.739   4.481  1.5428  0.5141  0.5022
 8051SOL    HW235613   0.802   1.855   4.550  0.3677 -1.0811 -1.5957
 8052SOL     OW35614   2.972   3.849   7.130 -0.7951 -0.3928 -0.1415
 8052SOL    HW135615   2.931   3.780   7.077  1.2771 -1.5822 -0.2011
 8052SOL    HW235616   3.060   3.863   7.096 -0.5760 -1.0214  0.1683
 8053SOL     OW35617   1.147   4.696  14.906 -0.5756  0.7629  0.2046
 8053SOL    HW135618   1.140   0.025  14.824 -1.3653 -0.6071 -0.5670
 8053SOL    HW235619   1.213   0.026  14.951 -0.5637 -0.3830  1.4928
 8054SOL     OW35620   4.199   3.793   4.447  0.1088 -0.4249 -0.4925
 8054SOL    HW135621   4.254   3.868   4.470 -1.6314 -0.4263  3.8005
 8054SOL    HW235622   4.266   3.725   4.458  3.0196  2.6517  1.1158
 8055SOL     OW35623   0.497   4.667   8.402 -0.0995  0.0856 -0.1040
 8055SOL    HW135624   0.581   4.709   8.383 -0.0254 -0.5798 -1.2573
 8055SOL    HW235625   0.489   4.677   8.497 -0.0553 -0.2162 -0.0700
 8056SOL     OW35626   3.864   2.200   6.582  0.3598  0.4450 -0.5039
 8056SOL    HW135627   3.775   2.232   6.596  0.3606 -0.2432  1.0733
 8056SOL    HW235628   3.909   2.274   6.623 -1.7666  1.9959 -0.9384
 8057SOL     OW35629   1.578   3.941   3.526 -0.0963  0.4572 -0.1871
 8057SOL    HW135630   1.673   3.949   3.515  0.3511 -4.2158  0.3586
 8057SOL    HW235631   1.554   3.886   3.452 -1.5568 -0.8110  1.2243
 8058SOL     OW35632   2.911   2.118  16.260  0.3328 -0.6764  0.2313
 8058SOL    HW135633   2.932   2.028  16.237 -0.7559 -0.7987 -0.2753
 8058SOL    HW235634   2.998   2.157  16.272 -0.5975  1.0710  1.3107
 8059SOL     OW35635   0.129   4.188   0.893  0.5609  0.5553 -0.5701
 8059SOL    HW135636   0.213   4.181   0.847 -0.0571 -1.6310 -1.3940
 8059SOL    HW235637   0.140   4.104   0.938  1.8508  0.4001 -1.1753
 8060SOL     OW35638   3.264   0.601   4.880 -0.0280 -0.0374  0.1525
 8060SOL    HW135639   3.185   0.651   4.899 -0.6587 -1.3499  0.9140
 8060SOL    HW235640   3.250   0.538   4.950 -0.7059  1.5666  1.4361
 8061SOL     OW35641   0.916   3.620   6.139 -0.3998 -0.3532  0.5662
 8061SOL    HW135642   0.942   3.705   6.103  0.3557 -1.1921 -0.8359
 8061SOL    HW235643   0.982   3.565   6.098  1.0091  0.3852  1.8236
 8062SOL     OW35644   2.143   1.009   1.701 -0.4042 -0.2015 -0.0494
 8062SOL    HW135645   2.052   1.016   1.671  0.0197  1.2591 -0.9924
 8062SOL    HW235646   2.152   0.921   1.665 -0.4538 -0.1795 -0.1166
 8063SOL     OW35647   4.002   0.402  12.491  0.4969  0.0385 -0.1721
 8063SOL    HW135648   4.025   0.320  12.447  1.9660  0.3779 -0.0315
 8063SOL    HW235649   3.980   0.462  12.420 -0.6412  0.5515  0.6222
 8064SOL     OW35650   0.632   0.997   4.564  0.1473 -0.0272  0.1763
 8064SOL    HW135651   0.550   1.042   4.546  1.0904  1.6493  0.1123
 8064SOL    HW235652   0.644   0.948   4.482  0.3176 -1.4332  1.0327
 8065SOL     OW35653   1.958   0.190   2.729  0.4558  0.4562  0.0536
 8065SOL    HW135654   1.897   0.124   2.763  0.9555  0.7423  1.4996
 8065SOL    HW235655   2.027   0.184   2.795 -1.2275 -1.3656  1.6260
 8066SOL     OW35656   0.217   4.437   6.712  0.1485  0.0467 -0.3342
 8066SOL    HW135657   0.297   4.386   6.726 -0.3331  0.3298  3.3323
 8066SOL    HW235658   0.202   4.485   6.793  1.6818 -0.5315  0.3004
 8067SOL     OW35659   0.215   2.932   5.857 -0.3096  0.1370 -0.3471
 8067SOL    HW135660   0.252   2.920   5.945  0.4868 -0.0281 -0.7048
 8067SOL    HW235661   0.205   3.026   5.845  1.7614  0.2317 -1.2875
 8068SOL     OW35662   4.216   3.802  10.791 -0.1379 -0.0338 -0.0699
 8068SOL    HW135663   4.295   3.851  10.770 -2.1094  3.1212 -0.3139
 8068SOL    HW235664   4.254   3.721  10.822  0.7462  0.7613  0.9197
 8069SOL     OW35665   3.101   0.561   5.685 -0.6897  0.5546  0.4761
 8069SOL    HW135666   3.130   0.477   5.648  0.5610  0.7389  1.0632
 8069SOL    HW235667   3.182   0.611   5.692  0.0445 -0.3452 -1.6245
 8070SOL     OW35668   1.882   0.388   8.225  0.1970 -0.3887  0.2030
 8070SOL    HW135669   1.927   0.371   8.308  1.4294 -2.1203 -0.8348
 8070SOL    HW235670   1.891   0.483   8.218  1.3856 -0.5251 -0.0723
 8071SOL     OW35671   2.114   4.518  12.241 -0.6000 -0.0095  0.0281
 8071SOL    HW135672   2.046   4.453  12.258  1.1101 -1.5333  1.1030
 8071SOL    HW235673   2.134   4.492  12.152  2.2095 -3.4554  1.6575
 8072SOL     OW35674   3.940   1.733  10.890  0.2582 -0.2877 -0.1152
 8072SOL    HW135675   3.940   1.737  10.986  1.3465  2.6710 -0.2326
 8072SOL    HW235676   3.928   1.828  10.884 -1.1384 -0.4410  0.4083
 8073SOL     OW35677   3.543   2.957   4.224  0.3716  0.2056  0.6885
 8073SOL    HW135678   3.574   2.995   4.306  1.5749 -3.5409  1.9764
 8073SOL    HW235679   3.615   2.980   4.166 -1.1618  1.1719 -0.8498
 8074SOL     OW35680   2.965   4.193  13.307  0.3746  0.0050 -0.1132
 8074SOL    HW135681   3.050   4.172  13.346  0.5615 -1.7646 -1.4745
 8074SOL    HW235682   2.976   4.151  13.222  0.5370  1.2578 -0.7015
 8075SOL     OW35683   3.307   4.274   5.132 -0.5627  0.2618 -0.2073
 8075SOL    HW135684   3.393   4.257   5.170 -0.8789 -0.6177  0.1160
 8075SOL    HW235685   3.303   4.215   5.057  2.5354 -0.0254 -0.1416
 8076SOL     OW35686   3.180   2.952   8.199  0.2507 -0.1192 -0.8323
 8076SOL    HW135687   3.231   3.023   8.159  2.1389  0.5632  2.7791
 8076SOL    HW235688   3.238   2.942   8.274 -0.4797  2.3397  0.0657
 8077SOL     OW35689   0.193   3.858   5.407  0.0543  0.6771  0.2804
 8077SOL    HW135690   0.110   3.906   5.404 -1.8190 -2.6430 -0.3758
 8077SOL    HW235691   0.256   3.928   5.387  0.3843  0.3041  0.0167
 8078SOL     OW35692   2.135   1.128   6.889 -0.1870 -0.1622  0.4204
 8078SOL    HW135693   2.132   1.149   6.796 -1.5761 -0.2254  0.4525
 8078SOL    HW235694   2.056   1.177   6.910  1.0389  1.3783  1.4020
 8079SOL     OW35695   3.656   1.967   8.434 -0.0070 -0.5258 -0.7004
 8079SOL    HW135696   3.665   2.060   8.413 -0.4363 -0.0671  1.0843
 8079SOL    HW235697   3.653   1.976   8.530 -3.6488  0.0294 -0.8702
 8080SOL     OW35698   2.558   1.695   7.371 -0.4565 -0.1377  0.6856
 8080SOL    HW135699   2.552   1.696   7.275 -0.5648  2.1926  0.6948
 8080SOL    HW235700   2.465   1.681   7.391 -0.0280 -0.6423  2.3338
 8081SOL     OW35701   0.297   1.132   8.572  0.9409 -0.2575  0.2578
 8081SOL    HW135702   0.225   1.182   8.535  0.9042 -1.8645 -1.8552
 8081SOL    HW235703   0.381   1.162   8.537 -0.3416  0.9175 -1.7625
 8082SOL     OW35704   1.894   0.519  13.064 -0.5982  0.5930  0.4972
 8082SOL    HW135705   1.973   0.471  13.039 -0.6904 -0.1610  1.6395
 8082SOL    HW235706   1.890   0.577  12.988  3.5250  0.4533  0.1755
 8083SOL     OW35707   4.540   1.784   7.268  0.0141 -0.8015 -0.0483
 8083SOL    HW135708   4.489   1.836   7.206 -0.8715 -0.8218  0.6683
 8083SOL    HW235709   4.630   1.807   7.243 -0.7678  0.7364 -1.4289
 8084SOL     OW35710   3.820   3.360   7.904  0.3598 -0.0257 -0.0962
 8084SOL    HW135711   3.912   3.360   7.876  0.6287 -3.4605  0.7554
 8084SOL    HW235712   3.805   3.454   7.917 -3.5487 -0.6848  0.1867
 8085SOL     OW35713   2.951   2.583   3.474 -0.3503  0.1783  0.0615
 8085SOL    HW135714   2.970   2.510   3.533  0.5832 -0.1757 -0.6692
 8085SOL    HW235715   2.975   2.655   3.532  0.8562 -0.7898  0.7678
 8086SOL     OW35716   0.844   1.014   9.453 -0.7120  0.0349 -0.0632
 8086SOL    HW135717   0.802   1.077   9.511 -1.5306 -2.1600  1.7355
 8086SOL    HW235718   0.768   0.982   9.407 -0.0231  1.2547 -2.0407
 8087SOL     OW35719   2.936   0.074   8.473 -0.1604 -0.5524 -0.1003
 8087SOL    HW135720   3.005   0.010   8.490  0.7070  0.3649 -0.1276
 8087SOL    HW235721   2.937   0.066   8.377  0.3715 -2.3541  0.0621
 8088SOL     OW35722   3.183   0.971  16.895  0.3562  0.1342  0.1997
 8088SOL    HW135723   3.198   0.893  16.949 -0.3905 -0.5423 -0.5618
 8088SOL    HW235724   3.249   0.968  16.826 -0.8468 -1.5251 -0.8938
 8089SOL     OW35725   1.543   1.596   9.269  0.2111 -0.4096  0.0039
 8089SOL    HW135726   1.471   1.632   9.322 -0.1012  1.4955 -1.7081
 8089SOL    HW235727   1.600   1.673   9.267 -0.1014 -0.2074 -1.1187
 8090SOL     OW35728   2.148   3.316   3.907  0.6359  0.6290 -0.3915
 8090SOL    HW135729   2.129   3.407   3.883  2.1924  1.4911  1.5210
 8090SOL    HW235730   2.240   3.327   3.931  1.1196 -0.1644 -1.9555
 8091SOL     OW35731   4.019   2.137   5.717 -0.0484  0.4298 -0.0104
 8091SOL    HW135732   3.994   2.123   5.808  0.9214 -0.5893  0.0977
 8091SOL    HW235733   4.098   2.189   5.734  0.9279 -0.1448 -2.7282
 8092SOL     OW35734   2.811   2.427   6.849 -0.6484  0.0993  0.4123
 8092SOL    HW135735   2.852   2.350   6.810 -2.3486  0.3843 -1.9044
 8092SOL    HW235736   2.885   2.488   6.860 -0.4045 -0.2377  0.6420
 8093SOL     OW35737   1.954   4.060  13.577 -0.2896 -0.5205 -0.4468
 8093SOL    HW135738   2.022   3.994  13.564 -3.2061 -3.0450 -3.0900
 8093SOL    HW235739   1.970   4.126  13.509  1.9074  0.7019  1.2853
 8094SOL     OW35740   1.528   3.293   8.512 -0.2197  0.2132  0.3045
 8094SOL    HW135741   1.521   3.378   8.467 -0.2450  0.3617  0.5937
 8094SOL    HW235742   1.515   3.308   8.605 -0.1991 -1.4934  0.5682
 8095SOL     OW35743   1.935   0.261   8.499 -0.8101  0.3456 -0.3880
 8095SOL    HW135744   1.890   0.268   8.583 -0.0361  2.6661 -0.1775
 8095SOL    HW235745   2.023   0.241   8.531 -0.6825  0.6020 -0.5814
 8096SOL     OW35746   3.292   4.139   3.751  0.0170  0.0668 -0.3431
 8096SOL    HW135747   3.304   4.132   3.656  1.1098 -3.1557  0.0358
 8096SOL    HW235748   3.309   4.233   3.759 -0.4616  0.0424  0.9349
 8097SOL     OW35749   2.411   2.144   5.164 -0.1777  0.5890  0.0482
 8097SOL    HW135750   2.315   2.139   5.161 -0.2593  2.1001 -0.2421
 8097SOL    HW235751   2.403   2.208   5.234  0.3187 -0.0791  0.7088
 8098SOL     OW35752   0.282   0.583   8.632 -0.1351  0.3821 -0.1773
 8098SOL    HW135753   0.334   0.644   8.685  1.2229 -0.5341 -0.4849
 8098SOL    HW235754   0.195   0.623   8.636 -1.4037 -2.2468 -1.9410
 8099SOL     OW35755   0.182   4.428  16.887  0.4755  0.5558 -0.1089
 8099SOL    HW135756   0.184   4.378  16.806 -0.5312 -1.5966  1.1963
 8099SOL    HW235757   0.207   4.357  16.946  0.7454  1.1744  0.5198
 8100SOL     OW35758   1.227   2.964   2.862 -0.0928 -0.1831 -0.0298
 8100SOL    HW135759   1.185   3.025   2.802  1.7333  1.5024  0.3994
 8100SOL    HW235760   1.162   2.967   2.933 -1.1786 -0.2617 -1.0246
 8101SOL     OW35761   3.352   2.817   5.298  0.1608  0.2778  0.2022
 8101SOL    HW135762   3.396   2.820   5.383  1.1786 -1.4745 -0.2471
 8101SOL    HW235763   3.314   2.729   5.298 -0.4936  0.5777 -3.3450
 8102SOL     OW35764   0.544   2.201   8.404  0.0683  0.3554 -0.0247
 8102SOL    HW135765   0.621   2.256   8.418 -0.3114  1.0757 -0.7659
 8102SOL    HW235766   0.588   2.130   8.357 -0.5041  0.9568 -1.4425
 8103SOL     OW35767   1.887   2.218  13.494 -0.0001  0.3173  0.0128
 8103SOL    HW135768   1.815   2.159  13.473  1.7104 -0.8315 -2.6032
 8103SOL    HW235769   1.862   2.260  13.577  0.7424  0.2296  0.2859
 8104SOL     OW35770   1.324   1.981   7.572  0.0500  0.1182 -0.2755
 8104SOL    HW135771   1.313   1.931   7.653  0.0785 -0.1788 -0.4527
 8104SOL    HW235772   1.270   1.927   7.514  1.3047 -0.5624 -0.7914
 8105SOL     OW35773   0.276   0.289   1.832  0.2285  0.0034  0.3710
 8105SOL    HW135774   0.371   0.291   1.840  0.3200 -2.0365 -0.0451
 8105SOL    HW235775   0.269   0.311   1.739  1.3627  1.1947  0.5689
 8106SOL     OW35776   2.073   4.704  10.769  0.2006 -0.4166 -0.0987
 8106SOL    HW135777   2.026   4.672  10.846  1.9628  2.9009  2.3501
 8106SOL    HW235778   2.164   4.680  10.787 -0.2350 -2.0806 -0.1113
 8107SOL     OW35779   3.519   4.446  16.797  0.2008 -0.6255 -0.4606
 8107SOL    HW135780   3.459   4.509  16.757  0.5362  0.0969  0.1641
 8107SOL    HW235781   3.527   4.387  16.722  0.6045  0.5886 -1.3785
 8108SOL     OW35782   1.655   3.397   4.045  0.3933 -0.1854 -0.8125
 8108SOL    HW135783   1.717   3.421   4.114 -1.2108  1.3673  0.0883
 8108SOL    HW235784   1.702   3.330   3.995 -0.5561 -1.4415 -0.0194
 8109SOL     OW35785   1.235   2.703   5.398 -0.1329 -0.2083 -0.1192
 8109SOL    HW135786   1.317   2.711   5.349 -1.0424  0.4516 -1.5234
 8109SOL    HW235787   1.233   2.774   5.462 -1.6732  0.6458 -1.1307
 8110SOL     OW35788   2.931   3.175   2.775  0.1560 -0.7414 -0.3478
 8110SOL    HW135789   2.993   3.219   2.717  1.6029 -1.2622  0.8035
 8110SOL    HW235790   2.989   3.152   2.848 -1.2244 -0.5980  0.7979
 8111SOL     OW35791   4.552   3.760  10.041  0.1098 -0.0778  0.9688
 8111SOL    HW135792   4.636   3.714  10.043 -0.8882 -1.8235  3.3361
 8111SOL    HW235793   4.507   3.739  10.123  0.0550 -1.4798  0.5851
 8112SOL     OW35794   3.841   0.578   2.154  0.5850  0.2450 -0.3941
 8112SOL    HW135795   3.836   0.637   2.229  0.5628  3.2684 -2.7879
 8112SOL    HW235796   3.748   0.560   2.141  0.4628 -0.0036  0.7995
 8113SOL     OW35797   2.884   3.354  15.821  0.6570 -0.1404 -0.4978
 8113SOL    HW135798   2.958   3.401  15.782  1.4990 -0.7307  0.3962
 8113SOL    HW235799   2.841   3.430  15.859  0.3399 -0.4963 -0.1491
 8114SOL     OW35800   0.173   4.233   5.223  0.3135 -0.1768 -0.3749
 8114SOL    HW135801   0.123   4.264   5.148 -0.1060  3.0801  1.2296
 8114SOL    HW235802   0.228   4.165   5.185  1.4530  2.1185 -2.8651
 8115SOL     OW35803   3.891   1.064   7.102  0.0051  0.3682  0.0945
 8115SOL    HW135804   3.974   1.071   7.149 -0.2258 -0.6175  0.6464
 8115SOL    HW235805   3.888   1.154   7.070  0.5492  0.0267 -0.9317
 8116SOL     OW35806   1.542   0.787   5.248 -0.0699  0.4867 -0.5131
 8116SOL    HW135807   1.577   0.799   5.160  1.3412 -0.5045 -0.0876
 8116SOL    HW235808   1.542   0.882   5.260  2.0462  0.0329  3.1305
 8117SOL     OW35809   0.446   3.733   7.653 -0.3802 -0.7860 -0.6347
 8117SOL    HW135810   0.399   3.652   7.672 -2.1425  0.0637 -1.3320
 8117SOL    HW235811   0.410   3.783   7.726  1.6580 -2.3014  1.4183
 8118SOL     OW35812   3.481   0.630   7.747  0.7787  0.4246  0.7379
 8118SOL    HW135813   3.563   0.611   7.793  1.7985  2.6514 -0.1632
 8118SOL    HW235814   3.507   0.714   7.709  0.9758  0.4341  0.8916
 8119SOL     OW35815   3.763   1.148   4.705 -0.0446 -0.6981  0.4326
 8119SOL    HW135816   3.671   1.145   4.731  0.8458  1.9611  3.8718
 8119SOL    HW235817   3.756   1.073   4.645  0.0957  0.1386 -0.6281
 8120SOL     OW35818   2.726   0.840   9.420 -0.4834  0.0154 -0.0881
 8120SOL    HW135819   2.761   0.754   9.442  0.5121  0.3966 -0.2096
 8120SOL    HW235820   2.638   0.812   9.395  0.2493 -0.4732 -2.0947
 8121SOL     OW35821   4.244   2.165   1.883 -0.4496 -0.2843  0.5833
 8121SOL    HW135822   4.162   2.157   1.932 -2.2035 -0.0367 -2.3151
 8121SOL    HW235823   4.273   2.256   1.882  2.2518 -1.2283 -2.5417
 8122SOL     OW35824   0.409   3.733  12.518 -0.1930  0.2097 -0.3877
 8122SOL    HW135825   0.353   3.810  12.515 -0.0069  0.3972  1.0939
 8122SOL    HW235826   0.465   3.738  12.440 -0.9891 -2.4316 -1.1291
 8123SOL     OW35827   2.692   3.351  13.095  0.9979  0.0914  0.3600
 8123SOL    HW135828   2.760   3.353  13.028 -1.1301 -3.4875 -1.9472
 8123SOL    HW235829   2.615   3.364  13.038  1.0163 -2.3793 -0.2079
 8124SOL     OW35830   0.255   3.530   6.578 -0.4130  0.0872  0.1861
 8124SOL    HW135831   0.318   3.601   6.592  0.1719 -0.1729 -1.1825
 8124SOL    HW235832   0.304   3.491   6.507 -0.6084  0.2062 -0.0132
 8125SOL     OW35833   4.620   0.748   3.658  0.0173 -0.0750 -0.2191
 8125SOL    HW135834   4.709   0.721   3.679 -0.4339 -2.8496 -1.8406
 8125SOL    HW235835   4.562   0.682   3.695 -1.6366  0.3967 -1.9443
 8126SOL     OW35836   3.951   3.559   1.508  0.2414 -0.1295  0.3221
 8126SOL    HW135837   4.015   3.626   1.529  1.5349 -1.0136 -0.7845
 8126SOL    HW235838   3.887   3.605   1.454  0.1786  0.9152  1.3149
 8127SOL     OW35839   0.332   2.668   7.251 -0.0921 -0.3419 -0.1773
 8127SOL    HW135840   0.376   2.583   7.239  0.9200  0.3162 -1.0635
 8127SOL    HW235841   0.393   2.703   7.317 -0.0044  0.3851 -0.6457
 8128SOL     OW35842   4.572   2.752   8.850 -0.0740  0.0058  0.1080
 8128SOL    HW135843   4.615   2.700   8.919  0.0530 -1.2931 -0.9445
 8128SOL    HW235844   4.620   2.832   8.870 -0.0113  0.3036 -1.2302
 8129SOL     OW35845   0.348   1.304   2.182 -0.1702  0.1883  0.1232
 8129SOL    HW135846   0.258   1.323   2.208  0.8856  2.8076  1.8771
 8129SOL    HW235847   0.350   1.329   2.090 -2.1088  1.0442  0.3214
 8130SOL     OW35848   0.961   3.029   9.902 -0.3117 -0.3019  0.0643
 8130SOL    HW135849   0.972   2.938   9.928  1.1921 -0.5731 -1.4241
 8130SOL    HW235850   1.002   3.019   9.815 -0.6061  1.1777 -0.2481
 8131SOL     OW35851   2.596   0.908  12.893  0.0887  0.0645  0.3241
 8131SOL    HW135852   2.617   0.857  12.971 -1.2307 -0.9288  0.0285
 8131SOL    HW235853   2.500   0.903  12.893  0.0138  1.3552  0.6700
 8132SOL     OW35854   3.981   4.250  16.094  0.4301  0.0826 -0.9228
 8132SOL    HW135855   3.910   4.233  16.157  1.3660 -0.0924  0.0768
 8132SOL    HW235856   3.942   4.253  16.007 -0.4301 -2.2866 -0.6278
 8133SOL     OW35857   2.973   1.234   3.140 -0.9749  0.5480 -0.2778
 8133SOL    HW135858   3.053   1.283   3.124  0.8597 -1.9300  1.3358
 8133SOL    HW235859   2.948   1.262   3.228  1.6152  2.4991 -0.1690
 8134SOL     OW35860   2.837   2.638   2.640 -1.0268 -0.5690 -0.4531
 8134SOL    HW135861   2.781   2.643   2.717 -1.0984 -1.2486 -0.4614
 8134SOL    HW235862   2.782   2.580   2.587  0.2865 -4.3951  2.4229
 8135SOL     OW35863   4.558   0.077  12.231 -0.2108  0.1219 -0.6439
 8135SOL    HW135864   4.640   0.033  12.210  1.3722  2.5554  0.5789
 8135SOL    HW235865   4.539   0.037  12.316 -0.0805  0.4481 -0.4637
 8136SOL     OW35866   0.476   3.973   1.183 -0.1159  0.4001 -0.3018
 8136SOL    HW135867   0.536   3.975   1.108  0.9405 -1.9387  0.4747
 8136SOL    HW235868   0.441   3.883   1.184  1.2324 -0.0989  2.2873
 8137SOL     OW35869   0.346   1.707   1.927  0.0068 -0.1907  1.1503
 8137SOL    HW135870   0.352   1.690   2.021  1.8750 -0.1788  1.0424
 8137SOL    HW235871   0.262   1.664   1.911  0.5032 -0.1318 -1.6120
 8138SOL     OW35872   4.560   2.728   1.678 -0.1361 -0.8067  0.1843
 8138SOL    HW135873   4.634   2.788   1.680  1.5351 -2.8225 -1.7800
 8138SOL    HW235874   4.587   2.672   1.605 -1.6969 -1.0390 -0.2236
 8139SOL     OW35875   1.424   3.563   5.442 -0.6156 -0.0052  0.2960
 8139SOL    HW135876   1.363   3.577   5.369  0.6910  1.3793 -0.5304
 8139SOL    HW235877   1.475   3.643   5.453  0.1335 -0.0076 -3.2516
 8140SOL     OW35878   0.387   1.033   6.017  0.2056 -0.7293  0.1599
 8140SOL    HW135879   0.438   1.066   5.943 -0.9155  0.0816 -0.2519
 8140SOL    HW235880   0.459   1.017   6.079 -0.8410 -0.9959  1.3163
 8141SOL     OW35881   1.638   0.390   2.697 -0.7067  0.1273 -0.1038
 8141SOL    HW135882   1.629   0.328   2.625 -1.5277  2.0437 -1.6473
 8141SOL    HW235883   1.711   0.347   2.741 -0.6182 -0.6101 -0.9854
 8142SOL     OW35884   3.571   3.249  12.532  0.4241  0.2121 -0.5790
 8142SOL    HW135885   3.506   3.203  12.584 -0.6256 -0.6449 -2.6430
 8142SOL    HW235886   3.638   3.181  12.533 -0.8628 -1.0336 -0.5553
 8143SOL     OW35887   4.438   3.617   4.557  0.2137  0.3103  0.2335
 8143SOL    HW135888   4.384   3.571   4.621 -2.9571  4.3682  0.4652
 8143SOL    HW235889   4.410   3.569   4.479  1.0073 -2.3066  1.5560
 8144SOL     OW35890   0.996   3.466  10.611  0.1047  0.1130 -0.0436
 8144SOL    HW135891   1.066   3.454  10.547  0.9680  0.0113  0.9038
 8144SOL    HW235892   1.003   3.559  10.635  0.1017 -0.0093  0.4433
 8145SOL     OW35893   4.112   2.052   3.330  0.1000  0.2137 -0.1708
 8145SOL    HW135894   4.067   2.087   3.407 -0.3476  2.8216 -1.6099
 8145SOL    HW235895   4.043   2.050   3.263  0.2739 -0.6545 -0.3293
 8146SOL     OW35896   2.611   2.467   3.250  0.9503  0.1243 -0.2500
 8146SOL    HW135897   2.526   2.431   3.277  0.1190  1.0276 -1.6974
 8146SOL    HW235898   2.661   2.418   3.316 -1.1704 -0.8126  0.6640
 8147SOL     OW35899   1.851   2.124   9.316  0.2438  0.6285 -0.2175
 8147SOL    HW135900   1.788   2.097   9.382  0.6439 -1.8419 -0.8487
 8147SOL    HW235901   1.787   2.137   9.246  0.3197 -1.2391 -0.6362
 8148SOL     OW35902   0.910   2.234   9.233  0.3656 -0.4723  0.3018
 8148SOL    HW135903   0.859   2.225   9.152  1.4807 -1.9843 -0.2251
 8148SOL    HW235904   0.876   2.319   9.261  0.6779  0.2256 -1.4782
 8149SOL     OW35905   4.632   1.554   3.770  0.0965  0.2019  0.3121
 8149SOL    HW135906   4.671   1.600   3.695  1.8478 -0.2001  0.9688
 8149SOL    HW235907   4.709   1.506   3.801 -0.0362 -0.8260 -0.9351
 8150SOL     OW35908   1.715   3.491  10.124 -0.4018  0.0284 -0.4928
 8150SOL    HW135909   1.740   3.571  10.077  2.0575 -0.7640 -0.5439
 8150SOL    HW235910   1.675   3.541  10.196 -0.5030 -0.0040 -0.5266
 8151SOL     OW35911   0.821   1.689   3.281 -0.4805  0.4636 -0.0170
 8151SOL    HW135912   0.755   1.651   3.224 -1.1267  0.3728  0.7885
 8151SOL    HW235913   0.894   1.647   3.235  0.2232  0.7770  0.8050
 8152SOL     OW35914   3.891   4.169  15.827 -0.1223 -0.3875 -0.2863
 8152SOL    HW135915   3.885   4.080  15.791  4.1096 -1.3602  1.3714
 8152SOL    HW235916   3.947   4.213  15.764  1.0031  0.3908  1.2641
 8153SOL     OW35917   0.867   3.294   5.251  0.0374  0.4914 -0.0988
 8153SOL    HW135918   0.884   3.220   5.309 -2.1268  1.2009  1.4417
 8153SOL    HW235919   0.882   3.367   5.311  1.5634  0.6248 -0.6441
 8154SOL     OW35920   2.464   0.751   9.353 -0.6814  0.2207 -0.0420
 8154SOL    HW135921   2.388   0.802   9.325  0.2162  1.3999 -0.3571
 8154SOL    HW235922   2.419   0.669   9.336 -1.7710  1.0661 -1.2070
 8155SOL     OW35923   1.307   1.399   6.393 -0.5154  0.1323 -0.2264
 8155SOL    HW135924   1.245   1.390   6.465  0.8990  0.5707  1.0482
 8155SOL    HW235925   1.246   1.412   6.321 -0.1481 -0.1177 -0.5869
 8156SOL     OW35926   3.733   1.276   2.233 -0.1613  0.2792 -0.0395
 8156SOL    HW135927   3.751   1.199   2.287  0.1490  0.0351 -0.4901
 8156SOL    HW235928   3.648   1.256   2.195 -1.3262  0.2599  2.5886
 8157SOL     OW35929   3.108   2.522   6.606  0.2909 -0.5024  0.0854
 8157SOL    HW135930   3.022   2.504   6.570  1.0913  2.5651 -3.3074
 8157SOL    HW235931   3.138   2.582   6.537 -2.3074  3.6626  2.5987
 8158SOL     OW35932   3.221   1.283   4.558  0.6147 -0.0157  0.2610
 8158SOL    HW135933   3.128   1.296   4.539  0.4014  0.9611  1.9951
 8158SOL    HW235934   3.210   1.218   4.627 -3.1970 -1.2840 -1.5485
 8159SOL     OW35935   3.965   3.942   5.095 -0.4307  0.0243  0.5787
 8159SOL    HW135936   3.973   3.855   5.134  1.0634 -0.3198 -0.4772
 8159SOL    HW235937   4.031   3.985   5.149  1.5752 -0.2939 -1.6154
 8160SOL     OW35938   2.396   4.496   5.559 -0.5595 -0.0111 -0.2275
 8160SOL    HW135939   2.337   4.570   5.576 -2.0157 -1.6252  1.7240
 8160SOL    HW235940   2.348   4.414   5.572 -0.7906  0.4294  1.7429
 8161SOL     OW35941   3.254   0.788  12.574 -0.5515 -0.0334 -0.2422
 8161SOL    HW135942   3.300   0.742  12.503 -0.4254  0.5275 -0.5229
 8161SOL    HW235943   3.164   0.800  12.544  0.7061  3.2965 -2.7486
 8162SOL     OW35944   0.481   2.267  13.239  0.4531 -0.2769 -0.2493
 8162SOL    HW135945   0.487   2.173  13.256  4.3226  0.0389  0.1373
 8162SOL    HW235946   0.567   2.292  13.272  0.5532 -1.2698  0.2232
 8163SOL     OW35947   2.210   1.866  17.058  0.6442  0.0381  0.0178
 8163SOL    HW135948   2.148   1.898  16.992  1.6683  0.0545 -0.9335
 8163SOL    HW235949   2.205   1.771  17.046 -0.4058  0.0439  0.3245
 8164SOL     OW35950   4.027   0.928  16.261 -0.6063 -0.0418 -0.2781
 8164SOL    HW135951   4.072   0.879  16.192 -1.3242  0.5489 -1.1672
 8164SOL    HW235952   4.051   1.013  16.224  0.0179  1.1489  2.8575
 8165SOL     OW35953   0.305   4.185   2.688  0.1005 -0.0312  0.1080
 8165SOL    HW135954   0.236   4.195   2.622 -1.2503 -0.9456  1.3835
 8165SOL    HW235955   0.316   4.091   2.675 -1.4538 -0.1400 -0.3585
 8166SOL     OW35956   1.384   2.109  11.403  0.6861 -0.1820  0.1040
 8166SOL    HW135957   1.317   2.171  11.434  0.6616  0.5062 -1.3370
 8166SOL    HW235958   1.464   2.151  11.434  1.5342 -0.4589 -1.7036
 8167SOL     OW35959   3.403   4.199   6.139  0.0476 -0.5579 -0.1167
 8167SOL    HW135960   3.400   4.289   6.171 -1.3168 -0.1663 -1.3665
 8167SOL    HW235961   3.344   4.205   6.064 -2.1679  1.0599  1.7887
 8168SOL     OW35962   4.652   3.024   4.344  0.3457  0.0745 -0.0935
 8168SOL    HW135963   0.006   3.084   4.341  0.2672  0.1204 -1.0703
 8168SOL    HW235964   4.596   3.055   4.415 -0.2041 -0.2341 -0.3999
 8169SOL     OW35965   0.518   1.505   5.009  0.1086 -0.1030 -0.2901
 8169SOL    HW135966   0.597   1.482   5.058 -1.4499 -0.9071  1.8220
 8169SOL    HW235967   0.532   1.474   4.919 -2.0145 -2.5619  0.2428
 8170SOL     OW35968   3.597   3.100   6.477  0.3835  0.0003  0.1593
 8170SOL    HW135969   3.686   3.132   6.460  0.9587 -0.7435  1.7183
 8170SOL    HW235970   3.574   3.161   6.547 -0.7791  0.4664 -0.6322
 8171SOL     OW35971   4.709   2.056  12.102  1.2055 -0.2326 -0.0789
 8171SOL    HW135972   4.702   2.037  12.196  0.6825  0.2293 -0.0244
 8171SOL    HW235973   4.655   1.989  12.059 -1.7007  2.2986 -0.3616
 8172SOL     OW35974   3.222   3.918   5.687 -0.4650 -0.0965  0.2068
 8172SOL    HW135975   3.314   3.890   5.684 -0.5254 -0.5368  3.2899
 8172SOL    HW235976   3.178   3.834   5.674 -0.5852 -0.2796  1.8225
 8173SOL     OW35977   4.321   1.425  12.051  0.2498  0.0500 -0.4761
 8173SOL    HW135978   4.343   1.505  12.099  1.0253 -0.8006  0.5900
 8173SOL    HW235979   4.264   1.386  12.116  0.8331  1.0751  0.6529
 8174SOL     OW35980   1.690   0.316   9.502 -0.1170 -0.0308  0.1018
 8174SOL    HW135981   1.758   0.380   9.479 -0.9869  1.2065  0.9212
 8174SOL    HW235982   1.749   0.245   9.524  0.4810  0.2378 -0.6227
 8175SOL     OW35983   1.588   4.649   8.359  0.0930  0.2655  0.5402
 8175SOL    HW135984   1.611   0.005   8.412  2.9626 -0.5064  0.3942
 8175SOL    HW235985   1.505   4.624   8.401  1.1546  0.7762  2.9407
 8176SOL     OW35986   2.839   1.736   2.115 -0.2270  0.4869 -0.4599
 8176SOL    HW135987   2.872   1.701   2.197 -0.9050  0.8606 -0.0295
 8176SOL    HW235988   2.863   1.668   2.052  1.4808  1.8611 -1.3125
 8177SOL     OW35989   1.260   3.250   6.123 -0.1124  0.3776 -0.0161
 8177SOL    HW135990   1.325   3.180   6.113  0.3213  0.5822  1.3808
 8177SOL    HW235991   1.228   3.234   6.212 -0.6871 -0.6935 -0.4144
 8178SOL     OW35992   4.335   2.750   6.019  0.1669 -0.4655 -0.4265
 8178SOL    HW135993   4.267   2.766   5.954 -0.2496 -1.0098 -0.1204
 8178SOL    HW235994   4.348   2.660   5.988 -0.3629 -0.8856  0.5734
 8179SOL     OW35995   3.635   0.331   2.198 -0.0368 -0.0560 -0.2611
 8179SOL    HW135996   3.588   0.412   2.180  1.0376  0.3575 -1.1925
 8179SOL    HW235997   3.621   0.281   2.117 -0.2410  0.9823 -0.8685
 8180SOL     OW35998   2.381   2.900   5.839  0.0941 -0.3756  0.3411
 8180SOL    HW135999   2.460   2.870   5.795 -0.5342 -0.5547 -0.6814
 8180SOL    HW236000   2.331   2.820   5.857 -1.6066  0.6636  0.2149
 8181SOL     OW36001   1.544   0.994   7.068  0.3724 -0.3431 -0.0124
 8181SOL    HW136002   1.537   1.084   7.036  0.4251 -0.3023  0.0922
 8181SOL    HW236003   1.618   0.997   7.128 -0.7117  2.2551  1.2336
 8182SOL     OW36004   0.951   2.398  11.476 -0.2339  0.0098  0.0129
 8182SOL    HW136005   1.007   2.390  11.399 -1.4169 -0.2900 -0.8195
 8182SOL    HW236006   0.972   2.322  11.530  1.0985  1.3805  1.4214
 8183SOL     OW36007   3.282   4.681   3.996  0.5313 -0.7714 -0.2274
 8183SOL    HW136008   3.226   4.622   4.047  0.4447 -0.7475 -0.2951
 8183SOL    HW236009   3.237   0.045   4.003 -1.1617 -1.4534 -2.7730
 8184SOL     OW36010   3.420   0.550   6.556 -0.1687  0.0108 -0.4046
 8184SOL    HW136011   3.421   0.599   6.637  5.2913 -0.8731  0.1090
 8184SOL    HW236012   3.329   0.555   6.528 -0.4463  2.5631  0.9746
 8185SOL     OW36013   1.780   1.624   4.164  0.2225 -0.4642  0.1150
 8185SOL    HW136014   1.693   1.596   4.135  0.2649  1.0178 -1.4706
 8185SOL    HW236015   1.795   1.700   4.108 -3.1435  0.6808  0.7298
 8186SOL     OW36016   3.888   0.643  15.958 -0.0433  0.7249 -0.1112
 8186SOL    HW136017   3.832   0.714  15.991  2.4365  0.9224  3.7216
 8186SOL    HW236018   3.907   0.605  16.044 -0.6094  0.7000  0.0016
 8187SOL     OW36019   0.111   3.814   6.676  0.1946  0.2818  0.4012
 8187SOL    HW136020   0.112   3.910   6.679 -3.6175  0.3349 -0.4317
 8187SOL    HW236021   0.199   3.796   6.642  0.3342 -1.7163  1.8509
 8188SOL     OW36022   2.863   2.300   8.142  0.1901 -0.5349  0.1748
 8188SOL    HW136023   2.795   2.364   8.122  0.6604 -0.7514 -2.0511
 8188SOL    HW236024   2.916   2.320   8.066 -0.9018  0.8133 -0.2236
 8189SOL     OW36025   3.302   4.662   7.471 -0.1631  0.1542  0.6386
 8189SOL    HW136026   3.210   4.676   7.446  0.2984 -1.2814 -1.7979
 8189SOL    HW236027   3.320   0.027   7.510 -0.9852  1.3846 -1.7113
 8190SOL     OW36028   0.641   2.229  17.515  0.3382  0.2686 -0.8371
 8190SOL    HW136029   0.712   2.213  17.452 -0.7749 -0.6435 -1.8768
 8190SOL    HW236030   0.610   2.139  17.518 -0.5523  0.6386  0.6536
 8191SOL     OW36031   3.939   3.354   7.319  0.0391  0.3995  0.4986
 8191SOL    HW136032   3.992   3.337   7.397 -0.3735  1.2096  0.9588
 8191SOL    HW236033   3.979   3.438   7.295  0.7466 -0.7582 -2.3795
 8192SOL     OW36034   1.892   2.303   8.181 -0.2880 -1.1601  0.4706
 8192SOL    HW136035   1.898   2.283   8.088  0.6173 -0.4686  0.3853
 8192SOL    HW236036   1.801   2.331   8.189  0.0221  0.4845 -1.7851
 8193SOL     OW36037   4.339   3.680  11.798  0.1488 -0.1433 -0.2068
 8193SOL    HW136038   4.379   3.753  11.751  0.8536 -1.2817 -1.3712
 8193SOL    HW236039   4.399   3.615  11.762  0.4092 -0.6153  1.1033
 8194SOL     OW36040   1.572   1.731   7.187  1.0983  0.5537 -0.5608
 8194SOL    HW136041   1.630   1.791   7.234  2.9997 -0.9446 -1.0124
 8194SOL    HW236042   1.532   1.783   7.117  2.6484  0.9191 -1.1772
 8195SOL     OW36043   3.057   3.258   6.735 -0.6301 -0.0032  0.0072
 8195SOL    HW136044   3.137   3.241   6.684 -1.2719 -1.1383 -0.6188
 8195SOL    HW236045   3.031   3.330   6.677 -0.4481  0.3596  0.3733
 8196SOL     OW36046   3.591   0.147   3.607  0.3055  0.5130 -0.3412
 8196SOL    HW136047   3.578   0.080   3.674 -1.5604  0.9619 -0.2483
 8196SOL    HW236048   3.594   0.225   3.663  0.8760  0.1045  0.1997
 8197SOL     OW36049   1.655   2.144   6.605 -0.6510  0.1103  0.3618
 8197SOL    HW136050   1.570   2.101   6.595 -0.5278 -0.2071  0.6624
 8197SOL    HW236051   1.637   2.233   6.575  0.1494 -0.1818 -0.9550
 8198SOL     OW36052   0.402   0.259   7.835 -0.0611  0.2023 -0.4016
 8198SOL    HW136053   0.454   0.179   7.842  0.1381  0.3675 -0.0114
 8198SOL    HW236054   0.320   0.236   7.876 -1.0530  1.6028 -1.5783
 8199SOL     OW36055   1.968   4.683   9.480 -0.1391  0.0081  0.1471
 8199SOL    HW136056   1.955   4.688   9.386 -1.4956  1.1425  0.3786
 8199SOL    HW236057   1.888   4.638   9.509  0.9286 -0.1103  2.9768
 8200SOL     OW36058   2.716   0.158   2.930  0.6333  0.0267  0.0808
 8200SOL    HW136059   2.805   0.125   2.920  0.3268 -0.4818 -0.9698
 8200SOL    HW236060   2.712   0.228   2.864  2.3215  0.0704  0.0063
 8201SOL     OW36061   3.429   2.876   7.031  0.9076  0.1667  0.2649
 8201SOL    HW136062   3.475   2.920   6.959  0.0279 -0.6584 -0.8063
 8201SOL    HW236063   3.440   2.946   7.095 -0.3560 -1.6701  2.4807
 8202SOL     OW36064   0.204   0.956  11.099  0.3598 -0.8925 -0.0184
 8202SOL    HW136065   0.129   0.914  11.058 -0.7642 -0.3431  1.4806
 8202SOL    HW236066   0.191   0.913  11.183 -0.9722 -0.8959 -0.2315
 8203SOL     OW36067   4.690   3.250   6.047 -0.0864 -0.0137  0.2697
 8203SOL    HW136068   4.698   3.182   6.114 -2.7494  1.1882  1.7899
 8203SOL    HW236069   4.645   3.320   6.093  0.4925  0.0551  0.7346
 8204SOL     OW36070   3.149   0.293   5.292  0.1705 -0.2887 -0.0480
 8204SOL    HW136071   3.077   0.246   5.249  1.5953 -1.5703 -1.0518
 8204SOL    HW236072   3.117   0.281   5.382 -0.9499  0.7081 -0.3126
 8205SOL     OW36073   0.555   2.953   2.199 -0.1404 -0.0051 -1.1531
 8205SOL    HW136074   0.543   2.882   2.261  0.9486 -0.0272 -0.9640
 8205SOL    HW236075   0.504   2.902   2.136  0.3030  0.7519 -2.1460
 8206SOL     OW36076   2.401   3.736   7.864 -0.0166  0.5362 -0.0640
 8206SOL    HW136077   2.370   3.690   7.785  2.0412 -0.3505 -0.3653
 8206SOL    HW236078   2.314   3.742   7.903 -0.5069  2.8533 -1.5487
 8207SOL     OW36079   0.918   1.335   2.414 -0.1609  0.1246 -0.6312
 8207SOL    HW136080   0.971   1.265   2.452  0.1859  1.0588  0.6160
 8207SOL    HW236081   0.982   1.405   2.394 -1.2475  0.5864 -2.4983
 8208SOL     OW36082   2.212   3.995  13.221 -0.6879 -0.2632 -0.3050
 8208SOL    HW136083   2.285   3.936  13.238 -1.0515 -0.7732 -0.5339
 8208SOL    HW236084   2.254   4.045  13.151 -3.3368  1.5444 -0.6188
 8209SOL     OW36085   0.989   3.411   0.769 -0.4629  0.4276  0.0037
 8209SOL    HW136086   1.034   3.375   0.693 -0.8375 -1.4338  0.6541
 8209SOL    HW236087   0.896   3.398   0.749 -0.6994 -0.5818  1.7806
 8210SOL     OW36088   3.740   3.369   1.376  0.9606  0.0486 -0.8026
 8210SOL    HW136089   3.697   3.418   1.447  1.0231 -0.6233 -0.2967
 8210SOL    HW236090   3.664   3.353   1.320 -0.4207 -0.2387  1.1422
 8211SOL     OW36091   3.099   0.877   4.298  0.5440 -0.0364 -0.3111
 8211SOL    HW136092   3.122   0.801   4.352 -4.0320 -1.8285 -0.9335
 8211SOL    HW236093   3.168   0.938   4.326  2.9792 -2.4078 -1.2610
 8212SOL     OW36094   2.948   2.317   1.432 -0.2914 -0.0144 -0.1190
 8212SOL    HW136095   2.882   2.248   1.439  0.2987 -0.5284  0.3578
 8212SOL    HW236096   3.024   2.267   1.401  0.9597  1.3329  0.7588
 8213SOL     OW36097   3.920   4.108   9.777  0.5731  0.5516  0.0097
 8213SOL    HW136098   3.873   4.183   9.741  0.9232 -0.1619 -1.9276
 8213SOL    HW236099   3.999   4.097   9.725  0.3663  0.7673 -0.3468
 8214SOL     OW36100   2.092   4.216   3.240  1.0931 -0.3814  0.5311
 8214SOL    HW136101   2.113   4.289   3.182 -1.9197  0.2025  0.1752
 8214SOL    HW236102   1.997   4.213   3.227  1.3419  1.5024 -1.8049
 8215SOL     OW36103   4.278   4.306   3.221 -0.1884 -0.4309 -0.0706
 8215SOL    HW136104   4.190   4.342   3.213  0.2894  0.9331  0.8121
 8215SOL    HW236105   4.291   4.281   3.130 -1.4678  0.9883 -0.6439
 8216SOL     OW36106   0.779   3.447   8.935 -0.3013 -0.2844 -0.1222
 8216SOL    HW136107   0.854   3.452   8.875  0.6119  0.1612  1.0480
 8216SOL    HW236108   0.804   3.507   9.005 -0.1531  0.6871 -1.0164
 8217SOL     OW36109   3.954   4.347  17.550  0.2628  1.2678 -0.0826
 8217SOL    HW136110   3.917   4.294  17.479  2.3339 -0.0589 -0.1683
 8217SOL    HW236111   4.024   4.285  17.573 -1.6178 -0.5512  0.7390
 8218SOL     OW36112   0.794   3.011   3.480 -0.4248 -0.3970  0.3026
 8218SOL    HW136113   0.880   3.029   3.518  1.1491 -1.2215 -2.8322
 8218SOL    HW236114   0.734   2.999   3.553  0.5752 -0.7761  1.0590
 8219SOL     OW36115   1.507   4.229   4.858  0.1752 -0.3817  0.6631
 8219SOL    HW136116   1.538   4.258   4.772  1.3596  0.3497  1.3299
 8219SOL    HW236117   1.594   4.226   4.899  0.0123 -1.1826  0.9422
 8220SOL     OW36118   0.056   4.178   6.953  0.0302 -0.0673  0.5558
 8220SOL    HW136119   0.031   4.126   7.030  0.3772  1.7774  1.9077
 8220SOL    HW236120   0.060   4.264   6.993  3.0966  0.3636 -0.7273
 8221SOL     OW36121   0.859   4.299   3.607  0.2209 -0.0424 -0.4587
 8221SOL    HW136122   0.945   4.294   3.649 -0.5428  1.1449  1.2177
 8221SOL    HW236123   0.807   4.342   3.675  3.7231  0.7534  1.7157
 8222SOL     OW36124   3.332   1.856   3.363 -0.6485  0.1237  0.3337
 8222SOL    HW136125   3.367   1.779   3.408  0.2687 -0.8316 -2.0103
 8222SOL    HW236126   3.409   1.912   3.350 -2.1232  1.8825 -0.6810
 8223SOL     OW36127   2.043   1.207   1.297  0.2403 -0.0899 -0.0785
 8223SOL    HW136128   2.027   1.112   1.297  1.2753 -0.2682 -0.6868
 8223SOL    HW236129   1.960   1.241   1.329 -1.2386 -1.2284 -2.7018
 8224SOL     OW36130   1.328   2.699   7.044 -0.0362  0.5690 -0.4197
 8224SOL    HW136131   1.328   2.703   6.948 -1.3193  1.5478 -0.3804
 8224SOL    HW236132   1.391   2.629   7.062 -0.2164  0.7891  1.0200
 8225SOL     OW36133   1.296   1.975   4.906 -0.4467 -0.1333  0.0460
 8225SOL    HW136134   1.359   1.921   4.955  1.0258  0.8988 -0.7208
 8225SOL    HW236135   1.273   2.039   4.973  3.4380  0.3970  0.8714
 8226SOL     OW36136   2.262   3.432  15.371  0.1454  0.3415 -0.0520
 8226SOL    HW136137   2.288   3.498  15.307 -0.7675 -1.3525 -2.1546
 8226SOL    HW236138   2.199   3.384  15.317  0.0425 -1.4096  1.6266
 8227SOL     OW36139   0.616   4.307   0.507  0.0149  0.4277 -0.4646
 8227SOL    HW136140   0.551   4.289   0.438 -2.3496  2.2435  1.2775
 8227SOL    HW236141   0.680   4.240   0.485 -0.2339 -0.0782  0.3600
 8228SOL     OW36142   3.341   2.631   7.844  0.6910  0.1630  0.2491
 8228SOL    HW136143   3.264   2.576   7.829  0.0772  0.4728  2.2855
 8228SOL    HW236144   3.390   2.606   7.765 -0.1867 -0.0382 -0.2390
 8229SOL     OW36145   2.963   4.196  13.614  0.8903  0.0872  0.3941
 8229SOL    HW136146   3.053   4.223  13.633  1.6300 -3.3370  1.8048
 8229SOL    HW236147   2.969   4.155  13.528  0.8235  0.8703  0.0233
 8230SOL     OW36148   2.093   0.043  10.493  0.0345  0.1244  0.3508
 8230SOL    HW136149   2.073   0.002  10.577  3.3391 -1.2228  0.5161
 8230SOL    HW236150   2.006   0.082  10.483  0.8208  1.7764 -0.1835
 8231SOL     OW36151   3.897   1.319   9.595 -0.0566  0.8416  0.1770
 8231SOL    HW136152   3.975   1.352   9.638  0.8062 -1.2201  0.2247
 8231SOL    HW236153   3.913   1.224   9.593 -1.2171  0.6587 -0.7283
 8232SOL     OW36154   4.611   3.646   3.767  0.6049  0.5884 -0.0327
 8232SOL    HW136155   4.670   3.721   3.754  1.6337 -0.5472 -2.0328
 8232SOL    HW236156   4.529   3.689   3.789 -0.0220 -0.5526 -0.1723
 8233SOL     OW36157   3.482   0.250   8.094  0.3185  0.2355 -0.0254
 8233SOL    HW136158   3.440   0.174   8.053  1.1254 -0.0064 -0.4005
 8233SOL    HW236159   3.493   0.211   8.180 -2.8293  0.3311  0.4020
 8234SOL     OW36160   0.492   3.593  13.448  0.2816 -0.7909  0.2104
 8234SOL    HW136161   0.492   3.648  13.370 -1.6532  0.6344  1.2081
 8234SOL    HW236162   0.396   3.590  13.445  0.1711 -0.9270  4.0242
 8235SOL     OW36163   0.585   2.798   2.920 -0.3069 -0.6836  0.4236
 8235SOL    HW136164   0.546   2.772   3.003  1.7245  1.1860  1.9746
 8235SOL    HW236165   0.676   2.772   2.931 -0.1734 -0.1740  0.5307
 8236SOL     OW36166   0.609   2.646   4.420 -0.1286  0.2485 -0.6540
 8236SOL    HW136167   0.669   2.648   4.494 -0.5481  1.5674 -0.3418
 8236SOL    HW236168   0.602   2.740   4.404 -1.3122  0.2987  0.1409
 8237SOL     OW36169   1.248   3.027   6.417 -0.1961  0.9913 -0.3226
 8237SOL    HW136170   1.214   3.116   6.409  0.8121  1.5354  1.6482
 8237SOL    HW236171   1.339   3.048   6.436 -0.5759  1.6134  0.7902
 8238SOL     OW36172   3.680   0.095  12.471  0.4456 -0.3003  0.3289
 8238SOL    HW136173   3.599   0.105  12.421  1.7792  0.7033 -1.6589
 8238SOL    HW236174   3.637   0.110  12.555  0.5785 -2.5696  0.7934
 8239SOL     OW36175   0.259   2.163   3.081  0.4472  0.3804  0.2067
 8239SOL    HW136176   0.257   2.215   3.162  1.1791  1.2230 -0.3310
 8239SOL    HW236177   0.272   2.223   3.008 -0.7972  1.8257  1.1527
 8240SOL     OW36178   2.357   0.652   8.627  0.2912 -0.2094  0.0880
 8240SOL    HW136179   2.274   0.605   8.625 -0.5484  1.3331 -1.3801
 8240SOL    HW236180   2.414   0.601   8.570  0.2404 -1.7260  1.3883
 8241SOL     OW36181   3.242   1.243  16.784  0.1286 -0.3375 -0.0699
 8241SOL    HW136182   3.312   1.178  16.787  1.4010  1.0464  0.2314
 8241SOL    HW236183   3.257   1.281  16.870 -1.7776 -2.5336  1.2268
 8242SOL     OW36184   4.288   0.361  11.910 -0.3982  0.3883  0.0958
 8242SOL    HW136185   4.229   0.430  11.879 -0.7495  0.1610  0.2689
 8242SOL    HW236186   4.248   0.323  11.988  0.8122 -0.7113  0.1766
 8243SOL     OW36187   4.282   1.591   8.482 -0.2681 -0.0013 -0.1357
 8243SOL    HW136188   4.365   1.548   8.500 -0.6530 -0.1083  1.3329
 8243SOL    HW236189   4.309   1.655   8.416  0.6437  1.4893  1.6849
 8244SOL     OW36190   3.302   1.948   5.281  0.3027  0.0257  0.1906
 8244SOL    HW136191   3.252   1.964   5.361 -0.6110 -0.3939 -0.3079
 8244SOL    HW236192   3.380   2.002   5.296 -1.3307  2.1352  0.9741
 8245SOL     OW36193   2.178   0.095  16.812 -0.6278 -0.5282  0.3247
 8245SOL    HW136194   2.152   0.006  16.786 -0.7951  0.0042 -1.3382
 8245SOL    HW236195   2.190   0.135  16.726 -0.6779  0.9605  1.0263
 8246SOL     OW36196   2.299   3.364   2.591 -0.4410 -0.0601 -0.5308
 8246SOL    HW136197   2.251   3.436   2.549 -0.2414  1.2408  1.4590
 8246SOL    HW236198   2.279   3.368   2.684 -0.8847 -1.9422 -0.5494
 8247SOL     OW36199   1.598   1.403   3.121  0.6861  0.4384 -0.7610
 8247SOL    HW136200   1.667   1.406   3.055  0.0728  0.5844 -1.3997
 8247SOL    HW236201   1.644   1.366   3.196  0.3537 -0.9369 -1.2332
 8248SOL     OW36202   3.779   3.361   9.636 -0.4426  0.3298 -0.0315
 8248SOL    HW136203   3.744   3.399   9.556  1.1407  2.2989  0.2100
 8248SOL    HW236204   3.857   3.316   9.604 -1.0539 -1.3694  0.8675
 8249SOL     OW36205   3.727   2.963   3.516  0.2484  0.4610 -0.0722
 8249SOL    HW136206   3.780   2.890   3.548  0.2594 -0.6993 -2.8141
 8249SOL    HW236207   3.779   3.042   3.529  2.3149 -0.7419 -1.0704
 8250SOL     OW36208   3.751   4.659   5.145 -0.1256  0.1160 -0.0240
 8250SOL    HW136209   3.692   0.004   5.107 -0.3388  0.3014  0.6178
 8250SOL    HW236210   3.698   4.581   5.128  2.0042 -1.3870  0.2401
 8251SOL     OW36211   4.475   3.078   4.561  0.1486  0.0622 -0.2688
 8251SOL    HW136212   4.382   3.076   4.584  0.1881 -0.9486 -0.2281
 8251SOL    HW236213   4.510   3.020   4.629  1.2167  1.4201  0.3611
 8252SOL     OW36214   3.169   0.382  15.797 -0.2868  0.3915 -0.0751
 8252SOL    HW136215   3.081   0.415  15.812  0.0831  0.5490  1.7255
 8252SOL    HW236216   3.142   0.290  15.803 -1.0953  0.5582 -1.0590
 8253SOL     OW36217   2.968   1.176  16.673 -0.2596  0.3762  0.1343
 8253SOL    HW136218   2.917   1.229  16.734 -1.3594 -2.3455  1.5788
 8253SOL    HW236219   3.060   1.178  16.698  0.5217 -1.7845 -2.5901
 8254SOL     OW36220   0.556   3.393   7.830 -0.0022 -0.3757 -0.3090
 8254SOL    HW136221   0.616   3.355   7.894 -0.0128 -0.0714 -0.1216
 8254SOL    HW236222   0.496   3.322   7.809 -0.8271  0.3127 -0.2904
 8255SOL     OW36223   0.633   4.255   6.780  0.3183 -0.0263 -0.0114
 8255SOL    HW136224   0.682   4.317   6.725 -0.8030  0.7454 -0.1376
 8255SOL    HW236225   0.698   4.193   6.813  0.8734  0.4285 -0.2363
 8256SOL     OW36226   2.637   3.325   8.601  0.1042 -0.7587 -0.0249
 8256SOL    HW136227   2.712   3.379   8.574  1.5696 -1.7924  1.9671
 8256SOL    HW236228   2.640   3.258   8.533 -1.4853 -1.8754  1.0060
 8257SOL     OW36229   3.542   4.200   3.915 -0.4872 -0.2949 -0.0585
 8257SOL    HW136230   3.461   4.168   3.875 -2.3978  1.3351  2.4974
 8257SOL    HW236231   3.615   4.144   3.888 -0.9933 -0.1100 -1.8476
 8258SOL     OW36232   2.768   4.149  10.494  0.1769 -0.0514  0.4357
 8258SOL    HW136233   2.850   4.107  10.520 -1.0168 -0.8807  2.8000
 8258SOL    HW236234   2.780   4.236  10.532 -0.9466  0.4893 -0.4380
 8259SOL     OW36235   4.204   2.391   4.670 -0.3183 -0.1136 -0.1557
 8259SOL    HW136236   4.293   2.399   4.705 -0.4205 -1.1696  0.3397
 8259SOL    HW236237   4.190   2.297   4.672 -3.2043  0.3493  1.0840
 8260SOL     OW36238   4.590   1.684  11.688  0.2094 -0.3550  0.5093
 8260SOL    HW136239   4.547   1.650  11.609 -1.7042  0.6846  1.1134
 8260SOL    HW236240   4.550   1.637  11.761 -2.0551  1.8156  0.6718
 8261SOL     OW36241   1.527   2.533   0.816 -0.4908 -0.3396 -0.3612
 8261SOL    HW136242   1.526   2.456   0.758  1.4365 -0.2207 -0.5630
 8261SOL    HW236243   1.434   2.534   0.835 -0.5941 -2.3367 -0.7570
 8262SOL     OW36244   1.166   1.889   4.678 -0.9357 -0.1917  0.0249
 8262SOL    HW136245   1.190   1.908   4.769 -0.0364 -1.7438  0.1087
 8262SOL    HW236246   1.120   1.806   4.690 -1.4770 -0.3477 -3.3727
 8263SOL     OW36247   2.783   0.630  15.578 -0.1920 -0.6494 -0.0598
 8263SOL    HW136248   2.830   0.599  15.655 -0.3400 -0.6370  0.0373
 8263SOL    HW236249   2.741   0.552  15.542 -2.5580  1.0972 -1.1328
 8264SOL     OW36250   0.825   2.224   3.993 -0.2540 -0.0330  0.4062
 8264SOL    HW136251   0.782   2.191   3.915  0.5434 -0.6011  0.2151
 8264SOL    HW236252   0.746   2.252   4.038 -1.3285 -0.8519 -0.9913
 8265SOL     OW36253   2.541   4.609  10.283 -0.8762 -0.4056 -0.2142
 8265SOL    HW136254   2.624   4.647  10.311 -1.9496  1.4579  0.3988
 8265SOL    HW236255   2.563   4.603  10.190 -0.5219  1.9102 -0.2716
 8266SOL     OW36256   0.565   3.900   6.967 -1.0390  0.0353 -0.0159
 8266SOL    HW136257   0.477   3.862   6.964 -0.6922 -0.9222  1.5135
 8266SOL    HW236258   0.608   3.869   6.887 -1.7350  0.1315 -0.4234
 8267SOL     OW36259   1.904   4.327   0.202 -0.3218 -0.2627  0.0802
 8267SOL    HW136260   1.865   4.247   0.168  1.3076 -0.0419 -2.2913
 8267SOL    HW236261   1.875   4.337   0.292  0.8485 -0.6029  0.4959
 8268SOL     OW36262   1.129   3.096   3.956 -0.0296 -0.6522 -0.4961
 8268SOL    HW136263   1.185   3.104   4.033 -2.2197 -0.6207  1.0775
 8268SOL    HW236264   1.180   3.144   3.890 -1.3623 -0.7439 -1.5988
 8269SOL     OW36265   1.635   0.513   5.675  0.0001 -0.1550  0.2410
 8269SOL    HW136266   1.687   0.594   5.671 -0.4580  0.1681  0.7698
 8269SOL    HW236267   1.549   0.544   5.704 -0.0820 -0.0840 -0.0771
 8270SOL     OW36268   3.942   4.036  10.236 -0.2473  0.0473 -0.3967
 8270SOL    HW136269   3.968   4.008  10.323 -0.8880  2.8657  0.7023
 8270SOL    HW236270   3.892   4.117  10.247 -0.6677 -0.3476  0.5364
 8271SOL     OW36271   1.632   0.540   0.505  0.0451 -0.0358  0.0149
 8271SOL    HW136272   1.687   0.614   0.531 -2.4213  1.5734  0.7391
 8271SOL    HW236273   1.620   0.489   0.585  0.2196 -0.6810 -0.3790
 8272SOL     OW36274   0.653   4.073  16.157 -0.5275  0.2302 -0.3774
 8272SOL    HW136275   0.600   4.061  16.236 -1.0055  0.0074 -0.7333
 8272SOL    HW236276   0.714   4.144  16.178  0.8332 -0.8337 -0.7327
 8273SOL     OW36277   3.477   0.613   1.135 -0.0975 -0.1988 -0.2643
 8273SOL    HW136278   3.533   0.546   1.097  2.3906  0.4495  2.2871
 8273SOL    HW236279   3.389   0.595   1.102 -1.4077  1.1562  2.4211
 8274SOL     OW36280   2.416   3.693  15.564  0.7165  0.5656  0.0957
 8274SOL    HW136281   2.409   3.780  15.526 -1.2966 -0.8073 -2.6547
 8274SOL    HW236282   2.509   3.671  15.566  0.2122 -1.6210 -0.1094
 8275SOL     OW36283   0.145   3.145   6.649  0.4268 -0.3529 -0.6046
 8275SOL    HW136284   0.231   3.174   6.679  0.5890 -0.4573 -0.9648
 8275SOL    HW236285   0.097   3.224   6.673  3.1906  1.3318 -0.6196
 8276SOL     OW36286   1.160   4.382   4.068 -0.1210  0.1252 -0.2746
 8276SOL    HW136287   1.069   4.409   4.072 -0.1778 -0.2115  0.5513
 8276SOL    HW236288   1.201   4.410   4.150 -0.0182  1.4569 -0.7727
 8277SOL     OW36289   0.690   1.915   6.066 -0.4788  0.2628  0.2717
 8277SOL    HW136290   0.716   2.002   6.035 -0.9128 -0.6275 -2.6136
 8277SOL    HW236291   0.598   1.920   6.090 -0.5126  0.7824  0.0111
 8278SOL     OW36292   3.751   2.697   3.631  0.8731 -0.0766  0.0106
 8278SOL    HW136293   3.810   2.637   3.677 -2.0809 -2.8783  0.0644
 8278SOL    HW236294   3.704   2.635   3.576  1.6968 -0.6410 -0.0518
 8279SOL     OW36295   3.293   3.869   2.499  0.1526 -0.3733  0.0662
 8279SOL    HW136296   3.263   3.960   2.510  1.0194 -0.2327  1.2873
 8279SOL    HW236297   3.359   3.874   2.568  0.5101 -1.3549 -0.2067
 8280SOL     OW36298   2.832   0.752   7.662 -0.5919 -0.7056  0.2126
 8280SOL    HW136299   2.916   0.796   7.666 -0.2562 -1.2996 -0.3315
 8280SOL    HW236300   2.767   0.821   7.649  1.8300  1.2568 -1.2473
 8281SOL     OW36301   2.632   2.686  13.147 -0.1792 -0.4830  0.1023
 8281SOL    HW136302   2.706   2.635  13.181  0.3527  0.9386  1.0600
 8281SOL    HW236303   2.628   2.664  13.054 -3.6603  1.7577 -0.2768
 8282SOL     OW36304   3.961   1.892   4.703 -0.3781  0.0095  0.1106
 8282SOL    HW136305   4.024   1.963   4.693 -0.0457 -0.2975  0.0155
 8282SOL    HW236306   4.011   1.835   4.763  0.5323 -2.2225 -2.7814
 8283SOL     OW36307   0.666   3.686   1.336 -0.2041 -0.5124 -0.2023
 8283SOL    HW136308   0.645   3.666   1.427  0.4807  0.7057  0.2321
 8283SOL    HW236309   0.579   3.699   1.298  0.8359 -0.2784 -2.4677
 8284SOL     OW36310   0.683   1.014   3.932 -0.6100 -0.2227  0.4032
 8284SOL    HW136311   0.738   1.087   3.961 -1.0771  0.6408 -0.9197
 8284SOL    HW236312   0.599   1.030   3.975 -0.1943  2.6400  0.1274
 8285SOL     OW36313   0.378   1.891  16.453 -0.2938 -0.1175 -0.4330
 8285SOL    HW136314   0.418   1.950  16.389 -0.6188  1.8081  1.1065
 8285SOL    HW236315   0.390   1.807  16.410  0.1962  0.1633 -0.8359
 8286SOL     OW36316   0.989   2.497   4.978 -0.3675  0.0757  0.4229
 8286SOL    HW136317   1.080   2.525   4.986 -0.8919  2.2322 -1.2632
 8286SOL    HW236318   0.938   2.577   4.962  0.0016  0.3148  0.4388
 8287SOL     OW36319   2.955   0.488   7.513  0.4280  0.2393 -0.0257
 8287SOL    HW136320   2.908   0.488   7.596 -1.8131 -0.8850 -1.2694
 8287SOL    HW236321   3.046   0.476   7.540  0.6428  0.0503 -0.8273
 8288SOL     OW36322   2.123   2.257   2.143 -0.2997 -1.2333 -0.1220
 8288SOL    HW136323   2.062   2.304   2.200 -1.2866 -2.0068 -0.5193
 8288SOL    HW236324   2.188   2.321   2.118 -0.4626 -0.8202  0.5111
 8289SOL     OW36325   3.624   4.454   2.042  0.0690  0.2024 -0.8715
 8289SOL    HW136326   3.577   4.374   2.065  0.6430  0.1617  0.1870
 8289SOL    HW236327   3.632   4.441   1.948 -0.6031 -2.0689 -0.6116
 8290SOL     OW36328   3.964   2.088  10.540  0.2330  0.4164 -0.5182
 8290SOL    HW136329   3.931   2.171  10.504  0.5978  1.2573  1.0832
 8290SOL    HW236330   3.905   2.019  10.512 -1.7339  2.0657 -0.3930
 8291SOL     OW36331   1.286   4.602  15.355  0.0505 -0.3105 -0.3034
 8291SOL    HW136332   1.308   4.651  15.275 -1.9292  0.6413 -0.2668
 8291SOL    HW236333   1.190   4.606  15.359  0.0620  1.1700 -1.2847
 8292SOL     OW36334   0.422   0.410   2.458  0.2910  0.0378  0.3355
 8292SOL    HW136335   0.415   0.381   2.367  1.8624  0.3943  0.0980
 8292SOL    HW236336   0.444   0.322   2.488  1.4597  0.2491  0.1025
 8293SOL     OW36337   1.953   1.066   2.365  0.3917  0.2831  0.0656
 8293SOL    HW136338   1.880   1.060   2.304  0.3410  2.1643 -0.0397
 8293SOL    HW236339   1.981   0.974   2.367 -1.2123 -0.2419 -1.6114
 8294SOL     OW36340   0.711   0.987   8.381  0.0402  0.5943  0.1468
 8294SOL    HW136341   0.629   0.950   8.347  0.9739 -0.8674 -0.4868
 8294SOL    HW236342   0.761   0.916   8.421  0.4667  0.6644 -0.2550
 8295SOL     OW36343   3.697   3.600   1.090  0.3069  0.4842  0.2522
 8295SOL    HW136344   3.657   3.546   1.159  3.0380 -0.5175  1.0381
 8295SOL    HW236345   3.626   3.596   1.026 -1.1760  0.4478  1.8941
 8296SOL     OW36346   1.723   3.896  13.393 -0.1559  0.6639 -0.1759
 8296SOL    HW136347   1.704   3.885  13.487  0.8663  1.7133  0.1582
 8296SOL    HW236348   1.794   3.833  13.386  0.4042  1.0915  1.4638
 8297SOL     OW36349   1.799   2.267  12.950  0.8845  0.5930 -0.1565
 8297SOL    HW136350   1.787   2.328  13.023 -0.7704 -0.6240  0.5743
 8297SOL    HW236351   1.743   2.199  12.985  1.3014 -0.7092 -2.0389
 8298SOL     OW36352   3.234   2.625   3.849 -0.2870 -0.4913 -0.0955
 8298SOL    HW136353   3.214   2.624   3.943 -4.5728  1.6772 -0.9940
 8298SOL    HW236354   3.262   2.534   3.837 -2.0869 -0.5967 -3.3862
 8299SOL     OW36355   1.635   4.200  12.559  0.1026  0.1716 -0.8343
 8299SOL    HW136356   1.597   4.162  12.479  0.1103 -1.0801 -0.2486
 8299SOL    HW236357   1.727   4.174  12.559 -0.7667 -2.8603 -0.2866
 8300SOL     OW36358   1.109   0.898   5.809 -0.0246  0.0222  0.3774
 8300SOL    HW136359   1.016   0.916   5.808  0.0634  0.4272 -1.0325
 8300SOL    HW236360   1.116   0.809   5.773 -0.0088 -0.1025  0.6881
 8301SOL     OW36361   3.380   0.422   6.183  0.3092  0.1941 -0.3655
 8301SOL    HW136362   3.298   0.469   6.171 -0.4541 -1.1071 -0.1890
 8301SOL    HW236363   3.434   0.433   6.105  0.7098 -1.3042 -0.3031
 8302SOL     OW36364   1.386   3.099  13.746  1.2949  0.2529  0.1670
 8302SOL    HW136365   1.383   3.080  13.840  0.4572 -1.2981 -0.1685
 8302SOL    HW236366   1.400   3.016  13.701 -2.7584 -1.2758  1.6850
 8303SOL     OW36367   1.520   4.665   6.181  0.3721 -0.0890  0.3145
 8303SOL    HW136368   1.607   4.699   6.201  1.0097 -0.4854 -1.8389
 8303SOL    HW236369   1.474   0.023   6.209  0.9031  0.5540 -0.6238
 8304SOL     OW36370   1.048   0.813  13.383  0.6158  0.0072 -0.1290
 8304SOL    HW136371   1.139   0.844  13.379  1.0648 -1.2087  0.6626
 8304SOL    HW236372   1.032   0.782  13.294 -0.9822  1.8984 -0.4988
 8305SOL     OW36373   4.079   4.195   2.707  0.1920 -0.1612  0.1392
 8305SOL    HW136374   4.016   4.202   2.635  1.7066  0.4362 -1.1311
 8305SOL    HW236375   4.161   4.210   2.660 -0.3144  2.2860  0.0384
 8306SOL     OW36376   0.901   3.652   4.680 -0.0982 -0.0000 -0.0340
 8306SOL    HW136377   0.988   3.684   4.702  0.5011 -1.0903 -0.8269
 8306SOL    HW236378   0.860   3.645   4.767  0.9834  0.7371  0.5367
 8307SOL     OW36379   2.059   4.435   4.861 -0.0819  0.1262  0.4270
 8307SOL    HW136380   2.143   4.400   4.829 -0.2400  0.4485 -0.3327
 8307SOL    HW236381   2.067   4.519   4.816  1.1769  0.6601  1.6292
 8308SOL     OW36382   2.813   1.523  11.634  0.2287  0.0867  0.1382
 8308SOL    HW136383   2.866   1.510  11.713 -2.7600  1.8607  2.4127
 8308SOL    HW236384   2.873   1.581  11.586 -0.9318  1.2912  0.1527
 8309SOL     OW36385   4.531   1.708   4.832  0.2712  0.2964  0.5619
 8309SOL    HW136386   4.451   1.665   4.863  0.4818 -0.8776 -0.5538
 8309SOL    HW236387   4.586   1.696   4.910  3.1609 -0.0816 -1.5710
 8310SOL     OW36388   2.185   0.019   3.960 -0.2966  0.3816  0.0247
 8310SOL    HW136389   2.166   4.662   4.013 -0.2504  0.6536  0.4369
 8310SOL    HW236390   2.132   0.083   4.008 -0.1359 -0.6246  1.5395
 8311SOL     OW36391   0.341   3.312  10.745  0.4483  1.0808  0.4570
 8311SOL    HW136392   0.369   3.375  10.811  0.7779  1.2623  0.1386
 8311SOL    HW236393   0.421   3.263  10.729 -0.1947  0.5248 -1.1117
 8312SOL     OW36394   1.256   2.809   5.684  0.1633  0.6903 -0.1779
 8312SOL    HW136395   1.230   2.896   5.714  0.5815  0.2844  1.3707
 8312SOL    HW236396   1.350   2.820   5.676 -0.1526  3.0444 -0.4516
 8313SOL     OW36397   3.842   2.085  11.979 -0.3550  0.2279  0.8386
 8313SOL    HW136398   3.767   2.137  11.951  1.2939  0.7167 -2.5728
 8313SOL    HW236399   3.843   2.024  11.905 -0.3579  1.6175 -0.3147
 8314SOL     OW36400   3.292   4.045   2.060  0.4649 -0.0270 -0.0501
 8314SOL    HW136401   3.271   3.990   1.984  2.3972  0.9782 -1.3223
 8314SOL    HW236402   3.264   3.988   2.132 -1.6644  0.4569 -0.5009
 8315SOL     OW36403   3.957   0.703   5.164 -0.1331  0.6556 -0.2247
 8315SOL    HW136404   3.938   0.717   5.257 -2.0880 -0.5270 -0.4418
 8315SOL    HW236405   4.010   0.778   5.138 -0.3135 -0.3169 -3.3566
 8316SOL     OW36406   0.150   3.259  14.769  0.9217 -0.2822  0.1080
 8316SOL    HW136407   0.232   3.279  14.724  0.5288  1.7856  0.2904
 8316SOL    HW236408   0.154   3.297  14.857 -0.1442 -2.6470  1.1691
 8317SOL     OW36409   1.055   4.419   6.729 -0.4028  0.1755 -0.3552
 8317SOL    HW136410   1.136   4.443   6.683  0.0507  2.3715  1.6031
 8317SOL    HW236411   1.042   4.329   6.700 -1.2985 -0.4796  2.1473
 8318SOL     OW36412   0.143   0.469  14.422 -0.1227  0.5598  0.0052
 8318SOL    HW136413   0.130   0.510  14.336 -1.0515  0.4471  0.0856
 8318SOL    HW236414   0.232   0.437  14.410 -0.3768 -0.2043  0.1062
 8319SOL     OW36415   1.875   2.825   0.281  0.3521  0.1363 -0.0733
 8319SOL    HW136416   1.863   2.916   0.309  0.5521  1.0553 -2.9761
 8319SOL    HW236417   1.964   2.812   0.316  0.5492  2.4265  0.2761
 8320SOL     OW36418   0.073   0.921  13.701 -0.2540  0.0517 -0.7000
 8320SOL    HW136419   0.103   0.934  13.611 -2.7015  1.1964 -1.3638
 8320SOL    HW236420   0.004   0.988  13.702 -0.3820 -0.0351 -3.3346
 8321SOL     OW36421   3.387   4.582   8.277  0.2041 -0.1679  0.1938
 8321SOL    HW136422   3.453   4.644   8.307  0.9601 -0.0746 -1.6558
 8321SOL    HW236423   3.395   4.511   8.340 -1.8293 -2.1009 -1.7368
 8322SOL     OW36424   0.932   1.805   2.771  0.2100 -0.9245  0.8262
 8322SOL    HW136425   0.902   1.751   2.697  0.4601 -1.5355  1.1706
 8322SOL    HW236426   0.845   1.820   2.808 -0.4211 -0.6297 -0.7517
 8323SOL     OW36427   3.242   0.535   3.710  0.1822 -0.0984 -0.2061
 8323SOL    HW136428   3.303   0.594   3.665 -0.5631 -0.4286 -1.6644
 8323SOL    HW236429   3.191   0.598   3.761  0.5821 -0.2431  0.3717
 8324SOL     OW36430   1.428   2.817   4.205 -0.0150 -0.0056 -0.0152
 8324SOL    HW136431   1.474   2.866   4.274  0.0069 -0.5979  0.3874
 8324SOL    HW236432   1.420   2.890   4.143 -1.8131 -1.2463 -1.2229
 8325SOL     OW36433   4.655   3.230   5.418  0.1050  0.3373  0.1562
 8325SOL    HW136434   4.592   3.266   5.480 -0.0906 -0.0448  0.1780
 8325SOL    HW236435   4.708   3.180   5.480  0.5230 -0.7219 -1.0613
 8326SOL     OW36436   2.244   2.611   0.041  0.0067  0.0534 -0.1736
 8326SOL    HW136437   2.203   2.609  17.639  0.1215 -0.9320 -0.2028
 8326SOL    HW236438   2.254   2.517   0.055 -1.5510  0.4277  3.3962
 8327SOL     OW36439   3.965   2.557   3.381 -0.7005 -0.0762  0.0257
 8327SOL    HW136440   3.986   2.649   3.396 -0.4173 -0.3266  1.1647
 8327SOL    HW236441   3.882   2.547   3.428  0.4188 -1.4882  1.7014
 8328SOL     OW36442   0.834   3.184  13.992  0.4916 -0.2390 -0.1672
 8328SOL    HW136443   0.899   3.222  13.933  1.8333 -1.9166  0.2395
 8328SOL    HW236444   0.849   3.091  13.981  0.4611 -0.3744  0.9517
 8329SOL     OW36445   3.752   3.952   0.462  0.3010 -0.0685 -0.3180
 8329SOL    HW136446   3.682   4.002   0.502 -2.0111 -3.5364 -0.0234
 8329SOL    HW236447   3.786   3.906   0.539 -1.1184 -1.5026 -0.5567
 8330SOL     OW36448   2.315   2.513   4.507  0.0702 -0.0397 -0.8587
 8330SOL    HW136449   2.353   2.583   4.454  0.9217  1.1140  1.2293
 8330SOL    HW236450   2.276   2.454   4.443  1.4436 -3.4660  1.4740
 8331SOL     OW36451   2.394   0.273  13.294 -0.1124 -0.4612 -0.5306
 8331SOL    HW136452   2.358   0.185  13.286 -0.8111 -0.3784  1.7571
 8331SOL    HW236453   2.382   0.296  13.386  0.6090 -1.0340 -0.2924
 8332SOL     OW36454   2.235   2.209   2.751  0.5178  0.0539  0.7841
 8332SOL    HW136455   2.163   2.210   2.688  0.7453 -1.0328  0.5071
 8332SOL    HW236456   2.215   2.293   2.792  2.5208  1.4541 -1.1486
 8333SOL     OW36457   1.864   4.038   9.978 -0.1547  0.6760 -1.0566
 8333SOL    HW136458   1.809   3.960   9.986  2.5511 -0.9917  1.4130
 8333SOL    HW236459   1.941   4.023   9.924  0.9790  0.1109  0.7032
 8334SOL     OW36460   1.828   4.067   8.604  0.0135  0.0602  0.4160
 8334SOL    HW136461   1.846   4.141   8.661 -0.9306  1.4805 -1.1391
 8334SOL    HW236462   1.776   4.114   8.539  2.5641  0.1064 -1.5628
 8335SOL     OW36463   1.383   0.707   2.367 -0.3373 -0.3200  0.2363
 8335SOL    HW136464   1.390   0.715   2.462  0.0779 -2.2885  0.3672
 8335SOL    HW236465   1.408   0.617   2.348 -4.1487 -1.6038  1.3219
 8336SOL     OW36466   1.507   3.130   6.116  0.4017 -0.1469 -0.8666
 8336SOL    HW136467   1.515   3.126   6.020 -0.6137  0.7190 -1.0019
 8336SOL    HW236468   1.551   3.050   6.142 -1.0043 -0.7767 -0.4110
 8337SOL     OW36469   1.500   0.230   6.536  0.6002 -0.0109  0.4105
 8337SOL    HW136470   1.526   0.165   6.602 -0.8164 -1.0137 -0.0158
 8337SOL    HW236471   1.494   0.306   6.592 -0.8831 -0.0360  0.2875
 8338SOL     OW36472   4.179   0.336  16.898 -0.1999 -0.3133 -0.3460
 8338SOL    HW136473   4.194   0.418  16.946 -0.2770 -0.6165  0.1942
 8338SOL    HW236474   4.204   0.267  16.959  1.2532  0.1915 -0.3838
 8339SOL     OW36475   1.825   1.416  17.558  0.0385  0.1930 -0.1450
 8339SOL    HW136476   1.867   1.440  17.475 -0.1930 -0.3419 -0.4123
 8339SOL    HW236477   1.845   1.324  17.572 -0.0214  0.3355  0.9073
 8340SOL     OW36478   3.518   3.066   7.808 -1.0209 -0.5399  0.3696
 8340SOL    HW136479   3.496   3.121   7.883  0.3898  2.0046 -1.0924
 8340SOL    HW236480   3.533   2.981   7.849  1.8708 -1.0114 -1.7154
 8341SOL     OW36481   0.001   0.561   4.747  0.5628 -0.8066  0.4274
 8341SOL    HW136482   0.093   0.588   4.754  0.1571  1.3116 -2.3540
 8341SOL    HW236483   4.696   0.572   4.838 -0.1584  0.1303  0.1105
 8342SOL     OW36484   2.885   2.874   1.363 -0.0686  0.4334 -0.1725
 8342SOL    HW136485   2.858   2.791   1.325  0.1837  0.2610  0.0248
 8342SOL    HW236486   2.820   2.940   1.339 -2.1507 -1.0128  1.4691
 8343SOL     OW36487   3.672   3.272   0.638 -0.4108  0.3720  0.0192
 8343SOL    HW136488   3.688   3.225   0.720 -0.4738  0.4440  0.0725
 8343SOL    HW236489   3.672   3.198   0.577  1.3824 -0.0537  0.5156
 8344SOL     OW36490   3.860   3.084  12.047  0.5564 -0.2273 -0.4631
 8344SOL    HW136491   3.806   3.086  12.126 -0.3298 -1.4919 -1.0358
 8344SOL    HW236492   3.922   3.022  12.085 -1.1000 -0.2873  2.1349
 8345SOL     OW36493   2.143   3.309   5.538 -0.3380 -0.1096 -0.3273
 8345SOL    HW136494   2.144   3.284   5.630 -3.3844 -2.5229 -0.9440
 8345SOL    HW236495   2.144   3.404   5.547  1.1633 -0.2237  0.6920
 8346SOL     OW36496   3.844   2.474  15.502  0.0808  0.0894  0.1305
 8346SOL    HW136497   3.864   2.551  15.450 -2.1582  2.0065  2.0922
 8346SOL    HW236498   3.816   2.410  15.437  0.1579 -0.0853  0.2669
 8347SOL     OW36499   0.129   2.157  14.040 -0.7522  0.3238 -0.8013
 8347SOL    HW136500   0.193   2.178  13.972 -0.5343 -0.7189 -0.9167
 8347SOL    HW236501   0.088   2.242  14.058 -0.1369  1.1702 -3.4028
 8348SOL     OW36502   2.295   0.234   3.807  0.1577 -0.2309 -0.6073
 8348SOL    HW136503   2.257   0.151   3.838 -2.0652  1.1803  0.4269
 8348SOL    HW236504   2.243   0.301   3.850 -0.7809 -1.2287 -0.1806
 8349SOL     OW36505   3.287   4.181  11.558  0.3498  0.1432  0.5864
 8349SOL    HW136506   3.314   4.155  11.647  1.5589  0.5060  0.3241
 8349SOL    HW236507   3.285   4.275  11.575  1.9378  0.2767  0.0347
 8350SOL     OW36508   0.532   4.008   3.429  0.3783  0.4216 -0.0416
 8350SOL    HW136509   0.601   4.072   3.414  0.7655 -0.1368 -0.6078
 8350SOL    HW236510   0.502   3.995   3.339 -0.3173  0.3638  0.1930
 8351SOL     OW36511   2.357   0.141   8.304  0.1426  0.1651  0.1801
 8351SOL    HW136512   2.282   0.200   8.312 -0.6269 -0.9221  0.8890
 8351SOL    HW236513   2.422   0.177   8.365 -0.3536 -1.2662  1.5762
 8352SOL     OW36514   2.465   3.215   7.701  0.5385 -0.1283 -0.0039
 8352SOL    HW136515   2.392   3.239   7.758  0.2356  0.5946 -0.6888
 8352SOL    HW236516   2.505   3.301   7.691  0.7912 -0.5040 -2.3584
 8353SOL     OW36517   2.308   0.085   4.866 -0.0004 -0.0770  0.1201
 8353SOL    HW136518   2.314   4.714   4.891  1.6202  0.0752  0.3321
 8353SOL    HW236519   2.213   0.093   4.856  0.1895  0.1106 -1.5222
 8354SOL     OW36520   2.723   1.177   1.132  0.0832 -0.0938  0.4932
 8354SOL    HW136521   2.681   1.246   1.183 -2.9961 -1.3524 -0.3800
 8354SOL    HW236522   2.652   1.169   1.068  1.1218  0.6331 -0.7511
 8355SOL     OW36523   3.027   0.333   6.334 -0.2534 -0.2925 -0.4338
 8355SOL    HW136524   3.038   0.243   6.302 -0.0926 -0.6587  0.6405
 8355SOL    HW236525   2.942   0.362   6.302 -1.7789 -1.2440  2.6774
 8356SOL     OW36526   3.131   2.470   7.772 -0.6511 -0.2424 -0.5452
 8356SOL    HW136527   3.056   2.484   7.714 -1.9010  3.0538  1.8387
 8356SOL    HW236528   3.184   2.427   7.705 -0.3062 -0.6315 -0.0241
 8357SOL     OW36529   0.732   2.527  14.729  0.5902  0.0701  0.5402
 8357SOL    HW136530   0.696   2.533  14.817 -0.2577  0.9501  0.1301
 8357SOL    HW236531   0.811   2.581  14.738 -0.6699  1.9808  0.3033
 8358SOL     OW36532   3.811   2.609  13.623 -0.3357 -0.6985  0.0975
 8358SOL    HW136533   3.861   2.678  13.579 -3.4079  2.4773  1.5831
 8358SOL    HW236534   3.813   2.549  13.549 -1.2273  2.0388 -2.1375
 8359SOL     OW36535   4.043   1.760   6.907 -0.2783  0.1957 -0.0678
 8359SOL    HW136536   4.012   1.849   6.924 -1.0244  0.3494 -2.1161
 8359SOL    HW236537   3.958   1.718   6.894 -0.3053  0.4599 -0.7772
 8360SOL     OW36538   1.387   0.618   8.114  0.3622  0.4387  0.6065
 8360SOL    HW136539   1.311   0.595   8.060  3.2033  0.7761 -3.4993
 8360SOL    HW236540   1.439   0.681   8.065 -2.6890  1.1124 -1.7583
 8361SOL     OW36541   1.923   1.376   6.106 -0.0579 -0.3039 -0.2061
 8361SOL    HW136542   2.015   1.404   6.107 -0.0968 -0.1119 -2.5629
 8361SOL    HW236543   1.881   1.440   6.164  2.0247  1.1935 -0.3561
 8362SOL     OW36544   1.487   4.002   1.086 -0.9940 -0.1224  0.1842
 8362SOL    HW136545   1.484   3.998   0.990 -0.6950  1.6932  0.0933
 8362SOL    HW236546   1.465   4.093   1.107  0.1799  0.2424 -0.1611
 8363SOL     OW36547   0.454   2.981  17.331 -0.4886  0.0276  0.0702
 8363SOL    HW136548   0.388   3.027  17.279  1.6397  1.5700 -1.2166
 8363SOL    HW236549   0.430   2.888  17.330 -0.9403  0.1327  1.9971
 8364SOL     OW36550   3.677   0.410   8.845  0.2862  0.5914  0.5075
 8364SOL    HW136551   3.734   0.475   8.885 -0.8750  1.6185  0.4997
 8364SOL    HW236552   3.597   0.463   8.845 -0.6760 -0.8548  1.4315
 8365SOL     OW36553   2.595   4.455  13.532  0.4126 -0.5887 -0.4811
 8365SOL    HW136554   2.640   4.416  13.607 -0.9506  0.1007  0.6827
 8365SOL    HW236555   2.617   4.386  13.468  0.8696  0.4394 -1.4310
 8366SOL     OW36556   3.282   4.448  11.567  0.0492 -0.3493 -0.3954
 8366SOL    HW136557   3.268   4.535  11.529  0.4024  0.5330  1.4975
 8366SOL    HW236558   3.370   4.435  11.531  1.4864  1.8879  2.2770
 8367SOL     OW36559   3.312   2.369   7.586  0.1772  0.3844  0.4097
 8367SOL    HW136560   3.393   2.420   7.581  0.1446  0.1628 -2.1274
 8367SOL    HW236561   3.307   2.345   7.493 -0.2605  1.9751  0.0312
 8368SOL     OW36562   4.641   3.117  11.494 -0.4097 -0.2372  0.4338
 8368SOL    HW136563   4.616   3.101  11.403 -0.4084  2.0205  0.0417
 8368SOL    HW236564   4.555   3.125  11.536 -0.7848  2.3720 -0.7955
 8369SOL     OW36565   3.831   3.786   0.895  0.0625  0.0060 -0.0565
 8369SOL    HW136566   3.872   3.756   0.976 -0.8765  0.9944  0.7891
 8369SOL    HW236567   3.771   3.716   0.870 -0.6711  1.2917 -1.9151
 8370SOL     OW36568   4.056   1.528   2.122  0.8367 -0.3247 -0.4625
 8370SOL    HW136569   3.986   1.541   2.185  0.9284  1.9996 -0.8436
 8370SOL    HW236570   4.013   1.507   2.039 -0.2358 -0.1576  0.0524
 8371SOL     OW36571   1.659   4.126   7.789 -0.0187  0.2216 -0.1027
 8371SOL    HW136572   1.606   4.094   7.716  0.7619 -1.7228  0.2100
 8371SOL    HW236573   1.634   4.218   7.801  0.0855  0.0538  1.4431
 8372SOL     OW36574   1.019   2.706  14.021 -0.3554 -0.1317  0.6427
 8372SOL    HW136575   1.057   2.713  13.933  0.0145 -0.2883  0.7931
 8372SOL    HW236576   1.089   2.713  14.085  0.8491 -0.0505 -0.6713
 8373SOL     OW36577   2.364   2.474   9.964 -0.4667 -0.1386  0.1548
 8373SOL    HW136578   2.314   2.524   9.900  0.3991 -2.7035 -2.5116
 8373SOL    HW236579   2.363   2.387   9.924 -1.2215  0.0013 -0.1362
 8374SOL     OW36580   0.891   4.431   2.724 -0.5671 -0.2626  0.4490
 8374SOL    HW136581   0.983   4.418   2.703 -0.4534  1.1047  0.0780
 8374SOL    HW236582   0.881   4.424   2.819  0.0228  0.7307  0.5806
 8375SOL     OW36583   3.057   1.304   1.742 -0.2023 -0.2526 -0.1898
 8375SOL    HW136584   3.015   1.316   1.657 -0.5227  1.3252  0.1818
 8375SOL    HW236585   2.982   1.323   1.799 -0.4307  0.4932 -0.7283
 8376SOL     OW36586   2.872   0.810   3.651 -0.4307  0.5816  0.8726
 8376SOL    HW136587   2.798   0.751   3.669  1.9570 -2.3336  1.2205
 8376SOL    HW236588   2.950   0.757   3.665 -0.2640  0.3641 -0.9069
 8377SOL     OW36589   2.504   3.285  16.068 -0.5102 -0.3878  0.1797
 8377SOL    HW136590   2.433   3.226  16.042 -1.3589  0.6133  0.2478
 8377SOL    HW236591   2.552   3.284  15.986 -1.3485  0.3940 -0.3220
 8378SOL     OW36592   3.278   3.912   4.109  0.0191 -0.0085  0.1710
 8378SOL    HW136593   3.372   3.916   4.093  0.1854 -0.3886  1.0597
 8378SOL    HW236594   3.251   3.861   4.032 -0.1796  0.4435 -0.0593
 8379SOL     OW36595   3.029   4.305   5.875  0.5873  0.3105  0.0734
 8379SOL    HW136596   2.969   4.238   5.909 -1.1918  1.6809 -0.3804
 8379SOL    HW236597   2.972   4.377   5.849 -1.5132 -1.3894 -0.0918
 8380SOL     OW36598   3.649   4.656   1.680  0.3768 -0.2795 -0.1825
 8380SOL    HW136599   3.563   4.698   1.676  0.2705 -0.8757 -4.4370
 8380SOL    HW236600   3.617   4.566   1.685  0.5927 -0.5133 -2.8204
 8381SOL     OW36601   1.035   3.202   5.487  0.0636  0.1639  0.4663
 8381SOL    HW136602   1.031   3.249   5.571 -0.3117 -0.6862  0.9285
 8381SOL    HW236603   1.128   3.209   5.468  0.0908  0.6584  0.7655
 8382SOL     OW36604   3.940   0.766   6.139 -0.0409  0.1873  0.1544
 8382SOL    HW136605   3.856   0.793   6.175  1.0895  1.5974  1.8143
 8382SOL    HW236606   4.001   0.806   6.202 -0.0304  1.4294 -0.6393
 8383SOL     OW36607   0.944   4.720  12.242 -0.2164 -0.5864 -0.5483
 8383SOL    HW136608   1.039   4.716  12.239 -0.1244  1.1509 -0.0925
 8383SOL    HW236609   0.927   0.017  12.335  2.3571 -1.2661  0.0419
 8384SOL     OW36610   2.941   3.107  15.916  0.3952 -0.1596  0.1583
 8384SOL    HW136611   3.000   3.082  15.846  1.2108  1.4155  0.2968
 8384SOL    HW236612   2.918   3.197  15.892 -0.6406 -0.7729 -1.1825
 8385SOL     OW36613   4.527   4.264  17.181  0.6950  0.0474  0.0311
 8385SOL    HW136614   4.543   4.354  17.211 -0.4450  0.1090  0.4944
 8385SOL    HW236615   4.600   4.214  17.216 -0.1979 -1.9662 -1.0260
 8386SOL     OW36616   2.444   2.015   0.851 -0.1268 -0.5169 -0.6370
 8386SOL    HW136617   2.449   2.089   0.790  1.5196 -0.6758 -0.6890
 8386SOL    HW236618   2.435   2.069   0.929  1.0309 -1.6570  0.2941
 8387SOL     OW36619   0.621   1.568   3.159  0.0671 -0.3187 -0.2417
 8387SOL    HW136620   0.537   1.551   3.117 -1.5325  1.4928  2.2385
 8387SOL    HW236621   0.637   1.483   3.201 -0.0090 -0.0903  0.2560
 8388SOL     OW36622   2.764   0.992   7.542 -0.2895  0.0555 -0.5201
 8388SOL    HW136623   2.798   1.078   7.517  0.9391  0.4220  2.3520
 8388SOL    HW236624   2.839   0.934   7.527  0.4022  0.7789  0.1516
 8389SOL     OW36625   2.508   1.077   0.138  0.8079 -0.5776 -0.5779
 8389SOL    HW136626   2.589   1.077   0.188  0.3027 -1.6460  0.2309
 8389SOL    HW236627   2.466   0.992   0.151 -1.2330  0.3676 -0.9758
 8390SOL     OW36628   1.337   1.184   8.222 -0.0214 -0.1564 -0.5300
 8390SOL    HW136629   1.270   1.240   8.260  1.0341  1.1818 -0.6247
 8390SOL    HW236630   1.283   1.105   8.224  2.1860 -1.7136 -1.6639
 8391SOL     OW36631   0.522   2.437   5.896 -0.6220 -0.1942 -0.0941
 8391SOL    HW136632   0.615   2.459   5.890 -0.1809 -1.1927  2.9430
 8391SOL    HW236633   0.506   2.506   5.961 -0.6352  0.3615 -0.6839
 8392SOL     OW36634   2.166   3.087   0.356 -0.1085 -0.5520  0.4362
 8392SOL    HW136635   2.075   3.116   0.358  0.0605 -0.0417  0.8332
 8392SOL    HW236636   2.165   3.033   0.277 -0.8631 -0.4298  0.3697
 8393SOL     OW36637   2.640   3.698   9.334 -0.2931  0.1448 -0.4737
 8393SOL    HW136638   2.655   3.735   9.421 -1.0211  0.2302 -0.3835
 8393SOL    HW236639   2.552   3.661   9.339 -0.1513 -0.4448 -2.3253
 8394SOL     OW36640   2.708   1.803   7.595 -0.5635 -0.4536  0.6070
 8394SOL    HW136641   2.654   1.767   7.666 -0.9989 -1.2661 -0.1303
 8394SOL    HW236642   2.654   1.766   7.525  0.1608 -0.7736  0.2162
 8395SOL     OW36643   3.658   0.387   2.458 -0.2517  0.4899  0.0072
 8395SOL    HW136644   3.680   0.375   2.366  0.3701  1.5396  0.0224
 8395SOL    HW236645   3.585   0.449   2.454 -0.3390  0.3774 -0.1265
 8396SOL     OW36646   0.235   4.065   4.152 -0.8528  0.1733 -0.3769
 8396SOL    HW136647   0.163   4.023   4.105  0.6871  0.7555 -3.2725
 8396SOL    HW236648   0.240   4.149   4.107  0.6565  0.3176  0.0623
 8397SOL     OW36649   0.687   4.664   3.382  0.8026 -0.7255 -0.1982
 8397SOL    HW136650   0.735   4.661   3.299  0.4106 -0.0506 -0.4420
 8397SOL    HW236651   0.605   4.707   3.359 -0.2008 -2.6128 -0.1908
 8398SOL     OW36652   2.307   1.559   5.910 -0.1709 -0.1748 -0.3334
 8398SOL    HW136653   2.237   1.546   5.847 -2.6972  0.7527  2.2965
 8398SOL    HW236654   2.340   1.645   5.884  3.1848 -1.6630 -1.0329
 8399SOL     OW36655   3.944   3.897   8.170 -0.8289 -0.2932 -0.0639
 8399SOL    HW136656   4.030   3.903   8.128 -0.5361 -1.8140  0.3124
 8399SOL    HW236657   3.943   3.803   8.185 -0.8539 -0.3784 -0.5740
 8400SOL     OW36658   0.829   2.970  16.595  0.5115  0.2229 -0.5304
 8400SOL    HW136659   0.898   3.034  16.608 -0.4883  1.6379 -2.2313
 8400SOL    HW236660   0.877   2.887  16.595  1.3884  0.7318  0.4833
 8401SOL     OW36661   4.675   2.332  11.645  0.0478  0.0243  0.5922
 8401SOL    HW136662   4.589   2.373  11.639 -0.5875 -1.1312  1.9415
 8401SOL    HW236663   4.659   2.245  11.681 -2.3871  0.0623 -0.4389
 8402SOL     OW36664   2.820   0.281   9.417  0.7269  0.3360 -0.8312
 8402SOL    HW136665   2.755   0.224   9.457  0.7211  0.8193 -0.1557
 8402SOL    HW236666   2.825   0.258   9.324  0.2734 -1.5254 -0.3946
 8403SOL     OW36667   1.279   3.841   4.052 -0.0636  0.3268  0.6121
 8403SOL    HW136668   1.336   3.855   4.128 -0.3135 -3.2560  1.4570
 8403SOL    HW236669   1.210   3.902   4.079  0.9648  2.1460 -0.8163
 8404SOL     OW36670   0.578   2.112   4.232  0.5832 -0.5557 -0.1612
 8404SOL    HW136671   0.525   2.168   4.176  1.0093  0.3280  0.3311
 8404SOL    HW236672   0.561   2.154   4.316 -0.8916  0.5051 -0.9926
 8405SOL     OW36673   3.364   0.976   9.496  0.0688  0.7019 -0.1294
 8405SOL    HW136674   3.378   0.887   9.462 -0.8642 -0.0567  1.4639
 8405SOL    HW236675   3.440   1.015   9.453 -0.9595  1.0255 -1.6519
 8406SOL     OW36676   2.876   4.227   4.450 -0.4931  0.4164  0.4455
 8406SOL    HW136677   2.883   4.259   4.540 -0.4823  0.4178  0.4442
 8406SOL    HW236678   2.850   4.310   4.410 -1.3811  0.3099  0.7998
 8407SOL     OW36679   3.873   0.519   6.034 -0.2688  0.3679 -0.3628
 8407SOL    HW136680   3.955   0.523   5.984  0.0382  1.6545  0.2331
 8407SOL    HW236681   3.893   0.586   6.100 -1.6407  1.8899 -1.4961
 8408SOL     OW36682   4.290   3.706   2.723  0.4450 -0.0542  0.0971
 8408SOL    HW136683   4.323   3.760   2.795 -2.1578 -0.3445  1.4960
 8408SOL    HW236684   4.243   3.764   2.663  0.5710 -0.5740 -0.5083
 8409SOL     OW36685   4.506   0.034   7.933 -0.2591  0.4134 -0.5311
 8409SOL    HW136686   4.509   4.660   7.919 -1.2663  0.5573 -1.7091
 8409SOL    HW236687   4.440   0.058   7.868  0.9236  0.9987 -1.5166
 8410SOL     OW36688   2.956   4.018   6.333  0.1279 -0.6307  0.2014
 8410SOL    HW136689   2.873   4.038   6.290  0.6907 -0.2089 -0.6773
 8410SOL    HW236690   2.961   3.927   6.305  0.5759 -0.5313 -0.0461
 8411SOL     OW36691   0.545   1.475   0.311  0.3206  0.3883 -0.3274
 8411SOL    HW136692   0.488   1.421   0.256 -0.5518  0.3175  0.6614
 8411SOL    HW236693   0.486   1.480   0.386  0.9396 -0.3825  0.1945
 8412SOL     OW36694   2.466   2.694   9.336 -0.3367 -0.2425 -0.6563
 8412SOL    HW136695   2.519   2.665   9.262  2.5951  1.3229  0.8499
 8412SOL    HW236696   2.395   2.630   9.328 -0.6171  0.1352 -1.2084
 8413SOL     OW36697   1.609   1.857   9.678 -0.7652 -0.8161 -0.1164
 8413SOL    HW136698   1.661   1.882   9.755  0.7341 -2.5547 -0.5560
 8413SOL    HW236699   1.527   1.897   9.706 -0.6566  0.3877 -1.5527
 8414SOL     OW36700   2.219   4.618   6.444  0.0578 -0.2580 -0.2447
 8414SOL    HW136701   2.228   4.694   6.387 -0.9648 -0.4693 -0.6995
 8414SOL    HW236702   2.286   4.636   6.510  1.0569  0.1053 -1.3576
 8415SOL     OW36703   0.571   4.181   4.947 -0.2594 -0.1446  0.1109
 8415SOL    HW136704   0.621   4.226   5.016 -0.1154  0.3483 -0.3137
 8415SOL    HW236705   0.497   4.142   4.994 -1.6667  1.1871 -1.0416
 8416SOL     OW36706   2.415   3.398   3.893 -0.5179  0.4054  0.3617
 8416SOL    HW136707   2.391   3.406   3.801  1.7196  2.0551 -0.0809
 8416SOL    HW236708   2.491   3.456   3.899 -0.2490  0.0411  0.5112
 8417SOL     OW36709   1.754   1.422  17.081 -0.4725 -0.5483 -0.0216
 8417SOL    HW136710   1.743   1.330  17.108  1.2695 -0.1317  2.0853
 8417SOL    HW236711   1.667   1.461  17.091 -1.2154 -2.2004 -0.0247
 8418SOL     OW36712   3.968   0.494  16.162  0.2091 -0.9222 -0.4927
 8418SOL    HW136713   3.937   0.441  16.235 -0.5819 -1.2115 -1.0355
 8418SOL    HW236714   4.048   0.447  16.138  0.7907 -0.8851  1.3798
 8419SOL     OW36715   2.726   3.345   6.860  0.7580  0.5180 -0.2225
 8419SOL    HW136716   2.660   3.284   6.892  1.8794 -0.5481  0.0613
 8419SOL    HW236717   2.805   3.327   6.912  2.2746 -0.1736 -2.7791
 8420SOL     OW36718   1.317   2.681   8.111  0.8937  0.2610 -0.0484
 8420SOL    HW136719   1.353   2.593   8.102 -0.2648  0.0283 -2.3575
 8420SOL    HW236720   1.223   2.664   8.111  0.9407  0.0329  1.0993
 8421SOL     OW36721   1.858   2.335  10.524 -0.0699  0.5946  0.7784
 8421SOL    HW136722   1.871   2.332  10.619 -1.6828 -1.1555  0.9408
 8421SOL    HW236723   1.950   2.330  10.499  0.0266  2.4155  0.7439
 8422SOL     OW36724   1.602   1.440   2.300 -0.7610  0.5570 -0.4191
 8422SOL    HW136725   1.689   1.427   2.261 -1.1663  2.4982 -1.9600
 8422SOL    HW236726   1.580   1.533   2.291  1.2307  1.1904  1.0576
 8423SOL     OW36727   3.558   0.740   3.982 -0.5296  0.0867 -0.0714
 8423SOL    HW136728   3.556   0.805   3.912  2.4630 -0.7530 -0.9349
 8423SOL    HW236729   3.464   0.732   3.996  0.0863 -2.9424  2.3743
 8424SOL     OW36730   2.861   4.078  17.670  0.2819  0.0338 -0.0667
 8424SOL    HW136731   2.869   4.045   0.074 -0.5454  3.2123  1.1693
 8424SOL    HW236732   2.773   4.114  17.669  0.4593  0.4543 -0.2574
 8425SOL     OW36733   0.301   2.855   6.107  0.1815  0.2203  0.1187
 8425SOL    HW136734   0.393   2.879   6.108  0.2630 -0.0870 -0.0562
 8425SOL    HW236735   0.280   2.804   6.185  0.8809  0.0845  0.2123
 8426SOL     OW36736   1.706   0.581   8.668 -0.5793 -0.1956  0.1093
 8426SOL    HW136737   1.791   0.543   8.691 -0.1439  0.5236 -0.3261
 8426SOL    HW236738   1.647   0.539   8.731 -0.5509  1.0483  0.9547
 8427SOL     OW36739   0.153   0.976  16.168 -0.1340  0.2075 -0.4259
 8427SOL    HW136740   0.058   0.982  16.158  0.0382  1.4733 -1.3053
 8427SOL    HW236741   0.172   1.013  16.254  0.1632  0.4359 -0.5907
 8428SOL     OW36742   3.359   3.218   6.935 -0.0671 -0.3104 -0.5456
 8428SOL    HW136743   3.425   3.192   7.000 -0.2735 -1.3420 -0.7456
 8428SOL    HW236744   3.303   3.141   6.946 -0.7768  0.1030 -1.3300
 8429SOL     OW36745   1.747   4.410   5.187  0.2158  0.1848 -0.5029
 8429SOL    HW136746   1.774   4.392   5.277  1.0410  1.4946 -0.4955
 8429SOL    HW236747   1.752   4.505   5.194 -1.1473  0.4918 -3.4446
 8430SOL     OW36748   3.265   3.903   3.141  0.5763  0.0549 -0.1966
 8430SOL    HW136749   3.226   3.977   3.094  1.3159  0.9481  0.6179
 8430SOL    HW236750   3.322   3.871   3.072  2.5180 -0.0206  1.4494
 8431SOL     OW36751   3.705   3.653   9.695  0.2327 -0.4197 -0.5829
 8431SOL    HW136752   3.724   3.638   9.787  1.2072  1.7747 -0.4412
 8431SOL    HW236753   3.642   3.725   9.701  0.0685 -0.5869 -0.3018
 8432SOL     OW36754   3.473   0.190  11.581  0.3783 -0.1690 -0.2923
 8432SOL    HW136755   3.447   0.281  11.563 -3.4474 -0.7537  2.1204
 8432SOL    HW236756   3.485   0.194  11.676 -0.5208 -2.4530 -0.0948
 8433SOL     OW36757   4.114   1.360  12.213 -0.4969  0.1226  0.0253
 8433SOL    HW136758   4.021   1.363  12.237 -0.1448 -1.5497  1.6291
 8433SOL    HW236759   4.141   1.451  12.228 -2.6144  0.8525 -0.5478
 8434SOL     OW36760   2.230   2.436   5.073  0.1787 -0.1426  0.0528
 8434SOL    HW136761   2.206   2.494   5.001 -1.2530 -0.0999  0.5695
 8434SOL    HW236762   2.234   2.356   5.021  2.7055 -1.1439  1.7801
 8435SOL     OW36763   0.261   3.493   7.949  0.0171 -0.5819 -0.4945
 8435SOL    HW136764   0.196   3.557   7.921  1.5927  0.3008 -2.1084
 8435SOL    HW236765   0.319   3.496   7.873 -0.2670  0.1681 -0.6787
 8436SOL     OW36766   3.513   0.476   3.448 -0.0760 -0.1700  0.4198
 8436SOL    HW136767   3.521   0.507   3.538  1.7747 -1.9178  0.8673
 8436SOL    HW236768   3.553   0.544   3.395 -1.8837 -1.0197 -2.0379
 8437SOL     OW36769   2.556   2.955   7.753  0.0344 -0.5308 -0.1344
 8437SOL    HW136770   2.516   3.042   7.742  2.0942  0.0911 -2.8442
 8437SOL    HW236771   2.644   2.967   7.718  0.7659 -0.8790  1.5832
 8438SOL     OW36772   0.328   3.814  14.288  0.1757 -0.5580 -0.3657
 8438SOL    HW136773   0.382   3.780  14.359  0.6836  1.6659  0.3044
 8438SOL    HW236774   0.396   3.834  14.224 -1.0268 -0.5632 -1.6511
 8439SOL     OW36775   1.793   3.858   2.754  0.4227 -0.2240  0.0209
 8439SOL    HW136776   1.882   3.866   2.790  0.0251  0.1918  0.9153
 8439SOL    HW236777   1.754   3.788   2.807  0.4935  0.1444  0.5651
 8440SOL     OW36778   2.524   2.315  11.643 -0.3470 -0.2943  0.5177
 8440SOL    HW136779   2.467   2.286  11.714  1.1486 -0.7408  1.5319
 8440SOL    HW236780   2.490   2.401  11.621 -0.0467 -0.4732 -0.6795
 8441SOL     OW36781   1.880   2.539   0.985 -0.2454 -0.5363 -0.1905
 8441SOL    HW136782   1.916   2.605   1.044 -0.2347 -2.0547  1.5211
 8441SOL    HW236783   1.794   2.526   1.025  0.5914  0.8118  2.0800
 8442SOL     OW36784   0.064   1.786   5.481 -0.0042  0.5856  0.5330
 8442SOL    HW136785   4.690   1.798   5.484  0.0271  0.1794  2.7129
 8442SOL    HW236786   0.079   1.878   5.501 -0.4680  0.9788 -0.9213
 8443SOL     OW36787   0.538   3.424  12.924 -0.1340 -0.0531 -0.0154
 8443SOL    HW136788   0.482   3.481  12.976  0.8415  1.0183 -0.1330
 8443SOL    HW236789   0.506   3.447  12.837  4.4667  0.2309 -1.6759
 8444SOL     OW36790   3.315   2.207   6.628 -0.0857 -0.2105  0.0485
 8444SOL    HW136791   3.281   2.274   6.568 -2.2099 -1.1924  0.1428
 8444SOL    HW236792   3.283   2.126   6.588  0.1821  0.2766 -1.1562
 8445SOL     OW36793   0.992   3.129   8.969  0.4794  0.3221  0.1382
 8445SOL    HW136794   0.938   3.166   8.899  0.7864  0.3274 -0.0947
 8445SOL    HW236795   1.039   3.069   8.911 -1.2108 -1.1063  0.2509
 8446SOL     OW36796   1.311   3.352   1.587 -0.7823  0.3449 -0.4880
 8446SOL    HW136797   1.306   3.446   1.604 -0.4361  0.6067 -1.8661
 8446SOL    HW236798   1.310   3.353   1.492 -1.5759 -0.0612 -0.4801
 8447SOL     OW36799   0.055   3.312   6.390 -0.2506 -0.5752  0.2588
 8447SOL    HW136800   0.085   3.349   6.473 -0.6875  0.0546  0.1420
 8447SOL    HW236801   0.136   3.263   6.380 -1.4269 -2.1788 -1.3041
 8448SOL     OW36802   1.820   3.979   5.001 -0.5157 -0.3397  0.3101
 8448SOL    HW136803   1.788   4.065   4.973 -1.2196 -0.7666 -0.1990
 8448SOL    HW236804   1.910   4.005   5.020  0.3214 -0.8656 -2.8938
 8449SOL     OW36805   2.790   1.236   7.817  0.0034 -0.1897  0.4315
 8449SOL    HW136806   2.864   1.194   7.862  1.1392  0.0355 -1.2231
 8449SOL    HW236807   2.811   1.222   7.725  1.3331 -0.3942  0.7532
 8450SOL     OW36808   2.657   3.704  12.077  0.2878 -0.3876  0.5542
 8450SOL    HW136809   2.741   3.683  12.117  0.3715 -0.4606  0.3380
 8450SOL    HW236810   2.636   3.615  12.050 -1.1970  0.9468 -2.5940
 8451SOL     OW36811   2.422   0.025   9.918 -0.0575  0.0033  0.0561
 8451SOL    HW136812   2.485   0.058   9.981  1.6375  0.4435 -1.8796
 8451SOL    HW236813   2.371   4.679   9.964  0.7078 -0.3440  0.3963
 8452SOL     OW36814   2.635   1.715   8.301  0.2338 -0.1243  0.2122
 8452SOL    HW136815   2.562   1.773   8.280 -1.0827 -0.8721  2.7352
 8452SOL    HW236816   2.647   1.727   8.395  0.1371 -2.0039  0.4624
 8453SOL     OW36817   2.267   1.028   0.385 -1.1494 -0.2280  0.4171
 8453SOL    HW136818   2.332   0.998   0.321 -1.5112  1.3498 -0.7119
 8453SOL    HW236819   2.250   0.951   0.438 -0.9993 -1.1881 -0.9274
 8454SOL     OW36820   4.226   3.687   0.823  0.1108  0.2695 -0.0014
 8454SOL    HW136821   4.214   3.709   0.731 -1.4943  0.8057  0.3279
 8454SOL    HW236822   4.165   3.748   0.864  0.4734  1.1831 -0.8553
 8455SOL     OW36823   2.748   3.162  11.612  0.1706 -0.4440 -0.0574
 8455SOL    HW136824   2.674   3.219  11.588 -0.7426 -1.0257  1.3265
 8455SOL    HW236825   2.718   3.072  11.623 -0.6585 -0.2993 -1.1542
 8456SOL     OW36826   2.978   0.095   2.910  0.3179 -0.7503  0.3084
 8456SOL    HW136827   3.056   0.136   2.874  1.4212 -0.7314  2.7628
 8456SOL    HW236828   3.014   0.012   2.941  2.5363 -0.8552 -2.5016
 8457SOL     OW36829   4.293   3.274  11.022  1.0129  0.2094  0.6004
 8457SOL    HW136830   4.325   3.349  11.073 -0.8082  0.1346  1.8652
 8457SOL    HW236831   4.300   3.204  11.087 -3.2875 -0.2007  0.6244
 8458SOL     OW36832   0.467   2.460  17.672  0.3201  0.3296  0.3011
 8458SOL    HW136833   0.532   2.394   0.011  0.9090  1.5699  2.0806
 8458SOL    HW236834   0.447   2.430  17.583 -0.2380  2.2394 -0.2233
 8459SOL     OW36835   3.879   1.681   3.406 -0.4733 -0.1822  0.5794
 8459SOL    HW136836   3.865   1.754   3.345 -0.2726 -0.4698  0.1911
 8459SOL    HW236837   3.808   1.625   3.375  0.0681  0.7515 -2.3425
 8460SOL     OW36838   0.112   0.279  15.450  0.1491  0.4210 -0.2465
 8460SOL    HW136839   0.096   0.267  15.543 -1.4746 -1.7170 -0.8017
 8460SOL    HW236840   0.035   0.246  15.403  2.1790 -1.2612 -2.3872
 8461SOL     OW36841   0.941   4.363   5.197 -0.0972  0.4159  0.4199
 8461SOL    HW136842   0.854   4.344   5.162  0.4232  0.1438 -0.6978
 8461SOL    HW236843   0.962   4.448   5.158  1.3520  0.6578  1.7458
 8462SOL     OW36844   0.920   0.426   7.044  0.3011 -0.3239 -0.2680
 8462SOL    HW136845   0.931   0.520   7.029 -2.7286 -0.0003 -0.4442
 8462SOL    HW236846   0.831   0.408   7.013  0.5262 -2.4052  0.2752
 8463SOL     OW36847   1.100   2.317   2.032 -0.2063 -0.2387 -0.0829
 8463SOL    HW136848   1.193   2.331   2.015  0.1625 -2.0578  0.4136
 8463SOL    HW236849   1.057   2.403   2.029 -0.0564 -0.2373 -2.1432
 8464SOL     OW36850   3.410   3.378   4.227 -0.0255  0.1155  0.0070
 8464SOL    HW136851   3.405   3.465   4.267  0.5893  0.0356  0.2549
 8464SOL    HW236852   3.500   3.383   4.196 -0.1314  0.3239 -0.2592
 8465SOL     OW36853   3.636   0.752   5.922  0.8627  0.0044  0.1847
 8465SOL    HW136854   3.681   0.775   6.003 -0.5709  0.0678  0.9549
 8465SOL    HW236855   3.640   0.836   5.876  1.0471 -0.4813 -0.6803
 8466SOL     OW36856   4.494   0.928   8.018  0.1714 -0.0846 -1.1273
 8466SOL    HW136857   4.468   0.982   8.093 -3.6969 -1.2306 -1.6259
 8466SOL    HW236858   4.409   0.888   7.998  0.3875  0.2715 -2.7287
 8467SOL     OW36859   0.780   0.996  12.869 -0.1134 -0.5628 -0.2237
 8467SOL    HW136860   0.754   1.069  12.926  0.8969  0.1354 -0.6425
 8467SOL    HW236861   0.856   0.960  12.914  1.2929  1.2230 -1.1373
 8468SOL     OW36862   0.785   0.835  11.818 -0.8911 -0.3867 -0.5233
 8468SOL    HW136863   0.870   0.878  11.831 -1.7088  1.2531 -0.6336
 8468SOL    HW236864   0.724   0.906  11.837  0.5220  0.6038  0.3549
 8469SOL     OW36865   0.982   3.363   2.602  0.2591 -0.2382  0.4126
 8469SOL    HW136866   1.004   3.455   2.618  1.4163 -0.3460 -0.5203
 8469SOL    HW236867   1.003   3.358   2.509  0.1187 -1.1538  0.4259
 8470SOL     OW36868   2.834   0.171  15.918 -0.0616  0.3394 -0.3165
 8470SOL    HW136869   2.817   0.192  16.010 -0.9817  1.4339 -0.7339
 8470SOL    HW236870   2.925   0.143  15.909 -0.2925 -0.1713 -1.0490
 8471SOL     OW36871   1.394   2.983  15.917  0.0559  0.1097 -0.3135
 8471SOL    HW136872   1.318   2.981  15.975 -0.0196  0.5003 -0.4014
 8471SOL    HW236873   1.360   2.971  15.829  0.5159 -0.4692 -0.4087
 8472SOL     OW36874   1.962   2.322   3.390 -0.1195  0.1788 -0.3683
 8472SOL    HW136875   1.883   2.276   3.364 -0.1040  1.3592 -2.5257
 8472SOL    HW236876   1.969   2.393   3.326  0.2351 -1.3195 -1.9785
 8473SOL     OW36877   3.624   0.345   3.817  0.6470  0.3231 -0.7157
 8473SOL    HW136878   3.641   0.439   3.819 -0.5898  0.5079  1.0453
 8473SOL    HW236879   3.528   0.338   3.826  0.7042 -0.8986 -1.1183
 8474SOL     OW36880   3.888   1.505  10.120  0.2719 -0.1986 -0.7116
 8474SOL    HW136881   3.891   1.543  10.032 -0.4693 -2.2060 -1.5913
 8474SOL    HW236882   3.890   1.412  10.099  2.4816 -0.5643  1.0487
 8475SOL     OW36883   2.637   2.464   1.021 -0.1634  0.0051  0.0092
 8475SOL    HW136884   2.713   2.498   0.976 -0.9289  0.2161 -1.1180
 8475SOL    HW236885   2.614   2.540   1.074  0.0906  0.2998 -0.3081
 8476SOL     OW36886   2.871   1.121   2.770  0.0492  0.1881  0.0283
 8476SOL    HW136887   2.869   1.159   2.682 -1.2451 -2.0321 -0.8995
 8476SOL    HW236888   2.803   1.058   2.746  0.8257 -0.4158 -0.5931
 8477SOL     OW36889   2.779   3.832  10.934 -0.0830 -0.1527  0.0376
 8477SOL    HW136890   2.802   3.862  10.846  0.4425 -1.6799 -0.3447
 8477SOL    HW236891   2.831   3.888  10.993  1.1309 -1.8235  0.5455
 8478SOL     OW36892   1.891   2.905   3.941  0.5455  0.5678 -0.5929
 8478SOL    HW136893   1.850   2.911   4.027 -2.2892 -0.8374 -1.8457
 8478SOL    HW236894   1.902   2.998   3.921  0.5055  0.4194 -1.3279
 8479SOL     OW36895   2.621   1.463   5.878 -0.3694 -0.6114  0.0172
 8479SOL    HW136896   2.614   1.380   5.926  0.5371 -0.8166 -0.2226
 8479SOL    HW236897   2.680   1.439   5.807  0.1370  1.2559 -0.1912
 8480SOL     OW36898   4.071   2.405  15.288  0.5681 -0.2872 -0.4810
 8480SOL    HW136899   4.032   2.492  15.293 -1.1322 -1.1022  0.8199
 8480SOL    HW236900   3.999   2.341  15.280 -0.0566  0.5333 -1.4437
 8481SOL     OW36901   3.018   0.867   8.634  0.1522 -0.0178 -0.7914
 8481SOL    HW136902   2.961   0.914   8.573 -0.5178 -1.4339 -1.2626
 8481SOL    HW236903   3.069   0.825   8.564  1.7664 -1.1512  1.0722
 8482SOL     OW36904   0.356   2.639  16.105 -0.4829 -0.0767  0.7178
 8482SOL    HW136905   0.335   2.724  16.067  0.7346  0.4201  1.1899
 8482SOL    HW236906   0.305   2.577  16.052 -1.7656 -0.1156  2.0044
 8483SOL     OW36907   3.391   1.412   3.698 -0.2315 -0.3780 -0.1364
 8483SOL    HW136908   3.314   1.440   3.648  0.2759  1.7606  0.2912
 8483SOL    HW236909   3.382   1.317   3.699  2.8918 -0.6588  0.5098
 8484SOL     OW36910   4.126   3.046   8.462  0.1404  0.2216 -0.0461
 8484SOL    HW136911   4.128   3.107   8.389  1.5009  0.4167  0.1698
 8484SOL    HW236912   4.129   2.961   8.418  1.2505 -0.8991  2.1478
 8485SOL     OW36913   4.094   3.899   4.689 -0.3486  0.1231 -0.6203
 8485SOL    HW136914   4.124   3.845   4.616 -0.0663  0.1839 -0.5501
 8485SOL    HW236915   4.145   3.858   4.759 -0.8984  1.1602  0.4082
 8486SOL     OW36916   2.198   3.246  14.376  0.2806 -0.5543  0.6315
 8486SOL    HW136917   2.128   3.213  14.320 -0.1915  0.1078  0.8255
 8486SOL    HW236918   2.170   3.200  14.455  1.3628 -0.6929  0.9354
 8487SOL     OW36919   0.418   0.280   6.508 -0.1233 -0.1873 -0.1410
 8487SOL    HW136920   0.395   0.224   6.434  0.3348 -0.4999 -0.0436
 8487SOL    HW236921   0.344   0.250   6.561 -0.9629  3.7161  0.9584
 8488SOL     OW36922   0.131   3.725   8.936  1.2509  0.2446  0.2849
 8488SOL    HW136923   0.085   3.695   9.015 -0.1730  0.6083 -0.4232
 8488SOL    HW236924   0.174   3.642   8.912 -0.0779 -0.0641 -0.9659
 8489SOL     OW36925   4.256   1.768   2.698  0.1892  0.2819  0.3681
 8489SOL    HW136926   4.315   1.693   2.700 -1.3136 -0.9001  0.9636
 8489SOL    HW236927   4.305   1.815   2.631  1.1853  0.4394  1.2016
 8490SOL     OW36928   2.828   1.523   0.547 -0.3302  0.0398 -0.0135
 8490SOL    HW136929   2.741   1.548   0.577  0.2912  2.3473 -0.1384
 8490SOL    HW236930   2.894   1.584   0.580  1.0714 -1.5424  0.1469
 8491SOL     OW36931   2.824   2.620   0.935  0.2008  0.2606  0.1495
 8491SOL    HW136932   2.811   2.700   0.985  0.5380  0.3293  0.1236
 8491SOL    HW236933   2.865   2.656   0.857 -0.7805 -1.4773 -1.1900
 8492SOL     OW36934   1.957   3.096  14.308 -0.2426 -0.1539  0.2018
 8492SOL    HW136935   1.912   3.079  14.391  1.1210 -1.5488  0.6533
 8492SOL    HW236936   1.906   3.170  14.276  0.1345 -0.2119 -0.5316
 8493SOL     OW36937   2.023   2.065  12.497  0.3367 -0.4869  0.1548
 8493SOL    HW136938   2.063   2.014  12.567  0.2285 -1.0848 -0.2207
 8493SOL    HW236939   1.975   2.131  12.548 -0.3256 -1.1597  0.3937
 8494SOL     OW36940   1.288   3.196  15.577  0.0438 -0.0846  0.2792
 8494SOL    HW136941   1.356   3.130  15.591  1.1111  1.2726  1.4260
 8494SOL    HW236942   1.323   3.276  15.616 -2.0182  0.6207  0.6762
 8495SOL     OW36943   1.202   1.697   1.279  0.0961 -0.0202 -0.2951
 8495SOL    HW136944   1.286   1.652   1.286 -1.3683 -2.6806  0.1332
 8495SOL    HW236945   1.223   1.782   1.317  0.7403  0.2932 -1.3516
 8496SOL     OW36946   1.151   2.738  15.876 -0.1524  0.0052 -0.0801
 8496SOL    HW136947   1.181   2.650  15.898 -0.2987  0.1139  0.5550
 8496SOL    HW236948   1.147   2.745  15.781 -0.6179  1.5664  0.0469
 8497SOL     OW36949   2.487   4.599  12.693  0.1481  0.2160 -0.2847
 8497SOL    HW136950   2.570   4.627  12.731 -0.3512  0.1865  0.8309
 8497SOL    HW236951   2.510   4.533  12.628  1.8595  0.5060  0.0409
 8498SOL     OW36952   3.607   4.459  14.597  0.2118 -0.3182 -0.2241
 8498SOL    HW136953   3.639   4.455  14.506  1.5265  0.7012  0.1974
 8498SOL    HW236954   3.695   4.482  14.627  0.1390 -0.8149  0.3617
 8499SOL     OW36955   4.301   2.424   1.924  0.2701  0.1290 -0.2106
 8499SOL    HW136956   4.341   2.508   1.902  0.9590 -0.5693 -1.5600
 8499SOL    HW236957   4.359   2.394   1.994 -1.0659  0.4712  1.0667
 8500SOL     OW36958   3.391   1.474  15.392  0.2359  0.1120 -0.2111
 8500SOL    HW136959   3.412   1.455  15.484  3.4054  1.7432 -0.6026
 8500SOL    HW236960   3.317   1.413  15.382  1.3506 -1.2271 -0.2109
 8501SOL     OW36961   0.356   2.294  15.417 -0.6165  0.1075 -0.2796
 8501SOL    HW136962   0.405   2.216  15.442 -1.7193 -0.1317  1.1248
 8501SOL    HW236963   0.292   2.297  15.488 -0.0420  1.2930  0.1926
 8502SOL     OW36964   4.061   4.327   5.878  0.0328 -0.0859  0.6738
 8502SOL    HW136965   4.125   4.340   5.948 -0.6546  1.7285  0.9723
 8502SOL    HW236966   4.037   4.418   5.862  0.0521 -0.2136 -0.0640
 8503SOL     OW36967   0.153   3.098  17.548 -0.5523 -0.5848 -0.3481
 8503SOL    HW136968   0.200   3.156  17.608 -2.5008 -0.7852  1.3694
 8503SOL    HW236969   0.128   3.157  17.477 -1.4418  0.5337  0.8870
 8504SOL     OW36970   3.027   1.793   8.491  0.3484 -0.6431  0.1763
 8504SOL    HW136971   3.032   1.707   8.532 -0.2076 -2.1526 -2.9599
 8504SOL    HW236972   3.116   1.822   8.512  0.7839 -0.9627 -1.2125
 8505SOL     OW36973   2.042   3.429   2.486  0.2448 -0.2508  0.5388
 8505SOL    HW136974   2.082   3.371   2.421 -1.4047 -0.9359  0.1407
 8505SOL    HW236975   2.088   3.513   2.484  0.5021 -0.4586 -2.1516
 8506SOL     OW36976   0.472   2.751   4.100 -0.0779 -0.0833 -0.1994
 8506SOL    HW136977   0.551   2.780   4.145 -0.2409 -1.9438  1.2753
 8506SOL    HW236978   0.517   2.705   4.028 -0.4152  1.2458 -1.2627
 8507SOL     OW36979   0.760   2.347  11.939 -0.2393 -0.0273 -0.4743
 8507SOL    HW136980   0.799   2.318  12.021  0.3860 -1.6500 -1.3355
 8507SOL    HW236981   0.689   2.397  11.979  0.9007  2.1720 -1.2356
 8508SOL     OW36982   3.599   0.116   6.582 -0.1290 -0.3744  0.0354
 8508SOL    HW136983   3.690   0.144   6.579 -0.8382  2.0137  0.5341
 8508SOL    HW236984   3.551   0.184   6.629  2.1576  0.6497  0.8916
 8509SOL     OW36985   1.852   2.052   8.835  0.1439  0.0871  0.6098
 8509SOL    HW136986   1.891   2.116   8.896  2.2558 -0.0607 -0.5838
 8509SOL    HW236987   1.815   1.992   8.900  2.0658 -0.3784  1.2961
 8510SOL     OW36988   2.464   3.943   7.014 -0.0861 -0.5038  0.0856
 8510SOL    HW136989   2.415   3.934   6.931 -0.4892  1.6859  0.1026
 8510SOL    HW236990   2.391   3.924   7.072  1.3469 -2.7460  1.1526
 8511SOL     OW36991   4.641   3.397  13.112 -0.2870 -0.4570  0.3775
 8511SOL    HW136992   4.584   3.320  13.116  0.9355 -1.3913  0.0348
 8511SOL    HW236993   4.709   3.357  13.057 -0.0152 -2.1720  1.9702
 8512SOL     OW36994   0.938   2.991   0.186  0.5634 -0.5413  0.0143
 8512SOL    HW136995   0.993   2.919   0.155  1.3916  0.7566 -1.5287
 8512SOL    HW236996   0.850   2.971   0.153  0.4574 -0.4303  0.2308
 8513SOL     OW36997   1.327   2.113   2.468  0.0496  0.0620  0.1843
 8513SOL    HW136998   1.239   2.086   2.443  0.1511 -0.0102 -0.0941
 8513SOL    HW236999   1.355   2.037   2.518 -2.0627  0.2713  1.6547
 8514SOL     OW37000   4.497   4.659   5.792 -0.0089 -0.0693 -0.6309
 8514SOL    HW137001   4.471   4.627   5.705  1.6632 -1.3967 -0.6355
 8514SOL    HW237002   4.510   0.031   5.772 -0.0895  0.7685  3.2922
 8515SOL     OW37003   0.070   2.494   5.854  0.4263  0.4158 -0.1330
 8515SOL    HW137004   0.142   2.554   5.833  2.0624 -1.2560  0.6527
 8515SOL    HW237005   0.045   2.463   5.768 -2.7556  1.9966  0.2341
 8516SOL     OW37006   1.870   3.100   0.352  0.5060 -0.1980  0.0910
 8516SOL    HW137007   1.779   3.101   0.381 -0.0393 -1.1914 -1.5955
 8516SOL    HW237008   1.856   3.137   0.265 -2.9422  0.0246  0.7577
 8517SOL     OW37009   4.630   2.243  13.164 -0.0406 -0.7338  0.2889
 8517SOL    HW137010   4.555   2.257  13.107  0.2978  1.0234  0.2868
 8517SOL    HW237011   4.623   2.150  13.188  2.3611 -0.8160  0.6707
 8518SOL     OW37012   0.371   1.584   7.645  0.5479 -0.6667  0.0587
 8518SOL    HW137013   0.402   1.633   7.721 -0.5117 -0.3845  0.3106
 8518SOL    HW237014   0.404   1.634   7.570  1.8276 -0.7114  0.5938
 8519SOL     OW37015   4.145   0.529   1.284  0.1739  0.2496  0.0826
 8519SOL    HW137016   4.156   0.522   1.378  0.3546  4.3443  0.3979
 8519SOL    HW237017   4.172   0.620   1.268 -0.6961  0.4216 -0.4561
 8520SOL     OW37018   0.164   0.981   5.401 -0.2025 -0.3882  0.3738
 8520SOL    HW137019   0.070   0.973   5.415 -0.2314  2.1998  1.6257
 8520SOL    HW237020   0.187   0.891   5.424  0.4459  0.0639  1.5090
 8521SOL     OW37021   3.808   2.021   6.379  0.3568  1.0472 -0.0694
 8521SOL    HW137022   3.854   2.065   6.450 -0.2176 -1.8657  2.0990
 8521SOL    HW237023   3.863   2.054   6.308  2.5527  0.4269  1.3704
 8522SOL     OW37024   2.901   2.579  15.658 -0.1059 -0.0698  0.6323
 8522SOL    HW137025   2.893   2.536  15.573 -0.9900  0.8562  0.2452
 8522SOL    HW237026   2.971   2.526  15.697  0.8875 -0.6981 -1.9856
 8523SOL     OW37027   3.464   2.232   9.182 -0.1244 -0.1780  0.1805
 8523SOL    HW137028   3.519   2.154   9.178 -0.6739 -0.5524 -0.1758
 8523SOL    HW237029   3.394   2.208   9.242  0.5367 -0.4916  0.8160
 8524SOL     OW37030   0.673   2.901   8.133 -0.6879  0.2932  0.2034
 8524SOL    HW137031   0.634   2.814   8.127  0.1707 -0.1138  0.5124
 8524SOL    HW237032   0.608   2.957   8.091  1.5743  0.0617 -3.5815
 8525SOL     OW37033   0.656   1.298   2.834  0.4886  0.2129 -0.0831
 8525SOL    HW137034   0.570   1.331   2.858  0.5331 -1.7857  2.9046
 8525SOL    HW237035   0.661   1.298   2.739 -0.4040 -1.1231 -0.1307
 8526SOL     OW37036   2.930   3.865   8.624 -0.2319  0.4294 -0.0079
 8526SOL    HW137037   2.997   3.845   8.689 -1.1385  3.1128  1.7786
 8526SOL    HW237038   2.905   3.941   8.678  1.1684  0.0650  1.1548
 8527SOL     OW37039   3.880   4.586  17.594  0.3076  0.0447  0.1852
 8527SOL    HW137040   3.922   4.501  17.580 -0.4974 -0.5459  1.3675
 8527SOL    HW237041   3.802   4.565  17.544  0.5005  0.4911 -0.3097
 8528SOL     OW37042   2.849   1.815  15.420 -0.1416  0.1645 -0.0678
 8528SOL    HW137043   2.808   1.828  15.334  1.3755  1.9345 -0.5326
 8528SOL    HW237044   2.925   1.761  15.397 -1.6857 -1.4290 -1.4817
 8529SOL     OW37045   1.375   4.043   5.495  0.1996 -0.0627 -0.1493
 8529SOL    HW137046   1.281   4.063   5.496  0.6372  1.9515  0.5935
 8529SOL    HW237047   1.409   4.122   5.538 -0.5721 -0.2983  0.8987
 8530SOL     OW37048   2.255   2.478  13.736  0.4166  0.1424 -0.1205
 8530SOL    HW137049   2.277   2.471  13.643  1.6836  0.7834  0.1324
 8530SOL    HW237050   2.161   2.462  13.733  0.2600  0.7839  1.3437
 8531SOL     OW37051   3.678   2.049   4.485 -0.2486  0.3878  0.3409
 8531SOL    HW137052   3.757   2.089   4.522  0.6794 -1.3909  0.2683
 8531SOL    HW237053   3.607   2.092   4.532 -0.4153  0.2865  0.1796
 8532SOL     OW37054   0.253   0.958  12.413  0.1464 -0.1998 -0.0358
 8532SOL    HW137055   0.196   1.034  12.422  0.0303 -0.3578  0.6265
 8532SOL    HW237056   0.189   0.902  12.369  0.5559 -1.2337  0.6757
 8533SOL     OW37057   0.341   3.590   8.449  0.3754  0.4002  0.4229
 8533SOL    HW137058   0.374   3.514   8.498  2.0766  0.5364 -0.5122
 8533SOL    HW237059   0.418   3.593   8.393 -0.1225 -0.8264 -0.3471
 8534SOL     OW37060   3.116   2.286   8.666 -0.0955  0.4742  0.2616
 8534SOL    HW137061   3.163   2.255   8.743 -2.5036 -0.7283  1.2468
 8534SOL    HW237062   3.173   2.358   8.637  0.6359  0.4124  1.5615
 8535SOL     OW37063   2.873   3.622   4.037  0.1056  0.6581  0.0641
 8535SOL    HW137064   2.909   3.711   4.030  1.1046  0.2906  0.5064
 8535SOL    HW237065   2.837   3.623   4.126  0.4691 -0.9079  0.2278
 8536SOL     OW37066   4.687   1.561   4.206 -0.1133 -0.0371  0.1797
 8536SOL    HW137067   0.010   1.643   4.232  0.8295 -1.1005  1.9769
 8536SOL    HW237068   4.605   1.600   4.177 -0.3425 -0.3440  0.4317
 8537SOL     OW37069   2.382   2.289   1.544 -0.1556  0.1900 -0.1017
 8537SOL    HW137070   2.335   2.321   1.621 -1.1802  1.6515 -1.3282
 8537SOL    HW237071   2.463   2.341   1.548 -0.3906  0.6781 -1.7556
 8538SOL     OW37072   2.370   2.376   5.290  0.4507 -0.3308  0.1010
 8538SOL    HW137073   2.334   2.412   5.371 -2.2484 -3.1765  0.1527
 8538SOL    HW237074   2.321   2.413   5.217  3.9606  2.0381 -1.0660
 8539SOL     OW37075   0.520   0.686   6.170 -0.0826  0.1640  0.1884
 8539SOL    HW137076   0.500   0.628   6.243 -2.1656  1.2474  0.4833
 8539SOL    HW237077   0.609   0.706   6.198 -0.1750  0.3557  0.3419
 8540SOL     OW37078   2.005   4.522   9.732  0.0884  0.1051  0.4001
 8540SOL    HW137079   2.016   4.459   9.803  1.3577  0.0673  0.1577
 8540SOL    HW237080   1.909   4.527   9.725  0.1924  0.2934 -0.9045
 8541SOL     OW37081   1.596   4.568   6.492 -0.4962 -0.0994 -0.7553
 8541SOL    HW137082   1.638   4.547   6.575 -1.6107 -0.7270 -0.3467
 8541SOL    HW237083   1.631   4.654   6.471 -0.8402 -0.2343 -1.9280
 8542SOL     OW37084   1.949   0.890  17.607  0.3616 -0.8039  0.5424
 8542SOL    HW137085   2.037   0.865  17.635  1.3826  1.9502 -0.2703
 8542SOL    HW237086   1.893   0.902  17.684 -0.5629 -2.2808  0.0922
 8543SOL     OW37087   2.614   2.498   7.428 -0.1975  0.2902  0.2886
 8543SOL    HW137088   2.589   2.575   7.377 -0.9134  0.6240  1.1332
 8543SOL    HW237089   2.700   2.519   7.465  0.2591  1.1702 -1.2971
 8544SOL     OW37090   1.672   0.019   7.611 -0.0394 -0.3314  0.2735
 8544SOL    HW137091   1.601   4.709   7.667 -1.0207  0.1289 -0.7142
 8544SOL    HW237092   1.637   4.714   7.525 -0.8886  1.2988  0.1348
 8545SOL     OW37093   4.153   3.916   7.767 -0.6185  0.4285  0.0350
 8545SOL    HW137094   4.152   3.978   7.694  0.8292  0.5043  0.0914
 8545SOL    HW237095   4.179   3.840   7.716 -1.3095  0.6802 -0.7035
 8546SOL     OW37096   2.747   1.604   5.158  0.2707  0.8361  0.1984
 8546SOL    HW137097   2.838   1.618   5.134  0.7070 -1.0397  0.7830
 8546SOL    HW237098   2.723   1.525   5.108  3.1037 -0.3101  0.6801
 8547SOL     OW37099   1.591   1.273  14.257  0.1007 -0.6696 -0.0915
 8547SOL    HW137100   1.647   1.268  14.179  1.2764  0.2182  0.7001
 8547SOL    HW237101   1.508   1.288  14.211  0.2509 -0.0460 -0.1694
 8548SOL     OW37102   4.561   4.014  14.242 -0.4321 -0.2705 -0.5231
 8548SOL    HW137103   4.622   3.987  14.173  1.2368  1.8948  0.1181
 8548SOL    HW237104   4.617   4.015  14.319  1.7387 -0.3155 -2.1075
 8549SOL     OW37105   3.692   0.837   7.997 -0.5896  0.3399  0.3331
 8549SOL    HW137106   3.738   0.780   7.935 -1.2969  0.2301 -0.0809
 8549SOL    HW237107   3.692   0.917   7.944  0.2622  0.9098  1.1844
 8550SOL     OW37108   1.679   4.466   1.664 -0.6832  0.3690 -0.2568
 8550SOL    HW137109   1.592   4.434   1.641 -1.2772  1.8179 -0.0233
 8550SOL    HW237110   1.667   4.555   1.630 -0.4272  0.5157  0.0362
 8551SOL     OW37111   2.435   4.465   9.489  0.2361  0.1222 -0.3710
 8551SOL    HW137112   2.372   4.532   9.514  0.1388  0.0376 -0.3934
 8551SOL    HW237113   2.397   4.434   9.408  1.9891 -1.9215 -0.4136
 8552SOL     OW37114   1.602   0.683   7.392  0.4766 -0.0685 -0.2823
 8552SOL    HW137115   1.517   0.669   7.432  1.3710 -1.6360  1.0178
 8552SOL    HW237116   1.635   0.760   7.438 -0.2783 -0.2449  0.5467
 8553SOL     OW37117   3.296   3.167   6.182 -0.5723 -0.2694 -0.0787
 8553SOL    HW137118   3.334   3.231   6.242 -1.5781  1.2953 -1.0936
 8553SOL    HW237119   3.365   3.102   6.172  0.2990  0.5816  0.4335
 8554SOL     OW37120   4.496   1.350  17.242 -0.7766 -0.1922  0.4543
 8554SOL    HW137121   4.560   1.395  17.297 -1.1726  1.3719 -0.3376
 8554SOL    HW237122   4.416   1.403  17.250 -1.1002 -0.5322 -0.5305
 8555SOL     OW37123   0.622   2.256   7.292 -0.2271  0.1109  0.0375
 8555SOL    HW137124   0.656   2.167   7.285  2.9540  1.2211  1.5661
 8555SOL    HW237125   0.569   2.262   7.212  1.8137 -0.9170 -1.4008
 8556SOL     OW37126   4.547   4.547  14.440  0.3600  0.2115 -0.1394
 8556SOL    HW137127   4.613   4.602  14.399 -1.1622  2.5740  0.6051
 8556SOL    HW237128   4.558   4.458  14.405 -1.0625  0.3592 -0.9783
 8557SOL     OW37129   1.687   2.168   7.965 -0.5118 -0.1087 -0.5089
 8557SOL    HW137130   1.654   2.127   8.044  0.6352 -0.2460 -0.0971
 8557SOL    HW237131   1.683   2.090   7.911  3.0043 -0.0196 -0.8772
 8558SOL     OW37132   2.308   4.170  10.388 -0.8188  0.0588 -0.0414
 8558SOL    HW137133   2.303   4.154  10.482  0.2363 -0.7555 -0.1204
 8558SOL    HW237134   2.398   4.151  10.363 -0.1912  0.7039  1.6957
 8559SOL     OW37135   0.289   2.424   7.507  0.8006  0.1524  0.7703
 8559SOL    HW137136   0.213   2.391   7.555  0.6677  1.5720  1.5507
 8559SOL    HW237137   0.259   2.415   7.416  0.4333 -0.5197  0.9599
 8560SOL     OW37138   2.488   2.243   7.466 -0.4425 -0.1912  0.3595
 8560SOL    HW137139   2.497   2.338   7.465 -0.8204 -0.1522  1.1536
 8560SOL    HW237140   2.567   2.207   7.506 -0.2235 -2.4236 -2.0324
 8561SOL     OW37141   1.193   2.044   9.096 -0.2675  0.1833 -0.0917
 8561SOL    HW137142   1.145   1.969   9.132 -1.4076  0.5706 -0.8072
 8561SOL    HW237143   1.275   2.027   9.143  0.5754  1.3410 -1.1327
 8562SOL     OW37144   2.166   1.134   5.932  0.2193 -0.8019 -0.1857
 8562SOL    HW137145   2.175   1.180   5.849  1.8236 -2.0932 -0.7344
 8562SOL    HW237146   2.082   1.166   5.964  0.3944  0.0580 -0.6036
 8563SOL     OW37147   3.782   4.437  16.884  0.0897  0.4747 -0.5294
 8563SOL    HW137148   3.710   4.436  16.820 -0.4663  1.9052  0.0775
 8563SOL    HW237149   3.820   4.524  16.875  2.3533 -0.6235 -1.5889
 8564SOL     OW37150   1.807   2.451   1.297 -0.0507  0.3130  0.1958
 8564SOL    HW137151   1.748   2.465   1.224 -0.7098 -1.4252  0.4096
 8564SOL    HW237152   1.767   2.382   1.350  0.7836 -1.7269 -1.8141
 8565SOL     OW37153   3.650   3.452  11.793 -0.0023 -0.6084 -0.0391
 8565SOL    HW137154   3.715   3.386  11.817  2.6155  1.6286 -1.0105
 8565SOL    HW237155   3.586   3.403  11.741  1.7213 -2.0985 -0.7848
 8566SOL     OW37156   2.259   3.538   8.052  0.3644  0.1233  0.6544
 8566SOL    HW137157   2.191   3.499   8.107  0.3465 -0.0306  0.5207
 8566SOL    HW237158   2.295   3.602   8.114 -1.4995  1.4207  0.3897
 8567SOL     OW37159   2.137   4.666   2.451  0.4900 -0.3745  0.2627
 8567SOL    HW137160   2.161   4.647   2.542 -0.3603  3.7906  1.3815
 8567SOL    HW237161   2.172   0.035   2.446 -0.7954  0.1671  0.9999
 8568SOL     OW37162   2.735   4.336  12.739  0.2302 -0.2235 -0.6241
 8568SOL    HW137163   2.818   4.322  12.693  0.8756 -0.6417  0.6544
 8568SOL    HW237164   2.695   4.398  12.678 -0.8788  2.0324  2.4040
 8569SOL     OW37165   1.463   3.853   3.787  0.4939 -0.2570  0.0270
 8569SOL    HW137166   1.514   3.911   3.843  2.9730 -0.3777 -2.0910
 8569SOL    HW237167   1.491   3.880   3.699 -0.4289  1.6468  0.3281
 8570SOL     OW37168   3.720   2.257   1.659  0.6599 -0.2102 -0.5135
 8570SOL    HW137169   3.770   2.223   1.585  1.9249  0.8271 -0.1221
 8570SOL    HW237170   3.790   2.280   1.720 -0.9747 -0.5910  1.5509
 8571SOL     OW37171   2.761   0.129  10.664 -0.4169  0.1883  0.0690
 8571SOL    HW137172   2.732   0.132  10.755 -2.0752 -0.1858 -0.4483
 8571SOL    HW237173   2.837   0.184  10.680 -1.1353  1.2906 -0.2800
 8572SOL     OW37174   4.084   4.020  16.179  0.1678 -0.3079  0.2893
 8572SOL    HW137175   4.071   4.105  16.136  1.2100 -0.8188 -1.0593
 8572SOL    HW237176   4.167   3.987  16.146 -1.3371 -2.8351 -0.9857
 8573SOL     OW37177   2.438   3.256  15.078 -0.2276 -0.1611  0.1482
 8573SOL    HW137178   2.501   3.327  15.070  0.1822 -0.5472 -0.0381
 8573SOL    HW237179   2.360   3.310  15.068  0.6139  1.6252  3.4385
 8574SOL     OW37180   4.620   0.328   4.038  0.1384 -0.5579 -1.1604
 8574SOL    HW137181   4.536   0.360   4.007  1.8817  3.5272 -1.5933
 8574SOL    HW237182   4.630   0.374   4.122  1.0174  0.3830 -1.7803
 8575SOL     OW37183   0.656   0.949   6.641  0.2559  0.6866  0.4818
 8575SOL    HW137184   0.575   0.935   6.591  0.3299  2.5179 -0.1679
 8575SOL    HW237185   0.640   1.034   6.683 -0.5151 -0.1149  1.8380
 8576SOL     OW37186   0.851   3.757   5.809 -0.0472 -0.4572  0.9289
 8576SOL    HW137187   0.885   3.808   5.882  1.6733 -1.3402  0.7378
 8576SOL    HW237188   0.764   3.796   5.813  1.2452  2.3790  1.4820
 8577SOL     OW37189   1.859   4.570   3.179 -0.3195 -0.3406 -0.2298
 8577SOL    HW137190   1.945   4.532   3.165  0.4089  0.3418  2.2914
 8577SOL    HW237191   1.876   4.663   3.193 -0.6490 -0.6745  2.4476
 8578SOL     OW37192   4.085   0.725   8.533 -0.4094 -0.3725 -0.3230
 8578SOL    HW137193   4.015   0.777   8.572  0.9002 -0.8312  2.6625
 8578SOL    HW237194   4.144   0.789   8.494 -1.0077  0.7501  0.6027
 8579SOL     OW37195   4.349   1.967   7.667  0.5556  0.6105  0.0001
 8579SOL    HW137196   4.285   1.991   7.734  0.8574 -3.3060  1.7209
 8579SOL    HW237197   4.430   1.998   7.709  0.1310  2.7641 -0.7774
 8580SOL     OW37198   2.330   3.459  15.770  0.0429  0.5411  0.4326
 8580SOL    HW137199   2.329   3.391  15.702 -2.4419  0.6394  0.3806
 8580SOL    HW237200   2.381   3.529  15.729 -0.7500  1.1064  0.4185
 8581SOL     OW37201   1.673   0.418  17.596 -0.1856  0.2487 -0.0461
 8581SOL    HW137202   1.759   0.454  17.619 -0.1975  0.1829  0.1044
 8581SOL    HW237203   1.708   0.348  17.543 -1.5178  0.3567 -1.0593
 8582SOL     OW37204   1.899   0.603   0.015  0.0946  0.2180 -0.2439
 8582SOL    HW137205   1.837   0.668  17.667 -0.5587  0.7653  2.0890
 8582SOL    HW237206   1.915   0.628   0.106 -1.2092 -0.8077  0.2681
 8583SOL     OW37207   3.476   1.485   1.622 -0.5395 -0.5061  0.0833
 8583SOL    HW137208   3.486   1.478   1.527 -0.5130 -4.5367  0.3472
 8583SOL    HW237209   3.428   1.567   1.628  0.6368  0.1057  1.0149
 8584SOL     OW37210   4.105   4.123   8.325 -0.0137  0.0106  0.1106
 8584SOL    HW137211   4.189   4.152   8.289 -0.5472 -0.5851 -1.6159
 8584SOL    HW237212   4.132   4.075   8.403 -0.5877 -0.3371  0.0952
 8585SOL     OW37213   0.535   2.976   2.713  0.3604 -0.4172  0.7251
 8585SOL    HW137214   0.493   3.057   2.742  0.9697  0.3633 -0.5726
 8585SOL    HW237215   0.542   2.920   2.790  0.3481  0.6894  1.5168
 8586SOL     OW37216   2.506   2.040   4.301  0.3141 -0.6931 -0.3739
 8586SOL    HW137217   2.428   2.055   4.354  0.8469 -0.9771  0.4777
 8586SOL    HW237218   2.536   2.130   4.297  0.7344 -0.7624  1.6566
 8587SOL     OW37219   0.945   2.028   9.401  0.4827 -0.4549 -0.0651
 8587SOL    HW137220   0.951   1.961   9.333  2.8207  0.1421 -0.4500
 8587SOL    HW237221   0.941   2.096   9.333 -1.4143 -0.0576  0.4504
 8588SOL     OW37222   1.665   0.151   2.543  0.4010  0.6335  0.4886
 8588SOL    HW137223   1.738   0.092   2.522  0.5605  0.9302  0.2000
 8588SOL    HW237224   1.607   0.089   2.587  2.3175 -1.8288 -0.4268
 8589SOL     OW37225   0.162   1.390   2.602  0.5376  0.3616 -0.2984
 8589SOL    HW137226   0.070   1.387   2.574  0.4549  1.6309 -0.1567
 8589SOL    HW237227   0.171   1.295   2.612 -0.1066  0.1180 -2.0746
 8590SOL     OW37228   3.671   3.604   0.101 -0.1163  0.2951 -0.3084
 8590SOL    HW137229   3.610   3.674   0.077 -0.0209  0.0285 -1.3384
 8590SOL    HW237230   3.702   3.652   0.177 -0.9362  1.7976 -0.9149
 8591SOL     OW37231   1.512   3.725  12.933 -0.4825  0.0158  0.2082
 8591SOL    HW137232   1.580   3.658  12.919  1.5755  1.9214  0.9642
 8591SOL    HW237233   1.470   3.734  12.847  0.9808 -1.1994 -0.6364
 8592SOL     OW37234   2.858   0.219   7.286 -0.3555 -0.2452 -0.0631
 8592SOL    HW137235   2.840   0.290   7.224  3.1303  0.4240 -0.3487
 8592SOL    HW237236   2.781   0.239   7.339 -0.6528  0.8953 -0.9343
 8593SOL     OW37237   3.206   0.044   5.583 -0.1834 -0.4964  0.6657
 8593SOL    HW137238   3.298   0.065   5.572  0.5377 -3.4184  1.0925
 8593SOL    HW237239   3.213   4.671   5.560 -2.3777 -0.2612 -0.9818
 8594SOL     OW37240   4.065   3.136  17.356 -1.0460  0.6300 -0.6180
 8594SOL    HW137241   4.012   3.098  17.286 -1.4884 -0.7243  0.4578
 8594SOL    HW237242   4.149   3.146  17.312  0.6434 -5.4320  1.3763
 8595SOL     OW37243   1.507   3.096   3.923 -0.0281  0.9042 -0.2564
 8595SOL    HW137244   1.450   3.135   3.990  0.0054 -0.2635  0.4505
 8595SOL    HW237245   1.570   3.167   3.909  1.2320 -0.4875 -1.6543
 8596SOL     OW37246   1.775   4.290   7.209  0.2428 -0.0782  0.0207
 8596SOL    HW137247   1.764   4.339   7.127 -3.3951 -1.2772 -0.1886
 8596SOL    HW237248   1.778   4.364   7.270 -0.8945  0.0544 -0.0852
 8597SOL     OW37249   1.835   1.911   9.920  0.6066 -0.1546 -0.3103
 8597SOL    HW137250   1.858   1.831   9.967  1.3954 -0.1217 -0.6378
 8597SOL    HW237251   1.821   1.971   9.993  3.0800  1.0467 -0.8424
 8598SOL     OW37252   3.517   4.522   7.776 -0.5987  0.3566  0.1071
 8598SOL    HW137253   3.445   4.480   7.729  0.4229  0.1107 -1.2392
 8598SOL    HW237254   3.481   4.512   7.864 -1.5953  0.5743 -0.2754
 8599SOL     OW37255   4.366   3.527   7.153  0.0376  0.4800 -0.0904
 8599SOL    HW137256   4.459   3.539   7.133  0.0838 -0.6890 -0.5859
 8599SOL    HW237257   4.333   3.616   7.138 -2.6498 -0.1647  2.0717
 8600SOL     OW37258   2.536   2.173  15.527  0.1652 -0.2860 -0.1015
 8600SOL    HW137259   2.519   2.105  15.462  2.0316 -2.2664  1.4691
 8600SOL    HW237260   2.505   2.251  15.482 -0.7616  0.4898  1.9037
 8601SOL     OW37261   4.141   2.787   3.958  0.0521 -0.1411 -0.5419
 8601SOL    HW137262   4.200   2.718   3.988 -1.0165 -0.4808  0.7943
 8601SOL    HW237263   4.196   2.865   3.966  0.2953 -0.6009  2.2292
 8602SOL     OW37264   3.939   3.221   5.395  0.0792  0.5001 -0.0970
 8602SOL    HW137265   4.021   3.261   5.424  1.1607  0.7091 -3.4488
 8602SOL    HW237266   3.929   3.143   5.450 -0.0576  0.2958 -0.4098
 8603SOL     OW37267   2.648   0.621   5.633 -0.0369  0.1323  0.6942
 8603SOL    HW137268   2.579   0.643   5.571  1.7791  1.9741 -0.6604
 8603SOL    HW237269   2.634   0.695   5.692  2.0458  1.5689 -0.6463
 8604SOL     OW37270   4.460   1.801   3.062  0.8103  0.0382  0.0674
 8604SOL    HW137271   4.539   1.795   3.007  0.2070  0.7520 -0.8784
 8604SOL    HW237272   4.455   1.890   3.096 -0.6346 -0.4088  1.0015
 8605SOL     OW37273   1.137   1.765   5.173 -0.3226 -0.1539  0.3553
 8605SOL    HW137274   1.067   1.777   5.237 -0.6378 -1.0469  0.1744
 8605SOL    HW237275   1.126   1.844   5.120 -0.6163  0.8652  1.9388
 8606SOL     OW37276   1.832   4.150   3.121 -0.1436  0.1784 -0.1714
 8606SOL    HW137277   1.787   4.067   3.137  0.2743 -0.3068 -1.4753
 8606SOL    HW237278   1.810   4.155   3.028 -0.9761 -0.4524 -0.0045
 8607SOL     OW37279   3.526   0.155   2.541 -0.3669 -0.3878 -0.4203
 8607SOL    HW137280   3.571   0.239   2.534  0.3181 -0.8408 -1.4360
 8607SOL    HW237281   3.523   0.143   2.636  0.6989  0.2691 -0.3089
 8608SOL     OW37282   3.824   2.864   6.845  0.2246  0.7630  0.3732
 8608SOL    HW137283   3.900   2.807   6.850 -0.9467 -0.8617 -0.3099
 8608SOL    HW237284   3.789   2.832   6.762  1.6558 -1.2592  0.5599
 8609SOL     OW37285   2.568   2.744   3.456 -0.1638 -0.2704  0.1228
 8609SOL    HW137286   2.647   2.752   3.510 -1.2790  0.9989  1.5802
 8609SOL    HW237287   2.501   2.725   3.521  0.5537  0.0874  0.9660
 8610SOL     OW37288   3.490   3.876   3.595 -0.2719  0.3245 -0.1376
 8610SOL    HW137289   3.460   3.967   3.602 -0.2887  0.2952  0.1668
 8610SOL    HW237290   3.574   3.882   3.550 -0.2783  2.0277  0.0616
 8611SOL     OW37291   1.084   0.096   0.239  0.4382 -0.1187 -0.2227
 8611SOL    HW137292   1.009   0.153   0.254  1.2013  1.4648 -2.4188
 8611SOL    HW237293   1.160   0.148   0.266  0.8780 -1.2713  0.8013
 8612SOL     OW37294   0.167   1.735   9.025  0.6322 -0.0542  0.5060
 8612SOL    HW137295   0.115   1.690   8.959 -1.8974  0.2550  2.2513
 8612SOL    HW237296   0.166   1.670   9.095  0.9054 -0.3804  0.2053
 8613SOL     OW37297   3.627   1.040   8.490  0.4913  0.1864  0.0427
 8613SOL    HW137298   3.624   0.996   8.405  0.7761  0.4739 -0.1201
 8613SOL    HW237299   3.574   1.118   8.471 -1.2413 -1.5614 -2.2657
 8614SOL     OW37300   2.450   3.620   3.326 -0.0552 -0.3699 -0.4427
 8614SOL    HW137301   2.522   3.642   3.266 -0.5093  2.5696  0.0752
 8614SOL    HW237302   2.491   3.548   3.373  0.1494  1.2131  1.8115
 8615SOL     OW37303   2.174   3.941  17.465 -0.0037  0.4919 -0.6884
 8615SOL    HW137304   2.087   3.907  17.488 -0.4858  0.6096 -2.3444
 8615SOL    HW237305   2.184   3.932  17.371  0.5711  2.1832 -0.7797
 8616SOL     OW37306   0.782   1.304  12.920  0.1379 -0.8227  0.2951
 8616SOL    HW137307   0.851   1.333  12.979  2.1906 -0.8497 -2.1003
 8616SOL    HW237308   0.796   1.369  12.850 -1.8427  1.7336  2.2532
 8617SOL     OW37309   1.060   1.597   5.957 -0.1239  0.4562  0.2875
 8617SOL    HW137310   1.021   1.573   5.872  1.6672 -0.9742 -0.1424
 8617SOL    HW237311   0.979   1.629   5.996  0.1552  1.8543 -0.2860
 8618SOL     OW37312   2.147   4.318  11.039  0.2459  0.0018 -0.5230
 8618SOL    HW137313   2.151   4.393  11.098 -0.0696 -0.9814  0.7241
 8618SOL    HW237314   2.190   4.250  11.090 -0.0116 -0.1323 -0.4841
 8619SOL     OW37315   2.004   1.529   6.880  0.0685 -0.5637  0.1098
 8619SOL    HW137316   1.966   1.613   6.905  0.0501 -0.3498 -0.6359
 8619SOL    HW237317   2.090   1.538   6.921 -0.1931  1.9393  0.0958
 8620SOL     OW37318   4.101   3.796   5.550 -0.5261 -0.5663 -0.1841
 8620SOL    HW137319   4.018   3.842   5.556 -0.6546 -1.2645  3.2714
 8620SOL    HW237320   4.107   3.761   5.639 -2.1610  0.4292  0.3038
 8621SOL     OW37321   0.369   0.979   2.594 -0.0074  0.5193 -0.3315
 8621SOL    HW137322   0.412   1.017   2.518  2.2150 -0.4177  0.4364
 8621SOL    HW237323   0.356   0.890   2.561 -1.0385  0.5387  0.0011
 8622SOL     OW37324   3.090   4.278   7.987  0.2725 -0.5383  0.3937
 8622SOL    HW137325   3.007   4.261   7.942  1.2882  2.2665 -2.4986
 8622SOL    HW237326   3.070   4.341   8.056  0.0466  0.3437 -0.4839
 8623SOL     OW37327   3.666   0.482   8.499 -0.4299 -0.5050  0.2601
 8623SOL    HW137328   3.576   0.455   8.518 -1.3469  2.4305 -0.0315
 8623SOL    HW237329   3.673   0.548   8.568 -0.2893  0.4834 -0.7135
 8624SOL     OW37330   3.009   4.208   3.284  0.0580  0.5006  0.0357
 8624SOL    HW137331   2.955   4.146   3.333 -1.4817  1.9353  0.1648
 8624SOL    HW237332   3.017   4.292   3.329 -0.7579  0.9957 -0.7334
 8625SOL     OW37333   4.593   4.657  10.834  0.4200 -0.0406 -0.2154
 8625SOL    HW137334   4.595   4.613  10.919 -0.5035 -0.5338 -0.4451
 8625SOL    HW237335   4.501   4.682  10.819  0.2737  0.7636  1.9587
 8626SOL     OW37336   1.266   2.983   3.317  0.1373  0.3358 -0.0069
 8626SOL    HW137337   1.179   2.944   3.315 -0.0291  0.7372 -0.7057
 8626SOL    HW237338   1.304   2.937   3.242 -1.8696 -2.6438  0.8224
 8627SOL     OW37339   1.895   0.056   7.979  0.1910 -0.2138  0.0610
 8627SOL    HW137340   1.908   0.092   8.067  1.3335 -1.4024  0.3837
 8627SOL    HW237341   1.807   0.022   7.995  0.7213 -1.2980  0.7098
 8628SOL     OW37342   0.914   4.085  17.168  0.5711  0.0324  0.0963
 8628SOL    HW137343   0.910   4.146  17.094  0.4716  0.8282  0.7550
 8628SOL    HW237344   0.834   4.033  17.164 -1.5229  3.0278  2.2704
 8629SOL     OW37345   0.396   0.593   5.527 -0.7353  0.0458  0.9461
 8629SOL    HW137346   0.484   0.618   5.500 -0.2949 -2.6966 -0.1757
 8629SOL    HW237347   0.374   0.672   5.576  4.0278  1.7511  0.2926
 8630SOL     OW37348   1.382   0.332  13.182  0.8698  0.5305  0.1639
 8630SOL    HW137349   1.476   0.348  13.172  1.2506 -1.5118  0.4843
 8630SOL    HW237350   1.361   0.276  13.107  2.2754  2.1141 -1.4431
 8631SOL     OW37351   4.107   3.536   2.257 -0.0673 -0.0493 -0.1805
 8631SOL    HW137352   4.042   3.595   2.220 -1.6751 -0.9020  1.2900
 8631SOL    HW237353   4.118   3.584   2.339  1.0808 -1.7455  0.6592
 8632SOL     OW37354   2.843   1.630   3.407  0.1294 -0.6960  0.2536
 8632SOL    HW137355   2.796   1.708   3.435  0.1286 -0.4965 -0.2874
 8632SOL    HW237356   2.824   1.628   3.313 -1.0808 -1.9909  0.5300
 8633SOL     OW37357   3.149   1.677   2.145 -0.1917 -0.5804  0.2280
 8633SOL    HW137358   3.158   1.729   2.225 -1.9792 -0.8627  0.6238
 8633SOL    HW237359   3.214   1.610   2.164  0.6177  0.8775  2.6395
 8634SOL     OW37360   2.203   3.179   2.962  0.0760  0.1670  0.1409
 8634SOL    HW137361   2.203   3.112   3.031  3.0448 -0.7308 -0.7272
 8634SOL    HW237362   2.123   3.226   2.988 -1.3539 -1.4687 -1.3429
 8635SOL     OW37363   2.716   2.539  15.839 -0.8262  0.3586 -0.1233
 8635SOL    HW137364   2.638   2.539  15.783 -1.4183 -0.5186  0.6912
 8635SOL    HW237365   2.779   2.565  15.773  0.1397  1.8315  1.3756
 8636SOL     OW37366   2.473   4.692  13.569 -0.7155  0.1056 -0.1835
 8636SOL    HW137367   2.485   4.691  13.664 -3.1507  0.1138  0.1276
 8636SOL    HW237368   2.505   4.607  13.539 -1.7720 -0.2247 -0.3964
 8637SOL     OW37369   4.360   1.158   5.103  0.0194  0.3875  0.1306
 8637SOL    HW137370   4.328   1.145   5.014  0.6557 -2.5613  0.3497
 8637SOL    HW237371   4.287   1.214   5.129  0.4152  0.2845  1.4747
 8638SOL     OW37372   3.791   2.926   6.159  0.1539  0.1726 -0.3648
 8638SOL    HW137373   3.852   2.996   6.185  1.2757 -0.5870 -0.9325
 8638SOL    HW237374   3.853   2.854   6.156 -0.8749 -0.6945 -0.4789
 8639SOL     OW37375   1.537   0.021  15.559  0.3885  0.4422 -0.0854
 8639SOL    HW137376   1.565   4.704  15.476  0.0041  1.6649 -0.7689
 8639SOL    HW237377   1.456   0.068  15.539  0.1917  0.0242 -0.2735
 8640SOL     OW37378   3.574   1.624   2.187  0.6833 -0.1784 -0.2833
 8640SOL    HW137379   3.585   1.656   2.277  1.0196  1.6010 -0.9530
 8640SOL    HW237380   3.661   1.592   2.163  0.2781  0.0423 -1.9999
 8641SOL     OW37381   2.670   3.430  12.171  0.2934  0.2124  0.0593
 8641SOL    HW137382   2.666   3.416  12.266 -0.2655  2.5038  0.3824
 8641SOL    HW237383   2.671   3.341  12.136  2.4252  0.2154  0.1371
 8642SOL     OW37384   2.312   0.394  13.863 -0.7545 -0.5873  0.1546
 8642SOL    HW137385   2.284   0.311  13.901 -2.1100 -0.6109 -0.9331
 8642SOL    HW237386   2.298   0.456  13.935 -0.4028  0.2370 -0.4906
 8643SOL     OW37387   4.652   4.304   4.214 -0.8836 -0.0734 -0.0970
 8643SOL    HW137388   4.708   4.301   4.136  1.1115 -0.1554  1.3586
 8643SOL    HW237389   4.570   4.323   4.168 -0.1812 -0.6989 -1.6184
 8644SOL     OW37390   1.592   1.779   4.393 -0.7951 -0.0030 -0.0788
 8644SOL    HW137391   1.589   1.708   4.329 -0.1004 -1.5431  1.5782
 8644SOL    HW237392   1.530   1.751   4.461 -0.1478 -1.1762  0.0200
 8645SOL     OW37393   0.093   3.471   3.857  0.4186  0.3313 -0.1520
 8645SOL    HW137394   0.102   3.467   3.952  0.3962  0.0702 -0.1619
 8645SOL    HW237395   0.051   3.555   3.839  2.4331  1.5980  0.9913
 8646SOL     OW37396   2.352   2.804   4.058 -0.9076 -0.1990 -0.0826
 8646SOL    HW137397   2.381   2.875   4.002 -0.3903  0.7667  1.4274
 8646SOL    HW237398   2.261   2.802   4.027 -0.9959  0.0862  0.1536
 8647SOL     OW37399   1.190   4.232   5.100 -0.5958  0.1456 -0.7058
 8647SOL    HW137400   1.118   4.286   5.131 -0.4418  1.0762 -1.9414
 8647SOL    HW237401   1.207   4.170   5.170 -1.9325 -0.4392 -0.9133
 8648SOL     OW37402   0.280   0.907   3.433  0.3681  0.3474  0.4049
 8648SOL    HW137403   0.300   0.818   3.463 -0.4458  0.0479  0.0868
 8648SOL    HW237404   0.189   0.893   3.460  0.3425 -0.3122  0.0023
 8649SOL     OW37405   2.536   1.346  14.595 -0.4051  0.1391 -0.1563
 8649SOL    HW137406   2.588   1.375  14.670 -2.2958  1.8865  0.4746
 8649SOL    HW237407   2.580   1.262  14.602  0.4282  0.7939  2.5373
 8650SOL     OW37408   2.078   4.105   9.797 -0.0598  0.3283  0.2923
 8650SOL    HW137409   2.094   4.157   9.875  0.7457  1.0285 -0.3402
 8650SOL    HW237410   2.168   4.081   9.776 -0.2084  0.3192 -0.3588
 8651SOL     OW37411   1.448   1.876   2.725 -0.1525  0.4861  0.0954
 8651SOL    HW137412   1.437   1.790   2.684 -1.0556 -0.4409  2.2324
 8651SOL    HW237413   1.357   1.881   2.755 -1.3035 -0.3692 -3.3135
 8652SOL     OW37414   2.507   0.608   6.430 -0.3736  0.3272  0.4727
 8652SOL    HW137415   2.505   0.700   6.404 -0.4617  0.0529 -0.4797
 8652SOL    HW237416   2.414   0.592   6.447 -0.0055 -2.9555 -0.5166
 8653SOL     OW37417   0.346   2.481   7.776 -0.2334 -0.2770 -0.2713
 8653SOL    HW137418   0.367   2.573   7.792 -2.5185  0.0569  0.9435
 8653SOL    HW237419   0.363   2.469   7.682 -1.3077 -0.8450 -0.3981
 8654SOL     OW37420   1.761   2.930   4.181 -0.4745 -0.0097  0.3312
 8654SOL    HW137421   1.730   2.846   4.214 -0.8534  0.3683  0.9194
 8654SOL    HW237422   1.697   2.983   4.228  0.6228  0.6475  1.0861
 8655SOL     OW37423   1.497   1.275   6.076 -0.5159  0.5729 -0.6139
 8655SOL    HW137424   1.514   1.187   6.042 -2.6800 -0.4164  0.8836
 8655SOL    HW237425   1.534   1.283   6.164  1.3776  0.9789 -1.4497
 8656SOL     OW37426   1.141   3.409  12.008 -0.5497 -0.0892 -0.3972
 8656SOL    HW137427   1.048   3.394  12.025 -0.7119  0.7821 -0.5136
 8656SOL    HW237428   1.137   3.437  11.917  0.5721  1.3951 -0.0064
 8657SOL     OW37429   4.239   4.172   3.959 -0.4934  0.0242 -0.1778
 8657SOL    HW137430   4.196   4.251   3.992  0.1172  1.4861 -2.8691
 8657SOL    HW237431   4.232   4.190   3.865 -1.3020 -0.3147 -0.1788
 8658SOL     OW37432   0.693   4.546  11.819 -0.8787 -0.1148  0.9088
 8658SOL    HW137433   0.783   4.551  11.787 -0.9483  0.5644  0.8319
 8658SOL    HW237434   0.650   4.622  11.781 -0.4298 -0.3670 -0.1158
 8659SOL     OW37435   2.015   1.189  11.849 -0.3222  0.4186  0.8218
 8659SOL    HW137436   2.026   1.276  11.810  0.8177 -0.3056 -0.4428
 8659SOL    HW237437   2.083   1.146  11.798 -0.0559 -0.8095  2.2050
 8660SOL     OW37438   0.000   4.497   1.506  0.6125  0.4012  0.2673
 8660SOL    HW137439   4.697   4.409   1.533  1.0311  0.1156 -0.3117
 8660SOL    HW237440   0.087   4.468   1.478 -0.2663 -0.4881 -1.4793
 8661SOL     OW37441   0.810   1.915   3.984  0.4342 -0.1442  0.0278
 8661SOL    HW137442   0.831   1.857   3.910  2.9906  0.9646 -0.0952
 8661SOL    HW237443   0.827   2.004   3.953 -2.0863  0.1554 -0.5130
 8662SOL     OW37444   0.274   1.224  11.035 -0.3133  0.1198 -0.5184
 8662SOL    HW137445   0.258   1.133  11.059  1.0862 -0.3573 -1.3861
 8662SOL    HW237446   0.255   1.267  11.118  2.2810 -1.0865  0.7081
 8663SOL     OW37447   3.529   2.047   7.484 -0.2726 -0.0032  0.5139
 8663SOL    HW137448   3.595   1.993   7.526 -0.5011  1.9935  3.4108
 8663SOL    HW237449   3.494   2.085   7.564 -1.3981  0.7929 -0.3616
 8664SOL     OW37450   3.729   3.568   0.555 -0.6238 -0.2570  0.4609
 8664SOL    HW137451   3.750   3.477   0.577 -0.5856 -0.0771  1.1871
 8664SOL    HW237452   3.723   3.598   0.646  0.0149 -3.9939  1.7697
 8665SOL     OW37453   2.857   1.374   5.715  0.2952 -0.3109  0.3429
 8665SOL    HW137454   2.935   1.430   5.710  0.9828 -1.3971 -0.8846
 8665SOL    HW237455   2.898   1.288   5.716 -1.5963 -1.2035  0.4160
 8666SOL     OW37456   3.210   4.180   6.711 -1.0461 -0.1068 -0.1350
 8666SOL    HW137457   3.155   4.187   6.633 -1.4137 -3.0689 -0.1773
 8666SOL    HW237458   3.170   4.244   6.770  0.5853 -0.0547  0.9026
 8667SOL     OW37459   2.818   2.105   1.542 -0.3627 -0.5057  0.1181
 8667SOL    HW137460   2.741   2.088   1.597 -0.8265  0.4631 -0.2228
 8667SOL    HW237461   2.883   2.112   1.612  1.5712 -3.3679 -1.3946
 8668SOL     OW37462   3.236   1.904  16.926 -0.2022 -0.1121  0.4941
 8668SOL    HW137463   3.165   1.916  16.862  0.1575 -3.2318 -0.4682
 8668SOL    HW237464   3.275   1.820  16.902 -0.2921 -0.6771  2.3837
 8669SOL     OW37465   0.950   0.789   4.836 -0.1956 -0.4052 -0.0079
 8669SOL    HW137466   0.974   0.860   4.895  0.6624 -1.6320  1.1072
 8669SOL    HW237467   0.855   0.795   4.822 -0.3915 -1.1769  0.9963
 8670SOL     OW37468   2.348   0.305   6.502  0.3839  0.2879 -0.1185
 8670SOL    HW137469   2.296   0.369   6.455 -0.9854  0.3837  1.5452
 8670SOL    HW237470   2.281   0.244   6.532  1.8018 -2.2376 -2.0398
 8671SOL     OW37471   0.770   4.678   6.840  0.2251 -0.4006  0.2274
 8671SOL    HW137472   0.828   4.697   6.914 -0.4402 -3.3677  1.5036
 8671SOL    HW237473   0.719   0.038   6.826  0.1730 -0.7003 -1.2654
 8672SOL     OW37474   1.611   3.750   1.841 -0.0179  0.3075 -0.4869
 8672SOL    HW137475   1.648   3.662   1.846 -1.1964 -0.0899  1.2748
 8672SOL    HW237476   1.561   3.759   1.923  0.2701  0.2366 -0.3033
 8673SOL     OW37477   2.568   1.480   6.766  0.3259  0.2750  0.2574
 8673SOL    HW137478   2.572   1.575   6.780 -0.2954  0.4800 -0.9837
 8673SOL    HW237479   2.639   1.461   6.828  1.7147 -0.7734 -1.6249
 8674SOL     OW37480   2.510   0.890   7.516 -0.3507  0.1680 -0.5203
 8674SOL    HW137481   2.602   0.918   7.509 -0.5787  0.7076 -1.4226
 8674SOL    HW237482   2.476   0.939   7.440 -2.1029 -2.0597 -1.1700
 8675SOL     OW37483   0.009   4.399  16.469  0.3249 -0.2183 -0.2109
 8675SOL    HW137484   0.024   4.307  16.446  0.0020  0.4254 -3.0132
 8675SOL    HW237485   0.057   4.412  16.551 -1.1856 -0.7265  0.7682
 8676SOL     OW37486   0.808   4.275   3.120  0.0852  0.0003 -0.7824
 8676SOL    HW137487   0.755   4.231   3.186 -0.6723 -0.5796 -1.7744
 8676SOL    HW237488   0.895   4.282   3.160 -1.2229  1.8267  1.6974
 8677SOL     OW37489   1.924   4.598   7.696 -0.3514  0.1695  0.1921
 8677SOL    HW137490   1.965   4.514   7.673  0.4520  0.4755  0.5152
 8677SOL    HW237491   1.874   4.570   7.772 -1.1645  1.5381  0.1564
 8678SOL     OW37492   1.430   1.729   3.541 -0.8640 -0.0483 -0.4105
 8678SOL    HW137493   1.445   1.814   3.582  1.5435 -1.4505  1.6030
 8678SOL    HW237494   1.348   1.750   3.497 -0.7129  1.5866  0.0963
 8679SOL     OW37495   0.534   4.222  15.883 -0.5988 -0.1384  0.1229
 8679SOL    HW137496   0.588   4.253  15.955 -2.5146 -0.9240  1.8714
 8679SOL    HW237497   0.462   4.174  15.923 -0.9331  1.6033  1.6101
 8680SOL     OW37498   2.065   1.357   3.270  0.3374  0.1632 -0.2129
 8680SOL    HW137499   2.009   1.393   3.339 -0.5488 -0.3451 -0.6631
 8680SOL    HW237500   2.056   1.419   3.198 -2.8813 -1.4992 -1.2573
 8681SOL     OW37501   2.493   1.178   2.816  0.0587  0.4730  0.1576
 8681SOL    HW137502   2.529   1.089   2.817  1.0750  0.8862  0.7760
 8681SOL    HW237503   2.402   1.175   2.788 -0.6154 -0.8316  2.4100
 8682SOL     OW37504   1.000   2.055   0.420 -0.0792 -0.1800 -0.5866
 8682SOL    HW137505   1.026   2.146   0.403 -2.1141  0.4711 -0.2203
 8682SOL    HW237506   0.935   2.084   0.484  1.7229  1.3104  0.5735
 8683SOL     OW37507   0.902   3.808   0.588  0.3768 -0.3528  0.6204
 8683SOL    HW137508   0.977   3.749   0.581  0.1061 -0.3170 -2.5410
 8683SOL    HW237509   0.935   3.877   0.646  2.1312  0.4544 -1.3323
 8684SOL     OW37510   0.569   1.764   8.988 -0.2110 -0.0995  0.1782
 8684SOL    HW137511   0.492   1.807   8.951  0.2667  0.1301 -0.5404
 8684SOL    HW237512   0.553   1.789   9.079 -1.1337 -0.6679  0.1686
 8685SOL     OW37513   3.543   3.770   4.586  0.0605 -0.7432  0.6260
 8685SOL    HW137514   3.605   3.711   4.629  0.2117 -1.1806 -0.2103
 8685SOL    HW237515   3.594   3.815   4.519 -0.7575 -0.5424  0.1315
 8686SOL     OW37516   1.039   3.674  12.311  0.0664 -0.0636 -0.0392
 8686SOL    HW137517   1.101   3.603  12.299  0.1995 -0.0850  0.7879
 8686SOL    HW237518   0.954   3.632  12.328 -0.1278  0.9590  1.4746
 8687SOL     OW37519   0.542   0.388   3.267 -0.5220  0.1491 -0.4731
 8687SOL    HW137520   0.638   0.387   3.267 -0.5280 -0.8805 -1.3466
 8687SOL    HW237521   0.520   0.437   3.188  3.8976  0.4130 -1.5863
 8688SOL     OW37522   3.780   3.964   8.371 -0.5348  0.0731  0.2752
 8688SOL    HW137523   3.841   3.941   8.301  1.2503 -2.5536  2.6766
 8688SOL    HW237524   3.699   3.924   8.339 -0.6509  1.0154 -0.5865
 8689SOL     OW37525   2.457   1.489   5.226  0.2705 -0.6720 -0.4048
 8689SOL    HW137526   2.524   1.528   5.282  0.5075 -0.5933 -0.7409
 8689SOL    HW237527   2.506   1.508   5.146  1.5993 -1.1269  0.2988
 8690SOL     OW37528   3.647   1.306   1.088 -0.2918  0.0402  0.8068
 8690SOL    HW137529   3.580   1.286   1.023 -1.5996  1.5401  1.7131
 8690SOL    HW237530   3.676   1.216   1.104  2.5574  0.8560  0.3087
 8691SOL     OW37531   1.621   3.918   6.749 -0.1106 -0.2202 -0.1517
 8691SOL    HW137532   1.641   3.825   6.749 -0.0038 -0.1985  0.1417
 8691SOL    HW237533   1.563   3.932   6.674 -0.7159 -2.1459 -0.0380
 8692SOL     OW37534   0.688   4.417   6.432 -0.2601  0.0581  0.3640
 8692SOL    HW137535   0.761   4.448   6.378  1.6642 -2.8957  1.2590
 8692SOL    HW237536   0.724   4.414   6.521  1.3012 -2.5057 -0.3552
 8693SOL     OW37537   2.510   1.879   2.776  0.0712 -0.4943 -0.4767
 8693SOL    HW137538   2.422   1.908   2.800  0.0915 -1.7124  1.1125
 8693SOL    HW237539   2.493   1.831   2.695  0.5567 -0.1961 -0.7526
 8694SOL     OW37540   1.510   0.050   5.246 -0.0374 -0.4454  0.1533
 8694SOL    HW137541   1.460   0.086   5.319  1.6334  3.3444 -0.5833
 8694SOL    HW237542   1.539   4.685   5.279  1.6230  0.1453  0.2113
 8695SOL     OW37543   0.189   4.642   6.514  0.2827  0.7893  0.0393
 8695SOL    HW137544   0.178   4.612   6.605 -0.5525 -3.1063 -1.3696
 8695SOL    HW237545   0.279   4.612   6.503 -0.2419 -0.8835  0.3173
 8696SOL     OW37546   0.124   0.654   7.405 -0.4644  0.3130 -0.1497
 8696SOL    HW137547   0.189   0.665   7.336  0.3702  0.5763  0.6867
 8696SOL    HW237548   0.093   0.564   7.390 -2.0267  1.0002 -1.1211
 8697SOL     OW37549   3.856   1.976  10.984 -0.1063 -0.1129  0.1570
 8697SOL    HW137550   3.786   2.017  11.035 -0.0817  0.2285 -0.0789
 8697SOL    HW237551   3.895   2.057  10.951  1.6732 -0.6292  0.9499
 8698SOL     OW37552   2.355   1.546   7.177  0.2145 -0.2882 -0.1498
 8698SOL    HW137553   2.416   1.499   7.120 -0.7395 -0.4048 -1.0962
 8698SOL    HW237554   2.362   1.494   7.257  2.4406  2.3615  1.3555
 8699SOL     OW37555   1.603   0.121  15.262 -0.3240  0.6442 -0.0709
 8699SOL    HW137556   1.657   0.200  15.265 -1.2455  1.2596  0.2338
 8699SOL    HW237557   1.524   0.159  15.223 -0.7410 -1.4046 -1.2432
 8700SOL     OW37558   2.058   3.886   8.624 -0.0800  0.2434  0.0298
 8700SOL    HW137559   1.962   3.892   8.632 -0.1088  0.1248 -0.2528
 8700SOL    HW237560   2.061   3.871   8.530 -2.8118  0.3955 -0.0818
 8701SOL     OW37561   4.382   3.182  11.533 -0.8672  0.2952 -0.3678
 8701SOL    HW137562   4.340   3.100  11.504 -1.6319 -0.4896  2.9428
 8701SOL    HW237563   4.307   3.238  11.554 -1.2983 -0.1912 -0.5745
 8702SOL     OW37564   4.321   0.754   1.412 -0.3891  0.1281  0.3150
 8702SOL    HW137565   4.278   0.832   1.447  1.2182  1.0468  0.2341
 8702SOL    HW237566   4.294   0.694   1.481  0.6509  0.4980  1.0362
 8703SOL     OW37567   2.351   3.393   1.518 -0.4546 -0.0303 -0.2725
 8703SOL    HW137568   2.434   3.372   1.474 -0.1767  1.6004 -0.5133
 8703SOL    HW237569   2.293   3.324   1.485  0.0478  0.2018 -1.6816
 8704SOL     OW37570   4.617   2.595   5.154 -0.6464  0.3681  0.1307
 8704SOL    HW137571   4.538   2.546   5.177 -0.0100  0.2643  2.1301
 8704SOL    HW237572   4.676   2.524   5.128 -0.5278  1.2190 -1.9100
 8705SOL     OW37573   3.448   2.687   4.408 -0.0454 -0.8615  0.2870
 8705SOL    HW137574   3.429   2.772   4.370  0.3952 -0.3335  1.2498
 8705SOL    HW237575   3.367   2.668   4.455 -0.8544  1.1861 -0.2845
 8706SOL     OW37576   2.735   2.078   7.980 -0.2873  0.1246  0.3997
 8706SOL    HW137577   2.831   2.081   7.987 -0.1614  1.3498 -1.6866
 8706SOL    HW237578   2.699   2.104   8.065  0.3326 -1.0894  1.0295
 8707SOL     OW37579   0.110   4.558  10.235 -0.3440  0.1001  0.5650
 8707SOL    HW137580   0.027   4.569  10.281 -0.9670 -0.0690 -0.5429
 8707SOL    HW237581   0.111   4.462  10.225 -1.0318  0.4046 -2.2260
 8708SOL     OW37582   3.472   1.874   2.853  0.3308 -0.1083  0.0652
 8708SOL    HW137583   3.466   1.943   2.919 -0.4030  0.5049 -0.6347
 8708SOL    HW237584   3.393   1.825   2.875 -0.8791  1.5648 -0.5225
 8709SOL     OW37585   1.642   0.450   3.719 -0.7499  0.2114  0.0749
 8709SOL    HW137586   1.632   0.432   3.813  0.4055  5.3814  1.1860
 8709SOL    HW237587   1.611   0.364   3.690  0.1808 -1.0271  2.7976
 8710SOL     OW37588   2.985   0.843   7.285  0.2624 -0.3460 -0.0997
 8710SOL    HW137589   3.061   0.817   7.337  0.0051 -1.6890 -0.3777
 8710SOL    HW237590   2.980   0.933   7.317 -1.0105  0.1989 -1.8001
 8711SOL     OW37591   3.892   2.940   1.324  0.1779 -0.4282  0.0480
 8711SOL    HW137592   3.875   2.853   1.286  0.7921 -1.2075  1.5322
 8711SOL    HW237593   3.922   2.907   1.409 -0.8310 -0.7572  0.2784
 8712SOL     OW37594   0.232   0.620   3.181 -0.6735  0.2900  0.0746
 8712SOL    HW137595   0.267   0.608   3.270  2.6751 -0.5628 -1.3364
 8712SOL    HW237596   0.300   0.579   3.127 -0.6581 -0.1813  0.4494
 8713SOL     OW37597   1.840   4.384   8.439  0.1471 -0.4341  0.2488
 8713SOL    HW137598   1.931   4.371   8.462  0.5011 -1.6175 -1.8371
 8713SOL    HW237599   1.801   4.299   8.459 -0.4069 -0.8729 -2.7563
 8714SOL     OW37600   0.729   4.160   4.148 -0.4154  0.3420  0.2505
 8714SOL    HW137601   0.770   4.154   4.061  1.7158  0.2194  1.2594
 8714SOL    HW237602   0.799   4.152   4.213 -0.3338  0.6792  0.2047
 8715SOL     OW37603   1.073   1.052   2.130  0.3309 -0.1604 -0.3273
 8715SOL    HW137604   0.995   1.086   2.173  0.9400  0.1384  0.5301
 8715SOL    HW237605   1.086   0.977   2.189  2.0470  0.4790  0.1036
 8716SOL     OW37606   2.985   0.867   4.587  0.0326  0.2364  0.4752
 8716SOL    HW137607   2.976   0.774   4.607 -1.0149  0.0494 -0.9316
 8716SOL    HW237608   2.904   0.878   4.538  0.6551 -1.2523 -0.8927
 8717SOL     OW37609   3.611   3.692  16.093 -0.1846 -0.0372  0.7652
 8717SOL    HW137610   3.702   3.718  16.106  0.0662 -0.7736  0.5265
 8717SOL    HW237611   3.580   3.710  16.182  1.7569  2.4518  0.9311
 8718SOL     OW37612   0.267   3.954  12.436  0.0018  0.3110  0.9476
 8718SOL    HW137613   0.320   4.004  12.375 -1.5694  1.0675  0.1949
 8718SOL    HW237614   0.177   3.964  12.406  0.5520 -3.6231 -2.0477
 8719SOL     OW37615   3.566   3.048  11.978  0.3941 -0.0170 -0.0806
 8719SOL    HW137616   3.621   3.075  12.052  0.0144  0.2658  0.1011
 8719SOL    HW237617   3.626   3.052  11.904 -2.2545 -1.8957 -2.3096
 8720SOL     OW37618   4.274   0.736  13.110 -0.7575 -0.2624  0.2724
 8720SOL    HW137619   4.181   0.755  13.122 -0.5828  0.9845 -0.3391
 8720SOL    HW237620   4.263   0.679  13.034  0.5885  0.2654 -0.3177
 8721SOL     OW37621   2.516   2.510  16.276  0.3473 -0.2375 -0.3265
 8721SOL    HW137622   2.466   2.456  16.216 -1.0652  3.7803 -2.7599
 8721SOL    HW237623   2.607   2.481  16.269  0.8201  0.7462  1.6071
 8722SOL     OW37624   3.706   2.387  17.415 -0.5972 -0.0911  0.0783
 8722SOL    HW137625   3.698   2.427  17.329  0.0456  0.3415  0.2202
 8722SOL    HW237626   3.623   2.416  17.454 -0.6029  1.5709 -1.1954
 8723SOL     OW37627   0.044   0.567   5.240  0.1070 -0.3407 -0.5673
 8723SOL    HW137628   0.117   0.507   5.254 -0.5350 -0.6479  1.4022
 8723SOL    HW237629   0.021   0.575   5.332  2.5149  1.5759 -0.1535
 8724SOL     OW37630   4.202   2.567   6.470  0.8674  0.4948 -0.6048
 8724SOL    HW137631   4.221   2.630   6.400 -0.8506 -0.2372 -1.7080
 8724SOL    HW237632   4.150   2.503   6.422 -0.3771  1.5454 -0.6491
 8725SOL     OW37633   0.984   2.427   7.505 -0.1731  0.1009 -0.0450
 8725SOL    HW137634   1.077   2.446   7.490 -0.1550 -1.8089 -2.4031
 8725SOL    HW237635   0.978   2.342   7.460 -0.9176  0.8057 -1.2611
 8726SOL     OW37636   0.481   4.178   8.476  0.0139  0.1324  0.3841
 8726SOL    HW137637   0.518   4.265   8.460  0.9101 -0.5229 -1.1171
 8726SOL    HW237638   0.555   4.122   8.451 -0.6862 -0.1414 -1.0349
 8727SOL     OW37639   0.776   1.062   6.968 -0.1967 -0.1912  0.0183
 8727SOL    HW137640   0.759   1.065   7.062 -0.3593  0.2866 -0.0250
 8727SOL    HW237641   0.863   1.100   6.959 -0.7422  0.8914 -0.7660
 8728SOL     OW37642   3.967   1.825   4.438  0.1449 -0.0565 -0.1460
 8728SOL    HW137643   4.004   1.738   4.447  0.6459  0.0945 -0.7137
 8728SOL    HW237644   3.970   1.855   4.529  1.3702  0.7403 -0.4488
 8729SOL     OW37645   2.031   4.701   8.955 -0.2124  0.2141  0.7661
 8729SOL    HW137646   2.089   4.671   8.885 -0.3494 -1.9657  1.5629
 8729SOL    HW237647   1.945   4.673   8.925  0.6078 -0.7671 -0.6507
 8730SOL     OW37648   2.086   1.448  11.774 -0.0430 -0.3307  0.5245
 8730SOL    HW137649   2.098   1.433  11.680  0.8157 -0.0317  0.5840
 8730SOL    HW237650   2.027   1.523  11.782  1.0321  0.6684 -0.8506
 8731SOL     OW37651   2.065   1.447   2.463 -0.4899 -0.5061 -0.1173
 8731SOL    HW137652   2.058   1.468   2.370 -2.6298 -0.3439  0.0755
 8731SOL    HW237653   2.093   1.356   2.464 -0.4167 -0.4920 -1.1457
 8732SOL     OW37654   1.687   1.494  12.461 -0.3247  0.4533  0.3122
 8732SOL    HW137655   1.628   1.431  12.421  0.0792  0.0478  0.3550
 8732SOL    HW237656   1.762   1.477  12.404 -0.4630 -0.4765  0.4121
 8733SOL     OW37657   0.686   2.333   0.626 -0.2412 -1.0001 -0.3292
 8733SOL    HW137658   0.606   2.280   0.630 -1.4135  0.8429  0.5704
 8733SOL    HW237659   0.661   2.387   0.550  1.1945  1.5037  0.9846
 8734SOL     OW37660   1.183   3.493   2.069 -0.2790  0.1777  0.1942
 8734SOL    HW137661   1.153   3.407   2.038 -0.9504  0.4428  0.1055
 8734SOL    HW237662   1.126   3.554   2.021 -2.4065 -0.5547  1.8118
 8735SOL     OW37663   3.680   3.268   7.351  0.4577  0.3431 -0.2172
 8735SOL    HW137664   3.652   3.242   7.439  1.1061 -0.6564 -0.3023
 8735SOL    HW237665   3.768   3.303   7.365  0.8600 -1.7070  2.2739
 8736SOL     OW37666   4.237   0.245   1.795 -0.8228  0.0403  0.0601
 8736SOL    HW137667   4.224   0.262   1.702 -3.3182 -2.6595 -0.0898
 8736SOL    HW237668   4.326   0.276   1.810 -1.2705  0.1407  2.6824
 8737SOL     OW37669   1.933   4.273   9.255 -0.4849 -0.0417  0.3034
 8737SOL    HW137670   1.856   4.236   9.298 -0.8141 -0.7324 -0.8758
 8737SOL    HW237671   1.988   4.301   9.328 -0.1114 -0.7075  0.2782
 8738SOL     OW37672   1.051   1.624   4.634  0.3185  0.2683  0.5137
 8738SOL    HW137673   1.019   1.568   4.705  0.4660 -0.4182  0.0449
 8738SOL    HW237674   1.086   1.556   4.577  1.1761  1.5528 -0.4822
 8739SOL     OW37675   1.879   0.443   8.923  0.3180  0.6122  0.0797
 8739SOL    HW137676   1.927   0.398   8.992 -0.8221 -0.3794  0.2354
 8739SOL    HW237677   1.874   0.533   8.954  3.4940  0.8312 -0.0918
 8740SOL     OW37678   4.013   0.734   3.767 -0.2801  0.1388 -0.6220
 8740SOL    HW137679   4.104   0.724   3.797 -1.3505 -1.3130  2.1413
 8740SOL    HW237680   4.019   0.695   3.680 -0.0751  1.3184 -1.1396
 8741SOL     OW37681   3.804   2.865   8.479  0.1258  0.1575  0.9657
 8741SOL    HW137682   3.727   2.846   8.424  0.1611  0.5526  0.7786
 8741SOL    HW237683   3.758   2.861   8.563 -1.7262  0.4856 -0.0134
 8742SOL     OW37684   3.063   2.136  16.626  0.1278 -0.3308 -0.0225
 8742SOL    HW137685   3.126   2.168  16.690  0.7121  1.4748 -1.5065
 8742SOL    HW237686   2.982   2.144  16.676 -0.4867  1.5707 -1.3399
 8743SOL     OW37687   2.260   1.115   5.129  0.2064  0.3673  0.2456
 8743SOL    HW137688   2.175   1.148   5.160 -0.3094 -1.8328  1.1817
 8743SOL    HW237689   2.267   1.150   5.040  2.4508 -0.5999  0.0495
 8744SOL     OW37690   1.006   1.769  10.323  0.0836 -0.2668  0.4423
 8744SOL    HW137691   1.005   1.837  10.256 -1.6936 -1.3885 -0.6511
 8744SOL    HW237692   1.053   1.705  10.271 -0.6842  1.8064 -2.7682
 8745SOL     OW37693   4.372   4.379   4.605  0.4214  0.0941 -0.0533
 8745SOL    HW137694   4.316   4.302   4.611  0.0243  0.4174  0.3937
 8745SOL    HW237695   4.372   4.379   4.509 -2.0167  1.1982 -0.0506
 8746SOL     OW37696   3.012   1.319  15.508 -0.3463 -0.2992 -0.2372
 8746SOL    HW137697   3.052   1.304  15.422 -1.5644  0.7400 -0.9826
 8746SOL    HW237698   3.082   1.291  15.566 -1.6314 -2.8922  0.0480
 8747SOL     OW37699   1.671   2.670   5.916  0.2598 -0.1793  0.1345
 8747SOL    HW137700   1.576   2.658   5.909  0.2683 -1.3356  2.0504
 8747SOL    HW237701   1.697   2.579   5.909 -0.4381 -0.3675 -0.0082
 8748SOL     OW37702   0.592   3.548   8.751  0.1319 -0.9945 -0.0345
 8748SOL    HW137703   0.584   3.619   8.814  1.8550  0.1589 -1.1022
 8748SOL    HW237704   0.663   3.501   8.796 -0.4723 -2.2544 -0.3794
 8749SOL     OW37705   0.352   2.713  11.299  0.2244 -0.0659  0.0386
 8749SOL    HW137706   0.346   2.792  11.246  2.2734  0.9445  1.3441
 8749SOL    HW237707   0.428   2.675  11.255 -0.0441  0.3890 -0.8051
 8750SOL     OW37708   3.859   4.575   9.275 -0.4660 -0.5814  0.0379
 8750SOL    HW137709   3.880   4.572   9.181 -3.1909  0.3698 -0.6256
 8750SOL    HW237710   3.910   4.509   9.320  1.3628  1.2339  0.6220
 8751SOL     OW37711   2.489   3.024   5.496 -0.2817  0.3185  0.3068
 8751SOL    HW137712   2.556   3.022   5.429 -0.7388  0.8527 -0.1630
 8751SOL    HW237713   2.510   3.112   5.528 -0.7342  0.7575 -0.5993
 8752SOL     OW37714   0.628   0.554   2.328  0.3155  0.4082  0.2110
 8752SOL    HW137715   0.580   0.510   2.398 -1.0581 -2.4422 -2.5219
 8752SOL    HW237716   0.702   0.499   2.304 -1.7741 -2.7099  0.8657
 8753SOL     OW37717   4.463   0.946  10.673 -0.4028  0.0548 -0.8069
 8753SOL    HW137718   4.542   0.893  10.660  0.0350  0.2377  1.1589
 8753SOL    HW237719   4.412   0.924  10.595 -1.9624  2.1136 -0.3815
 8754SOL     OW37720   2.410   2.188   2.533 -0.5280  0.5089 -0.0465
 8754SOL    HW137721   2.334   2.176   2.590 -0.6042  0.7589 -0.0945
 8754SOL    HW237722   2.476   2.185   2.603  0.3597  1.7102 -0.8255
 8755SOL     OW37723   4.116   1.644  11.910 -0.0134 -0.0671 -0.0733
 8755SOL    HW137724   4.150   1.623  11.997 -0.7969  0.1234  0.2766
 8755SOL    HW237725   4.134   1.568  11.855  0.2866 -0.7545  0.9634
 8756SOL     OW37726   3.031   4.525   0.001 -0.1534 -0.7064  0.0898
 8756SOL    HW137727   3.045   4.430   0.001  0.0251 -0.6784  0.5262
 8756SOL    HW237728   3.014   4.539  17.592  1.8512  1.9495  0.1231
 8757SOL     OW37729   1.030   2.882   8.007 -0.1110  0.2059 -0.1086
 8757SOL    HW137730   0.983   2.876   7.924 -0.2932 -0.7005  0.0697
 8757SOL    HW237731   0.997   2.810   8.060 -1.0582 -0.8779 -2.1753
 8758SOL     OW37732   0.895   0.884   2.311 -0.9719  0.1038 -0.4027
 8758SOL    HW137733   0.857   0.968   2.285  0.8674  0.7314 -1.0899
 8758SOL    HW237734   0.876   0.825   2.238 -0.8066 -1.7439  1.0674
 8759SOL     OW37735   3.378   2.204   4.448  0.6787  0.0351 -0.4281
 8759SOL    HW137736   3.366   2.120   4.493 -0.9871  0.7638  0.4893
 8759SOL    HW237737   3.312   2.194   4.379 -0.7690 -0.9254  1.0859
 8760SOL     OW37738   2.368   0.615   7.684  0.2052  0.1581  0.1048
 8760SOL    HW137739   2.387   0.706   7.709  1.8655 -0.5732  1.5716
 8760SOL    HW237740   2.375   0.556   7.759  0.5672 -0.7688 -0.6609
 8761SOL     OW37741   1.362   0.545   0.705  0.0181  0.0373 -0.2055
 8761SOL    HW137742   1.319   0.513   0.784 -3.0289  1.2379 -1.3963
 8761SOL    HW237743   1.438   0.487   0.701  0.4440  0.7062 -1.8859
 8762SOL     OW37744   4.154   1.188   6.420 -0.1985 -0.2344 -0.0417
 8762SOL    HW137745   4.083   1.146   6.371 -0.9971  2.4710 -1.1955
 8762SOL    HW237746   4.162   1.276   6.385  1.6393 -0.4625 -0.1947
 8763SOL     OW37747   2.654   1.184   5.933  0.5925  0.3069 -0.6670
 8763SOL    HW137748   2.565   1.148   5.938  1.1736 -1.1140 -0.2704
 8763SOL    HW237749   2.691   1.138   5.858  0.1479 -0.5410 -0.3716
 8764SOL     OW37750   3.011   1.879  16.150 -0.5358  0.0735  0.2765
 8764SOL    HW137751   3.017   1.786  16.128 -1.2900  0.0401  0.2074
 8764SOL    HW237752   3.007   1.919  16.064 -0.4568  0.1260  0.2974
 8765SOL     OW37753   1.817   0.278   3.084  0.0443 -0.6169  0.1050
 8765SOL    HW137754   1.826   0.203   3.025 -1.3159 -0.9476  0.3250
 8765SOL    HW237755   1.736   0.316   3.050  2.1391  2.7459 -1.1826
 8766SOL     OW37756   1.725   3.801   6.449  0.1784  0.1190 -0.0805
 8766SOL    HW137757   1.729   3.788   6.354  0.8808  0.7823 -0.1440
 8766SOL    HW237758   1.641   3.847   6.454 -1.0208 -2.2385  1.4773
 8767SOL     OW37759   0.126   0.029   4.279  0.5077  0.6168  0.0434
 8767SOL    HW137760   0.054   4.689   4.294 -0.4252  1.6998 -0.0848
 8767SOL    HW237761   0.180   4.695   4.221 -2.1380 -0.4194 -1.4395
 8768SOL     OW37762   1.417   3.608  14.601  0.4194 -0.1672 -0.4392
 8768SOL    HW137763   1.434   3.591  14.694  2.4523  3.2997 -0.1622
 8768SOL    HW237764   1.497   3.659  14.591  0.1466  0.0744 -1.4315
 8769SOL     OW37765   0.808   4.579   7.325 -0.1401  0.3293 -0.0806
 8769SOL    HW137766   0.806   4.499   7.273  0.4678 -0.6137  1.3677
 8769SOL    HW237767   0.743   4.566   7.394  1.5512  1.2408  1.6954
 8770SOL     OW37768   4.678   1.605  12.929  0.1124  0.4222  0.4884
 8770SOL    HW137769   4.682   1.698  12.907  1.6951 -0.4420 -2.9952
 8770SOL    HW237770   4.612   1.573  12.867 -0.9964 -3.8123  3.8364
 8771SOL     OW37771   0.929   2.135   6.791 -0.0711  0.4524 -0.1648
 8771SOL    HW137772   0.905   2.043   6.777  0.2004  0.1651  1.2799
 8771SOL    HW237773   0.988   2.153   6.717 -1.1731 -0.1100 -1.1835
 8772SOL     OW37774   0.707   1.695   5.320 -0.1052  0.3124  0.5802
 8772SOL    HW137775   0.735   1.639   5.248 -2.1392  0.6270 -0.4537
 8772SOL    HW237776   0.614   1.686   5.299  0.1244  0.7197 -0.6190
 8773SOL     OW37777   4.416   2.631   5.650 -0.3820  0.0975  0.3548
 8773SOL    HW137778   4.415   2.726   5.650  2.3205  0.1405  0.5925
 8773SOL    HW237779   4.505   2.603   5.627 -1.5273 -1.1135 -2.5178
 8774SOL     OW37780   2.676   4.232   4.152  0.5514  0.1439 -0.4067
 8774SOL    HW137781   2.674   4.311   4.098  0.9892  0.7695  0.5035
 8774SOL    HW237782   2.725   4.264   4.228 -1.7152  0.2057  1.0510
 8775SOL     OW37783   3.277   0.149   2.179 -0.5355 -0.1861 -0.5191
 8775SOL    HW137784   3.332   0.073   2.161  2.3686  1.6411  0.5872
 8775SOL    HW237785   3.196   0.104   2.204 -1.3250  0.9343 -1.0284
 8776SOL     OW37786   1.205   3.946   4.720  0.1731 -0.0364  0.4088
 8776SOL    HW137787   1.295   3.935   4.691 -0.8644 -1.3791 -2.1961
 8776SOL    HW237788   1.173   3.865   4.760 -3.9198  1.4682  0.2096
 8777SOL     OW37789   2.251   2.647   6.922 -0.0205  0.4645  0.0149
 8777SOL    HW137790   2.322   2.637   6.858 -0.8359  0.1536 -0.8317
 8777SOL    HW237791   2.177   2.590   6.903  1.8734 -2.5323  1.5099
 8778SOL     OW37792   2.955   0.611   4.674 -0.0269  0.5296 -0.9519
 8778SOL    HW137793   3.005   0.531   4.655 -3.0027 -1.8200  1.0601
 8778SOL    HW237794   2.887   0.569   4.727  0.4806  2.5819  1.3287
 8779SOL     OW37795   3.047   1.146  11.744  0.0709 -0.0531  0.0232
 8779SOL    HW137796   3.113   1.214  11.727  0.7966 -0.7342  0.1012
 8779SOL    HW237797   3.024   1.165  11.835  0.7873 -0.0433  0.2074
 8780SOL     OW37798   3.107   1.284   4.885  0.6321 -0.2307  0.0623
 8780SOL    HW137799   3.065   1.220   4.827  2.1328  1.3568 -2.8049
 8780SOL    HW237800   3.070   1.273   4.972 -0.5325  2.1129 -0.1466
 8781SOL     OW37801   0.410   2.681  14.840 -0.6994  0.3936 -0.3401
 8781SOL    HW137802   0.446   2.739  14.908 -2.3070  0.1031  0.7585
 8781SOL    HW237803   0.351   2.736  14.790 -0.3507 -0.4772 -1.7083
 8782SOL     OW37804   2.332   1.647   1.110 -0.0957  0.6698  0.7037
 8782SOL    HW137805   2.244   1.645   1.073 -0.0691  3.0237  0.4742
 8782SOL    HW237806   2.369   1.578   1.055 -0.2831  0.5794  0.6899
 8783SOL     OW37807   3.360   3.855  17.162  0.1855  0.2878  0.2864
 8783SOL    HW137808   3.307   3.897  17.229 -0.4152  2.0878 -1.3393
 8783SOL    HW237809   3.295   3.868  17.093 -1.2492  1.1450  1.8151
 8784SOL     OW37810   1.218   2.778   7.714  0.0135  0.2379 -0.7969
 8784SOL    HW137811   1.134   2.733   7.709 -0.4180  0.7788  1.5122
 8784SOL    HW237812   1.271   2.705   7.748 -0.0527  0.5662  0.0126
 8785SOL     OW37813   3.087   0.644   6.884 -0.5341  0.0404  0.7241
 8785SOL    HW137814   3.063   0.716   6.942 -1.6719 -0.3455  0.7223
 8785SOL    HW237815   3.016   0.582   6.898 -2.6995  2.5013  0.5319
 8786SOL     OW37816   3.443   1.531  13.441 -0.6376  0.4005  1.0466
 8786SOL    HW137817   3.468   1.484  13.520  0.5572  0.5574  0.7575
 8786SOL    HW237818   3.364   1.487  13.410  0.4978 -1.5872  0.9935
 8787SOL     OW37819   3.183   2.637   1.856  0.1065  0.2780  0.2744
 8787SOL    HW137820   3.145   2.557   1.892  0.9168 -0.4582 -0.5069
 8787SOL    HW237821   3.111   2.696   1.877  1.4578  1.7635  0.7653
 8788SOL     OW37822   2.737   3.941   6.954  0.2705  0.1417 -0.0435
 8788SOL    HW137823   2.725   3.852   6.922  1.7606 -0.1262  0.1297
 8788SOL    HW237824   2.647   3.968   6.971  0.5594  0.3186  1.1885
 8789SOL     OW37825   2.992   2.902   4.452  0.2383 -0.0305  0.3358
 8789SOL    HW137826   2.913   2.874   4.498 -0.4243  0.5101 -0.4843
 8789SOL    HW237827   2.968   2.995   4.446 -0.0192 -0.1182 -0.0032
 8790SOL     OW37828   2.270   4.214   4.303  0.6289  0.5407 -0.4956
 8790SOL    HW137829   2.215   4.242   4.230  0.8402 -0.8872 -1.1878
 8790SOL    HW237830   2.317   4.296   4.320 -1.5380  1.3825  1.4951
 8791SOL     OW37831   3.929   2.937   3.779 -0.5272  0.1896 -0.1416
 8791SOL    HW137832   3.986   2.978   3.843 -0.8327  0.8343 -0.2881
 8791SOL    HW237833   3.937   2.842   3.790 -1.9931  0.6396  4.8865
 8792SOL     OW37834   2.162   3.224  15.236 -0.2699  0.0114  0.0396
 8792SOL    HW137835   2.194   3.164  15.304 -0.7419  0.4201  0.6219
 8792SOL    HW237836   2.104   3.164  15.190  1.5746 -0.4609 -1.6906
 8793SOL     OW37837   1.205   2.731  14.872  0.1246 -0.4117 -0.2974
 8793SOL    HW137838   1.280   2.777  14.833 -1.4846  0.6549 -2.1390
 8793SOL    HW237839   1.224   2.744  14.965 -1.2670  1.7100 -0.3134
 8794SOL     OW37840   0.062   3.898   7.556 -0.2138 -0.7339 -0.8167
 8794SOL    HW137841   0.017   3.939   7.631  1.7410 -3.4672  1.8617
 8794SOL    HW237842   0.140   3.954   7.550 -0.7804 -0.2561 -3.4284
 8795SOL     OW37843   4.437   2.220  13.427 -0.0082 -0.2762 -0.4738
 8795SOL    HW137844   4.429   2.314  13.444 -0.9178 -0.3638 -0.4170
 8795SOL    HW237845   4.356   2.197  13.382 -0.9128  2.5176 -0.3009
 8796SOL     OW37846   4.473   3.169  16.065  0.3074  0.5206  0.2265
 8796SOL    HW137847   4.391   3.144  16.107  0.6305  3.6721  2.7320
 8796SOL    HW237848   4.532   3.095  16.072 -0.3305  0.0807  0.9442
 8797SOL     OW37849   1.400   1.217   0.829  0.2243 -0.2201  0.0165
 8797SOL    HW137850   1.478   1.161   0.827 -0.4976 -1.1907 -0.9203
 8797SOL    HW237851   1.347   1.199   0.751 -1.7271  3.0975  0.6123
 8798SOL     OW37852   1.262   1.588   0.125  0.0871  0.3767  0.5414
 8798SOL    HW137853   1.309   1.574   0.207 -0.5710  0.1087  0.8725
 8798SOL    HW237854   1.303   1.669   0.093 -1.4741  0.6392 -0.8008
 8799SOL     OW37855   1.230   0.934   8.193  0.3002 -0.2872 -0.4716
 8799SOL    HW137856   1.154   0.920   8.136  0.9570 -0.5582 -1.2673
 8799SOL    HW237857   1.228   0.845   8.226 -0.6418 -0.1517 -0.1530
 8800SOL     OW37858   2.620   1.114   4.988  0.2698  0.8123 -0.3152
 8800SOL    HW137859   2.585   1.050   4.926  2.7575  0.3452 -1.2317
 8800SOL    HW237860   2.553   1.121   5.057  2.2114  0.3827  1.6208
 8801SOL     OW37861   1.878   0.833  17.338  0.5168  0.0025 -0.3895
 8801SOL    HW137862   1.887   0.739  17.347  0.2314  0.0228  0.1201
 8801SOL    HW237863   1.903   0.859  17.427  0.1846 -1.2329  0.0638
 8802SOL     OW37864   0.920   3.773   3.048  0.0733 -0.0840 -0.2471
 8802SOL    HW137865   0.879   3.796   2.965 -0.0371 -1.6632 -0.6206
 8802SOL    HW237866   0.859   3.802   3.116 -0.7846  1.0904 -1.5346
 8803SOL     OW37867   1.852   1.259   7.812 -0.4843  0.4594  0.2080
 8803SOL    HW137868   1.814   1.208   7.884  1.0628 -1.0405 -0.0306
 8803SOL    HW237869   1.943   1.247   7.841 -0.4258  0.1292 -0.1148
 8804SOL     OW37870   2.628   0.427   9.173  0.1756 -0.1442 -0.1231
 8804SOL    HW137871   2.606   0.355   9.115  1.4269  0.1481 -0.9646
 8804SOL    HW237872   2.676   0.488   9.118 -1.0634  1.3108  0.3877
 8805SOL     OW37873   4.524   1.915   8.631  0.2187  0.4397  0.2605
 8805SOL    HW137874   4.447   1.948   8.585 -0.5898  0.7443  1.8351
 8805SOL    HW237875   4.491   1.845   8.688  1.0976  1.3891  1.9539
 8806SOL     OW37876   1.797   3.929   1.960 -0.0434  0.4411 -0.3539
 8806SOL    HW137877   1.718   3.893   1.918  0.3594 -0.9271  0.0548
 8806SOL    HW237878   1.839   3.986   1.897  1.6481 -0.9523 -0.4904
 8807SOL     OW37879   4.658   0.446   3.204 -0.2331  0.4734 -0.3273
 8807SOL    HW137880   4.682   0.537   3.222  2.6396 -0.2614 -0.5412
 8807SOL    HW237881   0.019   0.409   3.170  0.0925  0.0649  0.9072
 8808SOL     OW37882   1.473   2.454   2.862 -0.5753  0.2482  0.5184
 8808SOL    HW137883   1.448   2.544   2.840  0.7426  0.5392  0.2197
 8808SOL    HW237884   1.554   2.488   2.901 -0.5223  0.2589  0.4025
 8809SOL     OW37885   3.387   0.990  16.709  0.1589  0.1336  0.1400
 8809SOL    HW137886   3.478   0.994  16.680 -0.0868  1.2565 -0.4712
 8809SOL    HW237887   3.348   0.969  16.624  2.7442 -1.1094 -0.7441
 8810SOL     OW37888   2.144   2.115  11.671  0.0295  0.0499  0.0427
 8810SOL    HW137889   2.145   2.209  11.688  3.3698  0.4467 -2.2844
 8810SOL    HW237890   2.177   2.112  11.581 -1.0638 -2.6961 -0.2847
 8811SOL     OW37891   3.703   2.133   8.725 -0.6500 -0.2035 -0.1744
 8811SOL    HW137892   3.721   2.155   8.816 -1.0301 -1.8783  0.3131
 8811SOL    HW237893   3.765   2.065   8.698  0.1009  0.8501 -1.0536
 8812SOL     OW37894   2.448   0.825   4.374  0.5194 -0.5146 -0.3157
 8812SOL    HW137895   2.359   0.842   4.343  0.5699  1.1293  0.4436
 8812SOL    HW237896   2.419   0.789   4.458  2.1860  0.3146  0.6056
 8813SOL     OW37897   0.255   3.713   2.532  0.2048  0.2330 -0.3060
 8813SOL    HW137898   0.245   3.620   2.551  0.7251  0.4891  1.2059
 8813SOL    HW237899   0.241   3.721   2.437  2.5945 -2.8420 -0.9262
 8814SOL     OW37900   2.753   4.099   7.608 -0.0069 -0.0105 -0.2270
 8814SOL    HW137901   2.669   4.122   7.568 -0.6731 -1.0775  0.5730
 8814SOL    HW237902   2.724   4.050   7.685  0.2401  1.2569  0.6652
 8815SOL     OW37903   0.222   0.474   3.957 -0.4874 -0.4241 -0.2052
 8815SOL    HW137904   0.308   0.507   3.931 -0.8393  0.3658 -0.3706
 8815SOL    HW237905   0.244   0.430   4.039 -0.9572  1.6575  1.0438
 8816SOL     OW37906   3.305   3.218   0.923  0.1892 -0.0843 -0.3000
 8816SOL    HW137907   3.324   3.132   0.959 -0.0320  0.5524  1.3757
 8816SOL    HW237908   3.382   3.274   0.928  0.2985 -0.2468 -0.1694
 8817SOL     OW37909   4.448   2.216   4.538 -0.8242  0.2025  0.0240
 8817SOL    HW137910   4.462   2.136   4.487 -2.2161 -0.2728  0.3834
 8817SOL    HW237911   4.390   2.260   4.476  1.6559  3.8519  0.2860
 8818SOL     OW37912   3.123   0.441   4.582 -0.0667  0.7171 -0.5109
 8818SOL    HW137913   3.180   0.370   4.551 -1.7513 -1.2093  0.8068
 8818SOL    HW237914   3.166   0.512   4.535  0.3451  0.1198 -1.0306
 8819SOL     OW37915   1.990   2.583   3.284  0.1994  0.1127 -0.5449
 8819SOL    HW137916   1.992   2.624   3.197 -3.1573  1.4655  0.0141
 8819SOL    HW237917   2.083   2.590   3.307  0.5430 -0.6786 -1.6745
 8820SOL     OW37918   2.684   1.302   6.568  0.2733 -0.5046  0.0596
 8820SOL    HW137919   2.671   1.387   6.610 -0.6377 -1.1164  1.0245
 8820SOL    HW237920   2.608   1.301   6.510 -0.3360  0.0273  0.8552
 8821SOL     OW37921   4.647   2.138   3.848 -0.1027 -0.1880 -0.5878
 8821SOL    HW137922   4.611   2.163   3.933 -0.5800 -0.3361 -0.7485
 8821SOL    HW237923   4.566   2.152   3.799 -1.6510  0.1547  2.1314
 8822SOL     OW37924   4.141   1.796   9.691 -0.0850  0.2690  0.4318
 8822SOL    HW137925   4.131   1.858   9.763 -0.0033 -0.7885  1.3569
 8822SOL    HW237926   4.047   1.782   9.680 -0.4685  3.0299  0.1978
 8823SOL     OW37927   4.330   4.367   2.892  0.4760 -0.0511 -0.1675
 8823SOL    HW137928   4.341   4.405   2.805 -0.2274 -2.7356 -1.4123
 8823SOL    HW237929   4.302   4.443   2.943  0.0223 -0.7766  0.6699
 8824SOL     OW37930   1.995   3.932   0.330 -1.1908  0.1347 -0.2284
 8824SOL    HW137931   1.982   3.899   0.241  0.4574  0.0908 -0.4531
 8824SOL    HW237932   2.084   3.900   0.347 -0.6450  1.7343 -0.0466
 8825SOL     OW37933   4.670   1.259  13.284  0.1136  0.1434  0.6764
 8825SOL    HW137934   0.006   1.276  13.209 -0.9644  0.7032 -0.0192
 8825SOL    HW237935   4.664   1.347  13.322 -2.8265 -0.9528  2.7672
 8826SOL     OW37936   0.670   3.155   1.507  0.2254  0.9223 -0.4608
 8826SOL    HW137937   0.689   3.235   1.556  1.1124  0.5778 -0.2492
 8826SOL    HW237938   0.645   3.194   1.423  0.8016  1.7987 -0.2300
 8827SOL     OW37939   1.789   3.520   4.577  0.2137  0.1507 -0.2989
 8827SOL    HW137940   1.755   3.605   4.602 -0.5464 -0.0034 -0.7950
 8827SOL    HW237941   1.734   3.464   4.631  2.5047 -3.3325 -1.5367
 8828SOL     OW37942   1.212   3.434   9.275 -0.2878 -0.5685  0.5060
 8828SOL    HW137943   1.286   3.429   9.335  1.7739  0.0991 -2.0008
 8828SOL    HW237944   1.185   3.524   9.294  0.5135 -1.2361  4.7520
 8829SOL     OW37945   1.046   4.373   5.463 -0.8784  0.2798  0.4395
 8829SOL    HW137946   0.982   4.400   5.529 -0.5221  1.6927  0.1962
 8829SOL    HW237947   0.994   4.382   5.384  0.4201 -1.1349 -0.5852
 8830SOL     OW37948   0.452   4.314  14.413  0.2780  0.5482  0.1197
 8830SOL    HW137949   0.418   4.310  14.323  1.2548 -0.4579 -0.1967
 8830SOL    HW237950   0.533   4.264  14.410 -0.1024  0.0273 -1.2493
 8831SOL     OW37951   3.163   4.403   6.150 -0.4410  0.0112  0.6159
 8831SOL    HW137952   3.080   4.357   6.155  1.6887 -3.8373  0.2573
 8831SOL    HW237953   3.143   4.465   6.080  2.6221 -0.9458 -1.0757
 8832SOL     OW37954   3.627   4.328   0.733 -0.4822  0.3189 -0.1300
 8832SOL    HW137955   3.634   4.289   0.821  1.6448 -0.6713 -0.7228
 8832SOL    HW237956   3.681   4.405   0.751 -1.6704  1.5470 -1.8549
 8833SOL     OW37957   2.447   1.904   8.246 -0.6629 -0.4622  0.7449
 8833SOL    HW137958   2.491   1.900   8.161 -3.0104 -0.7619 -0.4492
 8833SOL    HW237959   2.377   1.839   8.240 -1.7036  0.7211 -0.0097
 8834SOL     OW37960   4.429   3.792   6.942 -0.7004  0.1087  0.4417
 8834SOL    HW137961   4.497   3.774   7.006 -1.6775 -0.9070  1.2004
 8834SOL    HW237962   4.480   3.767   6.865 -3.8481 -1.5128 -1.1465
 8835SOL     OW37963   1.252   3.705  10.216  0.0650 -0.1904  0.0752
 8835SOL    HW137964   1.324   3.740  10.269 -0.3089  1.1169 -0.3025
 8835SOL    HW237965   1.193   3.780  10.218  0.0412 -0.2437  1.4580
 8836SOL     OW37966   1.490   3.207   7.484  0.3753  0.1118 -0.2338
 8836SOL    HW137967   1.526   3.295   7.475  1.9782 -0.6145 -0.9731
 8836SOL    HW237968   1.462   3.191   7.394 -3.4500 -1.4146  1.2621
 8837SOL     OW37969   1.492   3.776   6.950 -0.1511 -0.3426 -0.2676
 8837SOL    HW137970   1.453   3.857   6.983 -0.2999 -1.4159  2.2134
 8837SOL    HW237971   1.533   3.814   6.872  0.2419  0.2633  0.2305
 8838SOL     OW37972   0.241   1.483  14.639 -0.5963 -0.1039 -0.6952
 8838SOL    HW137973   0.227   1.576  14.657 -0.6144 -0.1978 -0.2359
 8838SOL    HW237974   0.154   1.444  14.650  0.1964 -1.3834  0.9369
 8839SOL     OW37975   4.688   2.402   9.058  0.2888 -0.9171  0.1623
 8839SOL    HW137976   4.707   2.496   9.064 -2.1035 -0.4183 -0.1275
 8839SOL    HW237977   4.626   2.399   9.130  0.7806 -3.8060  0.4718
 8840SOL     OW37978   1.668   2.071   8.639  0.0979 -0.1138 -0.2664
 8840SOL    HW137979   1.719   2.119   8.574 -2.0905  1.5459 -0.7452
 8840SOL    HW237980   1.734   2.083   8.707  0.2759  0.4526 -0.5424
 8841SOL     OW37981   2.816   0.931  17.259 -0.6607 -0.2835 -0.0790
 8841SOL    HW137982   2.854   0.930  17.172  1.0145  0.4024  0.6459
 8841SOL    HW237983   2.764   0.851  17.262  2.0236 -2.0318 -0.4688
 8842SOL     OW37984   0.721   2.800   3.320 -0.3817 -0.5181 -0.3958
 8842SOL    HW137985   0.785   2.834   3.258  4.4454 -1.3331  4.0887
 8842SOL    HW237986   0.748   2.847   3.399 -0.0008 -0.5043 -0.5359
 8843SOL     OW37987   4.256   3.679  11.527  0.4775 -0.0857  0.8712
 8843SOL    HW137988   4.220   3.641  11.608  1.1118  1.9518  2.1084
 8843SOL    HW237989   4.327   3.620  11.504  0.8986  1.2684 -1.2143
 8844SOL     OW37990   3.008   4.671   6.360  0.2455 -0.0816 -0.2885
 8844SOL    HW137991   3.018   4.646   6.269 -0.3324  0.1449 -0.4095
 8844SOL    HW237992   3.101   4.683   6.381  0.2845  0.9710 -1.0635
 8845SOL     OW37993   3.301   1.783   6.235 -0.2688  0.2301 -0.4555
 8845SOL    HW137994   3.285   1.702   6.186  0.0048 -0.2394  0.2382
 8845SOL    HW237995   3.396   1.793   6.223 -0.3954 -0.0755 -1.7642
 8846SOL     OW37996   2.866   0.492   5.525  0.1695  0.0724  0.1814
 8846SOL    HW137997   2.942   0.522   5.576  0.2543  0.9809 -0.4832
 8846SOL    HW237998   2.794   0.541   5.564  0.4479  1.5179 -1.1034
 8847SOL     OW37999   1.666   3.212   7.060 -1.0475  0.3249 -0.2405
 8847SOL    HW138000   1.674   3.122   7.029  1.2399  0.8116 -1.1264
 8847SOL    HW238001   1.732   3.208   7.129  0.2346 -0.6493 -1.4989
 8848SOL     OW38002   4.398   3.376   3.115 -0.2956  0.0260  0.3910
 8848SOL    HW138003   4.339   3.381   3.189 -0.1566  0.3340  0.4821
 8848SOL    HW238004   4.342   3.342   3.045  2.8327  1.5231 -2.8827
 8849SOL     OW38005   0.283   2.350   3.305 -0.2906  0.0674  0.2436
 8849SOL    HW138006   0.354   2.412   3.323 -0.4256  0.3915 -0.3595
 8849SOL    HW238007   0.317   2.276   3.356 -0.0630  0.1302  0.1801
 8850SOL     OW38008   1.634   0.936   9.534 -0.2306 -0.1155 -0.2470
 8850SOL    HW138009   1.586   0.896   9.461 -0.2315  1.9975 -1.4234
 8850SOL    HW238010   1.705   0.872   9.538  0.0573  0.1908 -0.4322
 8851SOL     OW38011   0.734   1.096  13.748 -0.3505  0.3807 -0.0962
 8851SOL    HW138012   0.773   1.009  13.747 -1.4163 -0.0992  0.1355
 8851SOL    HW238013   0.650   1.080  13.792 -0.0033  1.0873  0.8399
 8852SOL     OW38014   3.443   4.431   8.035 -0.3128 -0.1135 -0.1585
 8852SOL    HW138015   3.413   4.499   8.095 -0.2821  0.1470 -0.4343
 8852SOL    HW238016   3.376   4.365   8.054 -0.1899  0.3288  1.8476
 8853SOL     OW38017   4.314   4.253   2.338 -0.3286 -0.2748 -0.6350
 8853SOL    HW138018   4.293   4.328   2.283  3.4717  1.4344  0.2429
 8853SOL    HW238019   4.364   4.292   2.410  0.9109  0.5847 -1.9418
 8854SOL     OW38020   0.171   2.050   2.038 -0.1579 -0.5574  0.4639
 8854SOL    HW138021   0.114   2.118   2.075  0.5101  0.4692 -0.3941
 8854SOL    HW238022   0.162   1.975   2.097 -1.1901 -0.6800  0.1486
 8855SOL     OW38023   3.168   1.119   2.817  0.2652 -0.0941 -0.7713
 8855SOL    HW138024   3.076   1.131   2.793  0.2431  2.2148  0.4476
 8855SOL    HW238025   3.180   1.189   2.881 -3.9894 -0.1132  0.0138
 8856SOL     OW38026   2.452   1.611  13.391 -0.0496 -0.3149 -0.0462
 8856SOL    HW138027   2.388   1.647  13.453 -0.6827 -0.5707 -0.5513
 8856SOL    HW238028   2.397   1.540  13.357 -0.9538  0.2695  0.1718
 8857SOL     OW38029   4.352   3.549   8.826 -0.3232 -0.1534 -0.1069
 8857SOL    HW138030   4.396   3.510   8.751  0.0203  2.8765 -1.4788
 8857SOL    HW238031   4.263   3.549   8.792 -0.1556 -1.6143 -0.5809
 8858SOL     OW38032   2.323   1.282   5.769  0.5209 -0.1298 -0.1620
 8858SOL    HW138033   2.348   1.374   5.761 -0.8572  0.1870 -0.8951
 8858SOL    HW238034   2.386   1.242   5.709  1.3160 -0.7493  1.0789
 8859SOL     OW38035   4.626   3.001   8.528  0.0557 -0.3039 -0.3458
 8859SOL    HW138036   4.714   2.976   8.558  0.0673  0.4976  0.2853
 8859SOL    HW238037   4.578   2.921   8.549 -0.8866  0.7706  1.6037
 8860SOL     OW38038   1.141   2.490  15.699  0.6694  0.1574 -0.3549
 8860SOL    HW138039   1.232   2.512  15.719  0.8451 -0.4689 -0.4435
 8860SOL    HW238040   1.128   2.516  15.608  1.0515 -1.8768 -1.0070
 8861SOL     OW38041   0.581   2.539   3.617  0.7406  0.1414  0.1847
 8861SOL    HW138042   0.664   2.587   3.629  0.2481  0.1590  3.5007
 8861SOL    HW238043   0.541   2.586   3.544 -0.3368  2.1849  2.0848
 8862SOL     OW38044   1.857   2.887  13.475 -0.1310 -0.3927 -0.9031
 8862SOL    HW138045   1.948   2.871  13.500 -0.5706 -0.9746  0.3314
 8862SOL    HW238046   1.850   2.981  13.459  0.9911 -0.3794 -1.2935
 8863SOL     OW38047   4.013   4.397   9.376 -0.2339  0.0803 -0.1117
 8863SOL    HW138048   4.104   4.427   9.368 -0.4725 -0.1614 -3.6175
 8863SOL    HW238049   4.028   4.304   9.357  0.4338 -0.1759  1.7229
 8864SOL     OW38050   0.981   0.026   4.399 -0.4924 -0.0742 -0.2673
 8864SOL    HW138051   1.049   0.079   4.441 -2.4603  0.9463  1.7058
 8864SOL    HW238052   0.904   0.056   4.448 -0.7801 -1.5670  0.1834
 8865SOL     OW38053   3.105   4.702  11.710 -0.1644  0.0582  0.5583
 8865SOL    HW138054   3.169   4.640  11.744  0.6950  0.2786 -0.6845
 8865SOL    HW238055   3.017   4.664  11.702  0.6583 -1.7289  0.1316
 8866SOL     OW38056   1.564   2.774   6.346  0.6432 -0.0357 -0.3155
 8866SOL    HW138057   1.586   2.782   6.253  0.9826 -0.1846 -0.2486
 8866SOL    HW238058   1.630   2.830   6.386  0.8141  0.2280 -0.9700
 8867SOL     OW38059   2.071   2.622  17.530  0.2475  0.7066 -0.1608
 8867SOL    HW138060   2.059   2.636  17.436 -3.9938  1.6331  0.5068
 8867SOL    HW238061   1.983   2.639  17.565 -1.2470 -0.4144 -3.4326
 8868SOL     OW38062   3.963   2.418   3.170 -0.1432  0.1056 -0.1921
 8868SOL    HW138063   3.875   2.428   3.133  0.3285  0.8054 -1.1093
 8868SOL    HW238064   3.946   2.482   3.239 -0.1242  1.9274 -1.9050
 8869SOL     OW38065   1.315   2.041  16.522  0.0403 -0.2834 -0.5712
 8869SOL    HW138066   1.364   2.110  16.567 -1.0789 -0.6278  1.2058
 8869SOL    HW238067   1.224   2.062  16.543 -0.3328  0.0968 -2.5710
 8870SOL     OW38068   0.078   2.169   6.539  0.0857  0.1882  0.0856
 8870SOL    HW138069   0.094   2.123   6.622 -0.5385 -3.3904 -1.7507
 8870SOL    HW238070   0.164   2.176   6.498  0.8601 -1.4148  1.4175
 8871SOL     OW38071   3.283   3.994  14.384  0.3312  0.5681  0.6298
 8871SOL    HW138072   3.258   3.964  14.296 -1.3364  1.4587  0.8123
 8871SOL    HW238073   3.359   4.048  14.361  1.5541 -1.5276 -0.3083
 8872SOL     OW38074   0.371   4.081   0.807 -0.3210  0.3503  0.0801
 8872SOL    HW138075   0.431   4.065   0.735  0.3844  1.2196  0.4861
 8872SOL    HW238076   0.418   4.040   0.880 -0.2085 -0.4621 -0.4506
 8873SOL     OW38077   2.525   2.763   3.184  0.1811 -0.0222  0.2310
 8873SOL    HW138078   2.576   2.780   3.263  0.4978  0.0473  0.0119
 8873SOL    HW238079   2.562   2.684   3.145 -0.4638  0.0168 -0.4571
 8874SOL     OW38080   3.991   1.647  14.716 -0.0072  0.5261  0.4502
 8874SOL    HW138081   4.016   1.683  14.631 -1.8410  0.0164 -0.3191
 8874SOL    HW238082   4.079   1.652  14.754 -0.9227 -1.0403  2.7614
 8875SOL     OW38083   3.843   1.498  17.181 -0.5558 -0.0227  0.0838
 8875SOL    HW138084   3.787   1.575  17.170 -0.1114  0.5867  2.1418
 8875SOL    HW238085   3.777   1.429  17.179  0.5027 -1.0385  0.8775
 8876SOL     OW38086   0.376   1.317   0.174  0.0262  0.0783 -0.0885
 8876SOL    HW138087   0.380   1.307   0.079 -1.3461  0.7930 -0.2122
 8876SOL    HW238088   0.342   1.230   0.197  1.3159 -0.2110  0.7460
 8877SOL     OW38089   0.978   0.201   5.734  0.2216 -0.4627 -0.6810
 8877SOL    HW138090   1.055   0.207   5.792 -0.7723  0.9786  0.4849
 8877SOL    HW238091   1.016   0.237   5.654 -0.6049  1.4064 -0.2173
 8878SOL     OW38092   3.482   2.333   5.430  0.0453  0.1116  0.2199
 8878SOL    HW138093   3.388   2.320   5.415 -0.0618  1.3330 -0.1007
 8878SOL    HW238094   3.502   2.378   5.349  0.0038  0.6103  0.4869
 8879SOL     OW38095   3.707   4.119  10.530  0.3595  0.8264 -0.0194
 8879SOL    HW138096   3.615   4.147  10.533 -0.0726 -0.4954 -1.4722
 8879SOL    HW238097   3.713   4.078  10.444 -1.3391  1.8981 -0.6542
 8880SOL     OW38098   0.513   2.127   8.109 -0.0747 -0.1898  0.1213
 8880SOL    HW138099   0.547   2.041   8.136  1.5694  0.3980 -0.0706
 8880SOL    HW238100   0.446   2.111   8.043 -0.4885  1.8028  0.0473
 8881SOL     OW38101   2.990   2.169  12.297 -0.4409  0.5201 -0.2666
 8881SOL    HW138102   2.972   2.250  12.345 -3.2740  0.4700 -1.2691
 8881SOL    HW238103   2.899   2.139  12.293 -0.5610  0.8233  0.1849
 8882SOL     OW38104   4.390   2.318   0.780  0.4177  0.4844  0.0922
 8882SOL    HW138105   4.433   2.403   0.791  0.3422  0.4367  0.7309
 8882SOL    HW238106   4.317   2.326   0.842  1.1540 -1.0330  1.1329
 8883SOL     OW38107   3.824   4.548   8.698  0.0662  0.6495 -0.6571
 8883SOL    HW138108   3.883   4.475   8.679  3.5726  2.5554  2.8369
 8883SOL    HW238109   3.749   4.516   8.649  0.6901 -2.2127  0.2417
 8884SOL     OW38110   1.406   0.238   4.010  0.2192  0.5484  0.1375
 8884SOL    HW138111   1.408   0.144   4.028 -1.0297  0.1655 -1.8173
 8884SOL    HW238112   1.373   0.263   4.097 -0.4804 -0.4405  0.1665
 8885SOL     OW38113   0.842   2.031   3.301 -0.5136 -0.6994  0.2982
 8885SOL    HW138114   0.821   2.010   3.210  1.6068 -2.3197  0.1685
 8885SOL    HW238115   0.760   2.013   3.347 -0.5953 -1.1643 -0.0304
 8886SOL     OW38116   4.564   4.067   6.473 -0.0507  0.0354 -0.6481
 8886SOL    HW138117   4.536   4.088   6.562  0.6203  0.7460 -0.5989
 8886SOL    HW238118   4.650   4.030   6.491 -1.0801 -2.0325  0.0017
 8887SOL     OW38119   0.943   2.914   1.793  0.0281  0.2327 -0.1831
 8887SOL    HW138120   0.882   2.855   1.748  0.3369  0.8950 -1.4537
 8887SOL    HW238121   1.028   2.908   1.750 -0.7984 -2.8212 -1.3428
 8888SOL     OW38122   1.616   4.437   8.654  0.3386  0.0229  0.2068
 8888SOL    HW138123   1.602   4.439   8.559  0.2157  0.5246  0.2384
 8888SOL    HW238124   1.711   4.427   8.656  0.1682 -1.5300  0.8721
 8889SOL     OW38125   4.614   1.979  13.307 -0.0453 -0.0948 -0.1953
 8889SOL    HW138126   4.578   1.901  13.347  1.7074 -1.4555 -1.2707
 8889SOL    HW238127   4.620   2.046  13.375 -2.1356  0.6284 -0.7089
 8890SOL     OW38128   3.549   3.079   8.930  0.2730 -0.1012 -0.5441
 8890SOL    HW138129   3.593   3.106   8.850 -2.1032  1.1189 -1.4334
 8890SOL    HW238130   3.549   2.985   8.913  1.1914 -0.6232  2.3188
 8891SOL     OW38131   0.633   4.050   1.468  0.6258  0.9290  0.1878
 8891SOL    HW138132   0.591   4.070   1.384  1.7132 -2.4108 -1.1365
 8891SOL    HW238133   0.718   4.093   1.459  1.2996 -1.0599 -2.7296
 8892SOL     OW38134   3.288   2.208   2.299  0.8500  0.0011  0.0342
 8892SOL    HW138135   3.354   2.250   2.244  1.3140 -2.1488 -1.0518
 8892SOL    HW238136   3.275   2.287   2.351 -3.0035 -1.6618  1.6713
 8893SOL     OW38137   0.106   2.150   4.705  0.2891 -0.2088 -1.0549
 8893SOL    HW138138   0.168   2.134   4.776 -0.8798  0.2339  0.0707
 8893SOL    HW238139   0.044   2.078   4.715  2.7621 -2.3012 -0.6234
 8894SOL     OW38140   3.159   3.375   9.538 -0.0681 -0.0126 -0.5577
 8894SOL    HW138141   3.125   3.460   9.512 -1.7617 -0.8398 -1.0313
 8894SOL    HW238142   3.237   3.397   9.589 -2.2223  0.1859  2.6290
 8895SOL     OW38143   0.086   4.476   6.197  0.3413 -0.3467 -0.7891
 8895SOL    HW138144   0.002   4.505   6.234  0.4876 -0.4308 -0.4029
 8895SOL    HW238145   0.071   4.473   6.102 -2.6222 -2.3293 -0.2903
 8896SOL     OW38146   3.261   0.727   3.366  0.1536 -0.0903 -0.6608
 8896SOL    HW138147   3.293   0.771   3.446 -1.4765  1.8571 -1.0878
 8896SOL    HW238148   3.172   0.761   3.361 -0.5898 -2.1172 -0.7682
 8897SOL     OW38149   0.321   2.688  10.274 -0.2096  0.1940  0.0547
 8897SOL    HW138150   0.379   2.698  10.198  0.0956 -1.9294 -0.0047
 8897SOL    HW238151   0.252   2.633  10.237  0.0111  0.0693 -0.1695
 8898SOL     OW38152   3.913   1.476  15.621 -0.1894 -0.2473 -0.9039
 8898SOL    HW138153   3.865   1.395  15.636  0.8586 -1.0015 -1.6456
 8898SOL    HW238154   3.949   1.503  15.705  0.7148 -0.7942 -1.1134
 8899SOL     OW38155   3.530   4.427   1.754  0.1752 -0.1378 -0.5487
 8899SOL    HW138156   3.601   4.364   1.761 -0.0690 -0.5200 -1.5745
 8899SOL    HW238157   3.459   4.365   1.774 -1.2164  1.6436  0.1544
 8900SOL     OW38158   0.483   0.542   3.942 -0.2589  0.6573  0.8417
 8900SOL    HW138159   0.547   0.487   3.897 -0.4839 -0.1271  1.4864
 8900SOL    HW238160   0.541   0.614   3.967  0.7532 -0.0862  0.6338
 8901SOL     OW38161   1.109   0.269   8.170 -0.5453 -0.0078  0.0660
 8901SOL    HW138162   1.185   0.299   8.119 -0.9317 -1.0553 -1.1302
 8901SOL    HW238163   1.058   0.218   8.106 -1.0975  0.9241 -0.2267
 8902SOL     OW38164   3.896   4.621  17.238 -0.1611  0.5143  0.4091
 8902SOL    HW138165   3.946   4.540  17.244  3.8436  3.0498  1.2273
 8902SOL    HW238166   3.811   4.585  17.266 -1.4907  3.0021 -0.5085
 8903SOL     OW38167   4.092   2.809   4.638  0.0690 -0.3054 -0.2201
 8903SOL    HW138168   4.067   2.718   4.620 -2.5724  1.1335 -3.6693
 8903SOL    HW238169   4.005   2.840   4.662 -0.5580 -2.1451 -0.1253
 8904SOL     OW38170   4.699   0.185  17.034  0.1532 -0.3445  0.8266
 8904SOL    HW138171   4.719   0.205  17.126  1.3593 -1.3708  0.7971
 8904SOL    HW238172   0.019   0.098  17.032  0.0017 -0.3466 -1.2277
 8905SOL     OW38173   1.465   1.202  14.837 -0.3023  0.2412 -0.1733
 8905SOL    HW138174   1.543   1.257  14.843  0.8331 -1.3404 -0.3647
 8905SOL    HW238175   1.441   1.213  14.745  0.2691 -1.6900 -0.5561
 8906SOL     OW38176   0.121   4.681  16.098 -0.4239  0.1046  0.5041
 8906SOL    HW138177   0.032   4.692  16.064  0.9919  0.3182 -3.0486
 8906SOL    HW238178   0.108   0.005  16.182 -1.0327 -0.0964  0.5230
 8907SOL     OW38179   3.931   0.512   8.624 -0.2043 -0.1266  0.1099
 8907SOL    HW138180   3.974   0.584   8.577 -0.6453 -0.9193 -1.5045
 8907SOL    HW238181   3.841   0.522   8.593  1.3066  1.6820 -3.6414
 8908SOL     OW38182   1.040   0.648   0.313  0.3583  0.0419  0.2565
 8908SOL    HW138183   1.080   0.730   0.342  0.0884  0.8601 -1.6727
 8908SOL    HW238184   1.098   0.580   0.347 -0.5448 -0.7673  0.1601
 8909SOL     OW38185   0.234   3.623   5.974  0.1909  0.5769 -0.1382
 8909SOL    HW138186   0.256   3.549   5.918 -1.1373  0.9870 -1.2149
 8909SOL    HW238187   0.240   3.598   6.066 -2.4492 -0.4495 -0.2402
 8910SOL     OW38188   3.619   2.464   0.979 -0.0429  0.3307  0.5015
 8910SOL    HW138189   3.646   2.387   0.928 -1.5378  0.6492 -0.7550
 8910SOL    HW238190   3.592   2.540   0.927  1.0095  0.7544  0.5834
 8911SOL     OW38191   0.759   0.490   6.656  0.1788  0.0973 -0.3627
 8911SOL    HW138192   0.841   0.459   6.695 -0.5488 -0.6478  0.5801
 8911SOL    HW238193   0.734   0.417   6.599 -2.1022 -0.4941  1.3997
 8912SOL     OW38194   0.131   2.633  17.556 -0.2853  0.6461 -0.3121
 8912SOL    HW138195   0.177   2.631  17.471  0.6491  3.1092  0.1367
 8912SOL    HW238196   0.117   2.542  17.583 -1.5453  0.5043 -1.3934
 8913SOL     OW38197   3.969   0.076  10.341 -0.1665  0.2207  0.7874
 8913SOL    HW138198   3.969   0.165  10.375  0.4109  0.9606 -1.1770
 8913SOL    HW238199   3.884   0.076  10.298 -1.0515 -1.8461  2.4892
 8914SOL     OW38200   3.591   1.311  10.607 -0.4540  0.0650 -0.0563
 8914SOL    HW138201   3.643   1.341  10.533 -1.8166 -0.9702 -1.4237
 8914SOL    HW238202   3.643   1.352  10.677 -0.5321  0.3904 -0.1863
 8915SOL     OW38203   3.007   4.139  11.771  0.4208  1.0302  0.2602
 8915SOL    HW138204   3.097   4.153  11.743  0.4427 -1.6769 -1.0934
 8915SOL    HW238205   3.026   4.108  11.860 -2.2444  1.3157  0.9511
 8916SOL     OW38206   2.191   1.478   6.149 -0.2169 -0.5345  0.3922
 8916SOL    HW138207   2.181   1.570   6.169 -0.4512 -1.1384  3.0102
 8916SOL    HW238208   2.227   1.491   6.061 -0.2251  1.1310  0.6437
 8917SOL     OW38209   3.022   0.666   9.618 -0.0223  0.3961 -0.2453
 8917SOL    HW138210   3.008   0.688   9.710  3.4593 -1.0595  0.6265
 8917SOL    HW238211   3.003   0.754   9.586  3.1760  0.3728 -2.1683
 8918SOL     OW38212   3.904   4.635   1.513  0.3044 -0.0168  0.5071
 8918SOL    HW138213   3.931   4.707   1.457 -0.0973  1.0478  1.6638
 8918SOL    HW238214   3.822   4.668   1.550 -0.7348 -1.9084 -0.1050
 8919SOL     OW38215   1.470   1.613  17.584 -0.2427  0.0855  0.6751
 8919SOL    HW138216   1.522   1.587  17.660 -0.9869  0.4652  1.3222
 8919SOL    HW238217   1.408   1.682  17.611 -1.4497 -0.8018  0.1736
 8920SOL     OW38218   4.520   4.262   5.828 -0.1559 -0.2656  0.0880
 8920SOL    HW138219   4.593   4.226   5.777  0.4258  0.6859  0.2448
 8920SOL    HW238220   4.456   4.261   5.757 -0.3327 -1.8274  0.2519
 8921SOL     OW38221   1.702   0.757   3.760 -0.0657  0.4404 -0.1402
 8921SOL    HW138222   1.637   0.769   3.829 -0.0251 -1.8430  0.2886
 8921SOL    HW238223   1.704   0.848   3.730  0.5606  1.2192  2.2926
 8922SOL     OW38224   1.613   3.110   0.436  0.1243  0.7662  0.2607
 8922SOL    HW138225   1.559   3.057   0.496 -0.7842  1.5617  0.1405
 8922SOL    HW238226   1.554   3.133   0.364  0.3509 -1.9142 -0.7893
 8923SOL     OW38227   2.922   0.337  10.572 -0.1976 -0.7395 -0.0563
 8923SOL    HW138228   2.862   0.394  10.523 -0.6573 -1.4467 -0.3138
 8923SOL    HW238229   2.992   0.401  10.582 -1.9457  1.0760  0.4619
 8924SOL     OW38230   1.823   4.190   0.780 -0.4141  0.5050  0.1216
 8924SOL    HW138231   1.867   4.165   0.699  0.8985  0.1663  0.9369
 8924SOL    HW238232   1.897   4.177   0.838 -0.8030 -0.9630  0.2714
 8925SOL     OW38233   4.407   1.310   4.643 -0.0362  0.8476  0.2695
 8925SOL    HW138234   4.470   1.348   4.704 -1.5227  3.2335  0.2955
 8925SOL    HW238235   4.437   1.349   4.560 -1.9346  0.7767 -0.4424
 8926SOL     OW38236   0.989   3.251  16.884 -0.2187 -0.0221  0.6518
 8926SOL    HW138237   0.971   3.252  16.790  1.1914  0.9391  0.3937
 8926SOL    HW238238   0.928   3.179  16.903 -0.6309 -0.4737 -2.2949
 8927SOL     OW38239   2.881   3.455   4.992 -0.1707  0.6566 -0.2889
 8927SOL    HW138240   2.909   3.366   4.967 -1.4291 -0.3301  1.8937
 8927SOL    HW238241   2.941   3.459   5.066  2.1225 -3.8524 -1.8554
 8928SOL     OW38242   1.627   1.036   6.000  0.8048 -0.5441  0.1622
 8928SOL    HW138243   1.683   1.059   5.925  2.0833 -0.6886  1.0785
 8928SOL    HW238244   1.588   0.954   5.968 -0.7310  0.1338  0.2712
 8929SOL     OW38245   3.705   2.358   2.235  0.2617 -0.0667  0.1205
 8929SOL    HW138246   3.710   2.316   2.321  1.6806  0.3221  0.2141
 8929SOL    HW238247   3.735   2.287   2.178 -1.0335  0.7600 -1.6057
 8930SOL     OW38248   0.225   4.691   1.353 -0.3206 -0.1309  0.4488
 8930SOL    HW138249   0.223   4.598   1.331 -1.0606  0.2658 -1.1057
 8930SOL    HW238250   0.150   0.003   1.304 -0.0044  1.7936  1.2376
 8931SOL     OW38251   2.302   2.337  12.746  0.2632 -0.2735  0.0187
 8931SOL    HW138252   2.306   2.357  12.840  0.0391  2.8187 -0.6345
 8931SOL    HW238253   2.226   2.385  12.715 -1.4415 -1.4912  2.3158
 8932SOL     OW38254   3.753   1.541   4.735 -0.1467 -0.0897  0.2503
 8932SOL    HW138255   3.730   1.626   4.774  1.6161  0.7143 -0.4947
 8932SOL    HW238256   3.680   1.530   4.673 -0.6183  2.2256  0.3952
 8933SOL     OW38257   2.285   1.772   7.650 -0.2857  0.4561  0.1974
 8933SOL    HW138258   2.371   1.754   7.688  1.4364 -1.0255 -4.3769
 8933SOL    HW238259   2.302   1.866   7.641 -1.4742  0.5890 -0.6238
 8934SOL     OW38260   0.634   3.343  17.006 -0.7530 -0.6471  0.4963
 8934SOL    HW138261   0.639   3.432  16.972 -0.7561 -1.3303 -1.3252
 8934SOL    HW238262   0.720   3.323  17.041  0.0780 -1.2712 -1.9286
 8935SOL     OW38263   1.829   2.165   3.788  0.3062 -0.3583 -0.1832
 8935SOL    HW138264   1.761   2.222   3.824 -0.5429  0.4911 -3.1511
 8935SOL    HW238265   1.879   2.228   3.736 -2.5926  2.4398  0.4782
 8936SOL     OW38266   1.687   4.130   5.508  0.2800 -0.3615 -0.3102
 8936SOL    HW138267   1.645   4.061   5.456 -0.6199  0.8215 -1.1623
 8936SOL    HW238268   1.742   4.175   5.443 -0.6005  0.4784 -0.4812
 8937SOL     OW38269   0.505   0.049   5.774 -0.1898  0.2956 -0.4078
 8937SOL    HW138270   0.586   0.098   5.770  1.2705 -2.1082 -0.5391
 8937SOL    HW238271   0.503   0.026   5.868  0.2408 -0.6213 -0.6207
 8938SOL     OW38272   4.513   2.254   8.742  0.1627  0.3564 -0.2350
 8938SOL    HW138273   4.476   2.275   8.827 -1.6866  2.0979 -1.4920
 8938SOL    HW238274   4.438   2.257   8.682 -0.3702 -2.0456  0.2953
 8939SOL     OW38275   1.895   0.290  13.532 -0.1867  0.0873 -0.2097
 8939SOL    HW138276   1.977   0.263  13.573 -0.3013  1.1590  0.7191
 8939SOL    HW238277   1.901   0.384  13.545  2.3883 -0.4082  2.1611
 8940SOL     OW38278   3.505   3.064   5.025  0.2529 -0.1432  0.1570
 8940SOL    HW138279   3.508   3.120   5.103 -1.8811  0.6208 -0.3366
 8940SOL    HW238280   3.498   3.129   4.956 -1.0634 -0.3399  0.1152
 8941SOL     OW38281   0.659   3.216   2.093 -0.1664  0.1389 -0.1631
 8941SOL    HW138282   0.656   3.133   2.140  0.8982  1.3002  1.9455
 8941SOL    HW238283   0.604   3.192   2.018 -1.0882  2.0372 -0.0989
 8942SOL     OW38284   0.307   3.270  11.081 -0.1943 -0.0455 -0.6873
 8942SOL    HW138285   0.387   3.222  11.099 -0.4099 -0.6096 -1.2399
 8942SOL    HW238286   0.280   3.230  10.998 -2.4351  0.8885 -0.4249
 8943SOL     OW38287   2.117   2.584   4.839 -0.8776  0.8811  0.3921
 8943SOL    HW138288   2.070   2.586   4.756 -1.1767  0.8149  0.5628
 8943SOL    HW238289   2.145   2.676   4.835  1.0014  0.3271  0.5416
 8944SOL     OW38290   3.508   1.969   8.128 -0.2167  0.0136 -0.5644
 8944SOL    HW138291   3.473   2.034   8.067 -0.7002  0.2401 -0.0361
 8944SOL    HW238292   3.551   2.028   8.190  0.0340 -2.2834  1.4495
 8945SOL     OW38293   2.857   0.153  15.134  0.0425 -0.0737  0.2523
 8945SOL    HW138294   2.819   0.065  15.144 -0.7731  0.4598  1.8111
 8945SOL    HW238295   2.951   0.152  15.152 -0.4104  1.8541  2.6382
 8946SOL     OW38296   3.693   0.276   9.180 -0.4221 -0.6836  0.5192
 8946SOL    HW138297   3.601   0.285   9.155 -0.4346  0.2663  0.9124
 8946SOL    HW238298   3.722   0.367   9.180  0.0627 -0.8387  0.1725
 8947SOL     OW38299   2.580   2.072  15.784  0.4577  0.1125 -0.1043
 8947SOL    HW138300   2.592   2.013  15.709 -1.6222 -0.7590  0.2605
 8947SOL    HW238301   2.548   2.143  15.729 -3.1348 -1.7072 -0.3398
 8948SOL     OW38302   2.676   2.886   3.881 -0.3872  0.6767 -0.1829
 8948SOL    HW138303   2.758   2.907   3.925 -0.4970  0.8983 -0.0866
 8948SOL    HW238304   2.633   2.971   3.884 -1.4506  0.0522  2.1552
 8949SOL     OW38305   2.592   4.141   6.496 -0.4572 -0.3877 -0.5201
 8949SOL    HW138306   2.537   4.127   6.573  2.0227 -2.5150  0.8727
 8949SOL    HW238307   2.571   4.231   6.472  1.2207  0.4305  1.0550
 8950SOL     OW38308   1.991   1.626   1.936 -0.1081 -0.0495 -0.2637
 8950SOL    HW138309   1.996   1.572   1.857  1.4629 -1.1417  0.5793
 8950SOL    HW238310   2.084   1.626   1.961 -0.5118 -0.1888  1.2778
 8951SOL     OW38311   4.032   0.976  10.068 -0.5041 -0.0184 -0.3897
 8951SOL    HW138312   4.058   1.009   9.982  0.4742  0.1408 -0.0389
 8951SOL    HW238313   3.962   0.915  10.048  0.3657 -0.3875 -2.3325
 8952SOL     OW38314   4.586   2.790   5.399  0.2250 -0.1350  0.0789
 8952SOL    HW138315   4.597   2.746   5.315  0.8586  0.8366 -0.3538
 8952SOL    HW238316   4.612   2.881   5.383  1.6734 -0.7701 -1.2324
 8953SOL     OW38317   2.156   1.270   7.374 -0.5647 -0.1818 -0.2547
 8953SOL    HW138318   2.126   1.222   7.296 -1.7184  0.3272 -0.1206
 8953SOL    HW238319   2.157   1.364   7.355  0.6922 -0.5794 -2.2265
 8954SOL     OW38320   4.681   4.236   2.906  0.0473 -0.5082  0.0816
 8954SOL    HW138321   4.720   4.153   2.879  0.9935  0.4671 -1.5592
 8954SOL    HW238322   4.644   4.210   2.990 -3.2910 -0.9780 -1.5136
 8955SOL     OW38323   0.561   0.480   7.802  0.1965 -0.1477 -0.1888
 8955SOL    HW138324   0.501   0.553   7.815  1.3548  1.0142 -1.4338
 8955SOL    HW238325   0.499   0.407   7.806 -1.8569  1.6791  1.0134
 8956SOL     OW38326   0.972   0.160   3.664 -0.1337 -0.3646 -0.3189
 8956SOL    HW138327   1.022   0.239   3.683  1.4799 -1.0636 -1.6345
 8956SOL    HW238328   0.935   0.177   3.577  0.8897  2.6920 -0.1578
 8957SOL     OW38329   2.351   4.177   5.015  0.2152 -0.0467 -0.1329
 8957SOL    HW138330   2.401   4.150   5.092 -0.4072  1.9426  0.9728
 8957SOL    HW238331   2.265   4.194   5.054 -0.2548 -1.1930 -0.6768
 8958SOL     OW38332   1.071   2.022   6.501 -0.0408  0.6120 -0.3661
 8958SOL    HW138333   1.026   1.945   6.537 -0.1530 -0.2358 -2.2881
 8958SOL    HW238334   1.066   1.983   6.413 -1.2184 -0.6164  0.2413
 8959SOL     OW38335   0.743   4.352  13.165  0.7293  0.7484 -0.1640
 8959SOL    HW138336   0.801   4.279  13.143 -0.8627 -0.7133  0.4754
 8959SOL    HW238337   0.733   4.397  13.081 -0.7132 -0.8350 -0.8539
 8960SOL     OW38338   0.658   2.226  16.593  0.6206 -0.5205  0.3313
 8960SOL    HW138339   0.743   2.233  16.636  0.2959  0.3593  0.8112
 8960SOL    HW238340   0.643   2.311  16.552  0.4258 -1.2009 -0.9998
 8961SOL     OW38341   4.002   2.158   2.521 -0.3121  0.4457  0.1112
 8961SOL    HW138342   4.005   2.085   2.582 -1.0294  0.0339 -0.3389
 8961SOL    HW238343   4.085   2.144   2.476  0.2904 -1.1051  1.7391
 8962SOL     OW38344   1.272   3.992   1.485  0.3351 -0.6360 -0.4554
 8962SOL    HW138345   1.343   3.940   1.524  0.2670 -0.0626  0.4240
 8962SOL    HW238346   1.240   3.933   1.417  0.1507 -0.0008 -0.9194
 8963SOL     OW38347   0.268   3.851  17.682  0.5587 -0.5978 -0.0425
 8963SOL    HW138348   0.208   3.901  17.628  0.4266  0.2180  0.8645
 8963SOL    HW238349   0.220   3.772   0.021 -1.4098  0.1796 -1.5250
 8964SOL     OW38350   1.600   0.598   4.806 -0.3038  0.2099  0.4675
 8964SOL    HW138351   1.630   0.551   4.884 -1.6227 -0.9771  0.2778
 8964SOL    HW238352   1.586   0.523   4.747 -0.9532  0.1828  0.6520
 8965SOL     OW38353   2.737   0.909  16.081 -0.3739 -0.6309 -0.1457
 8965SOL    HW138354   2.667   0.845  16.092 -0.0865 -0.9291 -0.0559
 8965SOL    HW238355   2.686   0.987  16.104 -1.0973 -0.8918 -0.8842
 8966SOL     OW38356   1.169   3.562   1.468 -0.4455  0.0434  0.5634
 8966SOL    HW138357   1.122   3.490   1.426 -1.1881  0.6821  0.3006
 8966SOL    HW238358   1.237   3.585   1.404 -1.4256  1.5077  0.0414
 8967SOL     OW38359   0.145   1.030   2.953  0.1603 -0.3161 -0.4316
 8967SOL    HW138360   0.203   0.989   3.018 -0.0001 -1.1598 -0.8169
 8967SOL    HW238361   0.090   1.083   3.011  0.8796 -0.1765  0.1323
 8968SOL     OW38362   2.018   4.302   8.996 -0.5849 -0.4982 -0.2041
 8968SOL    HW138363   2.016   4.314   9.090  0.7999  0.7459 -0.3455
 8968SOL    HW238364   2.110   4.307   8.969 -0.3190 -4.2420 -0.0560
 8969SOL     OW38365   3.635   0.952  11.318 -0.4574  0.2380 -0.2996
 8969SOL    HW138366   3.712   0.988  11.276 -0.2025 -0.8311 -0.7440
 8969SOL    HW238367   3.622   1.008  11.395  1.6800 -0.7079  0.7348
 8970SOL     OW38368   1.479   3.304  14.616  0.0086  0.2671 -0.3126
 8970SOL    HW138369   1.451   3.372  14.677  0.6682 -0.2538  0.5664
 8970SOL    HW238370   1.391   3.273  14.596  1.1954 -3.5621  0.3151
 8971SOL     OW38371   0.862   1.352   9.664  0.2190 -0.1652 -0.3793
 8971SOL    HW138372   0.888   1.421   9.603 -1.0241  0.8313  0.2272
 8971SOL    HW238373   0.860   1.405   9.744 -0.6727 -0.6209 -0.0952
 8972SOL     OW38374   3.060   4.299   8.611  0.3218 -0.1373  0.5643
 8972SOL    HW138375   3.037   4.255   8.529  0.2967  1.7724 -0.4412
 8972SOL    HW238376   3.129   4.236   8.634 -1.4223 -2.4235 -0.4344
 8973SOL     OW38377   2.635   1.097   8.323 -0.0273  0.0078  0.0356
 8973SOL    HW138378   2.563   1.092   8.386  0.9037  0.7163  1.1467
 8973SOL    HW238379   2.596   1.164   8.268  0.8986 -2.3792 -3.5194
 8974SOL     OW38380   1.790   1.340   1.822 -0.0586  0.3276  0.1213
 8974SOL    HW138381   1.708   1.291   1.820 -0.2651  0.6630  0.5455
 8974SOL    HW238382   1.783   1.405   1.753  2.1075  0.7073  0.2492
 8975SOL     OW38383   1.772   3.165  14.891  0.7321 -0.0543 -0.0401
 8975SOL    HW138384   1.725   3.099  14.840  0.6500  1.2097 -1.6213
 8975SOL    HW238385   1.703   3.229  14.909  0.7353 -0.3097  0.8691
 8976SOL     OW38386   0.544   3.297   8.995 -0.3058  0.1001  0.7760
 8976SOL    HW138387   0.617   3.353   8.969 -0.7775  0.6706  0.6975
 8976SOL    HW238388   0.476   3.362   9.012 -0.2193  0.2161  0.6828
 8977SOL     OW38389   2.766   3.418   0.210 -0.4143 -0.0844  0.8203
 8977SOL    HW138390   2.734   3.410   0.120 -0.7237  2.1435  0.7310
 8977SOL    HW238391   2.776   3.327   0.238  2.5754  0.4064  1.3188
 8978SOL     OW38392   3.951   2.758   0.439  0.6129  0.5084  0.3581
 8978SOL    HW138393   3.892   2.809   0.383 -0.1735 -0.3962  0.3796
 8978SOL    HW238394   4.013   2.734   0.370 -1.2858  0.1125 -1.2089
 8979SOL     OW38395   3.101   4.309  10.932  0.0189 -0.0964 -0.2057
 8979SOL    HW138396   3.078   4.268  10.848  0.9066 -2.0630  0.5104
 8979SOL    HW238397   3.140   4.235  10.978 -0.1619  0.4575  0.8271
 8980SOL     OW38398   2.568   0.460   8.094  0.0091 -0.4727 -0.0107
 8980SOL    HW138399   2.624   0.393   8.133 -0.3225  0.6292  2.3161
 8980SOL    HW238400   2.630   0.514   8.044  0.3150 -0.0119  0.8628
 8981SOL     OW38401   0.967   4.018   4.599 -0.0800 -0.2230  0.2765
 8981SOL    HW138402   1.049   3.986   4.638  2.0628  0.2867 -3.9057
 8981SOL    HW238403   0.910   3.999   4.674 -0.8974 -1.0287 -0.5380
 8982SOL     OW38404   1.731   2.039   1.757 -0.4349 -0.4295  0.1255
 8982SOL    HW138405   1.640   2.028   1.783 -1.5855 -0.3177 -3.7932
 8982SOL    HW238406   1.722   2.129   1.726  1.2230 -0.3468 -0.1365
 8983SOL     OW38407   1.066   3.861  13.554  0.0857 -0.2222 -0.1645
 8983SOL    HW138408   1.042   3.770  13.540 -0.2080 -0.2703  0.6249
 8983SOL    HW238409   1.112   3.888  13.474  1.7826 -0.5787  0.6834
 8984SOL     OW38410   2.104   3.589   5.580  0.0689 -1.0000 -0.1008
 8984SOL    HW138411   2.071   3.655   5.642 -0.3079 -2.3156  1.0886
 8984SOL    HW238412   2.041   3.601   5.509  1.3447 -1.0865 -1.2340
 8985SOL     OW38413   0.295   4.391   1.333  0.0191 -0.6725 -0.2856
 8985SOL    HW138414   0.358   4.376   1.404  0.5028  0.4058 -0.4941
 8985SOL    HW238415   0.300   4.302   1.297  0.8922 -0.2635 -1.1582
 8986SOL     OW38416   0.403   2.578   2.324 -0.0324 -0.0016 -0.0917
 8986SOL    HW138417   0.316   2.618   2.333  0.2635  0.5160  0.4395
 8986SOL    HW238418   0.410   2.553   2.416 -1.4114  1.7978  0.4852
 8987SOL     OW38419   1.207   1.124   9.977  0.1185  0.3553 -0.4666
 8987SOL    HW138420   1.274   1.157  10.038 -0.2541 -0.0543  0.1564
 8987SOL    HW238421   1.184   1.211   9.945 -0.7154  0.2071 -0.2690
 8988SOL     OW38422   3.126   1.079   6.973 -0.3447  0.2901  0.0462
 8988SOL    HW138423   3.168   1.060   7.056  0.1807  2.6104  0.2975
 8988SOL    HW238424   3.061   1.008   6.976  1.3387 -1.2960 -1.4155
 8989SOL     OW38425   3.157   2.921   4.009 -0.1117 -0.0412 -0.0366
 8989SOL    HW138426   3.205   2.990   4.054 -0.7954  0.8423 -0.6679
 8989SOL    HW238427   3.159   2.949   3.918 -2.8371  1.5008  0.3803
 8990SOL     OW38428   3.643   4.296   5.510  0.2151  0.1469  0.2535
 8990SOL    HW138429   3.727   4.264   5.542 -0.0999  0.1583  1.1220
 8990SOL    HW238430   3.618   4.351   5.585 -0.6430 -0.6824  0.5677
 8991SOL     OW38431   0.868   1.062  13.234  0.4262 -0.5655 -0.6528
 8991SOL    HW138432   0.838   1.029  13.318  2.0786 -0.2138  0.0664
 8991SOL    HW238433   0.789   1.110  13.210  2.1201  0.7672 -3.6499
 8992SOL     OW38434   4.403   1.489  12.344 -0.0484 -0.5499  0.3588
 8992SOL    HW138435   4.401   1.574  12.299  1.3285  0.2203  1.7500
 8992SOL    HW238436   4.357   1.519  12.423 -0.6664  1.1734 -0.6345
 8993SOL     OW38437   0.649   0.363   5.786  0.7426 -0.4670  0.0661
 8993SOL    HW138438   0.712   0.377   5.715 -0.6020  3.2563 -0.3927
 8993SOL    HW238439   0.566   0.343   5.742  0.6345  1.8373 -0.8010
 8994SOL     OW38440   4.709   3.837   8.254 -0.3404  0.2274  0.5043
 8994SOL    HW138441   0.003   3.750   8.290  0.9006 -0.4256 -1.5511
 8994SOL    HW238442   0.004   3.882   8.336 -0.5552  0.4475  0.4225
 8995SOL     OW38443   2.123   3.748   6.350 -0.1213  0.4675  0.8748
 8995SOL    HW138444   2.209   3.787   6.367  0.9489 -0.9349 -1.3705
 8995SOL    HW238445   2.073   3.783   6.425 -1.6394 -0.4803  0.2836
 8996SOL     OW38446   3.203   2.343  15.069  0.3109  0.4667 -0.5667
 8996SOL    HW138447   3.139   2.317  15.003  2.2201 -1.4730 -1.6424
 8996SOL    HW238448   3.200   2.438  15.076  2.1294  0.5625 -1.0987
 8997SOL     OW38449   2.251   2.639   8.554  0.4927 -0.0636  0.8672
 8997SOL    HW138450   2.332   2.690   8.563 -0.0036  0.8805  0.0385
 8997SOL    HW238451   2.246   2.644   8.459 -2.1298 -0.2889  1.0048
 8998SOL     OW38452   4.431   1.428  10.115 -0.5949 -0.3041  0.1859
 8998SOL    HW138453   4.355   1.436  10.173 -1.1803 -1.2009 -0.4583
 8998SOL    HW238454   4.402   1.365  10.048 -0.2808 -0.1773 -0.0657
 8999SOL     OW38455   0.188   3.210   5.271  0.1268  0.2722  0.4295
 8999SOL    HW138456   0.095   3.226   5.287 -0.1065 -0.0583 -0.5655
 8999SOL    HW238457   0.216   3.301   5.281  2.0634 -0.3923  1.0247
 9000SOL     OW38458   0.402   1.390  14.035  0.8100  0.3347  0.6145
 9000SOL    HW138459   0.466   1.364  13.968  0.1206  0.0689  0.0625
 9000SOL    HW238460   0.447   1.348  14.108  2.0447 -0.7325 -0.7434
 9001SOL     OW38461   3.153   1.446   3.545 -0.0837 -0.4236  0.4894
 9001SOL    HW138462   3.109   1.498   3.612 -0.7190  0.1295 -0.3452
 9001SOL    HW238463   3.083   1.402   3.495  0.0417  0.6212 -0.5924
 9002SOL     OW38464   4.379   0.427   4.398 -0.0219 -0.6421  0.0450
 9002SOL    HW138465   4.418   0.473   4.472  1.1826 -0.6209 -0.6128
 9002SOL    HW238466   4.348   0.347   4.440 -4.9322  1.3538  0.2391
 9003SOL     OW38467   1.332   3.961   1.907  0.7674 -0.2316 -0.2266
 9003SOL    HW138468   1.363   3.910   1.982 -0.2131 -2.5976 -1.4498
 9003SOL    HW238469   1.361   3.897   1.842 -2.4255 -1.3103 -0.5483
 9004SOL     OW38470   3.754   3.230  17.208  0.1721 -0.2136  0.2724
 9004SOL    HW138471   3.833   3.204  17.160 -1.4534 -0.1370 -2.4072
 9004SOL    HW238472   3.735   3.310  17.161  1.3579 -0.1954 -0.1805
 9005SOL     OW38473   0.841   1.716  10.058 -0.3285  0.0333  0.5219
 9005SOL    HW138474   0.854   1.649  10.125  2.2191  1.0085  1.0318
 9005SOL    HW238475   0.912   1.780  10.068 -1.3594  1.6898 -2.5425
 9006SOL     OW38476   2.991   4.610  14.750  0.0387 -0.3838 -0.3992
 9006SOL    HW138477   3.030   4.564  14.676  0.1201  0.4435 -0.8750
 9006SOL    HW238478   3.035   4.695  14.751  0.0482 -0.3857 -0.7163
 9007SOL     OW38479   0.132   3.885   9.949  0.0524  0.3499 -0.6681
 9007SOL    HW138480   0.216   3.929   9.931  0.4136  1.0438  2.6038
 9007SOL    HW238481   0.166   3.796   9.956 -1.0909  0.0030  0.5852
 9008SOL     OW38482   3.352   2.374   7.075  0.6886 -0.4576  0.1865
 9008SOL    HW138483   3.398   2.457   7.089  0.6449 -0.1834 -1.2650
 9008SOL    HW238484   3.318   2.403   6.990  0.9264 -2.4519 -0.5840
 9009SOL     OW38485   4.412   2.735   2.788 -0.7957  0.1061 -0.0873
 9009SOL    HW138486   4.368   2.699   2.710  1.0745  1.9777 -2.0101
 9009SOL    HW238487   4.466   2.798   2.739 -0.0788  0.6827  1.4680
 9010SOL     OW38488   2.087   1.454   8.799 -0.3507  0.4599  0.0519
 9010SOL    HW138489   2.158   1.423   8.856 -0.7385  0.1176  0.3411
 9010SOL    HW238490   2.064   1.526   8.859 -2.0178 -0.3410  0.3650
 9011SOL     OW38491   3.103   1.006   3.169 -0.2875 -0.3980 -0.2645
 9011SOL    HW138492   3.046   0.968   3.236  1.5192 -2.0357  0.3636
 9011SOL    HW238493   3.063   1.091   3.153 -1.6995 -1.1600 -0.7656
 9012SOL     OW38494   2.262   1.376   8.090  0.1026 -0.5339 -0.2612
 9012SOL    HW138495   2.230   1.410   8.173 -1.8080  0.2199 -1.3106
 9012SOL    HW238496   2.337   1.330   8.129  1.8281  3.4045  0.9888
 9013SOL     OW38497   2.215   0.898   8.590  0.0146  0.0510  0.0132
 9013SOL    HW138498   2.133   0.885   8.637 -0.8659  2.5048 -0.9021
 9013SOL    HW238499   2.265   0.820   8.616 -1.5652 -0.5180  1.3700
 9014SOL     OW38500   4.145   2.979   8.007  0.5553 -0.1033  0.5303
 9014SOL    HW138501   4.069   2.921   8.017 -0.7573  1.4592 -0.4170
 9014SOL    HW238502   4.125   3.053   7.951 -0.7023  0.6143  1.9302
 9015SOL     OW38503   1.064   2.820   3.872  0.1064  0.3901  0.2040
 9015SOL    HW138504   1.048   2.858   3.785 -1.4776  0.6825  0.6082
 9015SOL    HW238505   1.096   2.900   3.913  0.2207  0.3656  0.1609
 9016SOL     OW38506   0.521   3.291   5.493 -0.1537 -0.8097  0.2701
 9016SOL    HW138507   0.469   3.211   5.493 -0.1336 -0.8233  0.0030
 9016SOL    HW238508   0.589   3.261   5.553  0.3428 -3.1991 -1.4626
 9017SOL     OW38509   2.402   0.126   7.993  0.0191 -0.3391  0.3477
 9017SOL    HW138510   2.323   0.146   8.044 -0.7030  1.1443 -1.3712
 9017SOL    HW238511   2.471   0.174   8.039  2.6545 -2.0546 -1.8559
 9018SOL     OW38512   4.240   1.030   2.350  0.6148  0.2330  0.1445
 9018SOL    HW138513   4.241   1.119   2.384 -0.8641  0.0389  0.7036
 9018SOL    HW238514   4.261   0.975   2.425  1.0490 -1.9002 -1.5378
 9019SOL     OW38515   0.522   3.112  15.220  0.2137  0.0125 -0.1192
 9019SOL    HW138516   0.525   3.143  15.130 -1.6535  0.1738 -0.1294
 9019SOL    HW238517   0.472   3.179  15.268 -1.2213 -1.4084  0.3423
 9020SOL     OW38518   1.560   2.459  17.214  0.3660 -0.0790 -0.2080
 9020SOL    HW138519   1.492   2.525  17.200 -0.9190 -1.4335 -0.3982
 9020SOL    HW238520   1.569   2.424  17.125  2.3342  1.7693 -0.7215
 9021SOL     OW38521   3.742   2.219   0.605 -0.4734 -0.0721  0.2038
 9021SOL    HW138522   3.762   2.194   0.515  0.5134 -0.4243  0.5174
 9021SOL    HW238523   3.771   2.310   0.604 -1.0314  0.1089  0.3343
 9022SOL     OW38524   2.400   1.151   7.085 -0.5980 -0.3719  0.7162
 9022SOL    HW138525   2.439   1.232   7.052 -0.5472 -0.3065  0.9358
 9022SOL    HW238526   2.388   1.109   6.999 -3.2492 -0.4685  1.1318
 9023SOL     OW38527   1.204   2.672   9.625  0.1374  0.0449  0.4685
 9023SOL    HW138528   1.133   2.704   9.569  1.3576  0.7911 -0.6388
 9023SOL    HW238529   1.280   2.674   9.566 -0.7584  0.2808 -0.6806
 9024SOL     OW38530   1.618   2.470  10.869 -0.7550  0.2519 -0.8122
 9024SOL    HW138531   1.697   2.459  10.817 -1.4980 -2.6416 -1.3098
 9024SOL    HW238532   1.634   2.411  10.943 -2.7914 -0.0740 -0.6205
 9025SOL     OW38533   0.962   0.911   2.745  0.1947  0.3222 -0.2760
 9025SOL    HW138534   1.033   0.938   2.803 -0.9745 -1.0208  1.7710
 9025SOL    HW238535   0.895   0.873   2.801  0.0743  0.2506 -0.4687
 9026SOL     OW38536   1.311   2.037   1.222 -0.4371  0.2835  0.0125
 9026SOL    HW138537   1.305   1.961   1.165 -1.5982  0.3735  0.0076
 9026SOL    HW238538   1.316   1.995   1.308 -0.3528 -2.2813 -1.2403
 9027SOL     OW38539   4.082   3.077   2.756 -0.4799  0.2382 -0.2169
 9027SOL    HW138540   4.009   3.100   2.812 -0.3359  0.1009  0.0279
 9027SOL    HW238541   4.058   2.987   2.734 -0.0408  0.0910 -0.1003
 9028SOL     OW38542   0.353   3.284  11.644 -0.0754 -0.1733 -0.2501
 9028SOL    HW138543   0.402   3.206  11.670  1.5480  1.6533  2.1684
 9028SOL    HW238544   0.306   3.231  11.580  0.1216 -0.8904  0.1978
 9029SOL     OW38545   4.549   3.273   2.075 -0.0393  0.5067  0.2791
 9029SOL    HW138546   4.508   3.192   2.044 -0.4955  1.0896 -0.6291
 9029SOL    HW238547   4.469   3.323   2.091 -1.1905 -1.4174  0.5502
 9030SOL     OW38548   2.835   1.355  15.029 -0.1036  0.3292 -0.0902
 9030SOL    HW138549   2.809   1.383  15.117  3.1388 -1.4359  1.4209
 9030SOL    HW238550   2.827   1.439  14.985 -0.4320  0.9458  1.1318
 9031SOL     OW38551   4.117   2.598   6.734  0.5868  0.2971  0.5259
 9031SOL    HW138552   4.140   2.687   6.759 -0.2139  0.6939 -0.1975
 9031SOL    HW238553   4.146   2.599   6.643 -2.5501 -0.2256 -0.4674
 9032SOL     OW38554   3.992   3.732  11.121  0.1665 -0.5696 -0.3118
 9032SOL    HW138555   3.957   3.720  11.032 -1.3589 -0.1788  0.2247
 9032SOL    HW238556   4.064   3.669  11.120  0.4857 -0.1823 -1.7330
 9033SOL     OW38557   0.188   3.142   3.091 -0.8370  0.3706  0.2400
 9033SOL    HW138558   0.258   3.198   3.058 -2.0725  1.7391 -0.0382
 9033SOL    HW238559   0.130   3.198   3.142 -0.9933  0.1281  0.3279
 9034SOL     OW38560   4.238   2.058   2.431  0.6743  0.3342  0.1828
 9034SOL    HW138561   4.297   1.993   2.469  1.2226  0.9052  0.2981
 9034SOL    HW238562   4.213   2.013   2.350  3.6087 -1.1435  0.1129
 9035SOL     OW38563   1.627   1.374   9.128  0.1351 -0.5106  0.3313
 9035SOL    HW138564   1.634   1.319   9.206 -0.5873  0.3556  1.0042
 9035SOL    HW238565   1.599   1.457   9.168 -0.8404 -1.1857  1.0331
 9036SOL     OW38566   2.562   0.780   2.987  0.1447 -0.6552 -0.4763
 9036SOL    HW138567   2.632   0.766   2.923  0.5195 -0.5179 -0.1005
 9036SOL    HW238568   2.553   0.689   3.014 -0.7777 -0.1608  0.8604
 9037SOL     OW38569   0.096   3.966   2.838  0.2010  0.3705 -0.2344
 9037SOL    HW138570   0.077   3.926   2.753  0.6381  0.5477 -0.4115
 9037SOL    HW238571   0.059   3.910   2.907 -0.2445 -1.1305 -1.6845
 9038SOL     OW38572   1.200   3.516   2.788 -0.5052  0.5513  0.0542
 9038SOL    HW138573   1.209   3.459   2.864  0.8638  0.2045 -0.3553
 9038SOL    HW238574   1.272   3.495   2.728  0.9785  2.1488  1.2316
 9039SOL     OW38575   4.473   2.314   6.813  0.1099  0.2889 -0.0008
 9039SOL    HW138576   4.535   2.243   6.829 -1.1486  0.3648  5.1702
 9039SOL    HW238577   4.467   2.306   6.718 -1.7261 -2.3795  0.3416
 9040SOL     OW38578   0.616   1.942  15.152  0.3005  0.1513  0.2561
 9040SOL    HW138579   0.634   2.014  15.213 -0.0906  0.0503  0.4894
 9040SOL    HW238580   0.532   1.967  15.114  0.7958  0.1510 -0.8305
 9041SOL     OW38581   4.012   2.837   9.685 -1.0604  0.3340  0.0943
 9041SOL    HW138582   3.965   2.893   9.748 -0.3651  0.5091  0.4585
 9041SOL    HW238583   3.938   2.804   9.634 -1.6160 -1.5341  2.0725
 9042SOL     OW38584   3.749   0.579   7.820  0.2515 -0.4322 -0.3356
 9042SOL    HW138585   3.708   0.496   7.842  1.0708 -0.8348 -0.3044
 9042SOL    HW238586   3.838   0.552   7.844  0.2627 -1.8003 -1.8601
 9043SOL     OW38587   3.102   4.425   1.806  0.4395 -0.2516  0.1648
 9043SOL    HW138588   3.081   4.491   1.740  2.5035  0.6800  0.4232
 9043SOL    HW238589   3.103   4.489   1.877  1.8711 -0.7580  0.6040
 9044SOL     OW38590   1.938   0.796  15.308 -0.4046 -0.1433 -0.5060
 9044SOL    HW138591   1.891   0.868  15.266  1.0542  0.3396 -1.3107
 9044SOL    HW238592   2.000   0.768  15.240 -1.5820 -0.9571 -1.2316
 9045SOL     OW38593   1.570   2.317  12.776  0.4483 -0.1045  0.1218
 9045SOL    HW138594   1.658   2.308  12.810  0.1662 -0.8073  0.6639
 9045SOL    HW238595   1.519   2.259  12.833  0.5417 -1.2845 -0.9703
 9046SOL     OW38596   1.210   0.910   7.569 -0.0947 -0.2765 -0.2153
 9046SOL    HW138597   1.293   0.929   7.612 -0.9034  1.4639  0.5770
 9046SOL    HW238598   1.205   0.815   7.576 -0.2431 -0.1801  1.1481
 9047SOL     OW38599   2.453   2.568   1.993 -0.4590 -0.2551 -0.1511
 9047SOL    HW138600   2.509   2.490   1.986  0.7451  0.7928 -2.5563
 9047SOL    HW238601   2.401   2.570   1.912 -2.8224 -2.0899  1.3222
 9048SOL     OW38602   0.506   0.743   8.071 -0.2129  0.1282  0.4360
 9048SOL    HW138603   0.569   0.779   8.008 -3.0118  1.3020 -1.6598
 9048SOL    HW238604   0.510   0.804   8.145  0.8764 -0.8392  1.1675
 9049SOL     OW38605   3.673   1.286   2.816 -0.1570 -0.4188  0.0042
 9049SOL    HW138606   3.684   1.214   2.753  0.1079 -0.0665 -0.3502
 9049SOL    HW238607   3.685   1.240   2.899 -1.1499 -1.0093 -0.1780
 9050SOL     OW38608   0.418   1.424   6.134 -0.1635 -0.4687 -0.3241
 9050SOL    HW138609   0.407   1.509   6.093 -0.6716 -0.6133 -0.4832
 9050SOL    HW238610   0.447   1.380   6.053 -2.4546 -2.2035 -0.1940
 9051SOL     OW38611   1.800   0.893   6.602 -0.0111 -0.1936 -0.2682
 9051SOL    HW138612   1.883   0.853   6.577  0.7859  0.2167  1.7452
 9051SOL    HW238613   1.838   0.917   6.687  0.0612  1.1594 -0.6854
 9052SOL     OW38614   0.177   0.153   7.119  0.0125  0.5359 -0.2300
 9052SOL    HW138615   0.088   0.119   7.119  0.5833 -0.9422  0.3741
 9052SOL    HW238616   0.224   0.086   7.170 -0.8018  0.1789  0.0471
 9053SOL     OW38617   0.375   1.524   3.609  0.2327  0.0536  0.4709
 9053SOL    HW138618   0.384   1.518   3.514  0.5649 -0.4346  0.5381
 9053SOL    HW238619   0.292   1.572   3.617 -0.4617 -1.1938  0.8146
 9054SOL     OW38620   2.065   3.147   7.701 -0.9919 -0.2417 -0.2697
 9054SOL    HW138621   2.086   3.058   7.728  0.5303 -0.1414 -1.1150
 9054SOL    HW238622   2.108   3.145   7.616 -1.5540 -1.0464 -0.5347
 9055SOL     OW38623   2.158   0.618   2.240  0.7540 -0.2944 -0.5641
 9055SOL    HW138624   2.108   0.537   2.237  0.4111 -0.1083  0.0992
 9055SOL    HW238625   2.159   0.639   2.146 -2.2602  1.4401 -0.2253
 9056SOL     OW38626   0.588   1.877  11.837 -0.0541 -0.3248  0.2503
 9056SOL    HW138627   0.618   1.914  11.920 -2.0761 -1.7593  1.6282
 9056SOL    HW238628   0.664   1.885  11.780 -2.5922 -1.8138 -3.3434
 9057SOL     OW38629   1.737   2.251   1.471  0.0471 -0.3419 -0.3010
 9057SOL    HW138630   1.665   2.187   1.471 -3.0884  3.1720 -1.7185
 9057SOL    HW238631   1.747   2.268   1.565 -0.8691 -1.7157  0.0372
 9058SOL     OW38632   1.882   0.337   1.092 -0.0792  0.1840 -0.4513
 9058SOL    HW138633   1.892   0.420   1.138  2.8801  0.0938 -0.8864
 9058SOL    HW238634   1.943   0.279   1.138  0.5548  0.3312 -1.1064
 9059SOL     OW38635   4.230   0.844   6.184 -0.1341  0.1135  0.2513
 9059SOL    HW138636   4.267   0.772   6.133  0.6696 -0.1625  1.2236
 9059SOL    HW238637   4.264   0.918   6.134 -0.2252  0.9090  1.3554
 9060SOL     OW38638   0.640   2.523   7.821 -0.0008 -0.0083  0.1013
 9060SOL    HW138639   0.557   2.497   7.781  0.6318 -1.2066 -0.4565
 9060SOL    HW238640   0.684   2.565   7.747  0.2399  0.6954  0.6374
 9061SOL     OW38641   2.054   0.581   8.680 -0.1664  0.3488 -0.1897
 9061SOL    HW138642   2.028   0.610   8.593 -1.7609  1.4356  0.6532
 9061SOL    HW238643   2.031   0.658   8.731  0.5252 -0.0036  0.6571
 9062SOL     OW38644   1.051   1.065   3.829 -0.5410 -0.6490 -0.1462
 9062SOL    HW138645   1.127   1.121   3.840 -0.7605 -0.6950  1.5945
 9062SOL    HW238646   1.014   1.100   3.747  1.0833  0.8390 -0.2320
 9063SOL     OW38647   0.058   3.423   4.105  0.0756  0.6911  0.1788
 9063SOL    HW138648   0.125   3.388   4.163  1.1954 -2.2678 -2.9533
 9063SOL    HW238649   4.705   3.439   4.165  1.4994  0.4756  1.9761
 9064SOL     OW38650   0.551   1.038   3.085  0.5412 -0.1059 -0.4484
 9064SOL    HW138651   0.475   0.986   3.111 -1.2933  3.0594  0.4767
 9064SOL    HW238652   0.540   1.028   2.990  0.1031  0.9324 -0.5068
 9065SOL     OW38653   2.010   2.113   6.849 -0.0551  0.5148 -1.0273
 9065SOL    HW138654   2.100   2.086   6.829 -0.8196 -1.5968 -1.6997
 9065SOL    HW238655   1.991   2.186   6.791  0.4012  0.8918 -0.6986
 9066SOL     OW38656   2.775   1.055   6.404 -0.0729  0.4321 -0.0465
 9066SOL    HW138657   2.723   1.134   6.392  0.0089  0.3184 -1.1677
 9066SOL    HW238658   2.859   1.082   6.441 -0.7943  0.2389  1.7294
 9067SOL     OW38659   0.777   2.559   8.282  0.3314 -0.0215  0.2397
 9067SOL    HW138660   0.721   2.605   8.220  0.5490 -2.4937 -1.7759
 9067SOL    HW238661   0.763   2.600   8.368  0.9569 -0.1150  0.3905
 9068SOL     OW38662   3.368   2.853   6.723 -0.1924 -0.1821 -0.4535
 9068SOL    HW138663   3.407   2.767   6.736 -0.3191 -0.3866 -1.3947
 9068SOL    HW238664   3.436   2.914   6.751 -0.0280 -0.5238 -0.1149
 9069SOL     OW38665   0.089   2.202   8.891 -0.4776 -0.0921  0.2858
 9069SOL    HW138666   0.024   2.268   8.915 -0.6014  0.0542 -0.4317
 9069SOL    HW238667   0.159   2.262   8.867  0.5178 -1.4657 -0.2421
 9070SOL     OW38668   4.427   0.319  14.528  0.2697  0.0204  0.2756
 9070SOL    HW138669   4.466   0.260  14.464 -1.8196 -1.8574  0.7333
 9070SOL    HW238670   4.358   0.355  14.472  0.2055 -1.0973 -0.3533
 9071SOL     OW38671   4.422   0.651   2.913  0.3229  0.6184 -0.3300
 9071SOL    HW138672   4.419   0.622   3.004 -0.9959  1.0261 -0.2469
 9071SOL    HW238673   4.487   0.720   2.922 -2.5202  3.2050  0.1663
 9072SOL     OW38674   3.833   3.937  16.149  0.0643  0.6273 -0.4425
 9072SOL    HW138675   3.814   4.015  16.201 -1.5705  0.8856 -1.4243
 9072SOL    HW238676   3.929   3.943  16.146  0.0641  0.8424 -0.0069
 9073SOL     OW38677   3.167   1.344   8.012  0.7936  0.4218  0.0774
 9073SOL    HW138678   3.250   1.296   8.022  0.5889  0.3695  1.4847
 9073SOL    HW238679   3.108   1.269   8.007  0.0989  0.9659  0.2491
 9074SOL     OW38680   0.481   0.932  10.985  0.1547 -0.0380 -0.2778
 9074SOL    HW138681   0.393   0.960  11.010  0.3268  0.3926 -0.1504
 9074SOL    HW238682   0.462   0.917  10.892 -0.6055 -0.6228 -0.0281
 9075SOL     OW38683   3.910   4.272   7.575 -0.3146  0.2414 -0.2062
 9075SOL    HW138684   3.859   4.321   7.511 -1.8271  0.6302  1.2895
 9075SOL    HW238685   3.847   4.292   7.645 -0.3502 -1.0066  0.1175
 9076SOL     OW38686   1.372   0.454   2.345  0.7248 -0.7133 -0.4859
 9076SOL    HW138687   1.292   0.405   2.328  0.8113 -0.7205 -0.8931
 9076SOL    HW238688   1.442   0.398   2.311 -0.3446 -2.8592  0.8400
 9077SOL     OW38689   3.688   1.657   3.912 -0.0935  0.7300  0.1304
 9077SOL    HW138690   3.594   1.671   3.903 -0.1858  1.1654  1.8403
 9077SOL    HW238691   3.685   1.616   3.998 -1.0485 -1.5148 -0.9909
 9078SOL     OW38692   2.522   2.663   3.919  0.3253  0.2175  0.3757
 9078SOL    HW138693   2.457   2.697   3.981 -1.5417 -2.5870 -0.0533
 9078SOL    HW238694   2.570   2.745   3.915  0.1988  0.3999  2.6910
 9079SOL     OW38695   4.171   2.098   8.319 -0.2490 -0.1008 -0.4587
 9079SOL    HW138696   4.230   2.158   8.273 -1.7261 -0.2503 -2.5512
 9079SOL    HW238697   4.094   2.150   8.298 -0.2926  0.3209  0.7313
 9080SOL     OW38698   0.667   1.327   3.568 -0.4452 -0.1046 -0.0021
 9080SOL    HW138699   0.675   1.420   3.549 -1.4385  0.2919  1.5557
 9080SOL    HW238700   0.737   1.304   3.507 -0.7261 -1.3917  0.1580
 9081SOL     OW38701   3.426   2.482   4.936  0.5004 -0.5323  0.0753
 9081SOL    HW138702   3.374   2.479   4.856  0.3833 -0.8122  0.1604
 9081SOL    HW238703   3.445   2.575   4.948 -2.2231  0.1524 -0.8051
 9082SOL     OW38704   0.410   1.979  15.412  0.0460  0.6726  0.0153
 9082SOL    HW138705   0.485   1.998  15.356 -0.4289 -0.3803 -0.9739
 9082SOL    HW238706   0.425   1.888  15.439 -0.1594  1.6667  3.4144
 9083SOL     OW38707   1.383   1.263  14.039  0.2791  0.0420  0.1478
 9083SOL    HW138708   1.359   1.308  14.120 -2.3746 -1.2759  0.0722
 9083SOL    HW238709   1.307   1.284  13.984 -0.5677  2.5103  2.2856
 9084SOL     OW38710   4.054   4.585  16.181 -0.7517 -0.3360  0.3432
 9084SOL    HW138711   3.985   4.562  16.120  0.3854 -0.4874 -0.8933
 9084SOL    HW238712   4.121   4.518  16.170  1.2368  1.5506  0.8774
 9085SOL     OW38713   0.361   1.466   8.151  0.4602  0.0678 -0.5231
 9085SOL    HW138714   0.271   1.441   8.130  1.4616 -2.7648 -1.5262
 9085SOL    HW238715   0.404   1.382   8.134 -1.0209 -0.9249  0.5838
 9086SOL     OW38716   3.959   0.796   4.357  0.1586 -0.0505 -0.2983
 9086SOL    HW138717   3.907   0.737   4.302 -0.7273 -0.4075  0.9238
 9086SOL    HW238718   3.999   0.848   4.287  0.4063 -1.4970 -1.2446
 9087SOL     OW38719   3.830   1.389   7.414 -0.1045  0.2721 -0.0153
 9087SOL    HW138720   3.918   1.389   7.452  1.1729 -0.6916 -2.9855
 9087SOL    HW238721   3.827   1.462   7.353  0.5238  1.4963  1.4339
 9088SOL     OW38722   4.259   1.701  13.179  0.2800  0.2558  0.2549
 9088SOL    HW138723   4.324   1.683  13.248  0.7233  2.9175  0.5304
 9088SOL    HW238724   4.316   1.738  13.111  0.9885  0.2623  0.8471
 9089SOL     OW38725   1.949   4.415  10.425 -0.9093 -0.2555 -0.3864
 9089SOL    HW138726   1.958   4.339  10.482 -0.0809 -0.4421 -0.7704
 9089SOL    HW238727   1.886   4.473  10.468  2.3641  2.3210  0.9053
 9090SOL     OW38728   2.728   1.653  16.125 -0.1851  0.4191  0.1365
 9090SOL    HW138729   2.744   1.724  16.063  0.6662 -0.3787 -0.5611
 9090SOL    HW238730   2.644   1.679  16.164  0.4694  1.0509  1.0896
 9091SOL     OW38731   2.832   2.694   5.545 -0.2029 -0.4621  0.1055
 9091SOL    HW138732   2.777   2.726   5.473 -0.0830  0.8431  0.5779
 9091SOL    HW238733   2.842   2.773   5.599 -1.4704  1.0692 -1.8847
 9092SOL     OW38734   1.498   2.346  16.963  0.2429  0.2821  0.0256
 9092SOL    HW138735   1.510   2.274  16.902  1.5556  0.1262  0.4778
 9092SOL    HW238736   1.406   2.373  16.953  0.4466 -0.1152 -2.9933
 9093SOL     OW38737   0.092   1.625   9.893 -0.8412 -0.0262 -0.4937
 9093SOL    HW138738   0.030   1.602   9.962  0.3691  0.2139  0.6764
 9093SOL    HW238739   0.071   1.562   9.823 -2.0246  2.4004 -2.3028
 9094SOL     OW38740   3.659   0.074  13.582  0.3154  0.2991  0.0476
 9094SOL    HW138741   3.700   0.085  13.496 -0.3267 -0.3020 -0.3436
 9094SOL    HW238742   3.729   0.106  13.638  0.2565  0.3456  0.0949
 9095SOL     OW38743   4.559   2.511   0.065  0.3464 -0.6638  0.2752
 9095SOL    HW138744   4.637   2.457   0.049  1.5681  2.0100 -2.9269
 9095SOL    HW238745   4.546   2.473   0.152  0.4641 -0.9825  0.1552
 9096SOL     OW38746   2.026   4.113   0.579  0.2910  0.4302  0.2687
 9096SOL    HW138747   2.104   4.168   0.570  0.6897 -0.0797  0.6185
 9096SOL    HW238748   2.028   4.044   0.513 -2.4866  1.8304 -1.3149
 9097SOL     OW38749   2.278   1.209   4.875  0.0466  0.4228  0.7490
 9097SOL    HW138750   2.282   1.229   4.781 -0.3167 -1.1756  0.3791
 9097SOL    HW238751   2.265   1.297   4.909 -1.6553  0.1723  0.7657
 9098SOL     OW38752   4.269   0.980   6.567 -0.3415  0.3030 -0.4016
 9098SOL    HW138753   4.222   1.056   6.532 -1.5963  0.8619  2.5065
 9098SOL    HW238754   4.350   0.992   6.517  1.3034 -0.2750  2.0857
 9099SOL     OW38755   2.287   2.880  15.187 -0.0725  0.4038  0.1531
 9099SOL    HW138756   2.369   2.925  15.165  1.0215 -0.3588  2.7374
 9099SOL    HW238757   2.251   2.871  15.099  2.2233  0.9073 -0.8467
 9100SOL     OW38758   1.894   4.448  11.230 -0.0160 -0.1414  0.1803
 9100SOL    HW138759   1.887   4.464  11.324  1.3228  0.3417  0.2100
 9100SOL    HW238760   1.990   4.444  11.222 -0.1341  0.5928 -1.5128
 9101SOL     OW38761   4.269   3.148   2.259 -0.4293 -0.4292  0.0831
 9101SOL    HW138762   4.201   3.134   2.325 -0.4606  0.3768  0.2211
 9101SOL    HW238763   4.316   3.065   2.262 -0.8753 -0.7144 -0.9101
 9102SOL     OW38764   3.948   0.203  16.009  0.1967  0.2379  0.0037
 9102SOL    HW138765   3.889   0.211  16.084  0.3175 -0.0291  0.1260
 9102SOL    HW238766   3.905   0.254  15.941 -1.1296  0.3282  0.9179
 9103SOL     OW38767   2.652   1.598   2.537 -0.6387  0.1159 -0.3433
 9103SOL    HW138768   2.722   1.575   2.476 -0.6119 -1.7891  0.4041
 9103SOL    HW238769   2.587   1.640   2.479  2.5053  1.5310 -2.8502
 9104SOL     OW38770   2.113   4.079   4.771  0.3562  0.5171 -0.7226
 9104SOL    HW138771   2.152   4.154   4.727  0.3443 -0.7126 -2.7924
 9104SOL    HW238772   2.095   4.023   4.696  0.3069  0.3718 -0.6032
 9105SOL     OW38773   3.107   0.573   2.062 -0.0280  0.5496  0.0803
 9105SOL    HW138774   3.037   0.609   2.008  0.5189  0.4676 -0.6867
 9105SOL    HW238775   3.182   0.567   2.003 -1.4517  0.7747 -1.7297
 9106SOL     OW38776   2.275   1.992   8.011 -0.0458 -0.1633  0.2453
 9106SOL    HW138777   2.262   1.911   8.061  3.4992 -2.0100 -1.8034
 9106SOL    HW238778   2.366   1.978   7.986  0.1443 -1.0874  1.4301
 9107SOL     OW38779   3.721   0.720  16.600 -0.1012 -0.1700 -0.0843
 9107SOL    HW138780   3.691   0.777  16.529  1.6732 -1.0366 -1.5390
 9107SOL    HW238781   3.650   0.698  16.660  0.2528 -1.0504  0.0208
 9108SOL     OW38782   1.740   3.923  10.295 -0.2634  0.1615 -0.4893
 9108SOL    HW138783   1.730   3.843  10.346  1.8583 -0.7911 -1.5931
 9108SOL    HW238784   1.663   3.980  10.302 -0.3957 -0.2356  1.4761
 9109SOL     OW38785   0.340   2.934  10.703 -0.5446  0.1032 -0.1255
 9109SOL    HW138786   0.408   2.871  10.727 -2.0517 -1.6234 -0.3550
 9109SOL    HW238787   0.366   2.980  10.623  1.2026  0.0582  0.4397
 9110SOL     OW38788   2.628   0.354  15.783  0.3744  0.3098 -0.1994
 9110SOL    HW138789   2.642   0.268  15.823  2.4711  1.0905  0.7736
 9110SOL    HW238790   2.648   0.339  15.691  0.5163  1.5546 -0.3756
 9111SOL     OW38791   3.951   4.031   1.626 -0.3673  0.4659 -0.5979
 9111SOL    HW138792   3.990   4.115   1.650  1.2869 -0.5165  0.1671
 9111SOL    HW238793   3.864   4.061   1.601 -0.4683  0.8681  0.2505
 9112SOL     OW38794   0.695   3.410   1.608 -0.1018  0.3140  0.2688
 9112SOL    HW138795   0.707   3.413   1.703  0.0352  2.7177  0.1725
 9112SOL    HW238796   0.643   3.489   1.596 -1.3448 -0.1617  2.6455
 9113SOL     OW38797   2.011   1.150   0.352  0.0825  0.1393 -0.1755
 9113SOL    HW138798   1.973   1.064   0.371 -5.4547  2.1196 -2.1905
 9113SOL    HW238799   2.104   1.129   0.351  0.1194  0.4053 -1.5706
 9114SOL     OW38800   3.607   3.077   4.467 -0.2573  0.3362 -0.2739
 9114SOL    HW138801   3.697   3.057   4.443  0.1215  1.2613  0.3790
 9114SOL    HW238802   3.627   3.170   4.460  0.6401  0.2769  1.7313
 9115SOL     OW38803   2.596   0.699   8.280 -0.3342  0.1294 -0.4194
 9115SOL    HW138804   2.618   0.646   8.203  2.5288 -2.1252  1.9378
 9115SOL    HW238805   2.529   0.756   8.242 -0.4381 -1.2518 -2.3244
 9116SOL     OW38806   1.128   1.787   1.746 -0.2878 -0.0175  0.1625
 9116SOL    HW138807   1.222   1.805   1.739 -0.1916 -0.9566 -0.9584
 9116SOL    HW238808   1.116   1.731   1.670 -1.6252  1.3016 -0.5810
 9117SOL     OW38809   0.063   4.057  11.135 -0.0882 -0.5379  0.6469
 9117SOL    HW138810   0.051   4.131  11.076 -1.1026 -1.4646 -0.3078
 9117SOL    HW238811   0.094   4.099  11.216 -0.1575 -0.2603  0.5320
 9118SOL     OW38812   4.000   2.526   8.273 -0.0000 -0.1099  0.3578
 9118SOL    HW138813   3.921   2.579   8.283 -1.7848 -2.8322  0.5421
 9118SOL    HW238814   4.005   2.534   8.178  2.4357 -3.6982  0.2009
 9119SOL     OW38815   2.252   4.568   7.368  0.5187  0.4122  0.4571
 9119SOL    HW138816   2.247   4.629   7.295  0.9598 -1.6032 -1.2351
 9119SOL    HW238817   2.163   4.582   7.401  0.6526  2.8263 -0.1465
 9120SOL     OW38818   2.636   2.397   1.855  0.2135  0.1938  0.9820
 9120SOL    HW138819   2.640   2.318   1.801  1.5736  0.8111  0.1843
 9120SOL    HW238820   2.709   2.448   1.820  0.6599  0.0084  1.6564
 9121SOL     OW38821   2.903   1.375   2.227 -0.3602  0.1209 -0.4245
 9121SOL    HW138822   2.993   1.367   2.194 -0.4742 -1.4269 -0.3678
 9121SOL    HW238823   2.851   1.350   2.151 -0.7265  0.9594 -0.4534
 9122SOL     OW38824   0.096   3.749  11.188 -0.1529 -0.6129 -0.1368
 9122SOL    HW138825   0.170   3.699  11.153  0.2211 -0.0619 -0.1393
 9122SOL    HW238826   0.121   3.838  11.163 -0.3654 -0.3868  0.4667
 9123SOL     OW38827   0.486   3.712  13.723 -0.7277  0.4136  0.1929
 9123SOL    HW138828   0.543   3.692  13.798  0.1777  1.8817 -0.0964
 9123SOL    HW238829   0.553   3.722  13.655  0.8573 -4.5538  1.0330
 9124SOL     OW38830   2.535   1.265  12.719 -0.6808  0.0063  0.2271
 9124SOL    HW138831   2.477   1.275  12.643 -1.6517 -1.2356  0.8163
 9124SOL    HW238832   2.580   1.349  12.704  2.2044 -1.3013  1.6246
 9125SOL     OW38833   4.137   1.476   3.419 -0.0862 -0.4170  0.1189
 9125SOL    HW138834   4.080   1.486   3.343 -0.7588 -0.3791  0.6319
 9125SOL    HW238835   4.206   1.537   3.393  1.1577 -1.3388  1.3030
 9126SOL     OW38836   3.867   3.403  12.584 -0.4681  0.0024 -0.2440
 9126SOL    HW138837   3.823   3.359  12.656 -1.9328  2.8279  0.5525
 9126SOL    HW238838   3.929   3.456  12.634 -1.5919  0.8336  0.2482
 9127SOL     OW38839   2.647   0.146   9.056  0.3556 -0.4567  0.0595
 9127SOL    HW138840   2.726   0.120   9.103  0.3261 -2.5218 -1.0442
 9127SOL    HW238841   2.681   0.207   8.990 -1.9868 -1.9493 -2.5312
 9128SOL     OW38842   2.905   0.760  13.408 -0.5590  0.2631  0.2600
 9128SOL    HW138843   2.872   0.670  13.403 -0.2517  0.2255 -0.9223
 9128SOL    HW238844   2.888   0.787  13.318 -2.7661  2.1711  1.2432
 9129SOL     OW38845   0.354   2.936  11.130 -0.5329 -0.2787 -0.1299
 9129SOL    HW138846   0.315   2.969  11.211  0.2782  0.5224 -0.0686
 9129SOL    HW238847   0.292   2.972  11.066  0.6691 -0.3885 -1.3354
 9130SOL     OW38848   3.444   0.423  15.693  0.1201  0.0384 -0.2674
 9130SOL    HW138849   3.350   0.435  15.707  0.2133  2.4246 -1.5744
 9130SOL    HW238850   3.457   0.334  15.726 -0.7457 -0.1950 -0.5400
 9131SOL     OW38851   0.654   3.798   0.742 -0.8499 -0.0225 -0.3152
 9131SOL    HW138852   0.740   3.790   0.700 -0.3782 -3.2067  1.2836
 9131SOL    HW238853   0.622   3.884   0.713 -1.5865  0.3013  1.4523
 9132SOL     OW38854   1.995   2.656  14.849  0.3509  0.4846 -0.5602
 9132SOL    HW138855   1.953   2.720  14.791  1.0729  0.4651 -1.1091
 9132SOL    HW238856   1.923   2.637  14.909  1.0683 -0.7041 -0.0784
 9133SOL     OW38857   0.376   3.859   5.904  0.2242  0.1856 -0.0289
 9133SOL    HW138858   0.322   3.849   5.825 -1.7813  0.4007  1.3195
 9133SOL    HW238859   0.360   3.779   5.953 -0.0224  0.5667  0.5120
 9134SOL     OW38860   4.144   0.211   5.292  0.2073  0.1306 -0.6443
 9134SOL    HW138861   4.067   0.162   5.321  0.3584  0.5775  0.5189
 9134SOL    HW238862   4.097   0.280   5.247 -0.0634 -0.6071 -1.5057
 9135SOL     OW38863   0.628   3.990   5.317  0.1167  0.2252  0.6471
 9135SOL    HW138864   0.682   4.032   5.384  1.9554 -1.7197  0.3694
 9135SOL    HW238865   0.541   3.999   5.357 -1.4144  0.9320 -2.8760
 9136SOL     OW38866   3.460   2.557  13.291  0.0990 -0.1471  0.0996
 9136SOL    HW138867   3.419   2.471  13.303  0.6321 -0.4357 -0.1609
 9136SOL    HW238868   3.535   2.537  13.235 -0.6287 -0.8477 -0.6321
 9137SOL     OW38869   2.974   1.932   1.972 -0.0961  0.4694  0.4147
 9137SOL    HW138870   3.019   1.981   2.040  1.3968  1.1141 -1.0328
 9137SOL    HW238871   2.943   1.863   2.030  0.7276  1.8579  2.5016
 9138SOL     OW38872   0.441   3.534  11.700  0.3845  0.4174 -0.1674
 9138SOL    HW138873   0.393   3.595  11.645  1.0650  0.3234 -0.8680
 9138SOL    HW238874   0.411   3.452  11.662  0.6751  0.1411  0.1958
 9139SOL     OW38875   2.502   3.163   5.839 -0.1450 -0.2960  0.0681
 9139SOL    HW138876   2.469   3.075   5.857  0.7271 -0.6347 -0.0327
 9139SOL    HW238877   2.570   3.136   5.777 -0.1147  1.2907 -0.5893
 9140SOL     OW38878   0.283   3.587   4.545  0.2960  0.5174  0.5063
 9140SOL    HW138879   0.272   3.531   4.622  1.4208 -0.0706  0.2313
 9140SOL    HW238880   0.259   3.673   4.582 -0.4116  0.3023  0.5593
 9141SOL     OW38881   0.183   2.104   3.801  0.1143  0.5315  0.2159
 9141SOL    HW138882   0.177   2.192   3.765 -0.5967  0.3673 -0.0665
 9141SOL    HW238883   0.099   2.099   3.847  0.7412  1.1369  1.4333
 9142SOL     OW38884   3.138   2.033   8.851  0.5837 -0.4039  0.2142
 9142SOL    HW138885   3.206   1.976   8.816 -0.2170 -1.3962  0.2587
 9142SOL    HW238886   3.178   2.044   8.937 -2.5898 -1.0607  1.7797
 9143SOL     OW38887   0.654   2.599  17.204  0.0907 -0.0022 -0.2654
 9143SOL    HW138888   0.640   2.640  17.118 -0.9642 -0.3540 -0.2601
 9143SOL    HW238889   0.669   2.508  17.177 -0.2393  0.3305 -1.5942
 9144SOL     OW38890   4.286   4.352   9.029  0.5537 -0.5643 -0.3105
 9144SOL    HW138891   4.359   4.296   9.003  1.2279  0.3854 -0.4671
 9144SOL    HW238892   4.289   4.347   9.124  0.4610 -3.5436 -0.4848
 9145SOL     OW38893   4.146   3.283   8.884  0.2981  0.0624  0.8841
 9145SOL    HW138894   4.226   3.235   8.861 -1.6798 -3.4195  1.3010
 9145SOL    HW238895   4.094   3.206   8.906  0.6661  0.3414  2.7539
 9146SOL     OW38896   2.484   0.207   5.714  0.1575  0.1212  0.5695
 9146SOL    HW138897   2.549   0.274   5.734  1.1211 -1.2430  2.0121
 9146SOL    HW238898   2.540   0.132   5.693  1.0626  1.4281 -1.7757
 9147SOL     OW38899   1.410   4.343   6.643 -0.0766  0.0930 -0.2383
 9147SOL    HW138900   1.359   4.284   6.697 -0.3323 -0.4826 -1.1208
 9147SOL    HW238901   1.423   4.298   6.560 -2.3642  1.1718 -1.1763
 9148SOL     OW38902   2.862   2.609   8.951  0.3879 -0.2972 -0.0758
 9148SOL    HW138903   2.805   2.620   8.875 -2.6030  1.8148  2.4655
 9148SOL    HW238904   2.880   2.515   8.951 -0.9347 -0.5440 -1.2571
 9149SOL     OW38905   3.686   1.540   7.638 -0.4201  0.1083 -0.1372
 9149SOL    HW138906   3.696   1.585   7.721 -1.1016 -1.8031  0.9976
 9149SOL    HW238907   3.591   1.530   7.636 -0.3620 -0.3125 -0.9475
 9150SOL     OW38908   0.200   2.304   5.613  0.2500  0.0877  0.7432
 9150SOL    HW138909   0.267   2.371   5.627 -0.3446  1.2147 -1.8113
 9150SOL    HW238910   0.230   2.240   5.677 -0.2067  0.7241  1.6025
 9151SOL     OW38911   2.498   4.631   8.906 -0.0935 -0.0533  0.8385
 9151SOL    HW138912   2.520   4.586   8.987 -1.2056 -2.0922 -0.0025
 9151SOL    HW238913   2.550   4.711   8.911  2.0596 -1.2957 -1.4554
 9152SOL     OW38914   0.290   2.725   2.838 -0.0527 -0.0251 -0.6766
 9152SOL    HW138915   0.307   2.675   2.758  1.8113 -0.1883 -0.1853
 9152SOL    HW238916   0.198   2.747   2.823 -0.0906 -0.4394 -1.0521
 9153SOL     OW38917   4.350   2.986   3.942 -0.2358  0.2518 -0.0019
 9153SOL    HW138918   4.377   3.075   3.963  1.3344 -0.1183 -0.5147
 9153SOL    HW238919   4.422   2.942   3.987  0.1317  1.5289  0.6469
 9154SOL     OW38920   1.334   3.778   5.669 -0.1181  0.1570 -0.9184
 9154SOL    HW138921   1.372   3.866   5.666 -0.2708  0.3332  1.6274
 9154SOL    HW238922   1.372   3.734   5.594 -0.1899 -0.4166 -0.6210
 9155SOL     OW38923   3.776   3.062   5.600 -0.3706  0.1265  0.1933
 9155SOL    HW138924   3.828   3.091   5.675 -0.3393 -0.7092  0.4911
 9155SOL    HW238925   3.714   3.135   5.587  2.3713  2.0879 -1.8994
 9156SOL     OW38926   3.689   4.642   7.208 -0.2288  0.7815 -0.6469
 9156SOL    HW138927   3.780   4.669   7.196  0.2227 -0.4663 -0.0440
 9156SOL    HW238928   3.648   4.697   7.141 -0.8465 -0.4113 -1.2464
 9157SOL     OW38929   2.837   2.600   3.230  0.1167 -0.4249  0.0636
 9157SOL    HW138930   2.872   2.594   3.318  1.3099 -0.8609 -0.4452
 9157SOL    HW238931   2.745   2.573   3.232  0.0605 -0.2751 -0.6083
 9158SOL     OW38932   2.773   0.510   6.400 -0.6138  0.1724 -0.4363
 9158SOL    HW138933   2.735   0.431   6.438  1.1919 -0.2193  0.5565
 9158SOL    HW238934   2.701   0.573   6.409 -3.1336 -3.0016  1.2686
 9159SOL     OW38935   0.620   4.503  16.894 -0.1588 -0.1967 -0.0690
 9159SOL    HW138936   0.711   4.517  16.919 -0.9208  1.0621  2.0250
 9159SOL    HW238937   0.622   4.507  16.798  1.7453 -0.8986 -0.0343
 9160SOL     OW38938   1.724   2.676   9.203  0.4563  0.3270 -0.4339
 9160SOL    HW138939   1.778   2.647   9.277 -1.1942  0.0511  0.6502
 9160SOL    HW238940   1.735   2.771   9.205 -1.9553  0.6137 -1.0437
 9161SOL     OW38941   2.169   2.703   7.746 -0.2448 -0.0665 -0.2389
 9161SOL    HW138942   2.180   2.653   7.665  0.1666  0.6548 -0.6312
 9161SOL    HW238943   2.129   2.777   7.700  1.5721  0.0328 -1.6588
 9162SOL     OW38944   2.395   2.534  11.595 -0.0746 -0.7872 -0.1661
 9162SOL    HW138945   2.322   2.595  11.581  0.6506 -0.0638 -0.8248
 9162SOL    HW238946   2.463   2.595  11.566  2.1558 -2.6397  1.2070
 9163SOL     OW38947   1.974   0.846   7.170  0.5923 -0.1848  0.5393
 9163SOL    HW138948   1.882   0.818   7.176  0.5994 -0.2914  0.1041
 9163SOL    HW238949   2.010   0.826   7.257 -1.1459 -0.3296  1.2397
 9164SOL     OW38950   4.695   3.384   1.827 -0.3920  0.1070  0.9432
 9164SOL    HW138951   4.671   3.361   1.917 -0.5673 -0.5399  0.7285
 9164SOL    HW238952   4.626   3.448   1.812  0.9172  1.0381 -1.1913
 9165SOL     OW38953   2.645   3.523  15.880  0.1743 -0.2935  0.1433
 9165SOL    HW138954   2.605   3.576  15.950  1.5254  1.3573 -0.3466
 9165SOL    HW238955   2.620   3.579  15.806  1.5805  1.0019  0.6396
 9166SOL     OW38956   0.041   2.774   3.430  0.1876  0.2106  0.4484
 9166SOL    HW138957   0.031   2.869   3.428  0.5782  0.2327 -1.0002
 9166SOL    HW238958   0.052   2.761   3.335 -1.6355  0.2926  0.2169
 9167SOL     OW38959   4.415   4.301  10.672  0.0274  0.2456 -0.3334
 9167SOL    HW138960   4.377   4.219  10.639  2.4769 -0.5211 -1.1965
 9167SOL    HW238961   4.414   4.270  10.762 -0.4567 -1.5799 -0.9620
 9168SOL     OW38962   4.049   0.229   8.593 -0.4600 -0.3757 -0.2724
 9168SOL    HW138963   4.143   0.229   8.610 -0.2984 -0.6686 -1.1575
 9168SOL    HW238964   4.029   0.321   8.609 -1.1323 -0.7180  0.8813
 9169SOL     OW38965   4.281   0.047  10.559 -0.2774  0.3242 -0.4805
 9169SOL    HW138966   4.301   0.047  10.652 -2.5006 -2.1613 -0.0097
 9169SOL    HW238967   4.329   4.686  10.544 -0.9362 -0.5084  2.0581
 9170SOL     OW38968   3.060   2.839   2.624 -0.5082  0.3701 -0.0250
 9170SOL    HW138969   2.996   2.771   2.648 -1.2094  0.7955 -0.6906
 9170SOL    HW238970   3.129   2.792   2.578 -1.1523 -0.6475  0.0498
 9171SOL     OW38971   2.104   4.153   7.346  0.3626  0.4917 -0.1955
 9171SOL    HW138972   2.054   4.152   7.427  2.7214  0.3280  1.2511
 9171SOL    HW238973   2.177   4.212   7.367  1.1623 -1.0231  1.2895
 9172SOL     OW38974   1.474   3.453   3.274 -0.7943  0.4655  0.1878
 9172SOL    HW138975   1.532   3.426   3.203 -1.4759 -0.4469 -0.0224
 9172SOL    HW238976   1.398   3.394   3.270 -1.2633  1.1724 -1.5480
 9173SOL     OW38977   0.972   1.684   8.940 -0.1143 -0.2234  0.4945
 9173SOL    HW138978   0.940   1.594   8.951 -2.4829  0.6182  0.4109
 9173SOL    HW238979   0.937   1.712   8.856  1.7273 -1.2386 -0.6023
 9174SOL     OW38980   0.135   0.286   2.612  0.5508 -0.0568  0.4231
 9174SOL    HW138981   0.221   0.316   2.585  1.0108 -0.0486  1.8832
 9174SOL    HW238982   0.122   0.326   2.698 -1.2992 -1.4719  0.8042
 9175SOL     OW38983   2.190   1.152   7.643 -0.1909  0.2756  0.0673
 9175SOL    HW138984   2.263   1.205   7.674  0.8040 -0.9408 -0.1995
 9175SOL    HW238985   2.186   1.177   7.550  1.4847 -0.3961 -0.1786
 9176SOL     OW38986   1.096   3.680   3.413 -0.6098 -0.0962  0.2482
 9176SOL    HW138987   1.046   3.759   3.391  1.5840  0.7253 -1.7386
 9176SOL    HW238988   1.096   3.667   3.508 -1.8069  1.7593  0.5145
 9177SOL     OW38989   2.602   4.276  10.325  0.4300 -0.5070  0.3218
 9177SOL    HW138990   2.586   4.363  10.362 -0.3693  0.4227 -2.2132
 9177SOL    HW238991   2.647   4.233  10.398 -0.9428  0.7290  1.9006
 9178SOL     OW38992   3.343   1.289   2.437 -0.3439  0.3919 -0.3219
 9178SOL    HW138993   3.367   1.322   2.523  1.0511  1.1993 -1.0330
 9178SOL    HW238994   3.345   1.369   2.384  1.2649  1.2578  1.0461
 9179SOL     OW38995   0.616   3.002   1.213 -0.2844  0.0094  0.1326
 9179SOL    HW138996   0.675   3.029   1.143  0.7965  1.3506  1.5875
 9179SOL    HW238997   0.674   2.959   1.276  0.0089 -0.8543 -0.7223
 9180SOL     OW38998   3.349   1.497   6.861  0.1230 -0.9057 -0.1866
 9180SOL    HW138999   3.358   1.577   6.811 -1.5838  0.3959  1.5625
 9180SOL    HW239000   3.314   1.435   6.796 -1.9245  0.7366 -0.6414
 9181SOL     OW39001   2.524   0.584   5.041 -0.7251  0.2592  0.6828
 9181SOL    HW139002   2.501   0.504   4.994  1.3969  0.6019 -0.9341
 9181SOL    HW239003   2.592   0.555   5.102  0.2494  1.1255  0.0043
 9182SOL     OW39004   0.396   4.523  17.503  0.0507  0.1532  0.6165
 9182SOL    HW139005   0.319   4.555  17.551 -1.2015 -0.2237 -1.1183
 9182SOL    HW239006   0.412   4.599  17.446 -0.0930  0.1760  0.6044
 9183SOL     OW39007   3.216   2.110   3.368  0.2036  0.2770  0.4862
 9183SOL    HW139008   3.260   2.027   3.353 -0.4038  0.0829 -0.2704
 9183SOL    HW239009   3.129   2.070   3.376 -0.1619  0.6250 -1.6738
 9184SOL     OW39010   3.927   4.669   2.336  0.1909  0.1697  0.0778
 9184SOL    HW139011   3.846   4.706   2.300  0.1981  0.7428  0.6548
 9184SOL    HW239012   3.940   4.595   2.277  0.1458 -0.1604  0.4905
 9185SOL     OW39013   0.430   0.152   6.254 -0.0842 -0.5906 -0.0564
 9185SOL    HW139014   0.419   0.057   6.253  0.8883 -0.7182  1.8153
 9185SOL    HW239015   0.510   0.152   6.201  0.4102  2.2068  0.7366
 9186SOL     OW39016   0.331   0.656   3.443  0.0501  0.4539 -0.4352
 9186SOL    HW139017   0.420   0.656   3.477 -0.6591  0.7348  1.4071
 9186SOL    HW239018   0.298   0.569   3.465 -0.4632  1.0996  1.3587
 9187SOL     OW39019   1.659   2.024  13.032 -0.4021 -0.0119 -0.0306
 9187SOL    HW139020   1.727   1.971  13.074  0.9792  2.5432  1.0158
 9187SOL    HW239021   1.586   2.024  13.094 -0.7614 -0.2629 -0.4577
 9188SOL     OW39022   2.467   2.435   6.341  0.1101 -0.1577 -0.5874
 9188SOL    HW139023   2.524   2.511   6.331  0.0119 -0.5385 -3.9173
 9188SOL    HW239024   2.460   2.445   6.436  1.8337 -0.0905 -0.4630
 9189SOL     OW39025   2.718   0.501   3.381  0.3439  0.3804 -0.8429
 9189SOL    HW139026   2.795   0.508   3.437  0.0864  1.3369 -0.6038
 9189SOL    HW239027   2.707   0.593   3.356 -1.0705  0.1174 -1.2072
 9190SOL     OW39028   1.776   1.230   5.323 -0.2646  0.6200 -0.4281
 9190SOL    HW139029   1.749   1.315   5.358 -1.1690  0.0557  0.2534
 9190SOL    HW239030   1.758   1.250   5.231 -1.4638 -1.4347 -0.6377
 9191SOL     OW39031   1.454   2.853   3.760 -0.0346 -0.0703 -0.1622
 9191SOL    HW139032   1.481   2.941   3.783  1.0363 -0.2906 -0.5336
 9191SOL    HW239033   1.451   2.858   3.664  1.1497 -0.9233 -0.2448
 9192SOL     OW39034   2.106   4.672  13.724  0.2402  0.4798  0.0584
 9192SOL    HW139035   2.152   4.658  13.806 -0.3551 -0.3633  0.2368
 9192SOL    HW239036   2.116   4.589  13.677 -2.6468  1.0275 -1.5596
 9193SOL     OW39037   0.821   3.751  10.740 -0.2689 -0.2971 -0.0426
 9193SOL    HW139038   0.834   3.760  10.646  0.1493 -3.4919 -0.3117
 9193SOL    HW239039   0.899   3.701  10.765 -0.3085  0.3320  1.3055
 9194SOL     OW39040   2.287   1.765  13.128  0.1835 -0.1117 -0.0955
 9194SOL    HW139041   2.301   1.679  13.168  0.3246  0.7544  1.7091
 9194SOL    HW239042   2.227   1.728  13.063  0.5578  0.1154 -0.5718
 9195SOL     OW39043   1.118   1.841   7.472  0.8392 -0.0021  0.2637
 9195SOL    HW139044   1.122   1.750   7.440 -0.2041  0.9383 -2.5697
 9195SOL    HW239045   1.111   1.893   7.392  0.1561 -1.2991 -0.5106
 9196SOL     OW39046   1.177   3.720   2.990 -0.3067 -0.0878 -0.1041
 9196SOL    HW139047   1.158   3.649   2.929 -1.7581  1.0614 -1.0167
 9196SOL    HW239048   1.085   3.748   2.989 -1.1063 -2.7734 -0.7627
 9197SOL     OW39049   0.474   2.805   4.819 -0.2843 -0.4326  0.1653
 9197SOL    HW139050   0.426   2.882   4.852  0.2727  1.0849 -2.5668
 9197SOL    HW239051   0.432   2.738   4.872 -1.6867 -1.1260 -1.8327
 9198SOL     OW39052   4.517   1.956   6.128  0.7584  0.3019  0.1384
 9198SOL    HW139053   4.600   1.992   6.100  0.5042 -0.4816 -1.6300
 9198SOL    HW239054   4.535   1.919   6.214 -2.2403  0.2980  0.7680
 9199SOL     OW39055   0.046   2.651  13.368 -0.4587 -0.7312  0.4759
 9199SOL    HW139056   0.101   2.724  13.395  1.5392 -1.9597 -0.2611
 9199SOL    HW239057   0.066   2.654  13.274 -0.4183  1.4511  0.5521
 9200SOL     OW39058   3.589   2.838   9.858 -0.9483 -0.8416  0.0847
 9200SOL    HW139059   3.592   2.923   9.815 -0.5233 -0.5380  0.7281
 9200SOL    HW239060   3.680   2.833   9.888 -1.0523 -0.7488  0.4113
 9201SOL     OW39061   3.792   1.636   6.084 -0.0963  0.7329 -0.4396
 9201SOL    HW139062   3.727   1.569   6.103 -0.0235  1.5257  2.5636
 9201SOL    HW239063   3.872   1.589   6.106 -1.4969 -0.3427  2.2831
 9202SOL     OW39064   0.076   1.900   8.696  0.3437 -0.3352 -0.2598
 9202SOL    HW139065   0.116   1.819   8.665 -0.1935 -0.8897  0.5201
 9202SOL    HW239066   4.709   1.881   8.664  0.7900  0.4017 -1.9326
 9203SOL     OW39067   2.715   3.954  13.327  0.1668 -0.3243  0.0773
 9203SOL    HW139068   2.638   3.959  13.270  1.7368 -1.8232 -2.1761
 9203SOL    HW239069   2.714   4.046  13.355  0.0066 -0.1235 -0.5776
 9204SOL     OW39070   0.185   4.578   5.387 -0.1737  0.2760 -0.5254
 9204SOL    HW139071   0.161   4.666   5.358 -1.0869  0.2171  0.0506
 9204SOL    HW239072   0.269   4.588   5.432 -0.5594  2.2176 -0.2443
 9205SOL     OW39073   2.293   3.561  15.109  0.0873  0.0262  0.2051
 9205SOL    HW139074   2.237   3.516  15.046 -1.5975 -0.0063  1.7110
 9205SOL    HW239075   2.379   3.558  15.068 -0.5306  1.2253 -1.1670
 9206SOL     OW39076   1.483   1.859   5.077  0.1502  0.0765 -0.1042
 9206SOL    HW139077   1.519   1.910   5.150 -1.2951 -0.0038  0.6730
 9206SOL    HW239078   1.450   1.787   5.132  0.8997  1.1080  1.7059
 9207SOL     OW39079   3.623   1.491   8.284 -0.4352  0.0185 -0.1594
 9207SOL    HW139080   3.674   1.532   8.354  3.0443 -0.3898 -2.4644
 9207SOL    HW239081   3.659   1.534   8.206  0.7476 -0.6103  0.0456
 9208SOL     OW39082   1.899   2.387   4.911  0.5931  0.0411 -0.5643
 9208SOL    HW139083   1.981   2.434   4.895 -0.6011  1.7818 -1.6292
 9208SOL    HW239084   1.938   2.301   4.895 -2.8835 -0.8999 -4.0757
 9209SOL     OW39085   3.766   1.142   2.577 -0.4240  0.2810  0.5242
 9209SOL    HW139086   3.830   1.078   2.608 -0.2502  1.0081  1.6596
 9209SOL    HW239087   3.786   1.115   2.487 -0.9144 -2.9799  1.4007
 9210SOL     OW39088   2.992   2.757   3.711 -0.4039 -0.7422  0.7833
 9210SOL    HW139089   3.067   2.711   3.747  1.1788  1.4784  0.3382
 9210SOL    HW239090   3.020   2.849   3.715 -0.3523 -0.6321 -1.9467
 9211SOL     OW39091   3.556   0.617  13.739 -0.4690 -0.1194  0.0551
 9211SOL    HW139092   3.567   0.711  13.756  1.0655 -0.2632 -0.1066
 9211SOL    HW239093   3.498   0.637  13.666  0.2062  0.3881 -0.3448
 9212SOL     OW39094   3.520   1.884   0.257  0.8497 -0.3753 -0.7372
 9212SOL    HW139095   3.583   1.812   0.255  0.1872 -0.9221 -1.8140
 9212SOL    HW239096   3.481   1.873   0.344 -0.0890 -1.4006 -1.2901
 9213SOL     OW39097   1.900   1.764   8.047  0.5676  0.1628 -0.1619
 9213SOL    HW139098   1.947   1.799   7.972 -1.2603 -0.6786 -1.7126
 9213SOL    HW239099   1.906   1.836   8.110  0.3597 -0.1963  0.2762
 9214SOL     OW39100   4.409   4.329   0.300 -0.1563 -0.0777  0.1371
 9214SOL    HW139101   4.483   4.269   0.304  0.6098  0.7090 -2.4821
 9214SOL    HW239102   4.449   4.416   0.307 -0.5193  0.0748  0.3261
 9215SOL     OW39103   0.067   0.575   6.766 -0.0746 -0.2861  0.0190
 9215SOL    HW139104   4.703   0.531   6.774 -0.0402 -0.6804 -1.8007
 9215SOL    HW239105   0.102   0.533   6.844 -0.0734 -0.2585  0.0330
 9216SOL     OW39106   3.971   2.443   2.777  0.0122 -0.5876  0.1151
 9216SOL    HW139107   3.953   2.469   2.687 -1.2868  0.1161  0.5928
 9216SOL    HW239108   3.983   2.349   2.761  0.5822 -0.0659 -2.5556
 9217SOL     OW39109   2.736   1.116   8.860  0.1591  0.1590  0.0218
 9217SOL    HW139110   2.662   1.165   8.825  0.6131  0.0146 -1.1238
 9217SOL    HW239111   2.771   1.190   8.910 -1.3101  1.3227 -0.6655
 9218SOL     OW39112   3.970   0.375   7.531 -0.0870 -1.2151  0.1147
 9218SOL    HW139113   3.939   0.378   7.441 -0.2598 -0.5836  0.1950
 9218SOL    HW239114   3.891   0.384   7.585 -0.8961  1.7518 -1.5657
 9219SOL     OW39115   1.967   0.951   7.631 -0.3536  0.4086  0.4679
 9219SOL    HW139116   2.000   0.886   7.569 -1.7976  0.8151 -0.7152
 9219SOL    HW239117   2.038   1.015   7.634  0.4648 -0.4681 -0.2233
 9220SOL     OW39118   0.210   4.277   7.893  0.9832  0.2503 -0.3853
 9220SOL    HW139119   0.128   4.230   7.878  0.5971  0.6222  0.5359
 9220SOL    HW239120   0.214   4.272   7.989  0.8419  0.6557 -0.3551
 9221SOL     OW39121   0.586   0.580  16.192  0.5684  0.3147  0.1116
 9221SOL    HW139122   0.582   0.663  16.241  0.4064 -0.2662  1.0969
 9221SOL    HW239123   0.524   0.598  16.121  0.1724 -0.7240  0.1858
 9222SOL     OW39124   1.809   3.790   8.168 -1.0129 -0.1118 -0.7815
 9222SOL    HW139125   1.765   3.866   8.128 -1.5761 -0.7578 -1.4031
 9222SOL    HW239126   1.890   3.824   8.205 -1.3817 -1.0962  0.8994
 9223SOL     OW39127   3.635   0.787   7.500  0.4499  0.0743 -0.2485
 9223SOL    HW139128   3.645   0.694   7.480 -0.3941  0.0878 -0.7461
 9223SOL    HW239129   3.687   0.828   7.430  0.4954 -0.5752 -0.5961
 9224SOL     OW39130   1.574   0.614   8.919  0.0502 -0.6095  0.4301
 9224SOL    HW139131   1.573   0.523   8.948 -1.6725 -1.3289 -1.8613
 9224SOL    HW239132   1.479   0.608   8.911  0.3087  0.3363 -3.3677
 9225SOL     OW39133   0.177   2.933   6.456 -0.1507 -0.2596 -0.2011
 9225SOL    HW139134   0.152   2.973   6.539  0.2081  0.4191 -0.4184
 9225SOL    HW239135   0.198   3.003   6.395  1.7454 -1.6352 -1.1267
 9226SOL     OW39136   2.173   0.749   3.859  0.3195  0.1143 -0.3248
 9226SOL    HW139137   2.174   0.789   3.946  1.1924  1.2459 -0.8573
 9226SOL    HW239138   2.181   0.822   3.798 -1.0103  0.0039 -0.6272
 9227SOL     OW39139   1.241   2.670  14.192 -0.4321 -0.4195  0.1366
 9227SOL    HW139140   1.314   2.675  14.131 -0.1610  1.3325  0.5892
 9227SOL    HW239141   1.281   2.686  14.277 -2.5684  1.4866  0.7865
 9228SOL     OW39142   4.324   0.322   5.470 -0.0277  0.3055 -0.3694
 9228SOL    HW139143   4.389   0.256   5.446 -2.2376 -3.1204  3.1290
 9228SOL    HW239144   4.264   0.323   5.395  0.6679 -1.0649 -0.9370
 9229SOL     OW39145   3.046   4.090   3.910 -0.4408 -0.0646 -0.5987
 9229SOL    HW139146   3.038   4.096   3.814  2.8141 -0.8197 -0.8967
 9229SOL    HW239147   3.140   4.109   3.911 -0.4947  0.1763 -0.1854
 9230SOL     OW39148   1.543   2.453  11.366 -0.2989 -0.0130  0.0124
 9230SOL    HW139149   1.511   2.500  11.443 -0.2718 -0.9439  0.5955
 9230SOL    HW239150   1.493   2.501  11.301  0.3092  1.7986  0.8644
 9231SOL     OW39151   0.065   3.662   0.817  0.4272 -0.3608  1.1314
 9231SOL    HW139152   0.113   3.649   0.735 -2.7768 -0.1779 -0.7560
 9231SOL    HW239153   4.713   3.601   0.803 -1.6605  2.9466 -2.4633
 9232SOL     OW39154   1.888   0.169   9.641  0.1484 -0.2178  0.4471
 9232SOL    HW139155   1.929   0.102   9.586 -2.4936 -1.4897  0.0114
 9232SOL    HW239156   1.900   0.122   9.723  2.0360  1.1439  0.9575
 9233SOL     OW39157   4.450   0.421  17.243 -0.0060  0.0320  0.3159
 9233SOL    HW139158   4.359   0.441  17.220 -0.0141  0.0148  0.3332
 9233SOL    HW239159   4.451   0.327  17.262 -0.2134  0.2167  1.2683
 9234SOL     OW39160   3.627   0.422  16.080  0.7052  0.5792  0.0671
 9234SOL    HW139161   3.691   0.387  16.018 -0.0271 -0.1314 -0.2994
 9234SOL    HW239162   3.544   0.400  16.036  1.4163 -0.0996 -0.9401
 9235SOL     OW39163   3.992   1.893   7.361 -0.6964  0.4435 -0.0801
 9235SOL    HW139164   3.991   1.954   7.435 -0.0435  1.2727 -0.7567
 9235SOL    HW239165   3.980   1.956   7.290 -1.6544  1.5686  1.0748
 9236SOL     OW39166   2.563   2.140   6.494  0.1655  0.5842 -0.4156
 9236SOL    HW139167   2.625   2.206   6.463 -0.4957  1.4435  0.0917
 9236SOL    HW239168   2.585   2.072   6.431  0.4565 -0.1411  0.4710
 9237SOL     OW39169   3.249   0.167   6.179  0.1889  0.1594  0.1101
 9237SOL    HW139170   3.292   0.248   6.207 -2.7027  1.8265 -0.2592
 9237SOL    HW239171   3.296   0.157   6.096  1.9739 -0.5574  1.1958
 9238SOL     OW39172   2.515   2.531  12.617  0.1521  0.3147 -0.7066
 9238SOL    HW139173   2.551   2.487  12.540 -0.6289 -0.2251 -0.7535
 9238SOL    HW239174   2.463   2.460  12.655 -0.2620  1.0255  0.0789
 9239SOL     OW39175   3.097   2.086  17.345  1.0026 -0.2297 -0.5012
 9239SOL    HW139176   3.109   2.035  17.425  2.1493 -0.2687 -0.7027
 9239SOL    HW239177   3.029   2.146  17.379  2.2068  0.6381  0.3724
 9240SOL     OW39178   2.098   1.878   1.437  0.5003 -0.6304 -0.5563
 9240SOL    HW139179   2.005   1.864   1.417 -0.0598  1.7658  0.3393
 9240SOL    HW239180   2.123   1.786   1.428 -0.9361 -0.9076 -1.7127
 9241SOL     OW39181   0.601   2.149  15.309  0.3458 -0.1490  0.3657
 9241SOL    HW139182   0.648   2.204  15.372 -1.4199  0.3708  1.2336
 9241SOL    HW239183   0.542   2.214  15.270 -0.2651 -0.7391  0.3054
 9242SOL     OW39184   2.830   2.179   4.604  0.1724  0.0940 -0.3529
 9242SOL    HW139185   2.763   2.150   4.665 -1.4232 -0.2515 -2.2484
 9242SOL    HW239186   2.806   2.126   4.528 -1.8305  0.3229  0.1303
 9243SOL     OW39187   1.828   1.232   7.490 -0.0319 -0.3120  0.0897
 9243SOL    HW139188   1.842   1.204   7.580  0.4959  1.0155  0.4345
 9243SOL    HW239189   1.903   1.292   7.485 -0.8535  0.8588  1.6096
 9244SOL     OW39190   1.115   0.001   6.473  0.8081 -0.2235 -0.6695
 9244SOL    HW139191   1.192   4.697   6.524  1.1492 -1.0377 -1.5638
 9244SOL    HW239192   1.047   4.717   6.541  1.4866 -3.0627 -0.1969
 9245SOL     OW39193   4.679   1.756   5.068  0.1516 -0.0537  0.1216
 9245SOL    HW139194   4.602   1.750   5.125  0.1336 -3.0335 -0.2121
 9245SOL    HW239195   0.011   1.686   5.107 -0.1977 -0.3295  0.0974
 9246SOL     OW39196   1.145   0.401   4.089 -0.1427  0.1990 -0.6812
 9246SOL    HW139197   1.077   0.407   4.156  0.7875 -0.0134  0.2771
 9246SOL    HW239198   1.218   0.389   4.150  0.4675  3.4397 -0.7622
 9247SOL     OW39199   4.099   0.079  15.823 -0.1903  0.5362  0.0961
 9247SOL    HW139200   4.113   4.704  15.826  3.5130  1.0453 -1.3879
 9247SOL    HW239201   4.044   0.092  15.901 -0.3386 -1.7331  0.3727
 9248SOL     OW39202   1.553   0.792   5.891  0.1080 -0.3582 -0.1823
 9248SOL    HW139203   1.493   0.759   5.824 -1.3366  0.9868  0.4359
 9248SOL    HW239204   1.503   0.779   5.971 -1.6319  2.6737 -0.7816
 9249SOL     OW39205   3.363   1.468   2.252  0.5185  0.1006  0.1219
 9249SOL    HW139206   3.429   1.533   2.227 -0.2913  1.0336  0.3988
 9249SOL    HW239207   3.394   1.397   2.195  1.3622 -0.5257  1.3660
 9250SOL     OW39208   3.277   1.772   7.719 -0.1106  0.1557  0.2202
 9250SOL    HW139209   3.253   1.837   7.785 -0.0226  0.2870  0.1232
 9250SOL    HW239210   3.186   1.752   7.695  0.6041 -0.8298 -1.6456
 9251SOL     OW39211   3.910   0.805   2.909 -0.0312 -0.0887 -0.2458
 9251SOL    HW139212   3.916   0.893   2.946 -0.4233 -0.6962  1.2383
 9251SOL    HW239213   3.966   0.755   2.969 -0.0105 -1.5158 -1.4494
 9252SOL     OW39214   4.158   3.327  13.623 -0.4659  0.1050  0.1824
 9252SOL    HW139215   4.232   3.309  13.681 -0.9216  1.2925  1.1144
 9252SOL    HW239216   4.087   3.347  13.683 -0.9045  0.0869 -0.3355
 9253SOL     OW39217   0.864   0.736   1.595 -0.4099 -0.4132  0.0611
 9253SOL    HW139218   0.864   0.645   1.565 -1.3476 -0.3415 -0.1458
 9253SOL    HW239219   0.937   0.767   1.541 -0.2692 -1.5573 -0.3994
 9254SOL     OW39220   2.607   0.803   2.005 -0.5801 -1.1172 -1.1202
 9254SOL    HW139221   2.517   0.793   1.972 -0.2358 -0.8893 -2.1440
 9254SOL    HW239222   2.634   0.713   2.020  2.2132  0.1428  1.2508
 9255SOL     OW39223   0.165   2.917  14.620  0.0004 -0.3275  0.1775
 9255SOL    HW139224   0.099   2.984  14.604 -1.5185 -1.0150  3.5674
 9255SOL    HW239225   0.139   2.857  14.549 -0.4005  0.7681 -0.5937
 9256SOL     OW39226   1.487   0.922   0.222  0.1132 -0.6547 -0.6105
 9256SOL    HW139227   1.432   0.967   0.286 -2.6252 -3.3830 -1.0396
 9256SOL    HW239228   1.506   0.845   0.275 -0.0667  0.1212  0.5955
 9257SOL     OW39229   0.858   1.038   5.927  0.3086 -0.0530  0.8634
 9257SOL    HW139230   0.856   0.957   5.977  0.5491 -1.0014 -0.6542
 9257SOL    HW239231   0.895   1.101   5.989  2.1154 -0.4232  0.1596
 9258SOL     OW39232   4.231   3.560   7.518  0.5415 -0.3478 -0.0863
 9258SOL    HW139233   4.232   3.609   7.436 -0.0733  1.2462  0.8566
 9258SOL    HW239234   4.158   3.605   7.560  2.2919  2.4192  0.0132
 9259SOL     OW39235   3.754   2.084   0.076  0.3446 -0.6640 -0.2535
 9259SOL    HW139236   3.749   2.081   0.172 -2.2864  0.1964 -0.3904
 9259SOL    HW239237   3.761   1.991   0.054  2.1421 -0.6576  0.2847
 9260SOL     OW39238   0.951   0.023   6.671 -0.2550  0.4014  0.0371
 9260SOL    HW139239   0.989   0.070   6.745 -0.2611  0.9589 -0.3137
 9260SOL    HW239240   0.873   4.717   6.719 -0.3133 -1.2611 -0.9664
 9261SOL     OW39241   0.823   1.289   4.896  0.1646 -0.0874 -0.2650
 9261SOL    HW139242   0.897   1.344   4.872 -0.3079  0.3353 -0.7815
 9261SOL    HW239243   0.784   1.283   4.808 -0.2412  0.3027 -0.1102
 9262SOL     OW39244   4.123   1.381   9.751  0.2427  0.3124  0.1087
 9262SOL    HW139245   4.158   1.312   9.807 -1.7513 -0.9978 -0.2663
 9262SOL    HW239246   4.112   1.452   9.815  3.4677  0.4975  0.4389
 9263SOL     OW39247   4.408   2.858  10.735  0.0590 -0.3869  0.2114
 9263SOL    HW139248   4.398   2.951  10.718 -2.1927 -1.1876 -2.7223
 9263SOL    HW239249   4.377   2.819  10.653 -1.3916 -2.5205  1.7817
 9264SOL     OW39250   3.515   1.585   8.732  0.1300  0.7793 -0.0057
 9264SOL    HW139251   3.452   1.613   8.798  0.6113 -0.2365  0.8845
 9264SOL    HW239252   3.484   1.495   8.719  2.1581 -0.0425  0.7956
 9265SOL     OW39253   3.640   3.465  15.952 -0.3071  0.2836  0.5377
 9265SOL    HW139254   3.552   3.458  15.912 -0.7374  0.6919  1.4171
 9265SOL    HW239255   3.622   3.524  16.025  0.7366 -1.8302  2.4904
 9266SOL     OW39256   1.730   0.465   7.290 -0.3163 -0.1627 -0.0152
 9266SOL    HW139257   1.806   0.447   7.346 -1.3881 -2.5788  0.6397
 9266SOL    HW239258   1.684   0.533   7.338 -2.1435 -2.2306  1.1418
 9267SOL     OW39259   1.214   3.105  14.734  0.1419 -0.2301  0.6606
 9267SOL    HW139260   1.240   3.147  14.652 -3.5851 -0.7455 -0.7737
 9267SOL    HW239261   1.241   3.016  14.712  3.6371  0.9836  0.0616
 9268SOL     OW39262   4.130   1.529  15.058 -0.2153  0.4127 -0.4520
 9268SOL    HW139263   4.185   1.462  15.018 -0.8383  0.0327 -0.6760
 9268SOL    HW239264   4.193   1.532  15.130 -0.8896 -1.3909  0.2280
 9269SOL     OW39265   3.251   3.367  15.490  0.2206 -0.2643  0.1386
 9269SOL    HW139266   3.230   3.284  15.448  1.6756  1.1383 -3.3938
 9269SOL    HW239267   3.330   3.380  15.438 -0.6072 -0.4321 -1.1595
 9270SOL     OW39268   1.047   0.819   7.972 -0.1857  0.3043  0.4847
 9270SOL    HW139269   1.097   0.738   7.980 -0.9152 -0.1170  0.8564
 9270SOL    HW239270   0.975   0.807   8.034  0.4889 -3.3082  0.5973
 9271SOL     OW39271   1.697   2.666  16.745 -0.5821  0.2410 -0.1613
 9271SOL    HW139272   1.737   2.739  16.793  0.9938  0.7417 -2.2504
 9271SOL    HW239273   1.619   2.650  16.797 -2.2877  1.4668 -2.3813
 9272SOL     OW39274   3.752   0.528   4.443  0.5370 -0.0594  0.7200
 9272SOL    HW139275   3.813   0.476   4.391 -0.0066 -1.3840  1.3961
 9272SOL    HW239276   3.717   0.576   4.368  0.1816 -1.5210 -0.0591
 9273SOL     OW39277   0.811   3.444   0.529 -0.1779  0.4681  0.3690
 9273SOL    HW139278   0.765   3.442   0.613 -2.3251  3.0658 -0.7177
 9273SOL    HW239279   0.865   3.365   0.534 -4.4361 -2.2848  2.3747
 9274SOL     OW39280   2.129   4.008   3.405  0.3928  0.4054 -0.0376
 9274SOL    HW139281   2.181   3.947   3.352 -0.3136  1.7109 -2.2387
 9274SOL    HW239282   2.118   4.083   3.347  1.5047 -0.9584 -1.9863
 9275SOL     OW39283   2.920   4.555   4.704 -0.4622 -0.5631  0.3987
 9275SOL    HW139284   2.883   4.467   4.709 -0.8147 -0.5117 -1.2884
 9275SOL    HW239285   2.956   4.554   4.793 -3.2757  1.3853  1.5327
 9276SOL     OW39286   3.090   0.351  10.962  0.2351  0.7177  0.4801
 9276SOL    HW139287   3.144   0.296  11.020 -1.1418 -0.9263  0.2002
 9276SOL    HW239288   3.134   0.436  10.966 -0.1173  0.8599  1.2483
 9277SOL     OW39289   0.909   3.785   4.424  0.4900  0.4195 -0.0195
 9277SOL    HW139290   0.877   3.737   4.501  0.1279  1.6478  0.5917
 9277SOL    HW239291   0.953   3.862   4.461  0.3789 -1.4572  4.0594
 9278SOL     OW39292   0.165   1.758   4.228  0.0075  0.0344  0.0172
 9278SOL    HW139293   0.160   1.767   4.132 -1.9178 -2.2742 -0.1317
 9278SOL    HW239294   0.157   1.850   4.253 -3.7600 -0.4008  0.4115
 9279SOL     OW39295   1.407   1.527   7.239  0.1289 -0.5571  0.1575
 9279SOL    HW139296   1.474   1.590   7.264  0.2000 -0.6199  0.1237
 9279SOL    HW239297   1.464   1.450   7.247  0.4254 -0.4040 -0.5486
 9280SOL     OW39298   2.393   3.997   4.456  0.8023  0.1679  0.3191
 9280SOL    HW139299   2.303   4.029   4.442 -0.2892 -3.2304 -0.4126
 9280SOL    HW239300   2.421   4.048   4.532 -0.6700 -0.3338  1.1963
 9281SOL     OW39301   4.299   2.690   8.811 -0.1484  0.5736  0.0502
 9281SOL    HW139302   4.394   2.690   8.824 -0.0090 -0.9607 -0.9911
 9281SOL    HW239303   4.282   2.784   8.812  3.1511  1.1687  0.6398
 9282SOL     OW39304   4.575   0.168   1.610 -0.5188 -0.0251  0.2784
 9282SOL    HW139305   4.657   0.119   1.618 -1.5469 -1.6519  0.8260
 9282SOL    HW239306   4.593   0.245   1.663 -0.2989 -0.1355  0.3647
 9283SOL     OW39307   3.296   1.262   0.426 -0.1207 -0.3443 -0.0063
 9283SOL    HW139308   3.357   1.317   0.376  0.7867 -0.6796  0.7253
 9283SOL    HW239309   3.265   1.204   0.358 -2.1062  0.9150 -0.1619
 9284SOL     OW39310   1.381   3.911   8.384  0.1262 -0.5931  0.2010
 9284SOL    HW139311   1.443   3.884   8.452  0.1994  2.3104  1.2615
 9284SOL    HW239312   1.403   3.855   8.309  0.1768 -2.3417  1.5104
 9285SOL     OW39313   0.392   4.285   6.890  0.5386  0.4639  0.1044
 9285SOL    HW139314   0.382   4.201   6.934  0.2764 -0.4464 -1.7045
 9285SOL    HW239315   0.482   4.286   6.857  1.3507 -1.4371  2.2567
 9286SOL     OW39316   0.520   2.605  14.589  1.1082 -1.0140 -0.1684
 9286SOL    HW139317   0.456   2.612  14.660  1.9200 -0.0082  0.4658
 9286SOL    HW239318   0.596   2.592  14.647  0.4535 -1.4370  0.5879
 9287SOL     OW39319   1.654   1.354   0.698 -0.7372 -0.1826 -0.7459
 9287SOL    HW139320   1.706   1.432   0.718 -1.4241  0.2526 -0.6546
 9287SOL    HW239321   1.561   1.378   0.698 -0.8788 -0.6538  1.9558
 9288SOL     OW39322   3.646   3.495   9.452 -0.2160 -0.3141 -0.0305
 9288SOL    HW139323   3.639   3.551   9.374 -0.8380 -1.1745 -0.5957
 9288SOL    HW239324   3.666   3.556   9.524 -0.4782  0.9251 -0.9971
 9289SOL     OW39325   1.234   2.940   4.436  0.0303 -0.3834 -0.0871
 9289SOL    HW139326   1.230   2.885   4.514 -1.4427  1.3135  1.0244
 9289SOL    HW239327   1.184   2.877   4.382  0.7735  0.4875 -1.7917
 9290SOL     OW39328   0.005   2.802   6.279 -0.0685  0.0673  0.2413
 9290SOL    HW139329   0.069   2.821   6.348 -0.0077  0.0701  0.1847
 9290SOL    HW239330   0.035   2.713   6.260  0.5218  0.0384  1.2974
 9291SOL     OW39331   0.647   3.940   5.797 -0.0569 -0.1087  0.1927
 9291SOL    HW139332   0.563   3.894   5.798  0.6119 -1.3056  1.8404
 9291SOL    HW239333   0.644   4.008   5.864  2.3058 -0.9091  1.1205
 9292SOL     OW39334   2.141   2.760   0.263 -0.1439 -0.3003  0.1831
 9292SOL    HW139335   2.134   2.705   0.185  1.0309  1.2577 -1.0394
 9292SOL    HW239336   2.212   2.728   0.318 -3.1117 -2.2508  2.8115
 9293SOL     OW39337   0.021   3.615   0.310  0.2280 -0.6048 -0.3518
 9293SOL    HW139338   4.684   3.692   0.304  0.7105 -0.3731 -1.9783
 9293SOL    HW239339   0.057   3.624   0.398 -0.2930  1.6518 -0.3562
 9294SOL     OW39340   1.356   1.361  16.595  0.3673 -0.5754  0.3243
 9294SOL    HW139341   1.318   1.321  16.517  1.0066  0.5613 -0.5552
 9294SOL    HW239342   1.291   1.366  16.666 -1.2238  0.3605 -1.2039
 9295SOL     OW39343   3.525   2.439   5.176 -0.8966  0.4885 -0.6271
 9295SOL    HW139344   3.584   2.511   5.198  1.6170 -1.4255 -1.1928
 9295SOL    HW239345   3.520   2.450   5.081  0.1636 -0.6689 -0.8097
 9296SOL     OW39346   0.057   1.388  13.077 -0.0666 -0.1091  0.2957
 9296SOL    HW139347   0.012   1.464  13.039 -0.4865 -0.0962  0.8167
 9296SOL    HW239348   0.145   1.421  13.061 -0.2401  0.6468  0.9227
 9297SOL     OW39349   3.862   0.362   1.889  0.5743 -0.0831  0.3115
 9297SOL    HW139350   3.871   0.442   1.941 -1.3014 -1.8082  3.2530
 9297SOL    HW239351   3.767   0.363   1.880  0.6162 -1.0633 -0.2179
 9298SOL     OW39352   1.662   2.068  11.782 -0.0596 -0.1255 -0.4775
 9298SOL    HW139353   1.725   1.999  11.802 -0.5980  0.0161  1.6744
 9298SOL    HW239354   1.671   2.061  11.687 -0.0759 -0.5530 -0.4478
 9299SOL     OW39355   0.258   1.809   9.729 -0.0266 -0.6547  0.4180
 9299SOL    HW139356   0.194   1.784   9.796 -1.0184 -0.0072 -0.2778
 9299SOL    HW239357   0.246   1.739   9.665  1.1049  0.9181 -1.5076
 9300SOL     OW39358   1.299   3.757   3.236 -0.5479 -0.3107  0.3861
 9300SOL    HW139359   1.248   3.746   3.156 -1.7156 -1.2931  1.2718
 9300SOL    HW239360   1.244   3.720   3.305  0.7735  0.8309  2.0376
 9301SOL     OW39361   3.921   2.700  14.080 -0.7557  0.4458 -1.0808
 9301SOL    HW139362   3.945   2.661  14.164 -0.5816 -0.8970 -1.7538
 9301SOL    HW239363   3.920   2.613  14.039  1.2075 -0.0499 -0.0949
 9302SOL     OW39364   2.537   3.274   5.069 -0.2209 -0.3208  0.1123
 9302SOL    HW139365   2.588   3.199   5.100  1.1645 -0.0867 -1.5491
 9302SOL    HW239366   2.455   3.227   5.056 -0.5235  0.7343 -1.7611
 9303SOL     OW39367   3.264   4.509   5.501 -0.3371 -0.2564 -0.1416
 9303SOL    HW139368   3.223   4.423   5.505 -0.5805 -0.0522  1.6787
 9303SOL    HW239369   3.341   4.482   5.450 -1.2903 -1.6400 -0.8566
 9304SOL     OW39370   4.656   2.191   2.349 -0.2627 -0.2649  0.5445
 9304SOL    HW139371   4.584   2.161   2.294 -0.3624  0.3544  0.3315
 9304SOL    HW239372   4.638   2.142   2.429 -1.1923 -2.1114 -0.7903
 9305SOL     OW39373   3.713   3.622  11.534  1.0580 -0.4174 -0.1996
 9305SOL    HW139374   3.673   3.608  11.448  0.8368  1.5139 -0.4188
 9305SOL    HW239375   3.656   3.692  11.565  2.9625  0.8340  0.4441
 9306SOL     OW39376   0.603   1.133   5.513 -0.0740  0.3754 -0.2564
 9306SOL    HW139377   0.595   1.191   5.437  2.3525  2.7062  1.2609
 9306SOL    HW239378   0.689   1.094   5.494 -1.2757 -1.6998 -1.4216
 9307SOL     OW39379   1.906   2.203   4.467  0.5408  0.1724 -0.5410
 9307SOL    HW139380   1.872   2.265   4.403 -1.1334 -0.0766  0.1102
 9307SOL    HW239381   1.907   2.126   4.409  1.0817  1.1220 -1.7867
 9308SOL     OW39382   1.318   2.189   4.117  0.3417  0.3209 -0.3856
 9308SOL    HW139383   1.311   2.214   4.209  2.3974  1.7973 -0.6443
 9308SOL    HW239384   1.244   2.234   4.076 -0.9493  0.0981  1.7441
 9309SOL     OW39385   1.593   0.823   8.289 -0.4461 -0.3697 -0.7684
 9309SOL    HW139386   1.584   0.918   8.300  1.9711 -0.3993  1.3126
 9309SOL    HW239387   1.503   0.792   8.280 -0.1201 -1.4529 -0.3641
 9310SOL     OW39388   2.520   1.632   5.682 -0.2822 -0.2034 -0.4717
 9310SOL    HW139389   2.486   1.706   5.732 -2.0523 -1.4654  0.1774
 9310SOL    HW239390   2.557   1.581   5.754 -0.2382 -0.0449 -0.3807
 9311SOL     OW39391   0.595   4.082   2.545  0.3593  0.0876  0.4118
 9311SOL    HW139392   0.542   4.010   2.580  0.7346 -0.5416 -0.3141
 9311SOL    HW239393   0.542   4.161   2.556 -1.2180 -1.0827  1.2526
 9312SOL     OW39394   3.145   0.548   6.107 -0.8392 -0.5700 -0.5188
 9312SOL    HW139395   3.082   0.581   6.171 -1.9065 -1.6301 -1.0083
 9312SOL    HW239396   3.178   0.634   6.081 -0.5401 -0.5034  0.0955
 9313SOL     OW39397   3.981   1.561   8.300 -0.6494  0.3031  0.2570
 9313SOL    HW139398   4.013   1.504   8.371  0.4223 -0.1489 -0.5725
 9313SOL    HW239399   3.986   1.497   8.229  0.2888 -0.2165  0.7920
 9314SOL     OW39400   0.465   1.604  11.875 -0.2494  0.3410  0.0687
 9314SOL    HW139401   0.479   1.576  11.966  0.6675 -2.3449 -0.9181
 9314SOL    HW239402   0.478   1.699  11.885  0.4354  0.3345 -0.7455
 9315SOL     OW39403   3.401   3.794  13.519  0.5398  0.6905  0.5660
 9315SOL    HW139404   3.409   3.873  13.573  1.1777  0.1194  1.3095
 9315SOL    HW239405   3.312   3.767  13.542  1.5115 -1.9789  1.1642
 9316SOL     OW39406   4.570   2.107   6.973  0.9479 -0.0904  0.3686
 9316SOL    HW139407   4.629   2.035   6.949 -1.1493 -1.7040  0.1037
 9316SOL    HW239408   4.495   2.052   6.993 -1.1973  2.3288 -1.0046
 9317SOL     OW39409   0.984   2.709   5.853 -0.6104  0.0836 -0.1102
 9317SOL    HW139410   1.007   2.707   5.760  2.7646  0.2964  0.7292
 9317SOL    HW239411   0.972   2.803   5.869 -1.3448 -0.3304  1.7209
 9318SOL     OW39412   2.198   3.791   7.041 -0.4207 -0.4993  0.1700
 9318SOL    HW139413   2.169   3.738   6.966  1.2256 -1.2906  0.0903
 9318SOL    HW239414   2.117   3.840   7.056  0.8424  0.6907  3.2021
 9319SOL     OW39415   4.035   3.621   8.357  0.1617 -0.3492 -0.3274
 9319SOL    HW139416   4.101   3.616   8.427 -0.7506 -0.5055  0.5126
 9319SOL    HW239417   3.961   3.627   8.417  2.0938  3.6380  1.6331
 9320SOL     OW39418   2.370   0.183  12.679  0.5349  0.1025 -0.2582
 9320SOL    HW139419   2.414   0.107  12.641  2.0417 -0.1175  1.9659
 9320SOL    HW239420   2.279   0.154  12.684  0.3319  0.8197  0.1840
 9321SOL     OW39421   4.049   1.229   3.839  0.2087  0.5598  0.0617
 9321SOL    HW139422   4.068   1.294   3.772  2.3787  2.1182  2.1900
 9321SOL    HW239423   4.044   1.156   3.778  2.1492 -0.0929  0.6821
 9322SOL     OW39424   3.080   1.638  15.317  0.2939  0.2433 -0.1338
 9322SOL    HW139425   3.106   1.547  15.309 -0.7524  0.0016 -0.9135
 9322SOL    HW239426   3.034   1.632  15.233 -0.6004  0.3539  0.3511
 9323SOL     OW39427   2.577   2.891  11.304  0.1862  0.3598 -0.2322
 9323SOL    HW139428   2.631   2.853  11.236  2.6698  0.8502  1.4804
 9323SOL    HW239429   2.581   2.985  11.283  0.1415  0.3966 -0.0774
 9324SOL     OW39430   0.156   0.412   6.998 -0.1977  0.1077 -0.7250
 9324SOL    HW139431   0.084   0.430   7.058 -1.9225  0.8962 -3.0232
 9324SOL    HW239432   0.194   0.328   7.026  0.2235  0.5960  0.1561
 9325SOL     OW39433   0.709   0.201  12.480 -0.7879  0.2580  0.1247
 9325SOL    HW139434   0.759   0.281  12.464 -2.4851  1.2892 -0.0772
 9325SOL    HW239435   0.677   0.206  12.390  1.0270 -1.9518 -0.6220
 9326SOL     OW39436   0.911   0.719   7.062 -0.1637  0.1643  0.0288
 9326SOL    HW139437   0.815   0.716   7.067 -0.2537  0.2709 -1.7391
 9326SOL    HW239438   0.918   0.744   7.154 -0.2454  1.7888 -0.4104
 9327SOL     OW39439   1.641   0.311   8.026 -0.2050  0.4466 -0.1787
 9327SOL    HW139440   1.721   0.339   8.072  0.0620 -2.2165  0.9801
 9327SOL    HW239441   1.651   0.332   7.933 -0.1918  0.6766 -0.1264
 9328SOL     OW39442   2.066   0.152   3.573 -0.0644  0.8559 -0.0252
 9328SOL    HW139443   2.139   0.213   3.574 -2.7821  4.1386  0.1154
 9328SOL    HW239444   1.995   0.214   3.555 -0.6570 -0.0648 -0.8393
 9329SOL     OW39445   0.740   3.490  13.492  0.2234 -0.1925  0.2886
 9329SOL    HW139446   0.753   3.484  13.586 -2.1063 -1.5564  0.5230
 9329SOL    HW239447   0.647   3.513  13.493  0.1822 -0.2623 -2.5580
 9330SOL     OW39448   4.177   1.311   2.224 -0.2627  0.1291 -0.0710
 9330SOL    HW139449   4.136   1.394   2.201 -0.2527  0.3457  0.7260
 9330SOL    HW239450   4.146   1.257   2.151  3.0140  0.8592 -2.0396
 9331SOL     OW39451   1.650   4.200   4.602  0.3459 -0.3850 -0.4032
 9331SOL    HW139452   1.595   4.213   4.525 -1.2751 -0.2570  0.7643
 9331SOL    HW239453   1.728   4.254   4.590  1.5553 -1.7597  1.2398
 9332SOL     OW39454   1.117   2.898   8.816  0.2634  0.5097 -0.2675
 9332SOL    HW139455   1.198   2.913   8.767 -0.0837 -1.1730 -1.3740
 9332SOL    HW239456   1.144   2.835   8.882 -0.9941  0.7636  0.4934
 9333SOL     OW39457   3.887   2.016   9.799  0.0398  0.1215  0.1504
 9333SOL    HW139458   3.934   1.940   9.834  0.2753  0.8449  1.3876
 9333SOL    HW239459   3.846   2.040   9.882 -1.7317  1.1178 -1.0221
 9334SOL     OW39460   3.118   4.569   8.560  0.1608  0.2192  0.2173
 9334SOL    HW139461   3.095   4.477   8.555 -0.2469  0.1931  2.2815
 9334SOL    HW239462   3.063   4.601   8.632 -1.0957  0.5109 -0.8669
 9335SOL     OW39463   3.271   0.525   1.856  0.0108 -0.3976  0.5441
 9335SOL    HW139464   3.202   0.481   1.806  0.8631  0.0729 -1.0611
 9335SOL    HW239465   3.339   0.469   1.817 -2.2792 -2.9640  0.2023
 9336SOL     OW39466   0.091   1.383   2.267  0.5035  0.7155  0.1229
 9336SOL    HW139467   0.016   1.325   2.279 -0.8217  2.1475 -1.3753
 9336SOL    HW239468   0.048   1.443   2.207 -0.2380  1.3095  1.2511
 9337SOL     OW39469   0.100   0.300  11.445  0.0071 -0.2394  0.8094
 9337SOL    HW139470   0.131   0.210  11.447 -2.9109 -1.2758 -0.3736
 9337SOL    HW239471   0.174   0.348  11.482 -0.0403 -0.8254  1.6610
 9338SOL     OW39472   3.533   4.159   8.997 -0.9059 -0.3413  0.2726
 9338SOL    HW139473   3.610   4.210   9.019 -0.1369 -0.7960 -1.3249
 9338SOL    HW239474   3.508   4.190   8.910 -0.7183  1.9795  1.0540
 9339SOL     OW39475   2.613   4.155  10.751 -0.5767  0.0919 -0.3414
 9339SOL    HW139476   2.650   4.067  10.758 -0.2047  0.4600  2.1405
 9339SOL    HW239477   2.660   4.175  10.669  1.1948 -3.5717 -0.2117
 9340SOL     OW39478   2.178   0.098   7.591 -0.1469 -0.0378 -0.3745
 9340SOL    HW139479   2.210   0.188   7.594 -0.1058 -0.0798  0.2801
 9340SOL    HW239480   2.255   0.043   7.606 -2.3084 -3.2959 -1.1656
 9341SOL     OW39481   2.481   4.612   2.945 -0.6374  0.0892  1.0174
 9341SOL    HW139482   2.483   4.679   3.013  1.1819  1.1497 -0.0723
 9341SOL    HW239483   2.527   4.540   2.988 -0.6388 -0.1228  0.6630
 9342SOL     OW39484   3.122   0.115   7.077 -0.4072  0.5161 -0.1328
 9342SOL    HW139485   3.064   0.039   7.083  0.6288 -0.5527 -3.4000
 9342SOL    HW239486   3.101   0.145   6.989 -0.4150 -0.5722 -0.5047
 9343SOL     OW39487   4.323   4.034   4.924 -0.1475  0.5743 -0.2819
 9343SOL    HW139488   4.288   4.120   4.945  1.2277  0.8466  0.9215
 9343SOL    HW239489   4.328   3.980   5.003  2.1178 -1.0521 -1.5092
 9344SOL     OW39490   0.340   3.157   9.333  0.3744 -0.3832  0.7733
 9344SOL    HW139491   0.408   3.091   9.346 -0.2661 -0.7405  2.3411
 9344SOL    HW239492   0.359   3.211   9.410  0.3763 -0.8765  1.1227
 9345SOL     OW39493   3.028   0.225  11.265  0.0383 -0.1654  0.3439
 9345SOL    HW139494   2.941   0.195  11.290  0.5799 -0.3486  1.9667
 9345SOL    HW239495   3.045   0.172  11.187 -2.5740 -1.6090  0.7470
 9346SOL     OW39496   4.354   1.201   0.839  0.2317 -0.2993 -0.3458
 9346SOL    HW139497   4.447   1.210   0.859 -0.1853  1.7789  0.7015
 9346SOL    HW239498   4.314   1.269   0.894  1.8988 -0.0835  0.6131
 9347SOL     OW39499   0.066   1.333   8.479  0.5517 -0.8064  0.2950
 9347SOL    HW139500   0.022   1.409   8.441  0.7805 -0.4250  0.8042
 9347SOL    HW239501   0.013   1.262   8.442  0.6253  0.6203 -2.6157
 9348SOL     OW39502   1.422   1.462   5.571  0.0307 -0.2988  0.1328
 9348SOL    HW139503   1.372   1.442   5.491 -1.2299 -0.7114  1.0254
 9348SOL    HW239504   1.358   1.433   5.635 -0.2225  1.3002  0.6059
 9349SOL     OW39505   1.263   3.695   7.142 -0.2287 -0.4696  0.5704
 9349SOL    HW139506   1.192   3.704   7.206 -0.0452  0.8795  0.5683
 9349SOL    HW239507   1.211   3.731   7.071 -0.3142  0.2858  1.0161
 9350SOL     OW39508   2.677   2.907   9.984 -0.8486 -0.0259  0.4287
 9350SOL    HW139509   2.683   2.816   9.955  1.6340  1.0608 -2.4232
 9350SOL    HW239510   2.589   2.938   9.962 -1.5488 -2.9019 -0.8331
 9351SOL     OW39511   0.700   1.295  13.282 -0.3656 -0.0733  0.3544
 9351SOL    HW139512   0.668   1.321  13.195 -1.8663 -0.2310  0.8538
 9351SOL    HW239513   0.760   1.368  13.296 -0.4076  0.3300 -1.4922
 9352SOL     OW39514   1.739   3.776   6.167  0.1785 -0.0451  0.7468
 9352SOL    HW139515   1.824   3.816   6.151 -0.7039  1.2614 -0.6298
 9352SOL    HW239516   1.721   3.734   6.083 -0.9035  1.2869  0.3109
 9353SOL     OW39517   3.738   2.624   8.971  0.5261  0.7498 -0.6668
 9353SOL    HW139518   3.689   2.556   9.017  0.1301  1.5858  0.1468
 9353SOL    HW239519   3.663   2.663   8.925  0.4358  1.7607  0.3409
 9354SOL     OW39520   3.797   0.178  13.361 -0.3139 -0.0852 -0.1280
 9354SOL    HW139521   3.801   0.143  13.272 -2.1543 -0.5167 -0.0282
 9354SOL    HW239522   3.856   0.254  13.359  0.0948 -0.3714  0.8977
 9355SOL     OW39523   3.498   1.477   0.397 -0.2716  0.4821  0.4018
 9355SOL    HW139524   3.576   1.487   0.342 -1.3473  1.3562 -0.9770
 9355SOL    HW239525   3.539   1.476   0.483 -0.5940  0.6880  0.5529
 9356SOL     OW39526   2.630   2.997   4.289 -0.1379 -0.4326  0.3219
 9356SOL    HW139527   2.716   3.032   4.265 -0.1612  1.0924  2.4655
 9356SOL    HW239528   2.570   3.057   4.246  1.1708  0.7428  0.1375
 9357SOL     OW39529   3.157   0.181  15.042 -0.2186  0.4819  0.2018
 9357SOL    HW139530   3.080   0.212  14.995 -0.8674  0.4621  1.2283
 9357SOL    HW239531   3.197   0.121  14.979 -0.6063  0.9284 -0.4671
 9358SOL     OW39532   3.734   0.562   9.156 -0.2294 -0.0476 -0.7962
 9358SOL    HW139533   3.794   0.578   9.084  0.3976  0.3614 -0.1728
 9358SOL    HW239534   3.654   0.592   9.113 -1.4502 -1.5993  0.3812
 9359SOL     OW39535   2.664   1.730   8.588 -0.5805 -0.4775  0.1863
 9359SOL    HW139536   2.593   1.762   8.644  0.4880 -0.2688  1.4330
 9359SOL    HW239537   2.738   1.732   8.649 -0.1585 -0.7260 -0.3189
 9360SOL     OW39538   3.851   1.533   2.306 -0.1200  0.5926 -0.1071
 9360SOL    HW139539   3.801   1.459   2.271 -1.7176  1.3733  0.5171
 9360SOL    HW239540   3.883   1.505   2.391 -0.7994 -1.3696 -0.4985
 9361SOL     OW39541   1.738   0.690   7.135  0.1778  0.0876  0.5736
 9361SOL    HW139542   1.778   0.609   7.164  0.4375 -0.0954 -0.3041
 9361SOL    HW239543   1.658   0.691   7.189  0.5484 -0.0277  1.1255
 9362SOL     OW39544   1.158   4.095   8.278 -0.0307 -0.5955 -0.0169
 9362SOL    HW139545   1.154   4.023   8.341 -3.4996  0.8348  1.3595
 9362SOL    HW239546   1.189   4.166   8.335 -4.5548 -1.7334  3.8316
 9363SOL     OW39547   3.419   0.394   8.609 -0.2197  0.3512 -0.3853
 9363SOL    HW139548   3.414   0.440   8.693  0.2652  0.4754 -0.4244
 9363SOL    HW239549   3.329   0.395   8.576 -0.4314 -3.3709  0.0139
 9364SOL     OW39550   1.200   1.838   2.799 -0.6700  0.1657 -0.2848
 9364SOL    HW139551   1.122   1.801   2.756  0.6884 -1.5406 -1.2906
 9364SOL    HW239552   1.163   1.917   2.838  0.7602  0.6551  0.0836
 9365SOL     OW39553   3.738   1.211  10.182 -0.3129 -0.2968  0.9599
 9365SOL    HW139554   3.768   1.194  10.093 -1.8636 -1.0371  0.5733
 9365SOL    HW239555   3.657   1.160  10.175 -0.5998  0.3709 -0.5110
 9366SOL     OW39556   1.364   0.651   0.404 -0.0956  0.2800 -0.0048
 9366SOL    HW139557   1.448   0.633   0.447  0.3135  0.6346 -0.6551
 9366SOL    HW239558   1.299   0.591   0.441 -0.4656  1.2796  0.9417
 9367SOL     OW39559   1.923   2.407  11.095 -0.3419  0.2408 -0.3785
 9367SOL    HW139560   1.899   2.489  11.139 -0.3303  0.4276 -0.7207
 9367SOL    HW239561   1.846   2.352  11.109 -0.9697  1.3021  0.4442
 9368SOL     OW39562   3.465   2.717   3.253 -0.3026 -0.2881 -0.0046
 9368SOL    HW139563   3.434   2.667   3.328 -1.0020 -1.7028 -1.2267
 9368SOL    HW239564   3.394   2.692   3.193  0.0747 -3.8190  1.0225
 9369SOL     OW39565   0.437   4.640   6.783 -0.2377 -0.7873  0.7371
 9369SOL    HW139566   0.504   4.697   6.820 -0.7513  0.2430  0.0960
 9369SOL    HW239567   0.388   4.621   6.863 -0.8982  0.7645  0.7037
 9370SOL     OW39568   3.790   1.664   8.719 -0.1568  0.3633  0.4462
 9370SOL    HW139569   3.809   1.748   8.760 -0.9956 -0.2945  2.1849
 9370SOL    HW239570   3.694   1.659   8.726 -0.1673 -0.7835 -0.4484
 9371SOL     OW39571   0.121   3.111  15.248  0.0167 -0.0882 -0.0267
 9371SOL    HW139572   0.112   3.031  15.299  0.2398 -0.0784  0.0257
 9371SOL    HW239573   0.130   3.073  15.160  0.7497  2.5195 -1.0959
 9372SOL     OW39574   0.514   1.996   4.473 -0.3121  0.0445 -0.4906
 9372SOL    HW139575   0.436   1.988   4.529 -0.3865 -2.0642 -0.9187
 9372SOL    HW239576   0.546   1.906   4.475 -1.6531 -0.4211  0.7436
 9373SOL     OW39577   1.575   0.962   0.900  0.4762  0.7007 -0.2140
 9373SOL    HW139578   1.512   0.960   0.971  0.0281  0.0867 -0.6306
 9373SOL    HW239579   1.534   0.892   0.849  0.7987  0.4983 -0.1959
 9374SOL     OW39580   1.248   2.505   0.250 -0.3249 -0.8285  0.3812
 9374SOL    HW139581   1.263   2.575   0.314  4.8236 -1.2241 -0.4348
 9374SOL    HW239582   1.331   2.458   0.263 -0.5399 -0.9061  1.5506
 9375SOL     OW39583   0.465   0.324  10.690  0.0059  0.0463 -0.2027
 9375SOL    HW139584   0.530   0.387  10.721 -0.1770  0.5736 -0.8904
 9375SOL    HW239585   0.420   0.368  10.618 -0.5354 -0.6487 -0.2961
 9376SOL     OW39586   2.381   1.361  12.499  0.4225  0.0408  0.2151
 9376SOL    HW139587   2.344   1.396  12.418  0.7588  0.4564  0.2446
 9376SOL    HW239588   2.363   1.429  12.564  1.0791 -0.1680  0.6133
 9377SOL     OW39589   4.273   0.719   6.438  0.6186 -0.0015  0.1401
 9377SOL    HW139590   4.296   0.791   6.497 -0.7389 -0.1423  0.8545
 9377SOL    HW239591   4.274   0.771   6.357 -0.2229 -0.0214  0.1120
 9378SOL     OW39592   2.560   1.059   4.723 -0.2662  0.2510  0.2676
 9378SOL    HW139593   2.582   1.069   4.630 -0.5103  0.8713  0.2736
 9378SOL    HW239594   2.621   1.118   4.766 -0.8679  0.6702  0.5561
 9379SOL     OW39595   2.331   3.148   4.999  0.5347  0.1525  0.2059
 9379SOL    HW139596   2.304   3.138   4.908 -2.2214  1.1501  0.9269
 9379SOL    HW239597   2.287   3.079   5.048  0.3255  0.5898  0.6304
 9380SOL     OW39598   0.487   2.922   8.616  0.3355  0.3439  0.0895
 9380SOL    HW139599   0.496   2.920   8.711  0.6399 -0.7915  0.0328
 9380SOL    HW239600   0.463   2.832   8.596 -1.2531  0.2354  2.5373
 9381SOL     OW39601   3.551   4.273   5.265 -0.1641  0.5394 -0.4746
 9381SOL    HW139602   3.628   4.305   5.218  1.1448 -1.8550  0.0230
 9381SOL    HW239603   3.581   4.270   5.355  1.2220  2.0119 -0.9032
 9382SOL     OW39604   3.643   1.089   6.496 -0.1368  0.2289  0.3374
 9382SOL    HW139605   3.583   1.156   6.528  0.3059 -0.3117  2.2773
 9382SOL    HW239606   3.723   1.142   6.501 -0.6000  1.0284 -0.8018
 9383SOL     OW39607   1.599   2.599   8.845 -0.1821 -0.6479  0.6241
 9383SOL    HW139608   1.512   2.591   8.806  1.2164 -1.0484 -2.3932
 9383SOL    HW239609   1.648   2.649   8.780 -1.0136 -0.3564  0.2155
 9384SOL     OW39610   2.351   4.718  13.180  0.5979  0.7458  0.3480
 9384SOL    HW139611   2.375   4.631  13.148 -1.0688  0.8810 -1.2301
 9384SOL    HW239612   2.311   4.697  13.265  1.1892  0.0309  0.4534
 9385SOL     OW39613   0.884   4.293   4.739 -0.0920 -0.0766  0.3057
 9385SOL    HW139614   0.854   4.210   4.777  1.1288  0.9068  3.3999
 9385SOL    HW239615   0.972   4.287   4.775  0.3602  1.4572 -0.5468
 9386SOL     OW39616   0.390   3.514  12.715  0.1983  0.2218 -0.0069
 9386SOL    HW139617   0.432   3.600  12.709  0.8044 -0.1354 -0.8931
 9386SOL    HW239618   0.312   3.532  12.664  1.8875 -2.6227 -3.6070
 9387SOL     OW39619   3.347   0.358  15.148 -0.2837 -0.4356  0.6007
 9387SOL    HW139620   3.284   0.287  15.131  0.9053 -0.9571 -1.6359
 9387SOL    HW239621   3.363   0.384  15.057 -1.2345  0.1722  0.6068
 9388SOL     OW39622   0.375   0.147  12.194  0.6902  0.2433 -0.4212
 9388SOL    HW139623   0.459   0.163  12.236  2.5407  0.5091 -4.1853
 9388SOL    HW239624   0.338   0.092  12.263 -0.9920  3.1498  0.9606
 9389SOL     OW39625   0.991   2.660   8.750  0.0677 -0.0088  0.1676
 9389SOL    HW139626   0.898   2.665   8.727  0.2785 -0.5623 -0.7711
 9389SOL    HW239627   1.003   2.754   8.768  0.3123  0.2642 -1.4429
 9390SOL     OW39628   4.440   0.151  17.281  0.7422 -0.2297  0.2784
 9390SOL    HW139629   4.493   0.126  17.356  0.7140 -1.9176 -0.2758
 9390SOL    HW239630   4.349   0.131  17.302  0.6479 -0.6871 -0.5477
 9391SOL     OW39631   4.390   3.573   8.390  0.4898 -0.2149 -0.5376
 9391SOL    HW139632   4.361   3.482   8.398  1.1396 -0.5914 -2.3436
 9391SOL    HW239633   4.481   3.572   8.361  0.7730 -0.3905  0.3768
 9392SOL     OW39634   4.237   3.310   6.612 -0.3289 -0.1486  0.2442
 9392SOL    HW139635   4.317   3.327   6.662 -2.3165  1.3104  2.8831
 9392SOL    HW239636   4.256   3.353   6.528 -2.3387 -0.0390 -0.1487
 9393SOL     OW39637   1.853   1.599   4.410 -0.3856  0.4096 -0.4605
 9393SOL    HW139638   1.792   1.530   4.436  0.2178  0.4839  1.1522
 9393SOL    HW239639   1.819   1.617   4.322  0.2992  0.7547 -0.6544
 9394SOL     OW39640   2.214   2.301  11.349 -0.3200  0.8548  0.2205
 9394SOL    HW139641   2.149   2.353  11.395 -0.2211 -0.6781  2.1094
 9394SOL    HW239642   2.297   2.345  11.367  0.1884 -0.6155  1.4789
 9395SOL     OW39643   3.327   2.819   7.385 -0.4724 -0.7082  0.3352
 9395SOL    HW139644   3.300   2.839   7.475 -0.0824  1.0553  0.0519
 9395SOL    HW239645   3.296   2.896   7.338  0.7915  0.1466  0.8940
 9396SOL     OW39646   4.142   1.751   5.236 -0.3624  0.1955  0.2588
 9396SOL    HW139647   4.149   1.669   5.285 -1.0234 -0.2193 -0.3538
 9396SOL    HW239648   4.060   1.734   5.191  0.5752 -0.8814 -1.0239
 9397SOL     OW39649   0.766   1.579  15.958 -0.3464 -0.3659  0.7299
 9397SOL    HW139650   0.827   1.637  16.003 -0.8343  0.7985 -0.1301
 9397SOL    HW239651   0.773   1.622  15.873 -0.2063  0.5635  1.2141
 9398SOL     OW39652   4.177   3.309   5.524 -0.7909  0.3351 -0.2237
 9398SOL    HW139653   4.218   3.393   5.541 -2.7262  1.3836 -0.8058
 9398SOL    HW239654   4.230   3.290   5.447  2.1817 -0.8990  2.0877
 9399SOL     OW39655   3.733   0.098  11.563 -0.4336 -0.3438 -0.2831
 9399SOL    HW139656   3.699   0.018  11.524 -1.0414 -0.4937  0.5702
 9399SOL    HW239657   3.654   0.151  11.572 -0.8633 -1.1522  0.5949
 9400SOL     OW39658   4.199   1.226   8.774 -0.2698  0.0687  0.2975
 9400SOL    HW139659   4.267   1.235   8.841 -1.6828  0.1592  1.7340
 9400SOL    HW239660   4.141   1.299   8.800  0.5557  1.0965 -0.7845
 9401SOL     OW39661   1.950   2.400   6.451  0.0783 -0.1397  0.0284
 9401SOL    HW139662   1.904   2.478   6.483 -0.6340  0.0292 -1.4145
 9401SOL    HW239663   1.883   2.357   6.398 -1.5254 -0.6111  2.4301
 9402SOL     OW39664   0.139   2.996   1.161  0.1309 -0.3961 -0.1988
 9402SOL    HW139665   0.083   3.061   1.204  0.2200  1.4951 -2.9920
 9402SOL    HW239666   0.154   2.934   1.233 -1.3839  0.1443  0.5589
 9403SOL     OW39667   0.736   2.627   1.899  0.3203 -0.2845  0.0859
 9403SOL    HW139668   0.791   2.608   1.823  0.1129 -2.1618  0.3985
 9403SOL    HW239669   0.743   2.544   1.946 -0.2849 -0.2117  0.2994
 9404SOL     OW39670   3.481   1.233   5.431 -0.4641 -0.6195 -0.0173
 9404SOL    HW139671   3.399   1.278   5.414  0.5625  0.3789 -2.2532
 9404SOL    HW239672   3.531   1.287   5.370 -0.4836 -0.3292  0.2211
 9405SOL     OW39673   2.760   1.064  13.219  0.2428 -0.2075  0.0646
 9405SOL    HW139674   2.671   1.084  13.190  0.3187  0.2173  0.1278
 9405SOL    HW239675   2.752   1.069  13.314  0.8285 -0.7499  0.1432
 9406SOL     OW39676   2.024   2.641   4.587 -0.0110 -0.4196  0.6509
 9406SOL    HW139677   2.078   2.690   4.525 -0.4475 -0.7696  0.0087
 9406SOL    HW239678   1.946   2.636   4.533  0.0823 -1.9637  0.6673
 9407SOL     OW39679   4.085   4.194   6.870 -0.7708  0.4688 -0.2721
 9407SOL    HW139680   4.115   4.134   6.802  1.0603  0.5241  0.4917
 9407SOL    HW239681   4.028   4.254   6.821 -0.9467 -0.2271 -0.9068
 9408SOL     OW39682   2.246   4.619   8.796 -0.5604 -0.0710  0.1929
 9408SOL    HW139683   2.325   4.643   8.845  0.1901 -1.4584 -0.3419
 9408SOL    HW239684   2.290   4.635   8.713  0.1842 -0.4805  0.5041
 9409SOL     OW39685   2.868   1.498   9.288 -0.0003 -0.2661 -0.1617
 9409SOL    HW139686   2.857   1.579   9.237  0.8494  0.3484  0.6283
 9409SOL    HW239687   2.957   1.505   9.323 -0.9069 -0.2958  2.1823
 9410SOL     OW39688   0.498   3.320   3.495 -0.5537  0.2233  0.0569
 9410SOL    HW139689   0.503   3.246   3.555 -1.8676 -0.8193 -1.1134
 9410SOL    HW239690   0.504   3.398   3.550  1.0810  0.1590 -0.0315
 9411SOL     OW39691   3.774   1.241   5.127 -0.0640  0.2850  0.4324
 9411SOL    HW139692   3.724   1.312   5.167 -1.5240  0.1937 -1.2627
 9411SOL    HW239693   3.813   1.207   5.208 -0.8073 -0.1388  0.6060
 9412SOL     OW39694   4.275   0.888   9.780 -0.4108  0.0587  0.0240
 9412SOL    HW139695   4.188   0.847   9.789 -0.7825  0.9696  0.5401
 9412SOL    HW239696   4.338   0.816   9.782 -0.2054  0.1793 -2.8062
 9413SOL     OW39697   1.097   0.709  16.790 -0.1027  0.2967  0.1763
 9413SOL    HW139698   1.025   0.751  16.743 -0.1227 -1.7679 -1.5841
 9413SOL    HW239699   1.128   0.774  16.854 -0.1015  2.0711 -1.6327
 9414SOL     OW39700   2.704   0.354   2.752  0.4569  0.8167 -0.3063
 9414SOL    HW139701   2.775   0.391   2.700  0.4617  2.6663  1.0606
 9414SOL    HW239702   2.667   0.294   2.687 -0.4400  2.6906 -1.5100
 9415SOL     OW39703   3.279   2.473   4.711 -0.1380 -0.3517 -0.5859
 9415SOL    HW139704   3.275   2.567   4.693 -1.0001 -0.4783 -1.0084
 9415SOL    HW239705   3.190   2.447   4.687 -1.0416  1.3187  0.9288
 9416SOL     OW39706   1.389   0.666   5.693 -0.6259  0.2718  0.2511
 9416SOL    HW139707   1.295   0.644   5.691 -0.6620  0.6380 -2.0701
 9416SOL    HW239708   1.397   0.710   5.608 -1.6832 -1.7064 -0.8790
 9417SOL     OW39709   0.191   0.976  17.110  0.1316  0.8903  0.0720
 9417SOL    HW139710   0.259   1.005  17.049  1.8219  1.0586  2.0218
 9417SOL    HW239711   0.189   0.880  17.115 -1.4337  0.8322 -1.4906
 9418SOL     OW39712   1.185   1.563   7.530  0.0034 -0.1055  0.2155
 9418SOL    HW139713   1.180   1.483   7.582 -0.4475  1.8315  3.1478
 9418SOL    HW239714   1.273   1.596   7.547 -0.5392  1.3331  0.1743
 9419SOL     OW39715   3.203   2.282  11.119  0.0566  0.1288 -0.3786
 9419SOL    HW139716   3.222   2.308  11.029 -1.4236 -1.2883 -1.1016
 9419SOL    HW239717   3.291   2.280  11.158  0.1636  1.7643 -0.5115
 9420SOL     OW39718   1.231   1.813   2.470 -0.3908 -0.3101  0.7480
 9420SOL    HW139719   1.279   1.742   2.514  0.5740 -0.4099 -0.4532
 9420SOL    HW239720   1.245   1.794   2.377 -0.5143 -0.2794  0.7235
 9421SOL     OW39721   0.305   4.399   3.534 -0.3910 -0.0612  0.3444
 9421SOL    HW139722   0.294   4.372   3.442 -0.8600  1.4499 -0.0457
 9421SOL    HW239723   0.393   4.439   3.534 -0.6045  0.4180 -0.4535
 9422SOL     OW39724   4.108   0.465   2.140  0.5083 -0.7359  0.2034
 9422SOL    HW139725   4.071   0.392   2.091 -0.2937  0.5979 -1.1475
 9422SOL    HW239726   4.032   0.506   2.180  0.3217 -1.5716  0.7048
 9423SOL     OW39727   1.807   0.679   8.304  0.2508  0.1137  0.3383
 9423SOL    HW139728   1.722   0.724   8.307  0.8064  1.3187 -1.7842
 9423SOL    HW239729   1.847   0.739   8.241  0.2148  0.2109  0.4082
 9424SOL     OW39730   1.199   3.627   9.014 -0.3096 -0.0587 -0.4833
 9424SOL    HW139731   1.186   3.533   9.003 -1.7050 -0.2377  2.7232
 9424SOL    HW239732   1.177   3.641   9.106  0.7224 -0.2385 -0.2117
 9425SOL     OW39733   2.036   3.666   5.294  0.2166  0.3922  0.0450
 9425SOL    HW139734   2.129   3.666   5.274 -0.2280 -0.4160 -1.9608
 9425SOL    HW239735   2.001   3.651   5.206  0.3409 -2.2406  0.4473
 9426SOL     OW39736   1.833   0.222   2.022  0.3004 -0.0983 -0.3082
 9426SOL    HW139737   1.917   0.264   2.038  1.6385 -3.6126  1.9257
 9426SOL    HW239738   1.823   0.170   2.101  0.6577 -2.4532 -1.7927
 9427SOL     OW39739   2.276   2.335  16.971  0.6519  0.1765  0.1285
 9427SOL    HW139740   2.230   2.419  16.982 -0.4174 -0.5859  1.4774
 9427SOL    HW239741   2.330   2.338  17.050  1.9285  1.9785 -0.8101
 9428SOL     OW39742   0.741   2.748   7.318  0.7899 -0.2261  0.3465
 9428SOL    HW139743   0.827   2.758   7.361  0.9227  0.2439 -0.0313
 9428SOL    HW239744   0.740   2.653   7.301  2.3745 -0.0673 -0.6239
 9429SOL     OW39745   3.840   2.796   4.725 -0.3443  0.1425  0.3089
 9429SOL    HW139746   3.765   2.827   4.776 -0.1560 -0.4078  0.9248
 9429SOL    HW239747   3.804   2.761   4.643 -1.1792  2.7784 -0.4446
 9430SOL     OW39748   1.905   1.199   0.113 -0.1156  0.5199 -0.8291
 9430SOL    HW139749   1.926   1.205   0.206 -3.2820 -0.1829 -0.0803
 9430SOL    HW239750   1.973   1.255   0.075  0.6256  0.6659  0.7010
 9431SOL     OW39751   4.361   2.643   3.605  0.3598 -0.9475  0.0614
 9431SOL    HW139752   4.436   2.624   3.548  2.3162  0.1489  2.3034
 9431SOL    HW239753   4.386   2.732   3.629  0.0578 -0.4958 -1.2911
 9432SOL     OW39754   3.677   4.010  15.932 -0.3876  0.2461  0.3780
 9432SOL    HW139755   3.727   3.976  16.006 -1.9309 -0.6931  0.9850
 9432SOL    HW239756   3.731   4.079  15.893 -1.4869  1.0633  0.2728
 9433SOL     OW39757   0.318   0.431   5.332  0.5071  0.4907 -0.2346
 9433SOL    HW139758   0.339   0.507   5.386 -0.6965 -0.1277  1.1060
 9433SOL    HW239759   0.341   0.473   5.250 -3.7394  0.3806 -1.4947
 9434SOL     OW39760   1.232   2.140   6.206 -0.0322  0.0138  0.2269
 9434SOL    HW139761   1.163   2.076   6.227 -0.3578  0.0261 -0.8035
 9434SOL    HW239762   1.220   2.150   6.111  0.8371  1.1741  0.2390
 9435SOL     OW39763   2.238   2.350   3.762  0.3166  0.4592 -0.3029
 9435SOL    HW139764   2.156   2.352   3.713  1.2208 -0.3171 -1.8523
 9435SOL    HW239765   2.307   2.372   3.699  1.1831  1.8651  1.1398
 9436SOL     OW39766   3.824   2.672   2.029 -0.3472  0.7248  0.4658
 9436SOL    HW139767   3.894   2.607   2.022 -1.0731  0.0506 -0.5840
 9436SOL    HW239768   3.867   2.744   1.984  1.1912 -0.0475  0.7121
 9437SOL     OW39769   1.474   2.894   3.471 -0.2475 -0.4592 -0.0461
 9437SOL    HW139770   1.534   2.967   3.484  1.0667 -1.4408 -0.6049
 9437SOL    HW239771   1.412   2.941   3.415 -1.6151 -0.7804  1.1697
 9438SOL     OW39772   1.587   1.098   8.319  0.4799 -0.5724 -0.3106
 9438SOL    HW139773   1.638   1.158   8.373 -1.9148  1.1447  0.0180
 9438SOL    HW239774   1.520   1.150   8.276  0.4389  0.9973  1.6571
 9439SOL     OW39775   2.136   0.399  15.807 -0.0812  0.6615  0.3202
 9439SOL    HW139776   2.065   0.442  15.759 -0.2587  0.3755  0.3214
 9439SOL    HW239777   2.199   0.439  15.747 -0.0700  1.2625  0.7318
 9440SOL     OW39778   3.016   0.781  14.469  0.4473  0.2987 -0.0341
 9440SOL    HW139779   2.992   0.867  14.505  0.2876  1.4474 -2.9389
 9440SOL    HW239780   3.104   0.795  14.434  1.0502 -0.6400  1.0794
 9441SOL     OW39781   1.124   3.271   6.389  0.1683 -0.1624  0.1246
 9441SOL    HW139782   1.208   3.317   6.384  0.9784 -1.4353  2.0617
 9441SOL    HW239783   1.068   3.338   6.428 -1.3152 -1.4180  0.1423
 9442SOL     OW39784   4.570   1.840   6.388  0.5035  0.4214  0.0714
 9442SOL    HW139785   4.556   1.826   6.481 -0.7144  0.9041 -0.0431
 9442SOL    HW239786   4.590   1.749   6.365  0.6703 -0.3660  3.3514
 9443SOL     OW39787   4.184   4.428   1.869  0.1486  0.1061  0.4142
 9443SOL    HW139788   4.100   4.433   1.914  1.3655 -0.4485  2.7533
 9443SOL    HW239789   4.193   4.523   1.859  1.3330  0.1379  1.6962
 9444SOL     OW39790   2.272   2.634  14.028  0.1843  0.0732 -0.3687
 9444SOL    HW139791   2.191   2.684  14.027  0.0806 -0.0872 -0.1308
 9444SOL    HW239792   2.257   2.555  13.977 -1.8952 -0.7741  1.5652
 9445SOL     OW39793   3.906   1.452   2.897  0.1796  0.2713 -0.2858
 9445SOL    HW139794   3.847   1.414   2.832  1.3532  0.3805 -1.4297
 9445SOL    HW239795   3.878   1.543   2.902 -1.8677 -0.2590 -2.2282
 9446SOL     OW39796   1.657   0.514   6.486 -0.1543 -0.1421  0.2213
 9446SOL    HW139797   1.604   0.480   6.558  0.7096 -1.0378  0.4293
 9446SOL    HW239798   1.643   0.607   6.508 -2.5116 -0.5542  0.5085
 9447SOL     OW39799   3.726   0.216   5.338  0.1566  0.4469  0.1726
 9447SOL    HW139800   3.774   0.246   5.261 -0.1919 -0.4778 -0.4151
 9447SOL    HW239801   3.688   0.300   5.364 -2.3225  0.1962 -2.5754
 9448SOL     OW39802   4.465   2.243   2.794 -0.5415  0.0828 -0.0376
 9448SOL    HW139803   4.461   2.324   2.845  1.9013  0.4724 -0.4632
 9448SOL    HW239804   4.422   2.183   2.855 -1.8541  1.0192 -0.0218
 9449SOL     OW39805   3.421   0.920   8.763  0.1157  0.1810 -0.0659
 9449SOL    HW139806   3.352   0.915   8.697 -0.0045  1.7252 -0.0440
 9449SOL    HW239807   3.385   0.871   8.838 -0.0158 -0.7366 -0.7255
 9450SOL     OW39808   3.217   4.073   8.773 -0.2387 -0.0913 -0.3566
 9450SOL    HW139809   3.293   4.016   8.761 -0.2402  0.3682 -2.4851
 9450SOL    HW239810   3.159   4.002   8.802 -1.3296  0.1093 -2.0233
 9451SOL     OW39811   3.924   0.405  16.846 -0.2073 -0.0964  0.7082
 9451SOL    HW139812   3.913   0.427  16.939  3.1412  0.0978  1.0365
 9451SOL    HW239813   4.018   0.392  16.836 -0.4584 -1.7515  0.6007
 9452SOL     OW39814   2.718   0.264   4.954 -0.0077 -0.9861  0.2156
 9452SOL    HW139815   2.744   0.192   4.896 -0.4299 -1.5852  0.7800
 9452SOL    HW239816   2.660   0.222   5.016 -1.1421  0.4565  0.1449
 9453SOL     OW39817   4.172   1.033   2.824  0.0077 -0.4866 -0.2618
 9453SOL    HW139818   4.112   1.045   2.898  1.5270  1.8088  0.6249
 9453SOL    HW239819   4.169   1.120   2.784 -0.8773 -0.1206  0.5966
 9454SOL     OW39820   0.167   2.518   6.865 -0.4684  0.0417  0.5503
 9454SOL    HW139821   0.086   2.503   6.817 -0.2518  1.8218 -0.3894
 9454SOL    HW239822   0.151   2.595   6.920  0.9672  0.2495  0.6702
 9455SOL     OW39823   1.954   0.407   7.422 -0.0048 -0.4309 -0.7342
 9455SOL    HW139824   1.965   0.488   7.472 -0.8767 -0.0841 -1.1075
 9455SOL    HW239825   1.957   0.354   7.502  0.3807  0.8521  0.1134
 9456SOL     OW39826   3.420   1.163   0.979 -0.4124 -0.0290 -0.5930
 9456SOL    HW139827   3.398   1.071   0.993 -1.0525  0.3514  0.9157
 9456SOL    HW239828   3.382   1.173   0.892  0.2842  0.4446 -0.8375
 9457SOL     OW39829   4.507   3.450   9.038 -0.1806  0.2216  0.7031
 9457SOL    HW139830   4.462   3.500   8.971  0.0181 -0.5289  0.0195
 9457SOL    HW239831   4.477   3.493   9.118 -2.6870  0.7221 -0.5125
 9458SOL     OW39832   2.447   2.835   2.160 -0.4211 -0.6474  0.4014
 9458SOL    HW139833   2.540   2.829   2.137 -0.3207 -1.1429  0.9293
 9458SOL    HW239834   2.425   2.742   2.169 -3.9068  0.1216 -0.3598
 9459SOL     OW39835   4.643   3.323   7.774  0.2942 -0.0043  1.2750
 9459SOL    HW139836   4.558   3.365   7.758 -0.3431 -1.9579 -0.3598
 9459SOL    HW239837   4.658   3.350   7.865 -0.5410 -1.0133  1.7109
 9460SOL     OW39838   4.496   4.433   1.043 -0.2693  0.2968  0.8767
 9460SOL    HW139839   4.520   4.384   0.963  0.1223  0.6188  0.8002
 9460SOL    HW239840   4.409   4.461   1.016  0.9446  3.1707 -0.0102
 9461SOL     OW39841   2.792   0.136   1.648 -0.1788 -0.5814 -0.5011
 9461SOL    HW139842   2.852   0.066   1.674 -0.3928 -0.6788 -0.2711
 9461SOL    HW239843   2.859   0.193   1.611  1.1570 -1.5932  0.3576
 9462SOL     OW39844   2.762   1.509  15.299  0.2061  0.2236  0.4165
 9462SOL    HW139845   2.709   1.432  15.315  0.4779 -0.7429 -3.2122
 9462SOL    HW239846   2.783   1.526  15.391  0.2642 -0.5883  0.5501
 9463SOL     OW39847   2.879   0.608   8.225  0.0101  0.4369 -0.0125
 9463SOL    HW139848   2.921   0.665   8.290  0.6147  0.2144 -0.2180
 9463SOL    HW239849   2.955   0.559   8.195 -0.4691 -0.1168 -0.3241
 9464SOL     OW39850   4.105   1.558   4.284 -0.6443  0.0884 -0.2503
 9464SOL    HW139851   4.163   1.500   4.235  2.5371  1.4650  1.8857
 9464SOL    HW239852   4.077   1.498   4.354  1.5309 -0.9627 -0.3051
 9465SOL     OW39853   2.992   3.876   5.408 -0.1895 -0.1303  0.3220
 9465SOL    HW139854   3.059   3.944   5.399 -2.4578  1.8830 -1.3881
 9465SOL    HW239855   3.015   3.836   5.492  0.6446  2.2993  1.2377
 9466SOL     OW39856   2.410   3.055   3.910  0.5953  0.2618 -0.3733
 9466SOL    HW139857   2.383   3.014   3.827 -0.5359 -2.7964  1.4921
 9466SOL    HW239858   2.463   3.132   3.888  1.2313 -0.0018  0.2451
 9467SOL     OW39859   4.216   4.325   6.116 -0.2710  0.2204  0.1057
 9467SOL    HW139860   4.170   4.325   6.200 -1.3978  0.1992 -0.4989
 9467SOL    HW239861   4.234   4.418   6.102 -1.2335  0.3961 -0.0008
 9468SOL     OW39862   4.334   3.644   4.107  0.0855  0.2614 -0.3095
 9468SOL    HW139863   4.380   3.602   4.034  1.6086  0.1806  0.6829
 9468SOL    HW239864   4.322   3.735   4.082  0.8177  0.2973 -0.5454
 9469SOL     OW39865   4.411   4.294   1.907 -0.1983 -0.7375  0.3649
 9469SOL    HW139866   4.466   4.369   1.930  0.9427 -1.1270 -1.0708
 9469SOL    HW239867   4.325   4.335   1.900  0.2237  0.4102  1.9063
 9470SOL     OW39868   4.005   0.581   3.522 -0.7631 -0.0250 -0.9854
 9470SOL    HW139869   3.978   0.608   3.435 -0.4028 -1.8258 -1.6659
 9470SOL    HW239870   3.943   0.509   3.529 -0.1564 -0.5932 -1.3770
 9471SOL     OW39871   4.294   2.055   4.820  0.1442 -0.3825 -0.1505
 9471SOL    HW139872   4.369   2.083   4.872  0.4701 -0.9461 -0.3174
 9471SOL    HW239873   4.257   1.997   4.887 -1.6875  0.7307 -0.2055
 9472SOL     OW39874   2.550   0.576   6.038  0.1998  0.4101 -0.4519
 9472SOL    HW139875   2.619   0.539   6.093  0.3226  2.8350  1.0312
 9472SOL    HW239876   2.557   0.667   6.066 -0.2769  1.0125 -2.3342
 9473SOL     OW39877   0.063   2.336   5.366 -0.6340 -0.0199  0.0360
 9473SOL    HW139878   0.104   2.346   5.451  0.3060  0.2078 -0.4430
 9473SOL    HW239879   0.118   2.383   5.303 -0.8794  1.2065  0.7437
 9474SOL     OW39880   3.477   0.317  15.398  0.3652  0.1536 -0.6218
 9474SOL    HW139881   3.461   0.391  15.456 -0.3560 -0.1061 -0.4852
 9474SOL    HW239882   3.437   0.357  15.320 -1.1834  0.9088  0.5641
 9475SOL     OW39883   4.501   2.865   6.422 -0.4101 -0.3811 -0.8419
 9475SOL    HW139884   4.521   2.939   6.478 -0.3843 -1.4128  0.5162
 9475SOL    HW239885   4.581   2.858   6.370  0.4324  0.0885  0.4058
 9476SOL     OW39886   1.818   0.964   2.755  0.0753 -0.6192  0.3836
 9476SOL    HW139887   1.841   0.944   2.846  1.2744  1.5952  0.5646
 9476SOL    HW239888   1.802   0.877   2.719 -1.4165  0.0576 -0.5787
 9477SOL     OW39889   0.098   3.925   8.738 -0.8142  0.0622 -0.4877
 9477SOL    HW139890   0.098   3.859   8.807 -0.4302  0.2240 -0.3311
 9477SOL    HW239891   0.110   3.870   8.661 -0.4005  1.0344 -1.1168
 9478SOL     OW39892   2.553   4.320   3.061  0.0947 -0.1855 -0.0156
 9478SOL    HW139893   2.526   4.228   3.055 -0.5107  0.0651 -1.1282
 9478SOL    HW239894   2.645   4.304   3.080  0.0039 -0.1909  0.4351
 9479SOL     OW39895   3.560   2.859   8.269 -0.6499  0.5202 -0.1848
 9479SOL    HW139896   3.484   2.889   8.319 -0.4917  0.3566  0.1563
 9479SOL    HW239897   3.539   2.857   8.176  0.3424  1.6680 -0.4344
 9480SOL     OW39898   2.865   2.871   8.986 -0.1879  0.0123  1.2146
 9480SOL    HW139899   2.892   2.895   9.075  1.4273  1.9750  0.1809
 9480SOL    HW239900   2.853   2.776   8.993  0.0387 -0.1240 -0.3660
 9481SOL     OW39901   1.418   2.807  14.741 -0.0177  0.1585  0.6182
 9481SOL    HW139902   1.473   2.879  14.774 -0.8147  1.3964 -0.7741
 9481SOL    HW239903   1.462   2.788  14.658  2.1412  0.5614  1.6754
 9482SOL     OW39904   0.108   2.575  11.391 -0.7865  0.0493  0.1878
 9482SOL    HW139905   0.164   2.508  11.432 -1.3244  0.9684  2.4296
 9482SOL    HW239906   0.072   2.625  11.464 -1.8149 -2.3964  1.3908
 9483SOL     OW39907   1.907   2.547   7.176 -0.8755  0.3712  0.4844
 9483SOL    HW139908   1.905   2.454   7.198  0.7276 -0.1049 -1.3467
 9483SOL    HW239909   1.969   2.554   7.103  0.3559 -1.9594  1.3155
 9484SOL     OW39910   2.642   0.594   2.556  0.0903  0.0042 -0.2304
 9484SOL    HW139911   2.599   0.678   2.540 -2.2037 -0.7881  1.8253
 9484SOL    HW239912   2.702   0.592   2.481  1.1924  3.5288  0.5687
 9485SOL     OW39913   4.514   3.836   1.296 -0.0309 -0.1479 -0.2245
 9485SOL    HW139914   4.478   3.828   1.208 -1.4015 -1.2818  0.4404
 9485SOL    HW239915   4.609   3.848   1.295 -0.3090  2.1958 -0.1037
 9486SOL     OW39916   3.497   0.611  17.035  0.5912  0.2128  0.4325
 9486SOL    HW139917   3.451   0.557  17.100  0.8964  0.2545  0.6838
 9486SOL    HW239918   3.482   0.701  17.062 -0.9869  0.0784  0.0007
 9487SOL     OW39919   3.865   1.619   7.137 -0.7905 -0.1260  0.1122
 9487SOL    HW139920   3.821   1.660   7.211  1.7444  0.0662  1.5274
 9487SOL    HW239921   3.850   1.682   7.067 -1.6316 -1.5697 -0.9984
 9488SOL     OW39922   0.655   1.843   7.774  0.3196 -0.1156  0.4858
 9488SOL    HW139923   0.747   1.831   7.752  0.0521  0.8757 -1.2039
 9488SOL    HW239924   0.648   1.938   7.785 -0.9270 -0.4965  2.8941
 9489SOL     OW39925   0.782   1.608  11.815 -0.1915 -0.1404 -0.2008
 9489SOL    HW139926   0.800   1.622  11.908 -1.4454  1.6724 -0.2239
 9489SOL    HW239927   0.690   1.583  11.810  0.1338 -1.2914 -0.4391
 9490SOL     OW39928   1.293   0.625   8.967  0.5401  0.3452  0.1828
 9490SOL    HW139929   1.247   0.664   9.041 -0.9327  1.2496 -1.2160
 9490SOL    HW239930   1.253   0.663   8.889 -0.5596  1.2791  1.2183
 9491SOL     OW39931   0.405   2.505   5.624 -0.7516  0.2531 -0.4569
 9491SOL    HW139932   0.412   2.591   5.581  0.2731  0.2594 -0.2920
 9491SOL    HW239933   0.451   2.510   5.708  1.0906  0.7011 -1.4756
 9492SOL     OW39934   1.081   2.831   8.484  0.2406 -0.0384  0.0525
 9492SOL    HW139935   1.091   2.867   8.573  1.7338 -1.2234  0.3699
 9492SOL    HW239936   0.999   2.873   8.458  0.0065  0.4766  1.6111
 9493SOL     OW39937   2.991   4.165   8.394 -0.6359 -0.4742 -0.0303
 9493SOL    HW139938   2.906   4.120   8.399 -1.5373  1.2441  0.1409
 9493SOL    HW239939   3.049   4.096   8.362 -0.3242  0.0112 -0.5175
 9494SOL     OW39940   2.514   3.249   2.343 -0.1290 -0.5474  0.5789
 9494SOL    HW139941   2.518   3.343   2.322 -0.8773 -0.7565 -0.4848
 9494SOL    HW239942   2.508   3.266   2.437 -1.4011  0.8463  0.2556
 9495SOL     OW39943   1.658   3.326   2.742  0.0536  0.2649 -0.3523
 9495SOL    HW139944   1.583   3.311   2.685 -0.9502  1.8925  0.5671
 9495SOL    HW239945   1.672   3.236   2.772 -0.7747  0.2478 -0.0156
 9496SOL     OW39946   4.229   0.861   7.916 -0.0902 -0.4248  0.4031
 9496SOL    HW139947   4.173   0.798   7.870 -1.7497  0.7338  0.8379
 9496SOL    HW239948   4.179   0.939   7.937 -0.8341 -1.6834  3.4153
 9497SOL     OW39949   1.782   1.144   5.794 -0.0274  0.0923 -0.1569
 9497SOL    HW139950   1.802   1.226   5.840 -0.3878 -1.1955  2.3181
 9497SOL    HW239951   1.754   1.182   5.711 -0.0043 -1.7655 -1.0139
 9498SOL     OW39952   0.756   2.381   4.911  0.4509  0.1535  0.2962
 9498SOL    HW139953   0.729   2.418   4.827  3.6057  0.5261 -0.5332
 9498SOL    HW239954   0.846   2.413   4.914  0.7159 -0.4431 -1.4107
 9499SOL     OW39955   4.300   0.487  11.375 -0.3760 -0.4568  0.3394
 9499SOL    HW139956   4.210   0.510  11.395 -0.0023 -0.4016  1.9552
 9499SOL    HW239957   4.342   0.489  11.461  1.8430  0.5068 -0.7744
 9500SOL     OW39958   2.057   1.299   5.175  0.1067 -0.5307 -0.0809
 9500SOL    HW139959   1.971   1.262   5.193 -1.1424  2.1877 -0.4912
 9500SOL    HW239960   2.085   1.342   5.256 -0.0473  0.6348 -0.6353
 9501SOL     OW39961   3.278   1.619   8.874 -0.1164  0.5484  0.1369
 9501SOL    HW139962   3.266   1.713   8.887  1.2170  0.9853 -1.7627
 9501SOL    HW239963   3.273   1.592   8.966 -0.1682  3.1384  0.9126
 9502SOL     OW39964   4.514   3.756   7.773 -1.2168 -0.3318  0.2872
 9502SOL    HW139965   4.502   3.840   7.816 -2.0563 -0.0513 -0.5028
 9502SOL    HW239966   4.549   3.701   7.844 -3.1586 -0.5009  1.1098
 9503SOL     OW39967   2.218   2.519   7.241 -0.3286  1.0569  0.1917
 9503SOL    HW139968   2.194   2.428   7.257 -1.5134  1.0424 -1.6740
 9503SOL    HW239969   2.252   2.509   7.153 -1.3629  0.3506 -0.1279
 9504SOL     OW39970   3.853   4.422   2.198  0.6581 -0.3637  0.1240
 9504SOL    HW139971   3.868   4.350   2.138 -0.0523 -0.6454  0.2752
 9504SOL    HW239972   3.784   4.471   2.153 -0.7037 -0.9730  1.5401
 9505SOL     OW39973   1.266   0.795  11.051  0.0019 -0.3879  0.0523
 9505SOL    HW139974   1.325   0.796  11.126  1.9382 -0.7253 -1.4633
 9505SOL    HW239975   1.214   0.715  11.063  0.3463 -0.4493  1.1092
 9506SOL     OW39976   1.244   0.023   4.100 -0.0487  0.3522 -0.1966
 9506SOL    HW139977   1.149   0.028   4.091 -0.2695 -0.8054  1.4287
 9506SOL    HW239978   1.252   4.702   4.014  2.6760 -0.1485  0.3064
 9507SOL     OW39979   3.694   2.923   2.645  0.2095 -0.2537  0.3044
 9507SOL    HW139980   3.713   2.858   2.577 -1.8924 -0.2658 -0.2813
 9507SOL    HW239981   3.741   2.882   2.717 -1.0826  1.3764  2.0699
 9508SOL     OW39982   1.479   1.817  16.443  0.0332  0.0180 -0.4381
 9508SOL    HW139983   1.553   1.853  16.493 -1.0781 -0.8102  1.7809
 9508SOL    HW239984   1.411   1.881  16.460  1.3481  1.8037 -1.8290
 9509SOL     OW39985   2.549   1.761  13.087  0.5358 -0.7871  0.3463
 9509SOL    HW139986   2.458   1.784  13.074  0.8861  0.5009  0.2062
 9509SOL    HW239987   2.549   1.665  13.082 -0.6152 -0.6772 -1.4576
 9510SOL     OW39988   3.596   3.264   4.828 -0.1281 -0.5235  0.5197
 9510SOL    HW139989   3.632   3.241   4.742  0.9774  1.5453  0.4212
 9510SOL    HW239990   3.508   3.295   4.807  0.7203  2.1431  0.9835
 9511SOL     OW39991   2.313   4.544  10.092  0.1360  0.4417  0.6689
 9511SOL    HW139992   2.259   4.521  10.167  0.6186  0.2227  0.9480
 9511SOL    HW239993   2.270   4.483  10.032  2.3957 -0.1830 -0.3437
 9512SOL     OW39994   2.467   1.314   6.402  0.4881  0.1621 -0.0171
 9512SOL    HW139995   2.388   1.268   6.371  1.7792 -1.1183 -1.4480
 9512SOL    HW239996   2.497   1.334   6.313 -2.2598 -0.6093 -1.1416
 9513SOL     OW39997   3.486   0.382   4.933  0.6442  0.0753 -0.1225
 9513SOL    HW139998   3.472   0.375   4.839 -0.3730 -2.1534  0.2041
 9513SOL    HW239999   3.484   0.476   4.953  0.1998 -0.1783  1.0428
 9514SOL     OW40000   1.235   0.786   9.663  0.6524 -0.3657  0.4818
 9514SOL    HW140001   1.252   0.820   9.751 -0.2649 -1.1751  0.9681
 9514SOL    HW240002   1.141   0.801   9.650  0.0461 -1.4881  3.5499
 9515SOL     OW40003   3.567   4.671   6.933 -0.5198 -0.2443  0.0640
 9515SOL    HW140004   3.508   4.598   6.949  0.2092 -1.1472 -1.3847
 9515SOL    HW240005   3.512   0.018   6.973  2.4417  1.1774  1.7549
 9516SOL     OW40006   4.118   3.519   3.838  0.2005  0.0879  0.1190
 9516SOL    HW140007   4.157   3.444   3.882 -2.1365 -0.6682  0.8653
 9516SOL    HW240008   4.038   3.477   3.806  0.7212  0.8866 -2.2781
 9517SOL     OW40009   2.734   4.301   6.720  0.0796  0.1017  0.0120
 9517SOL    HW140010   2.763   4.235   6.783  1.1811  0.2348 -0.3602
 9517SOL    HW240011   2.789   4.280   6.645  0.9297  0.7553  0.4380
 9518SOL     OW40012   3.429   1.533   6.602  0.0098 -0.5725 -0.0646
 9518SOL    HW140013   3.483   1.610   6.587 -0.8051 -0.0195 -0.1552
 9518SOL    HW240014   3.354   1.545   6.544 -0.3029 -1.3033  0.1839
 9519SOL     OW40015   0.745   1.882   6.893  0.4862  0.0418  0.1570
 9519SOL    HW140016   0.753   1.825   6.969  0.8732 -0.2710 -0.1157
 9519SOL    HW240017   0.663   1.851   6.855  1.2375 -3.5602  1.4004
 9520SOL     OW40018   0.180   3.730   2.265  0.0183 -0.5756  0.1644
 9520SOL    HW140019   0.203   3.672   2.193 -2.4245  2.2407 -2.9123
 9520SOL    HW240020   0.085   3.739   2.262  0.0421 -0.4899 -0.3133
 9521SOL     OW40021   4.659   0.901  16.944  0.2429  0.0415  0.1506
 9521SOL    HW140022   4.654   0.823  16.999 -3.4117  0.1106 -0.1148
 9521SOL    HW240023   4.587   0.888  16.883 -1.0772 -1.7146  2.0657
 9522SOL     OW40024   2.227   2.661   5.442  0.5109  0.1922  0.1217
 9522SOL    HW140025   2.177   2.580   5.456  1.1253 -0.2287 -0.0889
 9522SOL    HW240026   2.204   2.703   5.525 -0.3945 -0.6096  0.2790
 9523SOL     OW40027   3.301   2.766   2.878  0.1619  0.3231 -0.5396
 9523SOL    HW140028   3.220   2.718   2.858 -0.5918  0.0840  3.0001
 9523SOL    HW240029   3.348   2.754   2.796 -1.3285  0.8088 -1.4524
 9524SOL     OW40030   0.339   2.808   6.701  0.0676 -0.1659 -0.0006
 9524SOL    HW140031   0.383   2.724   6.717  0.5767 -0.0673 -0.8551
 9524SOL    HW240032   0.273   2.772   6.642  0.9683  1.8627 -2.2121
 9525SOL     OW40033   4.367   4.202   3.474 -0.1952  0.7763  0.2725
 9525SOL    HW140034   4.456   4.216   3.442 -0.5428  2.6198  0.1452
 9525SOL    HW240035   4.313   4.245   3.408 -1.1595  1.1534  1.3151
 9526SOL     OW40036   3.081   3.815  14.778 -0.4849 -1.2011 -0.1927
 9526SOL    HW140037   3.074   3.723  14.752  1.5060 -1.3795 -0.1019
 9526SOL    HW240038   3.170   3.813  14.813 -0.5705  0.9019  0.1343
 9527SOL     OW40039   0.707   1.503   4.299 -0.0236 -0.4108  0.2767
 9527SOL    HW140040   0.708   1.529   4.207 -0.2501 -1.7777 -0.1098
 9527SOL    HW240041   0.752   1.577   4.339 -0.2978  0.4930 -1.0749
 9528SOL     OW40042   1.105   4.220   4.844 -0.2270  0.0238  0.1444
 9528SOL    HW140043   1.127   4.127   4.834  0.9924  0.2461  0.8457
 9528SOL    HW240044   1.143   4.221   4.932 -1.2560 -2.4856  0.6224
 9529SOL     OW40045   2.223   0.370   8.393 -0.1195 -0.0430  0.0643
 9529SOL    HW140046   2.308   0.408   8.413  0.3930 -1.3068  0.2746
 9529SOL    HW240047   2.173   0.421   8.458 -0.1287  1.7779 -1.3788
 9530SOL     OW40048   1.621   2.367   3.781 -0.4400 -0.0723  0.2514
 9530SOL    HW140049   1.602   2.461   3.779 -0.1284  0.0172  1.6047
 9530SOL    HW240050   1.614   2.352   3.875  0.8736 -0.3564  0.2983
 9531SOL     OW40051   1.177   3.461  12.265  0.0593 -0.6177 -0.3193
 9531SOL    HW140052   1.171   3.442  12.172  0.2741 -3.4805  0.2470
 9531SOL    HW240053   1.263   3.503  12.275  0.6931 -1.9191 -0.2364
 9532SOL     OW40054   0.380   3.225  17.660 -0.0868  0.1745 -0.4607
 9532SOL    HW140055   0.452   3.189  17.609 -0.8040 -1.9853  0.0500
 9532SOL    HW240056   0.405   3.316  17.647  0.2526  0.3156  1.1087
 9533SOL     OW40057   2.079   3.168   7.301 -0.1242 -0.0738  0.1521
 9533SOL    HW140058   2.084   3.260   7.274  0.7173 -0.0218  0.4820
 9533SOL    HW240059   2.161   3.160   7.350 -0.7417 -2.5797  0.7205
 9534SOL     OW40060   1.262   0.176   3.138 -0.1094 -0.5918  0.5408
 9534SOL    HW140061   1.178   0.147   3.173  0.7403 -1.8969  1.4608
 9534SOL    HW240062   1.222   0.243   3.082 -1.1736 -0.9493  0.8760
 9535SOL     OW40063   0.193   3.061  12.492  0.2234  0.2974  0.7920
 9535SOL    HW140064   0.249   3.024  12.560 -1.2875 -2.1322  0.7209
 9535SOL    HW240065   0.208   3.000  12.420  0.1393  2.1601 -0.7860
 9536SOL     OW40066   2.726   3.040  16.461 -0.3384 -0.1334  0.1799
 9536SOL    HW140067   2.660   3.015  16.397 -2.6907  1.4454  1.9722
 9536SOL    HW240068   2.726   3.136  16.457 -0.3124 -0.0975  0.9881
 9537SOL     OW40069   0.695   3.265   3.725 -0.2673 -0.3335 -0.1221
 9537SOL    HW140070   0.731   3.317   3.653 -1.3822 -0.0824 -0.4962
 9537SOL    HW240071   0.769   3.262   3.786  1.1590  0.1942 -1.8387
 9538SOL     OW40072   2.352   1.096   9.929 -0.1097  0.1487  0.3072
 9538SOL    HW140073   2.444   1.073   9.918  0.4865  1.5576  2.3738
 9538SOL    HW240074   2.306   1.024   9.973 -2.6428  1.3534 -0.3776
 9539SOL     OW40075   0.329   1.143   4.378 -0.0548 -0.4766  0.2160
 9539SOL    HW140076   0.356   1.233   4.398 -0.0516 -0.2155 -0.9861
 9539SOL    HW240077   0.314   1.100   4.462  1.2293 -1.5072 -0.0744
 9540SOL     OW40078   2.680   2.806   5.368  0.0619  0.1563 -0.4066
 9540SOL    HW140079   2.638   2.783   5.284 -2.2702 -1.8656  1.3125
 9540SOL    HW240080   2.711   2.895   5.358 -0.9562  0.3608 -1.7566
 9541SOL     OW40081   2.497   1.584   4.968 -0.3639  0.0841  0.3151
 9541SOL    HW140082   2.555   1.552   4.899  1.5671  1.8299  1.1313
 9541SOL    HW240083   2.553   1.660   4.988  0.5478 -0.3509 -0.6035
 9542SOL     OW40084   1.784   1.045   7.248  0.9610 -0.3171  0.6030
 9542SOL    HW140085   1.801   1.077   7.336  1.4136  1.4051 -0.0994
 9542SOL    HW240086   1.874   1.037   7.218  1.1136  1.2328  0.6107
 9543SOL     OW40087   0.525   0.751   5.912  0.2940 -0.1623  0.3486
 9543SOL    HW140088   0.496   0.709   5.993 -0.3127  1.6799  1.0821
 9543SOL    HW240089   0.567   0.831   5.945 -2.6647  0.9752  1.3777
 9544SOL     OW40090   4.117   1.648  10.699 -0.2579 -0.4646  0.1206
 9544SOL    HW140091   4.083   1.677  10.783 -1.1823  0.4601 -0.5825
 9544SOL    HW240092   4.154   1.561  10.719  1.3118  0.2170  0.2131
 9545SOL     OW40093   2.184   1.647  17.308 -0.1907 -0.2963  0.2756
 9545SOL    HW140094   2.256   1.583  17.308  0.7193  0.7122 -0.4377
 9545SOL    HW240095   2.203   1.720  17.248 -0.9497  1.1392  1.8033
 9546SOL     OW40096   0.069   3.349  14.449 -0.4295  0.1726  0.1850
 9546SOL    HW140097   0.155   3.308  14.444 -0.3558  0.5002 -1.2155
 9546SOL    HW240098   0.087   3.436  14.486  0.1705 -0.3935  1.2291
 9547SOL     OW40099   4.692   1.289   4.222 -0.4363 -0.4570 -0.3497
 9547SOL    HW140100   4.695   1.384   4.233 -1.6071 -0.2608 -1.6701
 9547SOL    HW240101   0.062   1.273   4.196  0.3741  3.4993  0.0042
 9548SOL     OW40102   3.427   2.052  17.010  0.1799  0.9789  0.2715
 9548SOL    HW140103   3.349   2.001  16.986  0.7589  0.7903 -1.2352
 9548SOL    HW240104   3.434   2.023  17.100  1.7123 -1.1316 -0.5333
 9549SOL     OW40105   3.836   0.832   8.557  0.4567  0.2152  0.0983
 9549SOL    HW140106   3.789   0.914   8.541 -0.1309  0.1324  1.3845
 9549SOL    HW240107   3.804   0.781   8.482  1.4567 -1.9936  1.1657
 9550SOL     OW40108   0.846   0.900  14.710  0.6085 -0.2257  0.3490
 9550SOL    HW140109   0.832   0.887  14.617  2.1408  0.5566  0.0061
 9550SOL    HW240110   0.838   0.809  14.739 -1.0307  0.2814  1.5200
 9551SOL     OW40111   4.701   2.698   4.167  0.2528  0.6848 -0.1379
 9551SOL    HW140112   4.623   2.667   4.213  0.2021  4.3381  2.2971
 9551SOL    HW240113   0.055   2.648   4.201  1.5602  1.3416 -2.0781
 9552SOL     OW40114   2.486   1.484  13.036 -0.0743 -0.1859  0.4452
 9552SOL    HW140115   2.457   1.413  12.979 -2.7160  0.6170  0.7536
 9552SOL    HW240116   2.411   1.491  13.096 -1.0821 -0.1085 -0.8120
 9553SOL     OW40117   0.865   0.301   5.188  0.2702 -0.4736 -0.1274
 9553SOL    HW140118   0.824   0.256   5.114  0.2139  1.7169 -1.4319
 9553SOL    HW240119   0.851   0.233   5.254 -1.7246 -0.3095 -0.3900
 9554SOL     OW40120   1.404   1.911  11.599  0.1505  0.6677  0.2443
 9554SOL    HW140121   1.352   1.837  11.567 -0.8584  1.7874 -0.7210
 9554SOL    HW240122   1.366   1.978  11.542 -2.7423  0.1493  1.5493
 9555SOL     OW40123   1.480   4.472   3.215  0.5494  0.4183 -0.1401
 9555SOL    HW140124   1.439   4.436   3.136 -1.2406  1.4993  0.2845
 9555SOL    HW240125   1.565   4.428   3.219  0.6892  0.7667  0.8906
 9556SOL     OW40126   3.531   3.384   6.075  0.4792 -0.0824  1.0387
 9556SOL    HW140127   3.469   3.396   6.147 -4.1311 -1.7885 -2.6799
 9556SOL    HW240128   3.609   3.364   6.127  0.8284 -0.9335  0.1827
 9557SOL     OW40129   0.988   2.418   4.212 -0.3205 -0.1297 -0.5031
 9557SOL    HW140130   1.012   2.444   4.123  0.0661  2.7891  0.4607
 9557SOL    HW240131   0.895   2.396   4.200 -0.7867  1.2916  0.4994
 9558SOL     OW40132   4.682   3.571   8.398 -0.0473  0.7723  0.0532
 9558SOL    HW140133   4.701   3.509   8.468 -3.0210  0.0874  0.2706
 9558SOL    HW240134   4.705   3.506   8.332 -2.2744 -1.0237  1.0451
 9559SOL     OW40135   1.549   4.096  10.352 -0.6663  0.2032  0.1414
 9559SOL    HW140136   1.594   4.154  10.413 -2.6997  1.9643 -0.0514
 9559SOL    HW240137   1.592   4.133  10.274  0.0903  1.1216  1.0056
 9560SOL     OW40138   2.518   3.912  14.096 -0.0410 -0.1212 -0.5329
 9560SOL    HW140139   2.585   3.849  14.067  0.5215 -0.5928  1.8266
 9560SOL    HW240140   2.517   3.899  14.190  2.0902  2.1924 -0.1729
 9561SOL     OW40141   0.061   2.401   1.527  0.3279 -0.0484 -0.3418
 9561SOL    HW140142   0.096   2.427   1.612 -0.8405 -0.6106  0.3122
 9561SOL    HW240143   0.036   2.483   1.486  0.1385 -0.1506 -0.4306
 9562SOL     OW40144   4.255   1.893  11.518 -0.7146  0.2377  0.2213
 9562SOL    HW140145   4.232   1.970  11.570  0.2194 -1.0723  2.5689
 9562SOL    HW240146   4.169   1.858  11.496 -0.8359  0.1874  0.7777
 9563SOL     OW40147   3.081   1.562   5.710 -0.2167 -0.3647 -0.1264
 9563SOL    HW140148   3.159   1.507   5.718 -1.1884 -1.5377  1.1778
 9563SOL    HW240149   3.120   1.637   5.666 -0.4984 -0.9242 -1.3238
 9564SOL     OW40150   2.418   2.384   2.341  0.3988 -0.0681 -0.1573
 9564SOL    HW140151   2.443   2.315   2.402  0.8845  1.5152  1.4137
 9564SOL    HW240152   2.432   2.342   2.256 -3.1819 -0.9107 -0.3337
 9565SOL     OW40153   0.077   3.228   1.623 -0.0495 -0.1360 -0.0952
 9565SOL    HW140154   0.048   3.271   1.704  1.5424 -0.4300  0.6263
 9565SOL    HW240155   0.171   3.238   1.638 -0.2659 -0.4693  1.5014
   4.72055   4.72055  17.68474
